Generated by trjconv : CNT in water t= 470.00000
33518
    1C        C    1   2.843   2.772   4.747
    1C        C    2   2.896   2.719   4.866
    1C        C    3   2.842   2.771   4.985
    1C        C    4   2.846   2.772   4.260
    1C        C    5   2.901   2.728   4.383
    1C        C    6   2.845   2.771   4.505
    1C        C    7   3.011   2.638   4.627
    1C        C    8   2.896   2.720   4.626
    1C        C    9   3.073   2.597   4.748
    1C        C   10   3.005   2.629   4.867
    1C        C   11   3.185   2.500   4.980
    1C        C   12   3.063   2.569   4.980
    1C        C   13   2.846   2.766   3.773
    1C        C   14   2.898   2.717   3.894
    1C        C   15   2.845   2.769   4.015
    1C        C   16   3.017   2.647   4.140
    1C        C   17   2.899   2.725   4.137
    1C        C   18   3.080   2.614   4.262
    1C        C   19   3.016   2.647   4.384
    1C        C   20   3.207   2.557   4.505
    1C        C   21   3.075   2.607   4.506
    1C        C   22   3.276   2.533   4.625
    1C        C   23   3.205   2.544   4.746
    1C        C   24   3.414   2.490   4.865
    1C        C   25   3.272   2.512   4.867
    1C        C   26   3.493   2.480   4.981
    1C        C   27   2.844   2.765   3.283
    1C        C   28   2.901   2.721   3.405
    1C        C   29   2.850   2.770   3.528
    1C        C   30   3.016   2.639   3.651
    1C        C   31   2.903   2.723   3.650
    1C        C   32   3.075   2.602   3.774
    1C        C   33   3.012   2.633   3.896
    1C        C   34   3.205   2.548   4.017
    1C        C   35   3.074   2.602   4.019
    1C        C   36   3.276   2.532   4.138
    1C        C   37   3.211   2.561   4.260
    1C        C   38   3.416   2.513   4.383
    1C        C   39   3.277   2.540   4.383
    1C        C   40   3.488   2.509   4.505
    1C        C   41   3.417   2.515   4.627
    1C        C   42   3.631   2.481   4.742
    1C        C   43   3.489   2.488   4.745
    1C        C   44   3.706   2.485   4.861
    1C        C   45   3.632   2.477   4.980
    1C        C   46   2.833   2.749   2.796
    1C        C   47   2.888   2.706   2.918
    1C        C   48   2.841   2.761   3.040
    1C        C   49   3.017   2.640   3.163
    1C        C   50   2.899   2.718   3.162
    1C        C   51   3.080   2.609   3.285
    1C        C   52   3.017   2.641   3.407
    1C        C   53   3.209   2.552   3.529
    1C        C   54   3.078   2.603   3.529
    1C        C   55   3.276   2.528   3.651
    1C        C   56   3.206   2.549   3.772
    1C        C   57   3.413   2.508   3.896
    1C        C   58   3.274   2.531   3.895
    1C        C   59   3.486   2.506   4.017
    1C        C   60   3.415   2.509   4.139
    1C        C   61   3.626   2.498   4.258
    1C        C   62   3.485   2.499   4.261
    1C        C   63   3.699   2.510   4.379
    1C        C   64   3.628   2.500   4.501
    1C        C   65   3.837   2.541   4.621
    1C        C   66   3.702   2.499   4.621
    1C        C   67   3.906   2.561   4.742
    1C        C   68   3.841   2.525   4.862
    1C        C   69   4.051   2.583   4.979
    1C        C   70   3.922   2.528   4.976
    1C        C   71   2.824   2.731   2.309
    1C        C   72   2.884   2.692   2.430
    1C        C   73   2.831   2.744   2.551
    1C        C   74   3.004   2.624   2.674
    1C        C   75   2.884   2.699   2.674
    1C        C   76   3.071   2.599   2.795
    1C        C   77   3.010   2.634   2.918
    1C        C   78   3.204   2.547   3.036
    1C        C   79   3.075   2.604   3.039
    1C        C   80   3.274   2.530   3.158
    1C        C   81   3.208   2.549   3.282
    1C        C   82   3.413   2.503   3.403
    1C        C   83   3.274   2.530   3.405
    1C        C   84   3.484   2.498   3.525
    1C        C   85   3.416   2.508   3.649
    1C        C   86   3.624   2.506   3.768
    1C        C   87   3.483   2.501   3.773
    1C        C   88   3.696   2.513   3.890
    1C        C   89   3.628   2.510   4.013
    1C        C   90   3.835   2.545   4.134
    1C        C   91   3.697   2.514   4.136
    1C        C   92   3.903   2.569   4.255
    1C        C   93   3.836   2.542   4.377
    1C        C   94   4.029   2.628   4.500
    1C        C   95   3.905   2.560   4.499
    1C        C   96   4.094   2.665   4.620
    1C        C   97   4.033   2.626   4.741
    1C        C   98   4.191   2.763   4.862
    1C        C   99   4.098   2.654   4.864
    1C        C  100   4.212   2.842   4.976
    1C        C  101   2.825   2.731   2.070
    1C        C  102   2.988   2.586   2.191
    1C        C  103   2.876   2.676   2.189
    1C        C  104   3.057   2.564   2.313
    1C        C  105   3.004   2.617   2.433
    1C        C  106   3.200   2.534   2.552
    1C        C  107   3.070   2.589   2.554
    1C        C  108   3.270   2.515   2.674
    1C        C  109   3.200   2.542   2.794
    1C        C  110   3.410   2.499   2.913
    1C        C  111   3.271   2.523   2.914
    1C        C  112   3.482   2.495   3.035
    1C        C  113   3.412   2.501   3.158
    1C        C  114   3.624   2.503   3.279
    1C        C  115   3.483   2.498   3.280
    1C        C  116   3.695   2.510   3.401
    1C        C  117   3.625   2.506   3.524
    1C        C  118   3.833   2.543   3.646
    1C        C  119   3.695   2.513   3.646
    1C        C  120   3.902   2.565   3.767
    1C        C  121   3.834   2.544   3.889
    1C        C  122   4.026   2.634   4.011
    1C        C  123   3.901   2.568   4.011
    1C        C  124   4.088   2.671   4.133
    1C        C  125   4.027   2.636   4.255
    1C        C  126   4.194   2.764   4.377
    1C        C  127   4.087   2.671   4.378
    1C        C  128   4.239   2.820   4.498
    1C        C  129   4.198   2.760   4.620
    1C        C  130   4.322   2.935   4.739
    1C        C  131   4.240   2.819   4.741
    1C        C  132   4.353   3.002   4.860
    1C        C  133   4.287   2.959   4.976
    1C        C  134   3.172   2.478   2.077
    1C        C  135   3.037   2.514   2.078
    1C        C  136   3.257   2.488   2.188
    1C        C  137   3.191   2.516   2.310
    1C        C  138   3.404   2.480   2.429
    1C        C  139   3.265   2.506   2.430
    1C        C  140   3.479   2.479   2.548
    1C        C  141   3.410   2.496   2.670
    1C        C  142   3.622   2.487   2.790
    1C        C  143   3.481   2.488   2.791
    1C        C  144   3.693   2.502   2.912
    1C        C  145   3.623   2.500   3.035
    1C        C  146   3.831   2.544   3.154
    1C        C  147   3.694   2.510   3.157
    1C        C  148   3.897   2.565   3.277
    1C        C  149   3.833   2.541   3.401
    1C        C  150   4.026   2.626   3.522
    1C        C  151   3.899   2.564   3.523
    1C        C  152   4.085   2.667   3.643
    1C        C  153   4.029   2.627   3.767
    1C        C  154   4.199   2.754   3.886
    1C        C  155   4.090   2.664   3.889
    1C        C  156   4.243   2.809   4.008
    1C        C  157   4.198   2.760   4.133
    1C        C  158   4.336   2.921   4.252
    1C        C  159   4.248   2.810   4.255
    1C        C  160   4.373   2.983   4.374
    1C        C  161   4.329   2.928   4.496
    1C        C  162   4.433   3.116   4.614
    1C        C  163   4.365   2.992   4.617
    1C        C  164   4.460   3.184   4.735
    1C        C  165   4.426   3.122   4.857
    1C        C  166   4.512   3.320   4.970
    1C        C  167   4.476   3.185   4.972
    1C        C  168   3.473   2.440   2.074
    1C        C  169   3.397   2.465   2.188
    1C        C  170   3.616   2.469   2.304
    1C        C  171   3.474   2.469   2.306
    1C        C  172   3.690   2.488   2.423
    1C        C  173   3.620   2.486   2.545
    1C        C  174   3.827   2.533   2.666
    1C        C  175   3.691   2.494   2.667
    1C        C  176   3.894   2.561   2.787
    1C        C  177   3.829   2.539   2.911
    1C        C  178   4.025   2.625   3.028
    1C        C  179   3.898   2.565   3.032
    1C        C  180   4.084   2.662   3.151
    1C        C  181   4.024   2.626   3.274
    1C        C  182   4.194   2.749   3.397
    1C        C  183   4.084   2.661   3.398
    1C        C  184   4.246   2.801   3.518
    1C        C  185   4.196   2.755   3.642
    1C        C  186   4.339   2.913   3.765
    1C        C  187   4.250   2.803   3.764
    1C        C  188   4.377   2.975   3.887
    1C        C  189   4.333   2.917   4.008
    1C        C  190   4.437   3.105   4.128
    1C        C  191   4.374   2.979   4.129
    1C        C  192   4.462   3.173   4.249
    1C        C  193   4.437   3.109   4.372
    1C        C  194   4.504   3.313   4.489
    1C        C  195   4.470   3.176   4.491
    1C        C  196   4.524   3.385   4.610
    1C        C  197   4.506   3.319   4.733
    1C        C  198   4.556   3.534   4.849
    1C        C  199   4.529   3.393   4.852
    1C        C  200   4.587   3.619   4.959
    1C        C  201   3.613   2.423   2.071
    1C        C  202   3.825   2.513   2.181
    1C        C  203   3.691   2.462   2.184
    1C        C  204   3.897   2.539   2.301
    1C        C  205   3.827   2.522   2.423
    1C        C  206   4.017   2.624   2.539
    1C        C  207   3.891   2.561   2.543
    1C        C  208   4.081   2.657   2.661
    1C        C  209   4.020   2.625   2.784
    1C        C  210   4.196   2.747   2.905
    1C        C  211   4.085   2.660   2.904
    1C        C  212   4.247   2.795   3.028
    1C        C  213   4.195   2.748   3.151
    1C        C  214   4.331   2.909   3.271
    1C        C  215   4.245   2.796   3.274
    1C        C  216   4.369   2.969   3.393
    1C        C  217   4.330   2.914   3.518
    1C        C  218   4.436   3.096   3.639
    1C        C  219   4.372   2.970   3.640
    1C        C  220   4.462   3.165   3.760
    1C        C  221   4.439   3.102   3.884
    1C        C  222   4.498   3.307   4.004
    1C        C  223   4.462   3.170   4.005
    1C        C  224   4.510   3.379   4.125
    1C        C  225   4.500   3.309   4.247
    1C        C  226   4.522   3.524   4.365
    1C        C  227   4.516   3.383   4.367
    1C        C  228   4.517   3.595   4.487
    1C        C  229   4.530   3.526   4.609
    1C        C  230   4.502   3.742   4.727
    1C        C  231   4.537   3.604   4.727
    1C        C  232   4.498   3.821   4.844
    1C        C  233   4.550   3.754   4.956
    1C        C  234   4.018   2.605   2.059
    1C        C  235   3.893   2.544   2.063
    1C        C  236   4.081   2.650   2.176
    1C        C  237   4.021   2.610   2.298
    1C        C  238   4.200   2.733   2.416
    1C        C  239   4.082   2.653   2.417
    1C        C  240   4.250   2.784   2.537
    1C        C  241   4.195   2.741   2.660
    1C        C  242   4.339   2.899   2.783
    1C        C  243   4.250   2.790   2.781
    1C        C  244   4.378   2.960   2.905
    1C        C  245   4.338   2.903   3.027
    1C        C  246   4.436   3.093   3.147
    1C        C  247   4.373   2.966   3.149
    1C        C  248   4.459   3.158   3.270
    1C        C  249   4.430   3.096   3.394
    1C        C  250   4.492   3.299   3.513
    1C        C  251   4.457   3.162   3.515
    1C        C  252   4.501   3.370   3.635
    1C        C  253   4.492   3.303   3.759
    1C        C  254   4.518   3.515   3.877
    1C        C  255   4.509   3.374   3.880
    1C        C  256   4.514   3.588   3.998
    1C        C  257   4.518   3.520   4.122
    1C        C  258   4.491   3.733   4.241
    1C        C  259   4.514   3.594   4.242
    1C        C  260   4.473   3.803   4.363
    1C        C  261   4.488   3.733   4.485
    1C        C  262   4.421   3.938   4.603
    1C        C  263   4.474   3.807   4.605
    1C        C  264   4.395   4.006   4.723
    1C        C  265   4.436   3.948   4.845
    1C        C  266   4.322   4.131   4.964
    1C        C  267   4.399   4.015   4.962
    1C        C  268   4.263   2.775   2.060
    1C        C  269   4.196   2.731   2.176
    1C        C  270   4.341   2.893   2.297
    1C        C  271   4.255   2.780   2.294
    1C        C  272   4.380   2.955   2.418
    1C        C  273   4.344   2.889   2.538
    1C        C  274   4.441   3.080   2.658
    1C        C  275   4.380   2.953   2.659
    1C        C  276   4.472   3.148   2.778
    1C        C  277   4.446   3.084   2.901
    1C        C  278   4.502   3.289   3.026
    1C        C  279   4.470   3.151   3.023
    1C        C  280   4.508   3.363   3.146
    1C        C  281   4.498   3.294   3.269
    1C        C  282   4.514   3.508   3.388
    1C        C  283   4.509   3.367   3.390
    1C        C  284   4.508   3.578   3.510
    1C        C  285   4.511   3.510   3.635
    1C        C  286   4.488   3.724   3.751
    1C        C  287   4.514   3.585   3.754
    1C        C  288   4.470   3.793   3.874
    1C        C  289   4.491   3.727   3.997
    1C        C  290   4.426   3.933   4.118
    1C        C  291   4.473   3.799   4.118
    1C        C  292   4.401   4.003   4.238
    1C        C  293   4.426   3.936   4.360
    1C        C  294   4.326   4.126   4.483
    1C        C  295   4.394   4.003   4.480
    1C        C  296   4.285   4.190   4.602
    1C        C  297   4.324   4.130   4.724
    1C        C  298   4.193   4.305   4.840
    1C        C  299   4.280   4.191   4.844
    1C        C  300   4.164   4.399   4.944
    1C        C  301   4.350   2.883   2.060
    1C        C  302   4.474   3.065   2.178
    1C        C  303   4.395   2.946   2.176
    1C        C  304   4.482   3.143   2.297
    1C        C  305   4.443   3.081   2.418
    1C        C  306   4.507   3.286   2.536
    1C        C  307   4.472   3.149   2.538
    1C        C  308   4.519   3.355   2.658
    1C        C  309   4.502   3.286   2.781
    1C        C  310   4.518   3.498   2.899
    1C        C  311   4.513   3.357   2.903
    1C        C  312   4.513   3.572   3.019
    1C        C  313   4.512   3.504   3.143
    1C        C  314   4.484   3.715   3.262
    1C        C  315   4.510   3.576   3.264
    1C        C  316   4.469   3.784   3.385
    1C        C  317   4.486   3.718   3.508
    1C        C  318   4.433   3.927   3.627
    1C        C  319   4.471   3.791   3.628
    1C        C  320   4.400   3.991   3.749
    1C        C  321   4.425   3.926   3.872
    1C        C  322   4.324   4.114   3.989
    1C        C  323   4.397   3.993   3.994
    1C        C  324   4.282   4.170   4.112
    1C        C  325   4.327   4.123   4.238
    1C        C  326   4.191   4.287   4.352
    1C        C  327   4.284   4.181   4.360
    1C        C  328   4.137   4.336   4.473
    1C        C  329   4.190   4.294   4.597
    1C        C  330   4.023   4.432   4.713
    1C        C  331   4.138   4.349   4.717
    1C        C  332   3.968   4.490   4.829
    1C        C  333   4.047   4.476   4.944
    1C        C  334   4.550   3.266   2.061
    1C        C  335   4.534   3.127   2.063
    1C        C  336   4.535   3.351   2.171
    1C        C  337   4.511   3.282   2.292
    1C        C  338   4.523   3.496   2.412
    1C        C  339   4.515   3.355   2.413
    1C        C  340   4.515   3.566   2.535
    1C        C  341   4.522   3.496   2.657
    1C        C  342   4.495   3.709   2.772
    1C        C  343   4.517   3.570   2.777
    1C        C  344   4.477   3.780   2.894
    1C        C  345   4.491   3.712   3.017
    1C        C  346   4.424   3.914   3.138
    1C        C  347   4.464   3.779   3.138
    1C        C  348   4.391   3.979   3.259
    1C        C  349   4.423   3.918   3.383
    1C        C  350   4.325   4.106   3.500
    1C        C  351   4.400   3.987   3.504
    1C        C  352   4.280   4.163   3.621
    1C        C  353   4.322   4.109   3.745
    1C        C  354   4.178   4.265   3.865
    1C        C  355   4.280   4.167   3.866
    1C        C  356   4.124   4.313   3.986
    1C        C  357   4.178   4.266   4.108
    1C        C  358   4.013   4.399   4.230
    1C        C  359   4.130   4.320   4.229
    1C        C  360   3.948   4.436   4.350
    1C        C  361   4.017   4.410   4.471
    1C        C  362   3.825   4.508   4.592
    1C        C  363   3.956   4.453   4.590
    1C        C  364   3.760   4.548   4.710
    1C        C  365   3.837   4.544   4.828
    1C        C  366   3.629   4.596   4.946
    1C        C  367   3.767   4.574   4.946
    1C        C  368   4.509   3.571   2.055
    1C        C  369   4.524   3.492   2.170
    1C        C  370   4.506   3.707   2.286
    1C        C  371   4.520   3.566   2.290
    1C        C  372   4.490   3.776   2.407
    1C        C  373   4.498   3.706   2.530
    1C        C  374   4.433   3.912   2.649
    1C        C  375   4.480   3.778   2.650
    1C        C  376   4.399   3.975   2.771
    1C        C  377   4.427   3.912   2.894
    1C        C  378   4.321   4.097   3.012
    1C        C  379   4.399   3.979   3.015
    1C        C  380   4.272   4.151   3.133
    1C        C  381   4.317   4.099   3.256
    1C        C  382   4.177   4.259   3.378
    1C        C  383   4.278   4.160   3.378
    1C        C  384   4.122   4.304   3.499
    1C        C  385   4.178   4.261   3.621
    1C        C  386   4.006   4.386   3.743
    1C        C  387   4.125   4.311   3.742
    1C        C  388   3.944   4.428   3.864
    1C        C  389   4.007   4.392   3.985
    1C        C  390   3.818   4.486   4.107
    1C        C  391   3.948   4.429   4.108
    1C        C  392   3.748   4.511   4.228
    1C        C  393   3.818   4.491   4.349
    1C        C  394   3.616   4.551   4.472
    1C        C  395   3.753   4.520   4.471
    1C        C  396   3.545   4.567   4.594
    1C        C  397   3.620   4.564   4.714
    1C        C  398   3.408   4.550   4.839
    1C        C  399   3.547   4.573   4.835
    1C        C  400   3.338   4.517   4.956
    1C        C  401   4.503   3.710   2.049
    1C        C  402   4.454   3.918   2.167
    1C        C  403   4.497   3.784   2.168
    1C        C  404   4.413   3.977   2.288
    1C        C  405   4.440   3.908   2.408
    1C        C  406   4.323   4.092   2.525
    1C        C  407   4.403   3.976   2.527
    1C        C  408   4.280   4.149   2.647
    1C        C  409   4.324   4.095   2.770
    1C        C  410   4.171   4.247   2.888
    1C        C  411   4.276   4.152   2.890
    1C        C  412   4.121   4.297   3.011
    1C        C  413   4.174   4.253   3.134
    1C        C  414   4.003   4.378   3.252
    1C        C  415   4.119   4.298   3.255
    1C        C  416   3.942   4.411   3.376
    1C        C  417   4.002   4.380   3.500
    1C        C  418   3.812   4.474   3.619
    1C        C  419   3.943   4.420   3.621
    1C        C  420   3.744   4.496   3.741
    1C        C  421   3.811   4.475   3.863
    1C        C  422   3.609   4.528   3.986
    1C        C  423   3.747   4.501   3.986
    1C        C  424   3.539   4.535   4.109
    1C        C  425   3.609   4.534   4.231
    1C        C  426   3.399   4.556   4.357
    1C        C  427   3.540   4.557   4.353
    1C        C  428   3.330   4.552   4.480
    1C        C  429   3.404   4.562   4.600
    1C        C  430   3.192   4.521   4.722
    1C        C  431   3.332   4.546   4.720
    1C        C  432   3.120   4.502   4.843
    1C        C  433   3.201   4.497   4.958
    1C        C  434   4.388   4.127   2.053
    1C        C  435   4.445   3.999   2.053
    1C        C  436   4.303   4.162   2.162
    1C        C  437   4.337   4.098   2.284
    1C        C  438   4.182   4.250   2.403
    1C        C  439   4.282   4.150   2.403
    1C        C  440   4.126   4.294   2.524
    1C        C  441   4.178   4.247   2.647
    1C        C  442   4.002   4.372   2.764
    1C        C  443   4.120   4.294   2.766
    1C        C  444   3.940   4.406   2.886
    1C        C  445   4.000   4.369   3.009
    1C        C  446   3.806   4.458   3.131
    1C        C  447   3.937   4.406   3.130
    1C        C  448   3.741   4.482   3.255
    1C        C  449   3.811   4.463   3.376
    1C        C  450   3.607   4.530   3.495
    1C        C  451   3.744   4.492   3.497
    1C        C  452   3.538   4.535   3.618
    1C        C  453   3.605   4.524   3.742
    1C        C  454   3.396   4.538   3.867
    1C        C  455   3.537   4.539   3.865
    1C        C  456   3.327   4.533   3.990
    1C        C  457   3.398   4.540   4.112
    1C        C  458   3.190   4.512   4.237
    1C        C  459   3.329   4.539   4.235
    1C        C  460   3.124   4.491   4.360
    1C        C  461   3.193   4.518   4.480
    1C        C  462   2.993   4.441   4.604
    1C        C  463   3.123   4.496   4.601
    1C        C  464   2.928   4.403   4.724
    1C        C  465   2.989   4.445   4.845
    1C        C  466   2.805   4.333   4.962
    1C        C  467   2.904   4.432   4.960
    1C        C  468   4.122   4.285   2.041
    1C        C  469   4.189   4.249   2.159
    1C        C  470   4.005   4.364   2.280
    1C        C  471   4.128   4.293   2.280
    1C        C  472   3.937   4.396   2.400
    1C        C  473   4.006   4.368   2.520
    1C        C  474   3.808   4.454   2.645
    1C        C  475   3.938   4.400   2.640
    1C        C  476   3.742   4.488   2.765
    1C        C  477   3.810   4.462   2.886
    1C        C  478   3.604   4.514   3.008
    1C        C  479   3.741   4.480   3.008
    1C        C  480   3.532   4.526   3.129
    1C        C  481   3.603   4.511   3.251
    1C        C  482   3.394   4.534   3.377
    1C        C  483   3.535   4.532   3.373
    1C        C  484   3.324   4.530   3.500
    1C        C  485   3.397   4.534   3.621
    1C        C  486   3.189   4.507   3.747
    1C        C  487   3.328   4.530   3.744
    1C        C  488   3.123   4.480   3.869
    1C        C  489   3.188   4.507   3.992
    1C        C  490   2.998   4.422   4.117
    1C        C  491   3.120   4.492   4.115
    1C        C  492   2.940   4.387   4.241
    1C        C  493   2.995   4.435   4.362
    1C        C  494   2.827   4.306   4.482
    1C        C  495   2.932   4.400   4.483
    1C        C  496   2.775   4.258   4.604
    1C        C  497   2.815   4.317   4.726
    1C        C  498   2.665   4.165   4.846
    1C        C  499   2.751   4.278   4.846
    1C        C  500   2.596   4.115   4.957
    1C        C  501   4.001   4.354   2.040
    1C        C  502   3.813   4.459   2.159
    1C        C  503   3.942   4.400   2.159
    1C        C  504   3.740   4.478   2.278
    1C        C  505   3.806   4.447   2.399
    1C        C  506   3.604   4.507   2.520
    1C        C  507   3.741   4.472   2.522
    1C        C  508   3.533   4.514   2.642
    1C        C  509   3.603   4.513   2.764
    1C        C  510   3.391   4.522   2.885
    1C        C  511   3.533   4.526   2.886
    1C        C  512   3.322   4.518   3.009
    1C        C  513   3.391   4.530   3.131
    1C        C  514   3.185   4.500   3.255
    1C        C  515   3.323   4.526   3.255
    1C        C  516   3.119   4.478   3.378
    1C        C  517   3.186   4.499   3.500
    1C        C  518   2.998   4.414   3.626
    1C        C  519   3.122   4.482   3.625
    1C        C  520   2.937   4.378   3.748
    1C        C  521   2.999   4.412   3.870
    1C        C  522   2.835   4.285   3.995
    1C        C  523   2.944   4.376   3.995
    1C        C  524   2.790   4.236   4.119
    1C        C  525   2.835   4.292   4.241
    1C        C  526   2.694   4.134   4.364
    1C        C  527   2.778   4.248   4.362
    1C        C  528   2.657   4.076   4.487
    1C        C  529   2.696   4.141   4.606
    1C        C  530   2.591   3.959   4.733
    1C        C  531   2.648   4.089   4.729
    1C        C  532   2.549   3.898   4.854
    1C        C  533   2.526   3.993   4.959
    1C        C  534   3.620   4.554   2.039
    1C        C  535   3.752   4.507   2.043
    1C        C  536   3.535   4.533   2.152
    1C        C  537   3.600   4.507   2.276
    1C        C  538   3.391   4.525   2.401
    1C        C  539   3.532   4.519   2.398
    1C        C  540   3.318   4.518   2.522
    1C        C  541   3.392   4.517   2.642
    1C        C  542   3.181   4.487   2.765
    1C        C  543   3.320   4.511   2.764
    1C        C  544   3.115   4.468   2.888
    1C        C  545   3.184   4.491   3.009
    1C        C  546   2.993   4.407   3.134
    1C        C  547   3.117   4.475   3.133
    1C        C  548   2.937   4.369   3.258
    1C        C  549   2.994   4.411   3.380
    1C        C  550   2.826   4.288   3.506
    1C        C  551   2.936   4.377   3.504
    1C        C  552   2.777   4.237   3.628
    1C        C  553   2.829   4.287   3.749
    1C        C  554   2.701   4.121   3.876
    1C        C  555   2.784   4.236   3.873
    1C        C  556   2.663   4.064   3.999
    1C        C  557   2.705   4.124   4.120
    1C        C  558   2.604   3.939   4.245
    1C        C  559   2.664   4.067   4.243
    1C        C  560   2.580   3.875   4.369
    1C        C  561   2.603   3.945   4.489
    1C        C  562   2.539   3.748   4.615
    1C        C  563   2.576   3.884   4.614
    1C        C  564   2.521   3.678   4.737
    1C        C  565   2.525   3.757   4.855
    1C        C  566   2.521   3.542   4.978
    1C        C  567   2.515   3.680   4.972
    1C        C  568   3.327   4.471   2.042
    1C        C  569   3.394   4.513   2.157
    1C        C  570   3.183   4.478   2.279
    1C        C  571   3.320   4.516   2.279
    1C        C  572   3.116   4.457   2.401
    1C        C  573   3.182   4.483   2.523
    1C        C  574   2.984   4.402   2.647
    1C        C  575   3.112   4.463   2.644
    1C        C  576   2.925   4.365   2.770
    1C        C  577   2.990   4.401   2.891
    1C        C  578   2.825   4.274   3.016
    1C        C  579   2.929   4.370   3.014
    1C        C  580   2.780   4.226   3.141
    1C        C  581   2.830   4.277   3.263
    1C        C  582   2.697   4.115   3.383
    1C        C  583   2.782   4.228   3.386
    1C        C  584   2.659   4.059   3.507
    1C        C  585   2.700   4.118   3.629
    1C        C  586   2.606   3.932   3.755
    1C        C  587   2.666   4.060   3.753
    1C        C  588   2.582   3.868   3.878
    1C        C  589   2.612   3.932   4.000
    1C        C  590   2.545   3.734   4.128
    1C        C  591   2.586   3.869   4.124
    1C        C  592   2.531   3.667   4.252
    1C        C  593   2.544   3.739   4.373
    1C        C  594   2.512   3.532   4.497
    1C        C  595   2.527   3.673   4.496
    1C        C  596   2.520   3.462   4.619
    1C        C  597   2.515   3.536   4.739
    1C        C  598   2.528   3.324   4.862
    1C        C  599   2.520   3.465   4.861
    1C        C  600   2.532   3.247   4.979
    1C        C  601   3.192   4.441   2.041
    1C        C  602   2.982   4.395   2.161
    1C        C  603   3.116   4.446   2.158
    1C        C  604   2.923   4.358   2.285
    1C        C  605   2.987   4.400   2.404
    1C        C  606   2.817   4.271   2.528
    1C        C  607   2.923   4.365   2.525
    1C        C  608   2.769   4.223   2.651
    1C        C  609   2.816   4.276   2.773
    1C        C  610   2.689   4.107   2.896
    1C        C  611   2.774   4.221   2.896
    1C        C  612   2.657   4.049   3.021
    1C        C  613   2.696   4.112   3.141
    1C        C  614   2.595   3.924   3.266
    1C        C  615   2.657   4.051   3.263
    1C        C  616   2.576   3.862   3.391
    1C        C  617   2.603   3.929   3.513
    1C        C  618   2.536   3.728   3.640
    1C        C  619   2.576   3.864   3.635
    1C        C  620   2.525   3.659   3.762
    1C        C  621   2.535   3.734   3.882
    1C        C  622   2.513   3.526   4.009
    1C        C  623   2.526   3.667   4.005
    1C        C  624   2.516   3.455   4.131
    1C        C  625   2.517   3.526   4.253
    1C        C  626   2.539   3.319   4.381
    1C        C  627   2.513   3.458   4.377
    1C        C  628   2.559   3.251   4.503
    1C        C  629   2.542   3.322   4.624
    1C        C  630   2.585   3.112   4.744
    1C        C  631   2.545   3.249   4.744
    1C        C  632   2.615   3.049   4.868
    1C        C  633   2.564   3.110   4.987
    1C        C  634   2.782   4.306   2.052
    1C        C  635   2.891   4.393   2.050
    1C        C  636   2.745   4.232   2.166
    1C        C  637   2.807   4.276   2.285
    1C        C  638   2.676   4.111   2.410
    1C        C  639   2.761   4.224   2.408
    1C        C  640   2.644   4.047   2.532
    1C        C  641   2.685   4.109   2.653
    1C        C  642   2.590   3.918   2.776
    1C        C  643   2.653   4.044   2.774
    1C        C  644   2.570   3.855   2.901
    1C        C  645   2.597   3.922   3.023
    1C        C  646   2.527   3.721   3.148
    1C        C  647   2.569   3.856   3.145
    1C        C  648   2.522   3.653   3.272
    1C        C  649   2.538   3.727   3.392
    1C        C  650   2.518   3.520   3.519
    1C        C  651   2.522   3.661   3.516
    1C        C  652   2.519   3.450   3.641
    1C        C  653   2.516   3.518   3.765
    1C        C  654   2.532   3.311   3.893
    1C        C  655   2.511   3.451   3.889
    1C        C  656   2.551   3.244   4.016
    1C        C  657   2.539   3.316   4.137
    1C        C  658   2.597   3.114   4.258
    1C        C  659   2.553   3.248   4.260
    1C        C  660   2.629   3.052   4.381
    1C        C  661   2.602   3.116   4.504
    1C        C  662   2.712   2.937   4.626
    1C        C  663   2.623   3.047   4.625
    1C        C  664   2.749   2.878   4.749
    1C        C  665   2.700   2.934   4.871
    1C        C  666   2.746   2.871   4.987
    1C        C  667   2.677   4.025   2.053
    1C        C  668   2.686   4.104   2.168
    1C        C  669   2.596   3.910   2.294
    1C        C  670   2.649   4.042   2.290
    1C        C  671   2.562   3.847   2.416
    1C        C  672   2.584   3.920   2.535
    1C        C  673   2.523   3.715   2.661
    1C        C  674   2.557   3.852   2.656
    1C        C  675   2.515   3.646   2.784
    1C        C  676   2.532   3.719   2.904
    1C        C  677   2.507   3.510   3.030
    1C        C  678   2.515   3.651   3.026
    1C        C  679   2.512   3.441   3.153
    1C        C  680   2.512   3.512   3.275
    1C        C  681   2.532   3.305   3.404
    1C        C  682   2.514   3.445   3.399
    1C        C  683   2.548   3.237   3.527
    1C        C  684   2.534   3.310   3.647
    1C        C  685   2.603   3.111   3.770
    1C        C  686   2.553   3.243   3.771
    1C        C  687   2.633   3.049   3.893
    1C        C  688   2.602   3.112   4.016
    1C        C  689   2.712   2.932   4.138
    1C        C  690   2.630   3.047   4.138
    1C        C  691   2.754   2.879   4.262
    1C        C  692   2.704   2.932   4.383
    1C        C  693   2.753   2.879   4.505
    1C        C  694   2.625   3.895   2.057
    1C        C  695   2.530   3.704   2.177
    1C        C  696   2.580   3.836   2.175
    1C        C  697   2.512   3.635   2.299
    1C        C  698   2.524   3.711   2.418
    1C        C  699   2.497   3.502   2.542
    1C        C  700   2.506   3.643   2.540
    1C        C  701   2.504   3.432   2.664
    1C        C  702   2.505   3.505   2.785
    1C        C  703   2.524   3.297   2.908
    1C        C  704   2.507   3.437   2.909
    1C        C  705   2.543   3.233   3.033
    1C        C  706   2.531   3.301   3.156
    1C        C  707   2.594   3.104   3.279
    1C        C  708   2.545   3.237   3.281
    1C        C  709   2.631   3.044   3.402
    1C        C  710   2.599   3.106   3.525
    1C        C  711   2.709   2.928   3.649
    1C        C  712   2.628   3.044   3.649
    1C        C  713   2.754   2.873   3.771
    1C        C  714   2.706   2.928   3.892
    1C        C  715   2.752   2.875   4.015
    1C        C  716   2.452   3.500   2.062
    1C        C  717   2.488   3.635   2.063
    1C        C  718   2.466   3.423   2.182
    1C        C  719   2.486   3.495   2.303
    1C        C  720   2.514   3.284   2.423
    1C        C  721   2.492   3.424   2.424
    1C        C  722   2.535   3.218   2.546
    1C        C  723   2.526   3.292   2.666
    1C        C  724   2.587   3.090   2.789
    1C        C  725   2.543   3.224   2.788
    1C        C  726   2.619   3.031   2.914
    1C        C  727   2.595   3.102   3.034
    1C        C  728   2.700   2.921   3.160
    1C        C  729   2.622   3.039   3.157
    1C        C  730   2.749   2.869   3.282
    1C        C  731   2.703   2.923   3.404
    1C        C  732   2.753   2.873   3.527
    1C        C  733   2.490   3.196   2.072
    1C        C  734   2.488   3.281   2.183
    1C        C  735   2.580   3.081   2.302
    1C        C  736   2.530   3.214   2.302
    1C        C  737   2.610   3.017   2.424
    1C        C  738   2.584   3.085   2.545
    1C        C  739   2.695   2.907   2.670
    1C        C  740   2.613   3.022   2.668
    1C        C  741   2.740   2.856   2.794
    1C        C  742   2.697   2.914   2.915
    1C        C  743   2.744   2.863   3.039
    1C        C  744   2.545   3.068   2.069
    1C        C  745   2.685   2.894   2.185
    1C        C  746   2.605   3.010   2.182
    1C        C  747   2.730   2.838   2.306
    1C        C  748   2.689   2.900   2.426
    1C        C  749   2.736   2.848   2.549
    1C        C  750   2.734   2.835   2.067
    1C        C  751   3.666   2.338   1.962
    1C        O  752   3.770   2.268   1.972
    1C        O  753   3.626   2.340   1.827
    1C        C  754   4.616   3.050   1.967
    1C        O  755   4.650   3.096   1.855
    1C        O  756   4.707   2.951   2.007
    1C        C  757   4.478   4.231   1.998
    1C        O  758   4.580   4.273   2.059
    1C        O  759   4.440   4.313   1.892
    1C        C  760   3.588   4.662   1.943
    1C        O  761   3.569   4.780   1.982
    1C        O  762   3.611   4.650   1.805
    1C        C  763   2.869   4.505   1.956
    1C        O  764   2.854   4.473   1.835
    1C        O  765   2.814   4.623   2.006
    1C        C  766   2.343   3.473   1.966
    1C        O  767   2.358   3.491   1.842
    1C        O  768   2.208   3.484   2.004
    1C        C  769   4.680   3.583   5.069
    1C        O  770   4.650   3.609   5.189
    1C        O  771   4.815   3.613   5.050
    1C        C  772   4.275   4.446   5.029
    1C        O  773   4.277   4.422   5.153
    1C        O  774   4.359   4.555   5.003
    1C        C  775   4.129   2.550   5.100
    1C        O  776   4.198   2.444   5.094
    1C        O  777   4.104   2.592   5.232
    1C        C  778   2.900   4.548   5.053
    1C        O  779   2.847   4.654   5.011
    1C        O  780   2.926   4.535   5.190
    1C        C  781   2.456   3.039   5.060
    1C        O  782   2.354   2.997   4.999
    1C        O  783   2.477   2.986   5.187
    1C        C  784   2.410   3.992   5.051
    1C        O  785   2.303   4.057   5.034
    1C        O  786   2.424   3.970   5.189
    1C        C  787   2.941   2.413   2.026
    1C        O  788   2.929   2.379   1.906
    1C        O  789   2.873   2.325   2.109
    1C        C  790   3.198   2.402   5.090
    1C        O  791   3.153   2.285   5.075
    1C        O  792   3.219   2.448   5.220
    1C        H  793   4.248   3.037   5.038
    1C        H  794   4.179   2.806   5.071
    1C        H  795   4.526   3.120   5.040
    1C        H  796   4.488   3.371   5.061
    1C        H  797   4.574   3.811   5.043
    1C        H  798   4.409   3.973   5.060
    1C        H  799   4.263   4.149   5.052
    1C        H  800   4.028   4.530   5.034
    1C        H  801   3.824   4.609   5.029
    1C        H  802   3.592   4.658   5.025
    1C        H  803   3.392   4.458   5.028
    1C        H  804   3.168   4.448   5.046
    1C        H  805   3.903   2.457   5.054
    1C        H  806   3.676   2.427   5.064
    1C        H  807   3.021   2.592   5.076
    1C        H  808   3.446   2.459   5.074
    1C        H  809   2.855   2.718   5.077
    1C        H  810   2.695   2.893   5.079
    1C        H  811   2.507   3.296   5.071
    1C        H  812   2.542   3.498   5.073
    1C        H  813   2.517   3.730   5.067
    1C        H  814   2.562   4.189   5.025
    1C        H  815   2.767   4.306   5.058
    1C        H  816   2.670   2.839   1.982
    1C        H  817   2.867   2.700   1.976
    1C        H  818   3.205   2.422   1.992
    1C        H  819   3.419   2.408   1.987
    1C        H  820   3.855   2.513   1.968
    1C        H  821   4.085   2.552   1.995
    1C        H  822   4.266   2.706   1.979
    1C        H  823   4.408   2.892   1.970
    1C        H  824   4.532   3.313   1.967
    1C        H  825   4.526   3.527   1.959
    1C        H  826   4.557   3.753   1.967
    1C        H  827   3.814   4.551   1.968
    1C        H  828   3.953   4.367   1.946
    1C        H  829   4.173   4.282   1.947
    1C        H  830   4.507   3.972   1.970
    1C        H  831   2.667   3.831   1.982
    1C        H  832   2.677   4.067   1.955
    1C        H  833   2.716   4.300   1.968
    1C        H  834   3.371   4.499   1.948
    1C        H  835   3.154   4.376   1.965
    1C        H  836   2.513   3.001   1.992
    1C        H  837   2.414   3.214   1.999
    1C        H  838   2.458   3.695   1.979
    2V3OU   H29  839   2.807   3.540   5.225
    2V3OU   C27  840   2.779   3.498   5.325
    2V3OU   H27  841   2.726   3.575   5.387
    2V3OU   H28  842   2.724   3.402   5.309
    2V3OU   O11  843   2.905   3.476   5.388
    2V3OU   C15  844   2.917   3.400   5.502
    2V3OU   C13  845   3.046   3.376   5.552
    2V3OU   C14  846   3.075   3.270   5.638
    2V3OU   C16  847   2.971   3.190   5.684
    2V3OU    H6  848   2.989   3.105   5.751
    2V3OU   C12  849   3.211   3.236   5.686
    2V3OU    O2  850   3.237   3.129   5.745
    2V3OU   C10  851   3.327   3.310   5.633
    2V3OU    C8  852   3.459   3.273   5.655
    2V3OU   O10  853   3.487   3.157   5.720
    2V3OU   H26  854   3.402   3.121   5.749
    2V3OU    C6  855   3.564   3.351   5.597
    2V3OU    C5  856   3.537   3.465   5.522
    2V3OU    C4  857   3.703   3.296   5.601
    2V3OU    H4  858   3.725   3.229   5.688
    2V3OU    H5  859   3.705   3.230   5.509
    2V3OU    C2  860   3.815   3.400   5.594
    2V3OU    O6  861   3.815   3.480   5.712
    2V3OU   H21  862   3.763   3.560   5.692
    2V3OU    C3  863   3.783   3.497   5.480
    2V3OU    H2  864   3.864   3.574   5.485
    2V3OU    H3  865   3.784   3.439   5.384
    2V3OU   C25  866   3.946   3.325   5.572
    2V3OU    O7  867   3.998   3.294   5.465
    2V3OU   C26  868   4.026   3.287   5.696
    2V3OU   H22  869   4.069   3.382   5.736
    2V3OU   H23  870   4.112   3.221   5.668
    2V3OU    O8  871   3.954   3.208   5.788
    2V3OU   H24  872   3.928   3.263   5.864
    2V3OU    C1  873   3.646   3.563   5.489
    2V3OU    H1  874   3.628   3.619   5.393
    2V3OU    O3  875   3.654   3.658   5.596
    2V3OU   C19  876   3.615   3.794   5.578
    2V3OU    H9  877   3.513   3.796   5.529
    2V3OU    O4  878   3.711   3.851   5.491
    2V3OU   C20  879   3.841   3.879   5.545
    2V3OU   H10  880   3.888   3.776   5.551
    2V3OU   C24  881   3.608   3.858   5.716
    2V3OU   H16  882   3.548   3.793   5.785
    2V3OU   H17  883   3.555   3.957   5.718
    2V3OU   C23  884   3.748   3.876   5.776
    2V3OU   H15  885   3.794   3.774   5.796
    2V3OU    N1  886   3.735   3.953   5.898
    2V3OU   H19  887   3.798   3.914   5.965
    2V3OU   H20  888   3.643   3.934   5.932
    2V3OU   C21  889   3.848   3.948   5.681
    2V3OU   H11  890   3.955   3.926   5.711
    2V3OU    O5  891   3.833   4.089   5.681
    2V3OU   H18  892   3.788   4.107   5.766
    2V3OU   C22  893   3.915   3.950   5.433
    2V3OU   H12  894   3.866   4.048   5.412
    2V3OU   H13  895   3.906   3.891   5.338
    2V3OU   H14  896   4.024   3.958   5.459
    2V3OU   C11  897   3.158   3.470   5.534
    2V3OU    O1  898   3.131   3.585   5.492
    2V3OU    C9  899   3.297   3.427   5.557
    2V3OU    C7  900   3.400   3.499   5.498
    2V3OU    O9  901   3.389   3.611   5.417
    2V3OU   H25  902   3.293   3.625   5.420
    2V3OU   C17  903   2.815   3.312   5.548
    2V3OU    H7  904   2.709   3.337   5.545
    2V3OU   C18  905   2.841   3.211   5.639
    2V3OU    H8  906   2.761   3.139   5.659
    3SOL     OW  907   3.620   2.948   4.033
    3SOL    HW1  908   3.680   2.911   3.962
    3SOL    HW2  909   3.617   3.047   4.025
    4SOL     OW  910   6.517   6.327   0.935
    4SOL    HW1  911   6.572   6.295   1.012
    4SOL    HW2  912   6.575   6.342   0.856
    5SOL     OW  913   4.729   2.233   6.997
    5SOL    HW1  914   4.762   2.143   0.003
    5SOL    HW2  915   4.804   2.285   6.955
    6SOL     OW  916   5.095   1.037   3.112
    6SOL    HW1  917   5.006   1.042   3.065
    6SOL    HW2  918   5.101   1.113   3.177
    7SOL     OW  919   1.638   3.952   4.194
    7SOL    HW1  920   1.633   4.051   4.207
    7SOL    HW2  921   1.678   3.933   4.104
    8SOL     OW  922   1.516   3.394   4.921
    8SOL    HW1  923   1.543   3.341   5.001
    8SOL    HW2  924   1.512   3.335   4.841
    9SOL     OW  925   6.942   0.883   6.544
    9SOL    HW1  926   6.941   0.917   6.449
    9SOL    HW2  927   6.992   0.947   6.601
   10SOL     OW  928   5.172   4.790   1.916
   10SOL    HW1  929   5.092   4.828   1.964
   10SOL    HW2  930   5.182   4.693   1.939
   11SOL     OW  931   2.174   2.423   0.294
   11SOL    HW1  932   2.264   2.457   0.268
   11SOL    HW2  933   2.139   2.362   0.222
   12SOL     OW  934   3.434   4.971   2.933
   12SOL    HW1  935   3.370   4.953   3.008
   12SOL    HW2  936   3.392   4.945   2.846
   13SOL     OW  937   5.937   5.669   1.160
   13SOL    HW1  938   5.864   5.672   1.092
   13SOL    HW2  939   5.944   5.576   1.197
   14SOL     OW  940   4.292   5.951   5.395
   14SOL    HW1  941   4.249   5.972   5.483
   14SOL    HW2  942   4.278   6.028   5.332
   15SOL     OW  943   0.664   6.577   6.091
   15SOL    HW1  944   0.696   6.591   5.998
   15SOL    HW2  945   0.594   6.645   6.113
   16SOL     OW  946   1.918   4.353   4.876
   16SOL    HW1  947   1.934   4.448   4.901
   16SOL    HW2  948   2.006   4.306   4.869
   17SOL     OW  949   6.619   1.485   5.582
   17SOL    HW1  950   6.532   1.507   5.537
   17SOL    HW2  951   6.690   1.471   5.513
   18SOL     OW  952   2.328   0.819   6.458
   18SOL    HW1  953   2.331   0.720   6.470
   18SOL    HW2  954   2.262   0.842   6.388
   19SOL     OW  955   2.810   0.036   3.238
   19SOL    HW1  956   2.748   0.053   3.314
   19SOL    HW2  957   2.869   0.116   3.225
   20SOL     OW  958   6.637   1.828   5.553
   20SOL    HW1  959   6.585   1.837   5.468
   20SOL    HW2  960   6.579   1.789   5.624
   21SOL     OW  961   2.661   4.618   3.233
   21SOL    HW1  962   2.690   4.670   3.152
   21SOL    HW2  963   2.726   4.632   3.307
   22SOL     OW  964   1.170   0.665   7.021
   22SOL    HW1  965   1.154   0.652   6.923
   22SOL    HW2  966   1.086   0.700   0.041
   23SOL     OW  967   5.929   4.717   1.460
   23SOL    HW1  968   5.878   4.752   1.382
   23SOL    HW2  969   5.881   4.740   1.545
   24SOL     OW  970   4.515   0.989   0.809
   24SOL    HW1  971   4.539   1.042   0.728
   24SOL    HW2  972   4.450   0.918   0.785
   25SOL     OW  973   1.736   1.452   4.552
   25SOL    HW1  974   1.651   1.490   4.516
   25SOL    HW2  975   1.813   1.508   4.521
   26SOL     OW  976   0.720   3.117   6.726
   26SOL    HW1  977   0.655   3.140   6.654
   26SOL    HW2  978   0.812   3.145   6.698
   27SOL     OW  979   6.067   0.779   1.574
   27SOL    HW1  980   6.022   0.839   1.639
   27SOL    HW2  981   6.108   0.702   1.624
   28SOL     OW  982   2.209   0.898   5.469
   28SOL    HW1  983   2.273   0.970   5.442
   28SOL    HW2  984   2.127   0.903   5.412
   29SOL     OW  985   0.169   6.935   0.988
   29SOL    HW1  986   0.186   6.861   0.923
   29SOL    HW2  987   0.225   7.015   0.964
   30SOL     OW  988   4.913   0.139   5.044
   30SOL    HW1  989   4.817   0.158   5.065
   30SOL    HW2  990   4.929   0.040   5.047
   31SOL     OW  991   1.068   3.035   5.119
   31SOL    HW1  992   0.990   2.992   5.163
   31SOL    HW2  993   1.055   3.033   5.019
   32SOL     OW  994   3.123   0.480   1.477
   32SOL    HW1  995   3.027   0.453   1.477
   32SOL    HW2  996   3.179   0.405   1.441
   33SOL     OW  997   1.421   5.841   5.987
   33SOL    HW1  998   1.387   5.821   6.079
   33SOL    HW2  999   1.454   5.757   5.944
   34SOL     OW 1000   2.604   5.044   5.034
   34SOL    HW1 1001   2.677   5.022   5.100
   34SOL    HW2 1002   2.525   5.080   5.083
   35SOL     OW 1003   2.290   3.259   6.900
   35SOL    HW1 1004   2.374   3.308   6.923
   35SOL    HW2 1005   2.312   3.168   6.866
   36SOL     OW 1006   3.792   1.174   4.199
   36SOL    HW1 1007   3.737   1.198   4.119
   36SOL    HW2 1008   3.828   1.082   4.188
   37SOL     OW 1009   2.775   0.572   3.940
   37SOL    HW1 1010   2.814   0.529   3.858
   37SOL    HW2 1011   2.812   0.527   4.021
   38SOL     OW 1012   1.029   4.056   2.598
   38SOL    HW1 1013   1.082   4.046   2.682
   38SOL    HW2 1014   0.931   4.056   2.620
   39SOL     OW 1015   0.055   5.054   0.509
   39SOL    HW1 1016   0.115   5.034   0.586
   39SOL    HW2 1017   6.994   5.000   0.517
   40SOL     OW 1018   4.616   1.798   0.757
   40SOL    HW1 1019   4.703   1.835   0.725
   40SOL    HW2 1020   4.549   1.802   0.683
   41SOL     OW 1021   5.265   3.943   1.503
   41SOL    HW1 1022   5.295   4.022   1.556
   41SOL    HW2 1023   5.241   3.868   1.564
   42SOL     OW 1024   2.744   4.908   6.585
   42SOL    HW1 1025   2.772   4.832   6.644
   42SOL    HW2 1026   2.663   4.952   6.624
   43SOL     OW 1027   3.915   6.926   5.120
   43SOL    HW1 1028   3.856   6.989   5.171
   43SOL    HW2 1029   3.973   6.978   5.057
   44SOL     OW 1030   6.979   1.067   5.893
   44SOL    HW1 1031   6.976   1.002   5.817
   44SOL    HW2 1032   0.038   1.125   5.884
   45SOL     OW 1033   2.375   4.882   5.924
   45SOL    HW1 1034   2.443   4.811   5.904
   45SOL    HW2 1035   2.368   4.893   6.023
   46SOL     OW 1036   0.730   3.150   4.322
   46SOL    HW1 1037   0.723   3.086   4.246
   46SOL    HW2 1038   0.783   3.108   4.396
   47SOL     OW 1039   6.637   3.326   0.742
   47SOL    HW1 1040   6.641   3.288   0.650
   47SOL    HW2 1041   6.729   3.324   0.783
   48SOL     OW 1042   5.844   3.763   0.971
   48SOL    HW1 1043   5.809   3.676   1.004
   48SOL    HW2 1044   5.944   3.762   0.974
   49SOL     OW 1045   3.308   3.691   6.907
   49SOL    HW1 1046   3.306   3.603   6.955
   49SOL    HW2 1047   3.216   3.712   6.873
   50SOL     OW 1048   6.499   2.472   0.368
   50SOL    HW1 1049   6.520   2.396   0.306
   50SOL    HW2 1050   6.518   2.445   0.462
   51SOL     OW 1051   2.128   5.299   2.955
   51SOL    HW1 1052   2.213   5.343   2.982
   51SOL    HW2 1053   2.067   5.366   2.912
   52SOL     OW 1054   6.293   3.422   2.027
   52SOL    HW1 1055   6.295   3.414   2.127
   52SOL    HW2 1056   6.203   3.395   1.993
   53SOL     OW 1057   3.962   0.886   1.722
   53SOL    HW1 1058   3.997   0.841   1.640
   53SOL    HW2 1059   4.003   0.843   1.803
   54SOL     OW 1060   5.457   0.119   6.796
   54SOL    HW1 1061   5.434   0.041   6.738
   54SOL    HW2 1062   5.512   0.088   6.874
   55SOL     OW 1063   1.102   3.446   6.095
   55SOL    HW1 1064   1.162   3.493   6.159
   55SOL    HW2 1065   1.138   3.455   6.002
   56SOL     OW 1066   0.510   2.486   6.637
   56SOL    HW1 1067   0.459   2.556   6.686
   56SOL    HW2 1068   0.524   2.515   6.543
   57SOL     OW 1069   4.234   6.236   0.162
   57SOL    HW1 1070   4.294   6.232   0.241
   57SOL    HW2 1071   4.205   6.144   0.137
   58SOL     OW 1072   0.459   0.358   0.336
   58SOL    HW1 1073   0.528   0.368   0.406
   58SOL    HW2 1074   0.494   0.300   0.262
   59SOL     OW 1075   5.243   3.212   5.543
   59SOL    HW1 1076   5.225   3.182   5.449
   59SOL    HW2 1077   5.340   3.231   5.553
   60SOL     OW 1078   5.281   2.002   2.057
   60SOL    HW1 1079   5.355   2.004   1.990
   60SOL    HW2 1080   5.199   1.964   2.015
   61SOL     OW 1081   0.744   5.942   4.541
   61SOL    HW1 1082   0.646   5.963   4.552
   61SOL    HW2 1083   0.770   5.960   4.446
   62SOL     OW 1084   6.096   2.721   2.479
   62SOL    HW1 1085   6.034   2.649   2.509
   62SOL    HW2 1086   6.064   2.809   2.514
   63SOL     OW 1087   4.237   6.999   5.935
   63SOL    HW1 1088   4.235   7.012   6.035
   63SOL    HW2 1089   4.210   6.905   5.914
   64SOL     OW 1090   0.819   3.918   4.983
   64SOL    HW1 1091   0.911   3.902   4.948
   64SOL    HW2 1092   0.810   3.878   5.074
   65SOL     OW 1093   0.589   6.242   5.090
   65SOL    HW1 1094   0.561   6.157   5.135
   65SOL    HW2 1095   0.508   6.295   5.065
   66SOL     OW 1096   3.762   1.311   2.377
   66SOL    HW1 1097   3.729   1.320   2.471
   66SOL    HW2 1098   3.693   1.348   2.314
   67SOL     OW 1099   0.201   2.919   1.350
   67SOL    HW1 1100   0.108   2.915   1.314
   67SOL    HW2 1101   0.238   3.011   1.335
   68SOL     OW 1102   6.829   1.827   5.958
   68SOL    HW1 1103   6.889   1.788   6.028
   68SOL    HW2 1104   6.779   1.753   5.912
   69SOL     OW 1105   1.202   5.952   6.324
   69SOL    HW1 1106   1.128   6.007   6.283
   69SOL    HW2 1107   1.170   5.910   6.409
   70SOL     OW 1108   5.118   3.459   3.862
   70SOL    HW1 1109   5.075   3.475   3.773
   70SOL    HW2 1110   5.070   3.385   3.909
   71SOL     OW 1111   5.376   2.188   4.409
   71SOL    HW1 1112   5.345   2.141   4.326
   71SOL    HW2 1113   5.464   2.232   4.392
   72SOL     OW 1114   0.466   0.625   2.769
   72SOL    HW1 1115   0.530   0.632   2.845
   72SOL    HW2 1116   0.414   0.539   2.776
   73SOL     OW 1117   3.317   0.903   0.784
   73SOL    HW1 1118   3.359   0.813   0.768
   73SOL    HW2 1119   3.376   0.974   0.748
   74SOL     OW 1120   2.398   2.611   1.298
   74SOL    HW1 1121   2.309   2.642   1.265
   74SOL    HW2 1122   2.400   2.615   1.398
   75SOL     OW 1123   3.134   3.219   1.083
   75SOL    HW1 1124   3.176   3.153   1.145
   75SOL    HW2 1125   3.189   3.227   1.000
   76SOL     OW 1126   3.563   4.488   5.303
   76SOL    HW1 1127   3.508   4.427   5.247
   76SOL    HW2 1128   3.599   4.437   5.381
   77SOL     OW 1129   0.295   5.618   4.389
   77SOL    HW1 1130   0.210   5.643   4.436
   77SOL    HW2 1131   0.273   5.568   4.305
   78SOL     OW 1132   4.991   1.958   1.467
   78SOL    HW1 1133   4.916   1.972   1.532
   78SOL    HW2 1134   4.962   1.894   1.396
   79SOL     OW 1135   0.859   4.654   3.416
   79SOL    HW1 1136   0.863   4.587   3.342
   79SOL    HW2 1137   0.773   4.704   3.410
   80SOL     OW 1138   3.481   0.902   5.483
   80SOL    HW1 1139   3.533   0.982   5.514
   80SOL    HW2 1140   3.484   0.897   5.383
   81SOL     OW 1141   4.742   5.132   1.659
   81SOL    HW1 1142   4.832   5.137   1.701
   81SOL    HW2 1143   4.673   5.113   1.729
   82SOL     OW 1144   2.827   6.173   1.843
   82SOL    HW1 1145   2.919   6.186   1.880
   82SOL    HW2 1146   2.787   6.090   1.882
   83SOL     OW 1147   5.541   1.384   4.543
   83SOL    HW1 1148   5.597   1.312   4.503
   83SOL    HW2 1149   5.504   1.442   4.471
   84SOL     OW 1150   5.380   2.263   2.315
   84SOL    HW1 1151   5.293   2.225   2.283
   84SOL    HW2 1152   5.455   2.221   2.265
   85SOL     OW 1153   2.670   6.541   4.030
   85SOL    HW1 1154   2.676   6.640   4.036
   85SOL    HW2 1155   2.616   6.515   3.950
   86SOL     OW 1156   5.561   0.253   0.099
   86SOL    HW1 1157   5.636   0.221   0.156
   86SOL    HW2 1158   5.496   0.305   0.156
   87SOL     OW 1159   2.278   4.014   6.089
   87SOL    HW1 1160   2.263   3.970   6.000
   87SOL    HW2 1161   2.247   4.109   6.085
   88SOL     OW 1162   3.145   3.266   1.422
   88SOL    HW1 1163   3.048   3.286   1.408
   88SOL    HW2 1164   3.154   3.174   1.461
   89SOL     OW 1165   3.313   3.938   4.036
   89SOL    HW1 1166   3.377   3.990   4.091
   89SOL    HW2 1167   3.270   3.998   3.968
   90SOL     OW 1168   4.846   3.468   1.804
   90SOL    HW1 1169   4.838   3.371   1.827
   90SOL    HW2 1170   4.761   3.499   1.761
   91SOL     OW 1171   4.241   5.422   5.735
   91SOL    HW1 1172   4.293   5.467   5.807
   91SOL    HW2 1173   4.292   5.426   5.649
   92SOL     OW 1174   5.174   3.822   6.781
   92SOL    HW1 1175   5.154   3.890   6.851
   92SOL    HW2 1176   5.271   3.827   6.756
   93SOL     OW 1177   3.033   3.740   2.041
   93SOL    HW1 1178   3.023   3.699   1.950
   93SOL    HW2 1179   3.057   3.836   2.032
   94SOL     OW 1180   3.398   2.042   4.770
   94SOL    HW1 1181   3.491   2.061   4.803
   94SOL    HW2 1182   3.332   2.059   4.843
   95SOL     OW 1183   0.612   0.359   4.005
   95SOL    HW1 1184   0.550   0.415   3.950
   95SOL    HW2 1185   0.576   0.266   4.012
   96SOL     OW 1186   6.519   4.896   0.028
   96SOL    HW1 1187   6.437   4.948   0.051
   96SOL    HW2 1188   6.496   4.799   0.021
   97SOL     OW 1189   1.999   4.405   5.269
   97SOL    HW1 1190   1.985   4.340   5.344
   97SOL    HW2 1191   2.075   4.374   5.212
   98SOL     OW 1192   1.927   2.238   3.174
   98SOL    HW1 1193   1.991   2.211   3.102
   98SOL    HW2 1194   1.860   2.166   3.188
   99SOL     OW 1195   3.538   3.982   5.286
   99SOL    HW1 1196   3.558   3.996   5.189
   99SOL    HW2 1197   3.613   3.931   5.329
  100SOL     OW 1198   6.713   0.600   5.082
  100SOL    HW1 1199   6.775   0.676   5.105
  100SOL    HW2 1200   6.679   0.612   4.989
  101SOL     OW 1201   6.053   3.870   2.251
  101SOL    HW1 1202   5.970   3.901   2.296
  101SOL    HW2 1203   6.042   3.878   2.152
  102SOL     OW 1204   4.765   0.008   0.211
  102SOL    HW1 1205   4.850   7.016   0.262
  102SOL    HW2 1206   4.693   6.971   0.248
  103SOL     OW 1207   2.570   0.993   2.244
  103SOL    HW1 1208   2.541   0.990   2.148
  103SOL    HW2 1209   2.558   1.086   2.279
  104SOL     OW 1210   6.349   4.840   1.903
  104SOL    HW1 1211   6.358   4.750   1.861
  104SOL    HW2 1212   6.432   4.894   1.885
  105SOL     OW 1213   6.593   0.949   5.684
  105SOL    HW1 1214   6.670   0.943   5.748
  105SOL    HW2 1215   6.521   0.885   5.712
  106SOL     OW 1216   4.627   4.191   1.391
  106SOL    HW1 1217   4.569   4.263   1.354
  106SOL    HW2 1218   4.714   4.230   1.423
  107SOL     OW 1219   5.351   0.171   1.495
  107SOL    HW1 1220   5.330   0.085   1.449
  107SOL    HW2 1221   5.442   0.166   1.536
  108SOL     OW 1222   2.479   0.959   4.285
  108SOL    HW1 1223   2.561   0.913   4.319
  108SOL    HW2 1224   2.398   0.912   4.319
  109SOL     OW 1225   1.553   1.224   4.107
  109SOL    HW1 1226   1.543   1.275   4.022
  109SOL    HW2 1227   1.647   1.232   4.140
  110SOL     OW 1228   3.402   4.120   5.943
  110SOL    HW1 1229   3.364   4.114   5.850
  110SOL    HW2 1230   3.366   4.046   5.999
  111SOL     OW 1231   6.245   3.058   1.350
  111SOL    HW1 1232   6.295   3.110   1.280
  111SOL    HW2 1233   6.254   3.105   1.438
  112SOL     OW 1234   5.052   6.292   6.250
  112SOL    HW1 1235   5.148   6.271   6.235
  112SOL    HW2 1236   4.996   6.239   6.187
  113SOL     OW 1237   0.478   5.462   2.939
  113SOL    HW1 1238   0.482   5.416   2.850
  113SOL    HW2 1239   0.382   5.476   2.964
  114SOL     OW 1240   6.616   2.448   2.615
  114SOL    HW1 1241   6.570   2.443   2.526
  114SOL    HW2 1242   6.711   2.476   2.601
  115SOL     OW 1243   5.231   0.186   3.182
  115SOL    HW1 1244   5.270   0.122   3.116
  115SOL    HW2 1245   5.298   0.257   3.204
  116SOL     OW 1246   0.515   4.926   0.324
  116SOL    HW1 1247   0.524   4.924   0.225
  116SOL    HW2 1248   0.499   5.020   0.354
  117SOL     OW 1249   2.125   2.585   6.937
  117SOL    HW1 1250   2.045   2.604   6.881
  117SOL    HW2 1251   2.208   2.608   6.885
  118SOL     OW 1252   0.124   2.116   2.885
  118SOL    HW1 1253   0.165   2.036   2.843
  118SOL    HW2 1254   0.040   2.090   2.932
  119SOL     OW 1255   6.228   7.012   5.924
  119SOL    HW1 1256   6.223   6.967   6.014
  119SOL    HW2 1257   6.172   6.961   5.859
  120SOL     OW 1258   5.430   2.487   4.899
  120SOL    HW1 1259   5.501   2.419   4.917
  120SOL    HW2 1260   5.428   2.554   4.973
  121SOL     OW 1261   0.862   5.024   6.740
  121SOL    HW1 1262   0.876   5.113   6.783
  121SOL    HW2 1263   0.947   4.971   6.744
  122SOL     OW 1264   6.576   4.756   6.474
  122SOL    HW1 1265   6.651   4.697   6.504
  122SOL    HW2 1266   6.489   4.718   6.504
  123SOL     OW 1267   0.750   2.311   1.823
  123SOL    HW1 1268   0.690   2.352   1.891
  123SOL    HW2 1269   0.695   2.261   1.756
  124SOL     OW 1270   1.766   3.027   7.020
  124SOL    HW1 1271   1.788   3.125   0.004
  124SOL    HW2 1272   1.850   2.976   7.002
  125SOL     OW 1273   4.513   3.220   0.630
  125SOL    HW1 1274   4.594   3.165   0.611
  125SOL    HW2 1275   4.537   3.317   0.626
  126SOL     OW 1276   4.055   3.365   4.632
  126SOL    HW1 1277   4.054   3.321   4.722
  126SOL    HW2 1278   3.964   3.398   4.610
  127SOL     OW 1279   0.259   5.317   5.992
  127SOL    HW1 1280   0.276   5.400   5.938
  127SOL    HW2 1281   0.345   5.270   6.009
  128SOL     OW 1282   4.887   3.766   6.977
  128SOL    HW1 1283   4.912   3.670   6.963
  128SOL    HW2 1284   4.857   3.779   0.049
  129SOL     OW 1285   1.580   5.666   2.180
  129SOL    HW1 1286   1.505   5.615   2.139
  129SOL    HW2 1287   1.550   5.705   2.267
  130SOL     OW 1288   6.369   3.180   3.472
  130SOL    HW1 1289   6.357   3.223   3.383
  130SOL    HW2 1290   6.344   3.245   3.544
  131SOL     OW 1291   0.258   2.619   3.405
  131SOL    HW1 1292   0.280   2.543   3.344
  131SOL    HW2 1293   0.159   2.619   3.423
  132SOL     OW 1294   3.391   2.985   1.747
  132SOL    HW1 1295   3.467   2.926   1.772
  132SOL    HW2 1296   3.310   2.960   1.799
  133SOL     OW 1297   5.677   6.561   6.402
  133SOL    HW1 1298   5.701   6.567   6.499
  133SOL    HW2 1299   5.690   6.651   6.359
  134SOL     OW 1300   5.918   1.426   1.534
  134SOL    HW1 1301   5.920   1.331   1.502
  134SOL    HW2 1302   5.850   1.436   1.606
  135SOL     OW 1303   4.794   2.938   3.780
  135SOL    HW1 1304   4.845   2.973   3.702
  135SOL    HW2 1305   4.729   2.868   3.750
  136SOL     OW 1306   3.300   0.445   6.194
  136SOL    HW1 1307   3.284   0.352   6.161
  136SOL    HW2 1308   3.257   0.457   6.283
  137SOL     OW 1309   3.205   3.478   6.218
  137SOL    HW1 1310   3.209   3.378   6.211
  137SOL    HW2 1311   3.296   3.514   6.236
  138SOL     OW 1312   1.007   5.009   6.071
  138SOL    HW1 1313   1.011   5.109   6.066
  138SOL    HW2 1314   1.098   4.972   6.052
  139SOL     OW 1315   2.093   6.539   0.856
  139SOL    HW1 1316   2.164   6.609   0.868
  139SOL    HW2 1317   2.048   6.553   0.767
  140SOL     OW 1318   3.405   0.638   1.031
  140SOL    HW1 1319   3.399   0.550   1.078
  140SOL    HW2 1320   3.457   0.703   1.088
  141SOL     OW 1321   0.145   3.149   0.828
  141SOL    HW1 1322   0.153   3.080   0.899
  141SOL    HW2 1323   0.203   3.125   0.750
  142SOL     OW 1324   1.752   4.199   1.353
  142SOL    HW1 1325   1.659   4.164   1.344
  142SOL    HW2 1326   1.817   4.133   1.314
  143SOL     OW 1327   4.853   6.606   2.188
  143SOL    HW1 1328   4.848   6.522   2.242
  143SOL    HW2 1329   4.862   6.685   2.249
  144SOL     OW 1330   3.151   5.477   3.747
  144SOL    HW1 1331   3.227   5.438   3.799
  144SOL    HW2 1332   3.082   5.512   3.811
  145SOL     OW 1333   6.974   4.579   2.943
  145SOL    HW1 1334   6.997   4.657   3.001
  145SOL    HW2 1335   6.919   4.513   2.995
  146SOL     OW 1336   5.094   0.660   5.914
  146SOL    HW1 1337   5.139   0.737   5.958
  146SOL    HW2 1338   5.121   0.575   5.959
  147SOL     OW 1339   4.701   1.328   5.001
  147SOL    HW1 1340   4.799   1.312   4.987
  147SOL    HW2 1341   4.681   1.328   5.099
  148SOL     OW 1342   1.671   5.696   1.449
  148SOL    HW1 1343   1.699   5.729   1.539
  148SOL    HW2 1344   1.747   5.647   1.406
  149SOL     OW 1345   2.285   1.966   4.840
  149SOL    HW1 1346   2.321   2.053   4.803
  149SOL    HW2 1347   2.361   1.902   4.853
  150SOL     OW 1348   4.283   1.447   5.177
  150SOL    HW1 1349   4.282   1.377   5.106
  150SOL    HW2 1350   4.292   1.538   5.136
  151SOL     OW 1351   4.186   2.973   1.023
  151SOL    HW1 1352   4.151   2.883   1.051
  151SOL    HW2 1353   4.195   3.032   1.103
  152SOL     OW 1354   0.447   2.240   0.489
  152SOL    HW1 1355   0.397   2.172   0.541
  152SOL    HW2 1356   0.515   2.284   0.547
  153SOL     OW 1357   2.807   1.337   3.591
  153SOL    HW1 1358   2.899   1.322   3.554
  153SOL    HW2 1359   2.803   1.429   3.631
  154SOL     OW 1360   6.646   1.660   2.931
  154SOL    HW1 1361   6.726   1.662   2.990
  154SOL    HW2 1362   6.574   1.719   2.970
  155SOL     OW 1363   0.797   6.481   2.533
  155SOL    HW1 1364   0.855   6.461   2.612
  155SOL    HW2 1365   0.855   6.492   2.452
  156SOL     OW 1366   5.733   2.863   0.548
  156SOL    HW1 1367   5.822   2.895   0.580
  156SOL    HW2 1368   5.691   2.806   0.619
  157SOL     OW 1369   4.476   5.652   0.617
  157SOL    HW1 1370   4.507   5.558   0.603
  157SOL    HW2 1371   4.450   5.663   0.713
  158SOL     OW 1372   0.048   3.095   3.706
  158SOL    HW1 1373   0.019   3.008   3.666
  158SOL    HW2 1374   0.019   3.099   3.802
  159SOL     OW 1375   6.119   5.235   0.377
  159SOL    HW1 1376   6.134   5.172   0.453
  159SOL    HW2 1377   6.032   5.214   0.333
  160SOL     OW 1378   6.491   0.138   1.826
  160SOL    HW1 1379   6.586   0.153   1.799
  160SOL    HW2 1380   6.462   0.046   1.798
  161SOL     OW 1381   0.475   6.216   1.015
  161SOL    HW1 1382   0.410   6.192   1.087
  161SOL    HW2 1383   0.518   6.303   1.036
  162SOL     OW 1384   4.738   6.812   6.592
  162SOL    HW1 1385   4.643   6.836   6.571
  162SOL    HW2 1386   4.799   6.850   6.522
  163SOL     OW 1387   0.563   3.766   2.512
  163SOL    HW1 1388   0.485   3.711   2.483
  163SOL    HW2 1389   0.530   3.857   2.539
  164SOL     OW 1390   2.885   2.089   4.218
  164SOL    HW1 1391   2.938   2.032   4.155
  164SOL    HW2 1392   2.948   2.139   4.278
  165SOL     OW 1393   0.305   5.826   3.549
  165SOL    HW1 1394   0.327   5.728   3.549
  165SOL    HW2 1395   0.269   5.851   3.639
  166SOL     OW 1396   6.416   3.869   2.793
  166SOL    HW1 1397   6.338   3.806   2.799
  166SOL    HW2 1398   6.410   3.921   2.708
  167SOL     OW 1399   2.587   1.826   0.079
  167SOL    HW1 1400   2.603   1.731   0.053
  167SOL    HW2 1401   2.637   1.846   0.163
  168SOL     OW 1402   3.958   4.086   1.512
  168SOL    HW1 1403   4.052   4.053   1.519
  168SOL    HW2 1404   3.904   4.019   1.460
  169SOL     OW 1405   4.645   2.285   0.613
  169SOL    HW1 1406   4.700   2.351   0.665
  169SOL    HW2 1407   4.594   2.333   0.541
  170SOL     OW 1408   6.976   6.004   2.389
  170SOL    HW1 1409   7.014   6.032   2.301
  170SOL    HW2 1410   6.963   6.084   2.447
  171SOL     OW 1411   3.322   3.283   0.906
  171SOL    HW1 1412   3.313   3.311   0.811
  171SOL    HW2 1413   3.416   3.296   0.937
  172SOL     OW 1414   0.641   2.243   6.601
  172SOL    HW1 1415   0.582   2.324   6.598
  172SOL    HW2 1416   0.595   2.168   6.554
  173SOL     OW 1417   6.745   1.529   4.360
  173SOL    HW1 1418   6.728   1.535   4.262
  173SOL    HW2 1419   6.711   1.442   4.395
  174SOL     OW 1420   5.380   4.973   5.404
  174SOL    HW1 1421   5.386   5.042   5.333
  174SOL    HW2 1422   5.323   5.007   5.480
  175SOL     OW 1423   0.529   0.006   1.760
  175SOL    HW1 1424   0.448   0.028   1.705
  175SOL    HW2 1425   0.603   6.998   1.700
  176SOL     OW 1426   5.958   4.008   1.122
  176SOL    HW1 1427   5.907   3.922   1.126
  176SOL    HW2 1428   6.054   3.990   1.143
  177SOL     OW 1429   5.760   2.240   4.647
  177SOL    HW1 1430   5.840   2.280   4.692
  177SOL    HW2 1431   5.692   2.311   4.630
  178SOL     OW 1432   2.421   6.255   5.248
  178SOL    HW1 1433   2.481   6.317   5.299
  178SOL    HW2 1434   2.333   6.299   5.232
  179SOL     OW 1435   3.711   4.721   1.069
  179SOL    HW1 1436   3.751   4.632   1.086
  179SOL    HW2 1437   3.718   4.743   0.972
  180SOL     OW 1438   4.011   1.126   0.517
  180SOL    HW1 1439   4.058   1.189   0.456
  180SOL    HW2 1440   4.008   1.035   0.475
  181SOL     OW 1441   3.273   2.106   5.536
  181SOL    HW1 1442   3.243   2.078   5.627
  181SOL    HW2 1443   3.193   2.128   5.480
  182SOL     OW 1444   3.438   2.956   6.146
  182SOL    HW1 1445   3.458   3.044   6.102
  182SOL    HW2 1446   3.515   2.894   6.134
  183SOL     OW 1447   3.876   0.953   3.603
  183SOL    HW1 1448   3.788   0.957   3.555
  183SOL    HW2 1449   3.939   1.018   3.563
  184SOL     OW 1450   5.081   5.754   3.416
  184SOL    HW1 1451   5.154   5.819   3.435
  184SOL    HW2 1452   5.076   5.736   3.318
  185SOL     OW 1453   6.882   0.464   4.808
  185SOL    HW1 1454   6.882   0.557   4.843
  185SOL    HW2 1455   6.974   0.426   4.813
  186SOL     OW 1456   4.148   6.334   4.551
  186SOL    HW1 1457   4.226   6.397   4.552
  186SOL    HW2 1458   4.072   6.375   4.601
  187SOL     OW 1459   4.225   6.156   1.290
  187SOL    HW1 1460   4.311   6.205   1.306
  187SOL    HW2 1461   4.156   6.188   1.356
  188SOL     OW 1462   1.233   3.181   3.347
  188SOL    HW1 1463   1.251   3.227   3.260
  188SOL    HW2 1464   1.183   3.244   3.407
  189SOL     OW 1465   5.979   5.190   5.879
  189SOL    HW1 1466   5.997   5.286   5.859
  189SOL    HW2 1467   5.990   5.175   5.978
  190SOL     OW 1468   6.057   1.077   0.287
  190SOL    HW1 1469   5.986   1.147   0.282
  190SOL    HW2 1470   6.076   1.042   0.195
  191SOL     OW 1471   6.945   0.713   5.161
  191SOL    HW1 1472   6.982   0.654   5.233
  191SOL    HW2 1473   6.962   0.808   5.185
  192SOL     OW 1474   0.365   5.229   1.019
  192SOL    HW1 1475   0.279   5.184   1.046
  192SOL    HW2 1476   0.351   5.280   0.934
  193SOL     OW 1477   2.460   6.357   0.464
  193SOL    HW1 1478   2.396   6.430   0.442
  193SOL    HW2 1479   2.538   6.395   0.514
  194SOL     OW 1480   4.049   6.617   1.961
  194SOL    HW1 1481   4.067   6.618   1.863
  194SOL    HW2 1482   3.994   6.697   1.986
  195SOL     OW 1483   3.568   1.345   0.852
  195SOL    HW1 1484   3.638   1.276   0.835
  195SOL    HW2 1485   3.611   1.436   0.857
  196SOL     OW 1486   3.056   2.272   6.967
  196SOL    HW1 1487   3.075   2.340   0.015
  196SOL    HW2 1488   3.142   2.237   6.930
  197SOL     OW 1489   2.229   6.339   0.681
  197SOL    HW1 1490   2.181   6.288   0.753
  197SOL    HW2 1491   2.217   6.438   0.697
  198SOL     OW 1492   4.303   0.628   6.939
  198SOL    HW1 1493   4.362   0.564   6.989
  198SOL    HW2 1494   4.350   0.658   6.856
  199SOL     OW 1495   0.124   0.227   2.452
  199SOL    HW1 1496   0.129   0.169   2.371
  199SOL    HW2 1497   0.087   0.174   2.528
  200SOL     OW 1498   0.380   4.216   3.112
  200SOL    HW1 1499   0.354   4.267   3.030
  200SOL    HW2 1500   0.341   4.124   3.108
  201SOL     OW 1501   3.975   1.353   6.762
  201SOL    HW1 1502   4.047   1.337   6.694
  201SOL    HW2 1503   3.904   1.283   6.752
  202SOL     OW 1504   3.350   0.704   2.533
  202SOL    HW1 1505   3.275   0.660   2.485
  202SOL    HW2 1506   3.428   0.715   2.470
  203SOL     OW 1507   5.445   2.375   6.780
  203SOL    HW1 1508   5.491   2.305   6.835
  203SOL    HW2 1509   5.453   2.351   6.683
  204SOL     OW 1510   2.886   5.875   1.132
  204SOL    HW1 1511   2.797   5.861   1.175
  204SOL    HW2 1512   2.932   5.787   1.120
  205SOL     OW 1513   6.488   0.560   6.954
  205SOL    HW1 1514   6.475   0.467   6.989
  205SOL    HW2 1515   6.507   0.556   6.856
  206SOL     OW 1516   0.853   4.410   1.324
  206SOL    HW1 1517   0.770   4.461   1.349
  206SOL    HW2 1518   0.872   4.341   1.394
  207SOL     OW 1519   4.645   1.002   5.541
  207SOL    HW1 1520   4.729   1.048   5.514
  207SOL    HW2 1521   4.568   1.036   5.486
  208SOL     OW 1522   3.406   4.746   6.159
  208SOL    HW1 1523   3.325   4.728   6.104
  208SOL    HW2 1524   3.430   4.664   6.212
  209SOL     OW 1525   6.323   5.429   5.584
  209SOL    HW1 1526   6.344   5.372   5.504
  209SOL    HW2 1527   6.312   5.370   5.664
  210SOL     OW 1528   3.936   2.171   2.153
  210SOL    HW1 1529   3.874   2.225   2.095
  210SOL    HW2 1530   4.026   2.167   2.110
  211SOL     OW 1531   1.245   1.813   2.020
  211SOL    HW1 1532   1.219   1.897   2.068
  211SOL    HW2 1533   1.201   1.735   2.063
  212SOL     OW 1534   1.127   5.204   4.089
  212SOL    HW1 1535   1.145   5.150   4.007
  212SOL    HW2 1536   1.066   5.154   4.151
  213SOL     OW 1537   4.141   2.780   6.751
  213SOL    HW1 1538   4.207   2.711   6.720
  213SOL    HW2 1539   4.190   2.857   6.792
  214SOL     OW 1540   1.383   0.081   2.585
  214SOL    HW1 1541   1.464   0.030   2.555
  214SOL    HW2 1542   1.323   0.020   2.637
  215SOL     OW 1543   3.267   3.648   2.194
  215SOL    HW1 1544   3.252   3.702   2.277
  215SOL    HW2 1545   3.181   3.641   2.143
  216SOL     OW 1546   1.072   6.304   5.973
  216SOL    HW1 1547   1.048   6.395   6.007
  216SOL    HW2 1548   1.028   6.289   5.884
  217SOL     OW 1549   0.195   2.892   3.400
  217SOL    HW1 1550   0.109   2.870   3.445
  217SOL    HW2 1551   0.256   2.813   3.404
  218SOL     OW 1552   1.142   3.822   5.669
  218SOL    HW1 1553   1.097   3.735   5.691
  218SOL    HW2 1554   1.072   3.889   5.642
  219SOL     OW 1555   4.522   4.978   6.808
  219SOL    HW1 1556   4.541   4.984   6.710
  219SOL    HW2 1557   4.431   5.015   6.827
  220SOL     OW 1558   3.115   4.996   0.675
  220SOL    HW1 1559   3.047   5.001   0.602
  220SOL    HW2 1560   3.107   4.908   0.723
  221SOL     OW 1561   6.580   2.381   4.013
  221SOL    HW1 1562   6.503   2.354   4.071
  221SOL    HW2 1563   6.554   2.460   3.958
  222SOL     OW 1564   0.992   6.411   5.008
  222SOL    HW1 1565   0.937   6.390   5.089
  222SOL    HW2 1566   1.088   6.391   5.026
  223SOL     OW 1567   6.260   4.151   1.735
  223SOL    HW1 1568   6.352   4.190   1.728
  223SOL    HW2 1569   6.218   4.145   1.644
  224SOL     OW 1570   3.208   2.001   1.753
  224SOL    HW1 1571   3.120   2.021   1.796
  224SOL    HW2 1572   3.270   1.962   1.822
  225SOL     OW 1573   0.028   0.215   0.300
  225SOL    HW1 1574   0.068   0.194   0.211
  225SOL    HW2 1575   0.099   0.211   0.370
  226SOL     OW 1576   6.934   5.687   1.095
  226SOL    HW1 1577   6.893   5.747   1.026
  226SOL    HW2 1578   0.011   5.687   1.084
  227SOL     OW 1579   1.689   2.824   3.726
  227SOL    HW1 1580   1.686   2.762   3.804
  227SOL    HW2 1581   1.708   2.917   3.758
  228SOL     OW 1582   3.669   6.941   3.085
  228SOL    HW1 1583   3.626   6.997   3.155
  228SOL    HW2 1584   3.769   6.944   3.097
  229SOL     OW 1585   6.111   5.289   2.568
  229SOL    HW1 1586   6.029   5.301   2.512
  229SOL    HW2 1587   6.115   5.361   2.637
  230SOL     OW 1588   1.425   3.775   5.432
  230SOL    HW1 1589   1.417   3.856   5.490
  230SOL    HW2 1590   1.335   3.756   5.391
  231SOL     OW 1591   0.477   1.710   6.740
  231SOL    HW1 1592   0.505   1.769   6.816
  231SOL    HW2 1593   0.381   1.727   6.718
  232SOL     OW 1594   2.079   4.953   6.421
  232SOL    HW1 1595   2.022   4.876   6.394
  232SOL    HW2 1596   2.118   4.936   6.512
  233SOL     OW 1597   2.755   0.913   5.769
  233SOL    HW1 1598   2.692   0.954   5.703
  233SOL    HW2 1599   2.720   0.927   5.862
  234SOL     OW 1600   2.616   6.121   6.971
  234SOL    HW1 1601   2.689   6.189   6.972
  234SOL    HW2 1602   2.644   6.040   0.001
  235SOL     OW 1603   3.577   3.272   4.833
  235SOL    HW1 1604   3.663   3.245   4.877
  235SOL    HW2 1605   3.504   3.211   4.864
  236SOL     OW 1606   6.856   2.706   5.673
  236SOL    HW1 1607   6.894   2.762   5.747
  236SOL    HW2 1608   6.782   2.650   5.710
  237SOL     OW 1609   0.968   0.079   1.514
  237SOL    HW1 1610   0.942   0.145   1.585
  237SOL    HW2 1611   1.064   0.092   1.491
  238SOL     OW 1612   6.030   2.173   2.103
  238SOL    HW1 1613   6.040   2.082   2.063
  238SOL    HW2 1614   6.045   2.167   2.202
  239SOL     OW 1615   0.451   5.694   0.413
  239SOL    HW1 1616   0.452   5.661   0.318
  239SOL    HW2 1617   0.531   5.752   0.428
  240SOL     OW 1618   6.769   3.788   5.128
  240SOL    HW1 1619   6.715   3.831   5.056
  240SOL    HW2 1620   6.709   3.746   5.196
  241SOL     OW 1621   6.940   1.349   3.790
  241SOL    HW1 1622   6.927   1.438   3.746
  241SOL    HW2 1623   0.000   1.352   3.847
  242SOL     OW 1624   2.154   2.732   3.564
  242SOL    HW1 1625   2.244   2.697   3.592
  242SOL    HW2 1626   2.167   2.806   3.498
  243SOL     OW 1627   4.560   0.901   5.228
  243SOL    HW1 1628   4.500   0.888   5.307
  243SOL    HW2 1629   4.577   0.999   5.215
  244SOL     OW 1630   6.716   0.680   5.722
  244SOL    HW1 1631   6.651   0.709   5.792
  244SOL    HW2 1632   6.800   0.647   5.766
  245SOL     OW 1633   6.177   1.717   3.689
  245SOL    HW1 1634   6.170   1.633   3.634
  245SOL    HW2 1635   6.269   1.755   3.678
  246SOL     OW 1636   4.867   3.239   2.979
  246SOL    HW1 1637   4.953   3.223   2.930
  246SOL    HW2 1638   4.792   3.194   2.931
  247SOL     OW 1639   3.630   1.229   3.597
  247SOL    HW1 1640   3.682   1.314   3.590
  247SOL    HW2 1641   3.672   1.160   3.538
  248SOL     OW 1642   5.552   1.382   2.687
  248SOL    HW1 1643   5.630   1.428   2.729
  248SOL    HW2 1644   5.475   1.447   2.681
  249SOL     OW 1645   2.791   0.044   3.664
  249SOL    HW1 1646   2.875   7.019   3.689
  249SOL    HW2 1647   2.812   0.130   3.619
  250SOL     OW 1648   4.759   3.052   6.020
  250SOL    HW1 1649   4.750   2.999   5.936
  250SOL    HW2 1650   4.792   2.993   6.094
  251SOL     OW 1651   2.115   2.648   0.705
  251SOL    HW1 1652   2.094   2.745   0.706
  251SOL    HW2 1653   2.206   2.634   0.666
  252SOL     OW 1654   0.361   1.538   6.496
  252SOL    HW1 1655   0.411   1.554   6.411
  252SOL    HW2 1656   0.270   1.579   6.490
  253SOL     OW 1657   1.986   3.967   5.839
  253SOL    HW1 1658   2.084   3.950   5.850
  253SOL    HW2 1659   1.938   3.880   5.825
  254SOL     OW 1660   5.496   3.550   5.494
  254SOL    HW1 1661   5.449   3.571   5.580
  254SOL    HW2 1662   5.441   3.581   5.417
  255SOL     OW 1663   3.426   2.093   3.603
  255SOL    HW1 1664   3.512   2.138   3.628
  255SOL    HW2 1665   3.394   2.129   3.515
  256SOL     OW 1666   6.339   5.568   0.210
  256SOL    HW1 1667   6.305   5.562   0.304
  256SOL    HW2 1668   6.343   5.664   0.182
  257SOL     OW 1669   2.981   5.829   6.186
  257SOL    HW1 1670   3.028   5.822   6.098
  257SOL    HW2 1671   2.918   5.907   6.183
  258SOL     OW 1672   5.104   3.707   4.013
  258SOL    HW1 1673   5.140   3.762   3.937
  258SOL    HW2 1674   5.085   3.614   3.980
  259SOL     OW 1675   1.244   2.116   2.791
  259SOL    HW1 1676   1.337   2.126   2.757
  259SOL    HW2 1677   1.245   2.067   2.878
  260SOL     OW 1678   6.114   6.921   6.184
  260SOL    HW1 1679   6.023   6.921   6.144
  260SOL    HW2 1680   6.130   7.008   6.230
  261SOL     OW 1681   1.171   1.673   2.889
  261SOL    HW1 1682   1.117   1.644   2.969
  261SOL    HW2 1683   1.265   1.639   2.899
  262SOL     OW 1684   1.747   5.039   2.006
  262SOL    HW1 1685   1.683   5.113   1.986
  262SOL    HW2 1686   1.715   4.954   1.965
  263SOL     OW 1687   0.241   1.792   4.641
  263SOL    HW1 1688   0.314   1.821   4.579
  263SOL    HW2 1689   0.168   1.750   4.587
  264SOL     OW 1690   2.527   4.555   5.760
  264SOL    HW1 1691   2.527   4.575   5.858
  264SOL    HW2 1692   2.617   4.574   5.722
  265SOL     OW 1693   5.477   5.352   5.561
  265SOL    HW1 1694   5.420   5.387   5.635
  265SOL    HW2 1695   5.458   5.403   5.477
  266SOL     OW 1696   4.165   2.384   0.563
  266SOL    HW1 1697   4.107   2.319   0.613
  266SOL    HW2 1698   4.191   2.345   0.475
  267SOL     OW 1699   1.427   1.109   5.986
  267SOL    HW1 1700   1.365   1.090   5.910
  267SOL    HW2 1701   1.498   1.039   5.990
  268SOL     OW 1702   3.336   5.465   4.436
  268SOL    HW1 1703   3.331   5.442   4.533
  268SOL    HW2 1704   3.244   5.467   4.398
  269SOL     OW 1705   1.020   1.043   5.954
  269SOL    HW1 1706   1.040   1.134   5.989
  269SOL    HW2 1707   1.098   1.009   5.902
  270SOL     OW 1708   5.215   0.495   3.840
  270SOL    HW1 1709   5.157   0.435   3.894
  270SOL    HW2 1710   5.262   0.559   3.900
  271SOL     OW 1711   1.476   1.552   0.116
  271SOL    HW1 1712   1.564   1.503   0.115
  271SOL    HW2 1713   1.401   1.486   0.115
  272SOL     OW 1714   4.468   5.899   2.818
  272SOL    HW1 1715   4.524   5.981   2.804
  272SOL    HW2 1716   4.384   5.925   2.865
  273SOL     OW 1717   2.771   0.181   5.047
  273SOL    HW1 1718   2.748   0.225   5.134
  273SOL    HW2 1719   2.864   0.208   5.020
  274SOL     OW 1720   5.768   1.941   1.029
  274SOL    HW1 1721   5.832   1.874   0.992
  274SOL    HW2 1722   5.780   1.947   1.129
  275SOL     OW 1723   5.588   5.639   5.211
  275SOL    HW1 1724   5.632   5.549   5.224
  275SOL    HW2 1725   5.576   5.656   5.113
  276SOL     OW 1726   6.811   6.284   4.056
  276SOL    HW1 1727   6.855   6.222   4.121
  276SOL    HW2 1728   6.719   6.305   4.088
  277SOL     OW 1729   4.731   1.419   5.674
  277SOL    HW1 1730   4.681   1.460   5.598
  277SOL    HW2 1731   4.829   1.422   5.654
  278SOL     OW 1732   5.777   3.106   3.155
  278SOL    HW1 1733   5.823   3.088   3.067
  278SOL    HW2 1734   5.843   3.143   3.220
  279SOL     OW 1735   0.520   3.620   4.845
  279SOL    HW1 1736   0.481   3.529   4.860
  279SOL    HW2 1737   0.619   3.616   4.857
  280SOL     OW 1738   3.526   0.618   3.291
  280SOL    HW1 1739   3.568   0.695   3.243
  280SOL    HW2 1740   3.566   0.532   3.259
  281SOL     OW 1741   5.673   6.633   3.918
  281SOL    HW1 1742   5.717   6.707   3.866
  281SOL    HW2 1743   5.591   6.669   3.964
  282SOL     OW 1744   2.160   2.201   0.465
  282SOL    HW1 1745   2.231   2.132   0.457
  282SOL    HW2 1746   2.177   2.275   0.400
  283SOL     OW 1747   6.895   2.143   4.577
  283SOL    HW1 1748   6.817   2.122   4.636
  283SOL    HW2 1749   6.938   2.228   4.609
  284SOL     OW 1750   4.760   5.778   3.220
  284SOL    HW1 1751   4.703   5.698   3.200
  284SOL    HW2 1752   4.764   5.837   3.139
  285SOL     OW 1753   4.226   0.663   6.034
  285SOL    HW1 1754   4.287   0.654   5.956
  285SOL    HW2 1755   4.252   0.597   6.105
  286SOL     OW 1756   2.293   4.739   5.338
  286SOL    HW1 1757   2.344   4.818   5.373
  286SOL    HW2 1758   2.346   4.656   5.352
  287SOL     OW 1759   3.201   6.959   6.364
  287SOL    HW1 1760   3.177   0.033   6.375
  287SOL    HW2 1761   3.216   6.918   6.455
  288SOL     OW 1762   4.552   0.749   1.034
  288SOL    HW1 1763   4.590   0.685   0.967
  288SOL    HW2 1764   4.467   0.788   0.998
  289SOL     OW 1765   6.053   6.362   3.753
  289SOL    HW1 1766   6.070   6.449   3.798
  289SOL    HW2 1767   5.981   6.373   3.685
  290SOL     OW 1768   3.550   0.321   6.019
  290SOL    HW1 1769   3.593   0.363   6.099
  290SOL    HW2 1770   3.466   0.274   6.048
  291SOL     OW 1771   3.064   6.829   4.574
  291SOL    HW1 1772   3.077   6.876   4.487
  291SOL    HW2 1773   2.973   6.787   4.577
  292SOL     OW 1774   4.905   0.286   4.248
  292SOL    HW1 1775   4.980   0.264   4.311
  292SOL    HW2 1776   4.865   0.201   4.212
  293SOL     OW 1777   5.751   0.124   2.097
  293SOL    HW1 1778   5.812   0.048   2.073
  293SOL    HW2 1779   5.744   0.187   2.019
  294SOL     OW 1780   6.140   0.607   6.114
  294SOL    HW1 1781   6.116   0.701   6.138
  294SOL    HW2 1782   6.109   0.545   6.186
  295SOL     OW 1783   1.542   1.829   4.952
  295SOL    HW1 1784   1.590   1.761   5.008
  295SOL    HW2 1785   1.468   1.870   5.005
  296SOL     OW 1786   0.009   1.917   1.012
  296SOL    HW1 1787   7.001   2.003   1.052
  296SOL    HW2 1788   6.961   1.882   0.950
  297SOL     OW 1789   5.432   3.282   3.424
  297SOL    HW1 1790   5.361   3.293   3.355
  297SOL    HW2 1791   5.501   3.354   3.413
  298SOL     OW 1792   4.034   0.488   5.913
  298SOL    HW1 1793   4.090   0.561   5.954
  298SOL    HW2 1794   3.944   0.525   5.889
  299SOL     OW 1795   0.332   0.749   6.880
  299SOL    HW1 1796   0.326   0.803   6.797
  299SOL    HW2 1797   0.273   0.668   6.872
  300SOL     OW 1798   4.249   0.273   3.450
  300SOL    HW1 1799   4.231   0.219   3.532
  300SOL    HW2 1800   4.182   0.348   3.443
  301SOL     OW 1801   6.540   5.769   0.740
  301SOL    HW1 1802   6.590   5.856   0.740
  301SOL    HW2 1803   6.523   5.741   0.645
  302SOL     OW 1804   0.669   5.656   1.776
  302SOL    HW1 1805   0.756   5.653   1.728
  302SOL    HW2 1806   0.595   5.669   1.710
  303SOL     OW 1807   5.511   6.344   3.038
  303SOL    HW1 1808   5.524   6.402   3.118
  303SOL    HW2 1809   5.576   6.269   3.039
  304SOL     OW 1810   2.500   5.973   4.846
  304SOL    HW1 1811   2.590   5.930   4.853
  304SOL    HW2 1812   2.429   5.903   4.854
  305SOL     OW 1813   0.937   3.156   2.249
  305SOL    HW1 1814   0.911   3.235   2.193
  305SOL    HW2 1815   0.979   3.189   2.334
  306SOL     OW 1816   0.339   6.529   3.251
  306SOL    HW1 1817   0.318   6.548   3.347
  306SOL    HW2 1818   0.437   6.538   3.236
  307SOL     OW 1819   3.308   2.948   4.032
  307SOL    HW1 1820   3.294   2.929   4.129
  307SOL    HW2 1821   3.391   3.004   4.020
  308SOL     OW 1822   5.720   2.787   3.126
  308SOL    HW1 1823   5.785   2.716   3.099
  308SOL    HW2 1824   5.764   2.851   3.188
  309SOL     OW 1825   1.831   6.590   6.709
  309SOL    HW1 1826   1.790   6.499   6.697
  309SOL    HW2 1827   1.856   6.602   6.805
  310SOL     OW 1828   5.423   0.361   5.270
  310SOL    HW1 1829   5.482   0.404   5.339
  310SOL    HW2 1830   5.333   0.405   5.272
  311SOL     OW 1831   1.817   5.819   2.707
  311SOL    HW1 1832   1.759   5.786   2.633
  311SOL    HW2 1833   1.911   5.827   2.675
  312SOL     OW 1834   4.029   0.599   3.216
  312SOL    HW1 1835   4.015   0.582   3.314
  312SOL    HW2 1836   3.993   0.689   3.192
  313SOL     OW 1837   3.856   3.386   2.820
  313SOL    HW1 1838   3.855   3.406   2.722
  313SOL    HW2 1839   3.950   3.370   2.850
  314SOL     OW 1840   2.712   5.575   5.771
  314SOL    HW1 1841   2.615   5.550   5.775
  314SOL    HW2 1842   2.727   5.656   5.828
  315SOL     OW 1843   6.186   0.676   3.931
  315SOL    HW1 1844   6.257   0.607   3.916
  315SOL    HW2 1845   6.150   0.706   3.842
  316SOL     OW 1846   3.943   1.375   6.297
  316SOL    HW1 1847   3.880   1.309   6.338
  316SOL    HW2 1848   3.975   1.439   6.366
  317SOL     OW 1849   1.277   1.747   1.698
  317SOL    HW1 1850   1.196   1.796   1.665
  317SOL    HW2 1851   1.283   1.758   1.797
  318SOL     OW 1852   0.801   0.400   4.839
  318SOL    HW1 1853   0.724   0.408   4.776
  318SOL    HW2 1854   0.872   0.345   4.798
  319SOL     OW 1855   0.979   1.337   2.548
  319SOL    HW1 1856   0.896   1.361   2.496
  319SOL    HW2 1857   1.036   1.418   2.557
  320SOL     OW 1858   6.150   2.078   6.131
  320SOL    HW1 1859   6.111   2.156   6.081
  320SOL    HW2 1860   6.084   2.003   6.133
  321SOL     OW 1861   4.796   3.439   0.789
  321SOL    HW1 1862   4.745   3.451   0.704
  321SOL    HW2 1863   4.735   3.458   0.867
  322SOL     OW 1864   3.225   3.552   5.944
  322SOL    HW1 1865   3.203   3.563   6.041
  322SOL    HW2 1866   3.317   3.514   5.934
  323SOL     OW 1867   0.967   3.831   1.967
  323SOL    HW1 1868   1.065   3.837   1.948
  323SOL    HW2 1869   0.950   3.762   2.038
  324SOL     OW 1870   0.366   0.154   3.262
  324SOL    HW1 1871   0.304   0.222   3.222
  324SOL    HW2 1872   0.349   0.147   3.360
  325SOL     OW 1873   6.877   3.963   1.833
  325SOL    HW1 1874   6.786   3.987   1.867
  325SOL    HW2 1875   6.898   3.868   1.857
  326SOL     OW 1876   0.883   6.646   6.271
  326SOL    HW1 1877   0.851   6.661   6.364
  326SOL    HW2 1878   0.809   6.665   6.207
  327SOL     OW 1879   5.296   5.373   4.063
  327SOL    HW1 1880   5.345   5.452   4.098
  327SOL    HW2 1881   5.200   5.396   4.048
  328SOL     OW 1882   1.866   3.555   2.703
  328SOL    HW1 1883   1.950   3.543   2.650
  328SOL    HW2 1884   1.787   3.534   2.645
  329SOL     OW 1885   3.168   2.861   1.866
  329SOL    HW1 1886   3.193   2.828   1.957
  329SOL    HW2 1887   3.127   2.787   1.813
  330SOL     OW 1888   3.181   5.681   0.844
  330SOL    HW1 1889   3.194   5.588   0.881
  330SOL    HW2 1890   3.155   5.675   0.748
  331SOL     OW 1891   5.801   5.239   6.976
  331SOL    HW1 1892   5.829   5.211   6.885
  331SOL    HW2 1893   5.826   5.168   0.020
  332SOL     OW 1894   5.799   2.185   3.769
  332SOL    HW1 1895   5.862   2.203   3.694
  332SOL    HW2 1896   5.805   2.089   3.795
  333SOL     OW 1897   3.029   0.895   5.813
  333SOL    HW1 1898   2.934   0.914   5.791
  333SOL    HW2 1899   3.086   0.973   5.787
  334SOL     OW 1900   3.655   3.044   3.357
  334SOL    HW1 1901   3.576   3.068   3.301
  334SOL    HW2 1902   3.739   3.076   3.313
  335SOL     OW 1903   3.587   1.267   0.259
  335SOL    HW1 1904   3.582   1.217   0.173
  335SOL    HW2 1905   3.600   1.365   0.241
  336SOL     OW 1906   2.887   1.660   4.041
  336SOL    HW1 1907   2.926   1.594   3.977
  336SOL    HW2 1908   2.787   1.660   4.033
  337SOL     OW 1909   1.359   0.492   5.771
  337SOL    HW1 1910   1.458   0.478   5.773
  337SOL    HW2 1911   1.312   0.404   5.775
  338SOL     OW 1912   4.006   1.559   0.945
  338SOL    HW1 1913   4.008   1.494   0.869
  338SOL    HW2 1914   3.996   1.652   0.909
  339SOL     OW 1915   3.629   5.884   4.951
  339SOL    HW1 1916   3.564   5.898   5.026
  339SOL    HW2 1917   3.710   5.836   4.987
  340SOL     OW 1918   5.146   2.302   4.480
  340SOL    HW1 1919   5.209   2.224   4.474
  340SOL    HW2 1920   5.129   2.322   4.577
  341SOL     OW 1921   6.433   6.385   3.020
  341SOL    HW1 1922   6.449   6.323   3.097
  341SOL    HW2 1923   6.503   6.370   2.950
  342SOL     OW 1924   4.464   2.390   2.097
  342SOL    HW1 1925   4.422   2.450   2.030
  342SOL    HW2 1926   4.421   2.404   2.187
  343SOL     OW 1927   6.985   5.604   2.817
  343SOL    HW1 1928   6.949   5.694   2.793
  343SOL    HW2 1929   6.922   5.533   2.786
  344SOL     OW 1930   1.496   2.643   1.271
  344SOL    HW1 1931   1.429   2.576   1.303
  344SOL    HW2 1932   1.528   2.697   1.348
  345SOL     OW 1933   0.034   3.567   4.006
  345SOL    HW1 1934   0.093   3.638   3.968
  345SOL    HW2 1935   7.003   3.525   3.933
  346SOL     OW 1936   1.977   6.721   3.544
  346SOL    HW1 1937   1.977   6.653   3.470
  346SOL    HW2 1938   2.002   6.811   3.506
  347SOL     OW 1939   2.424   4.833   0.879
  347SOL    HW1 1940   2.362   4.833   0.958
  347SOL    HW2 1941   2.518   4.828   0.910
  348SOL     OW 1942   4.398   5.349   1.162
  348SOL    HW1 1943   4.440   5.434   1.195
  348SOL    HW2 1944   4.364   5.296   1.240
  349SOL     OW 1945   6.339   4.308   1.097
  349SOL    HW1 1946   6.375   4.368   1.025
  349SOL    HW2 1947   6.253   4.347   1.131
  350SOL     OW 1948   3.317   2.748   0.136
  350SOL    HW1 1949   3.395   2.792   0.092
  350SOL    HW2 1950   3.253   2.819   0.169
  351SOL     OW 1951   3.158   4.330   0.910
  351SOL    HW1 1952   3.248   4.291   0.930
  351SOL    HW2 1953   3.098   4.317   0.989
  352SOL     OW 1954   3.953   6.895   3.098
  352SOL    HW1 1955   3.961   6.806   3.054
  352SOL    HW2 1956   4.020   6.901   3.173
  353SOL     OW 1957   2.242   6.715   6.530
  353SOL    HW1 1958   2.175   6.786   6.551
  353SOL    HW2 1959   2.197   6.626   6.529
  354SOL     OW 1960   0.465   3.039   0.326
  354SOL    HW1 1961   0.367   3.050   0.312
  354SOL    HW2 1962   0.505   2.994   0.246
  355SOL     OW 1963   1.812   1.686   2.366
  355SOL    HW1 1964   1.712   1.686   2.373
  355SOL    HW2 1965   1.851   1.644   2.448
  356SOL     OW 1966   1.499   0.290   6.017
  356SOL    HW1 1967   1.422   0.322   6.072
  356SOL    HW2 1968   1.535   0.366   5.963
  357SOL     OW 1969   5.589   6.726   5.058
  357SOL    HW1 1970   5.616   6.792   4.988
  357SOL    HW2 1971   5.617   6.759   5.148
  358SOL     OW 1972   4.108   5.266   6.989
  358SOL    HW1 1973   4.178   5.334   7.009
  358SOL    HW2 1974   4.152   5.183   6.954
  359SOL     OW 1975   2.291   1.582   2.792
  359SOL    HW1 1976   2.346   1.632   2.859
  359SOL    HW2 1977   2.197   1.616   2.794
  360SOL     OW 1978   1.377   4.153   4.290
  360SOL    HW1 1979   1.396   4.250   4.274
  360SOL    HW2 1980   1.303   4.123   4.229
  361SOL     OW 1981   6.292   1.365   3.101
  361SOL    HW1 1982   6.325   1.424   3.027
  361SOL    HW2 1983   6.215   1.410   3.147
  362SOL     OW 1984   4.227   4.829   0.705
  362SOL    HW1 1985   4.315   4.855   0.744
  362SOL    HW2 1986   4.240   4.798   0.611
  363SOL     OW 1987   5.828   5.205   2.148
  363SOL    HW1 1988   5.875   5.291   2.126
  363SOL    HW2 1989   5.802   5.159   2.063
  364SOL     OW 1990   0.774   6.324   6.115
  364SOL    HW1 1991   0.812   6.292   6.202
  364SOL    HW2 1992   0.758   6.423   6.119
  365SOL     OW 1993   5.011   1.847   3.552
  365SOL    HW1 1994   5.099   1.863   3.509
  365SOL    HW2 1995   5.008   1.894   3.640
  366SOL     OW 1996   5.246   2.005   6.575
  366SOL    HW1 1997   5.344   2.027   6.578
  366SOL    HW2 1998   5.230   1.920   6.624
  367SOL     OW 1999   5.172   2.100   5.944
  367SOL    HW1 2000   5.181   2.108   5.844
  367SOL    HW2 2001   5.109   2.171   5.977
  368SOL     OW 2002   6.388   2.111   5.821
  368SOL    HW1 2003   6.475   2.118   5.773
  368SOL    HW2 2004   6.400   2.138   5.916
  369SOL     OW 2005   6.081   3.068   2.431
  369SOL    HW1 2006   6.030   3.076   2.345
  369SOL    HW2 2007   6.021   3.087   2.508
  370SOL     OW 2008   1.862   3.329   3.539
  370SOL    HW1 2009   1.883   3.233   3.554
  370SOL    HW2 2010   1.813   3.339   3.452
  371SOL     OW 2011   1.093   5.375   6.924
  371SOL    HW1 2012   1.110   5.334   7.014
  371SOL    HW2 2013   0.996   5.368   6.902
  372SOL     OW 2014   3.274   6.308   6.058
  372SOL    HW1 2015   3.181   6.291   6.091
  372SOL    HW2 2016   3.269   6.362   5.973
  373SOL     OW 2017   5.811   5.656   4.068
  373SOL    HW1 2018   5.884   5.657   3.999
  373SOL    HW2 2019   5.722   5.649   4.023
  374SOL     OW 2020   2.936   1.944   3.308
  374SOL    HW1 2021   2.968   1.855   3.341
  374SOL    HW2 2022   3.008   2.012   3.321
  375SOL     OW 2023   1.433   4.983   4.777
  375SOL    HW1 2024   1.489   5.045   4.832
  375SOL    HW2 2025   1.435   4.891   4.817
  376SOL     OW 2026   2.549   0.916   4.692
  376SOL    HW1 2027   2.543   0.827   4.647
  376SOL    HW2 2028   2.468   0.970   4.671
  377SOL     OW 2029   0.833   1.938   6.328
  377SOL    HW1 2030   0.856   2.014   6.389
  377SOL    HW2 2031   0.751   1.892   6.362
  378SOL     OW 2032   3.863   1.131   1.741
  378SOL    HW1 2033   3.901   1.210   1.693
  378SOL    HW2 2034   3.916   1.050   1.718
  379SOL     OW 2035   6.383   1.822   6.365
  379SOL    HW1 2036   6.383   1.754   6.291
  379SOL    HW2 2037   6.293   1.867   6.369
  380SOL     OW 2038   4.044   2.130   1.101
  380SOL    HW1 2039   4.140   2.151   1.122
  380SOL    HW2 2040   3.998   2.213   1.069
  381SOL     OW 2041   1.809   3.833   2.870
  381SOL    HW1 2042   1.842   3.754   2.818
  381SOL    HW2 2043   1.709   3.831   2.872
  382SOL     OW 2044   5.233   0.386   0.119
  382SOL    HW1 2045   5.262   0.307   0.065
  382SOL    HW2 2046   5.309   0.417   0.177
  383SOL     OW 2047   3.952   2.610   0.661
  383SOL    HW1 2048   4.016   2.638   0.590
  383SOL    HW2 2049   3.986   2.528   0.707
  384SOL     OW 2050   5.540   4.033   4.748
  384SOL    HW1 2051   5.484   3.982   4.682
  384SOL    HW2 2052   5.605   3.971   4.791
  385SOL     OW 2053   4.352   4.152   0.298
  385SOL    HW1 2054   4.416   4.102   0.239
  385SOL    HW2 2055   4.388   4.244   0.315
  386SOL     OW 2056   3.387   6.753   3.737
  386SOL    HW1 2057   3.405   6.850   3.720
  386SOL    HW2 2058   3.313   6.722   3.677
  387SOL     OW 2059   2.205   5.926   3.551
  387SOL    HW1 2060   2.198   5.892   3.644
  387SOL    HW2 2061   2.247   6.017   3.552
  388SOL     OW 2062   2.064   3.188   6.286
  388SOL    HW1 2063   2.056   3.211   6.189
  388SOL    HW2 2064   2.010   3.106   6.305
  389SOL     OW 2065   2.899   3.753   3.181
  389SOL    HW1 2066   2.912   3.768   3.083
  389SOL    HW2 2067   2.885   3.655   3.198
  390SOL     OW 2068   1.999   1.013   4.362
  390SOL    HW1 2069   2.071   1.018   4.293
  390SOL    HW2 2070   2.041   1.001   4.452
  391SOL     OW 2071   0.753   3.120   6.989
  391SOL    HW1 2072   0.806   3.035   6.989
  391SOL    HW2 2073   0.709   3.132   6.900
  392SOL     OW 2074   2.527   4.947   2.848
  392SOL    HW1 2075   2.460   4.929   2.777
  392SOL    HW2 2076   2.488   5.008   2.917
  393SOL     OW 2077   6.020   4.715   4.638
  393SOL    HW1 2078   6.024   4.813   4.657
  393SOL    HW2 2079   6.004   4.701   4.540
  394SOL     OW 2080   1.966   0.165   0.305
  394SOL    HW1 2081   1.960   0.093   0.235
  394SOL    HW2 2082   1.910   0.243   0.276
  395SOL     OW 2083   5.050   3.840   1.359
  395SOL    HW1 2084   5.107   3.902   1.412
  395SOL    HW2 2085   5.068   3.745   1.387
  396SOL     OW 2086   3.511   4.129   3.685
  396SOL    HW1 2087   3.515   4.220   3.644
  396SOL    HW2 2088   3.565   4.065   3.630
  397SOL     OW 2089   4.216   2.143   5.771
  397SOL    HW1 2090   4.273   2.203   5.716
  397SOL    HW2 2091   4.123   2.142   5.733
  398SOL     OW 2092   1.197   5.080   2.500
  398SOL    HW1 2093   1.222   5.006   2.438
  398SOL    HW2 2094   1.210   5.050   2.595
  399SOL     OW 2095   4.611   5.203   1.437
  399SOL    HW1 2096   4.631   5.160   1.349
  399SOL    HW2 2097   4.664   5.157   1.509
  400SOL     OW 2098   0.698   5.833   5.326
  400SOL    HW1 2099   0.665   5.739   5.326
  400SOL    HW2 2100   0.755   5.849   5.406
  401SOL     OW 2101   4.970   2.157   6.669
  401SOL    HW1 2102   4.998   2.243   6.627
  401SOL    HW2 2103   5.050   2.101   6.690
  402SOL     OW 2104   5.798   5.660   1.575
  402SOL    HW1 2105   5.741   5.592   1.530
  402SOL    HW2 2106   5.828   5.728   1.508
  403SOL     OW 2107   4.706   2.376   5.830
  403SOL    HW1 2108   4.752   2.448   5.882
  403SOL    HW2 2109   4.618   2.356   5.872
  404SOL     OW 2110   1.085   0.157   4.351
  404SOL    HW1 2111   1.176   0.117   4.343
  404SOL    HW2 2112   1.052   0.183   4.260
  405SOL     OW 2113   0.746   2.538   0.822
  405SOL    HW1 2114   0.802   2.610   0.782
  405SOL    HW2 2115   0.797   2.452   0.823
  406SOL     OW 2116   1.872   2.539   3.888
  406SOL    HW1 2117   1.945   2.608   3.895
  406SOL    HW2 2118   1.783   2.582   3.903
  407SOL     OW 2119   2.781   0.626   5.303
  407SOL    HW1 2120   2.731   0.712   5.313
  407SOL    HW2 2121   2.877   0.645   5.280
  408SOL     OW 2122   2.057   0.601   3.825
  408SOL    HW1 2123   2.075   0.678   3.887
  408SOL    HW2 2124   1.979   0.548   3.860
  409SOL     OW 2125   5.478   3.258   3.724
  409SOL    HW1 2126   5.503   3.321   3.651
  409SOL    HW2 2127   5.499   3.164   3.696
  410SOL     OW 2128   2.767   1.103   6.603
  410SOL    HW1 2129   2.786   1.042   6.526
  410SOL    HW2 2130   2.844   1.165   6.617
  411SOL     OW 2131   6.246   4.461   5.035
  411SOL    HW1 2132   6.253   4.509   5.122
  411SOL    HW2 2133   6.187   4.514   4.973
  412SOL     OW 2134   3.884   0.387   2.326
  412SOL    HW1 2135   3.935   0.322   2.382
  412SOL    HW2 2136   3.829   0.337   2.259
  413SOL     OW 2137   3.151   6.402   0.596
  413SOL    HW1 2138   3.224   6.407   0.529
  413SOL    HW2 2139   3.167   6.326   0.658
  414SOL     OW 2140   4.263   4.135   0.577
  414SOL    HW1 2141   4.306   4.137   0.487
  414SOL    HW2 2142   4.166   4.114   0.567
  415SOL     OW 2143   2.025   6.430   1.418
  415SOL    HW1 2144   2.121   6.428   1.392
  415SOL    HW2 2145   1.973   6.480   1.349
  416SOL     OW 2146   4.410   6.356   5.081
  416SOL    HW1 2147   4.339   6.426   5.089
  416SOL    HW2 2148   4.454   6.363   4.991
  417SOL     OW 2149   4.328   6.213   1.854
  417SOL    HW1 2150   4.297   6.283   1.918
  417SOL    HW2 2151   4.377   6.256   1.777
  418SOL     OW 2152   4.841   5.990   0.665
  418SOL    HW1 2153   4.924   5.934   0.660
  418SOL    HW2 2154   4.791   5.968   0.749
  419SOL     OW 2155   0.232   6.545   1.137
  419SOL    HW1 2156   0.327   6.529   1.112
  419SOL    HW2 2157   0.174   6.533   1.057
  420SOL     OW 2158   5.042   4.397   0.261
  420SOL    HW1 2159   4.975   4.454   0.214
  420SOL    HW2 2160   4.996   4.317   0.301
  421SOL     OW 2161   2.705   6.223   6.665
  421SOL    HW1 2162   2.711   6.301   6.602
  421SOL    HW2 2163   2.609   6.207   6.688
  422SOL     OW 2164   5.787   4.167   6.527
  422SOL    HW1 2165   5.690   4.145   6.524
  422SOL    HW2 2166   5.840   4.082   6.528
  423SOL     OW 2167   6.179   3.063   6.926
  423SOL    HW1 2168   6.080   3.049   6.918
  423SOL    HW2 2169   6.206   3.058   7.022
  424SOL     OW 2170   3.143   4.173   0.486
  424SOL    HW1 2171   3.168   4.237   0.414
  424SOL    HW2 2172   3.046   4.184   0.509
  425SOL     OW 2173   3.341   1.546   1.004
  425SOL    HW1 2174   3.330   1.552   0.905
  425SOL    HW2 2175   3.300   1.461   1.037
  426SOL     OW 2176   5.507   3.504   6.430
  426SOL    HW1 2177   5.445   3.526   6.506
  426SOL    HW2 2178   5.455   3.504   6.345
  427SOL     OW 2179   5.544   4.287   1.466
  427SOL    HW1 2180   5.627   4.230   1.461
  427SOL    HW2 2181   5.499   4.288   1.377
  428SOL     OW 2182   4.152   0.419   5.628
  428SOL    HW1 2183   4.139   0.496   5.691
  428SOL    HW2 2184   4.179   0.338   5.680
  429SOL     OW 2185   1.602   5.010   6.787
  429SOL    HW1 2186   1.618   5.106   6.764
  429SOL    HW2 2187   1.564   5.004   6.879
  430SOL     OW 2188   1.262   7.016   4.786
  430SOL    HW1 2189   1.255   0.060   4.711
  430SOL    HW2 2190   1.225   6.929   4.755
  431SOL     OW 2191   3.705   1.965   0.583
  431SOL    HW1 2192   3.729   1.886   0.638
  431SOL    HW2 2193   3.783   1.992   0.527
  432SOL     OW 2194   6.622   1.204   0.422
  432SOL    HW1 2195   6.709   1.189   0.375
  432SOL    HW2 2196   6.576   1.283   0.383
  433SOL     OW 2197   3.090   6.761   4.846
  433SOL    HW1 2198   3.091   6.772   4.747
  433SOL    HW2 2199   3.178   6.790   4.883
  434SOL     OW 2200   5.663   3.331   1.120
  434SOL    HW1 2201   5.565   3.348   1.131
  434SOL    HW2 2202   5.679   3.274   1.039
  435SOL     OW 2203   2.932   3.977   6.426
  435SOL    HW1 2204   2.888   3.983   6.515
  435SOL    HW2 2205   2.862   3.986   6.354
  436SOL     OW 2206   1.778   1.163   0.702
  436SOL    HW1 2207   1.726   1.247   0.714
  436SOL    HW2 2208   1.744   1.114   0.622
  437SOL     OW 2209   0.006   0.149   6.310
  437SOL    HW1 2210   0.100   0.125   6.287
  437SOL    HW2 2211   7.014   0.139   6.408
  438SOL     OW 2212   1.274   3.419   1.740
  438SOL    HW1 2213   1.220   3.335   1.745
  438SOL    HW2 2214   1.352   3.406   1.679
  439SOL     OW 2215   6.427   4.960   2.284
  439SOL    HW1 2216   6.460   4.900   2.357
  439SOL    HW2 2217   6.367   5.030   2.323
  440SOL     OW 2218   0.964   2.462   3.641
  440SOL    HW1 2219   1.014   2.454   3.555
  440SOL    HW2 2220   0.959   2.372   3.684
  441SOL     OW 2221   1.483   1.597   2.829
  441SOL    HW1 2222   1.545   1.551   2.892
  441SOL    HW2 2223   1.412   1.533   2.800
  442SOL     OW 2224   6.846   4.061   0.099
  442SOL    HW1 2225   6.786   4.140   0.087
  442SOL    HW2 2226   6.851   4.009   0.014
  443SOL     OW 2227   1.355   3.699   5.103
  443SOL    HW1 2228   1.426   3.753   5.059
  443SOL    HW2 2229   1.319   3.631   5.038
  444SOL     OW 2230   4.810   2.555   6.269
  444SOL    HW1 2231   4.766   2.467   6.292
  444SOL    HW2 2232   4.749   2.630   6.294
  445SOL     OW 2233   2.484   4.439   3.705
  445SOL    HW1 2234   2.479   4.513   3.638
  445SOL    HW2 2235   2.425   4.364   3.677
  446SOL     OW 2236   3.744   5.225   3.832
  446SOL    HW1 2237   3.801   5.266   3.904
  446SOL    HW2 2238   3.799   5.215   3.749
  447SOL     OW 2239   0.103   5.628   0.754
  447SOL    HW1 2240   0.111   5.636   0.853
  447SOL    HW2 2241   0.015   5.588   0.730
  448SOL     OW 2242   4.247   0.936   5.169
  448SOL    HW1 2243   4.201   0.944   5.258
  448SOL    HW2 2244   4.264   0.840   5.150
  449SOL     OW 2245   5.539   0.980   4.655
  449SOL    HW1 2246   5.456   1.016   4.698
  449SOL    HW2 2247   5.560   0.890   4.693
  450SOL     OW 2248   0.260   5.917   3.803
  450SOL    HW1 2249   0.181   5.887   3.856
  450SOL    HW2 2250   0.344   5.886   3.848
  451SOL     OW 2251   0.451   1.586   2.674
  451SOL    HW1 2252   0.392   1.625   2.603
  451SOL    HW2 2253   0.426   1.490   2.690
  452SOL     OW 2254   0.581   4.098   0.043
  452SOL    HW1 2255   0.533   4.062   0.123
  452SOL    HW2 2256   0.657   4.156   0.073
  453SOL     OW 2257   3.035   1.569   6.493
  453SOL    HW1 2258   2.960   1.613   6.543
  453SOL    HW2 2259   3.062   1.628   6.417
  454SOL     OW 2260   0.817   6.075   6.553
  454SOL    HW1 2261   0.837   6.164   6.512
  454SOL    HW2 2262   0.750   6.086   6.626
  455SOL     OW 2263   5.958   0.665   4.309
  455SOL    HW1 2264   5.939   0.648   4.212
  455SOL    HW2 2265   6.035   0.728   4.317
  456SOL     OW 2266   4.177   6.145   6.377
  456SOL    HW1 2267   4.159   6.090   6.458
  456SOL    HW2 2268   4.091   6.184   6.344
  457SOL     OW 2269   2.282   4.272   3.160
  457SOL    HW1 2270   2.237   4.266   3.249
  457SOL    HW2 2271   2.280   4.183   3.115
  458SOL     OW 2272   5.975   5.483   5.593
  458SOL    HW1 2273   5.901   5.416   5.584
  458SOL    HW2 2274   5.936   5.572   5.614
  459SOL     OW 2275   1.457   0.533   2.638
  459SOL    HW1 2276   1.432   0.457   2.578
  459SOL    HW2 2277   1.479   0.498   2.729
  460SOL     OW 2278   6.381   1.662   2.512
  460SOL    HW1 2279   6.428   1.650   2.424
  460SOL    HW2 2280   6.447   1.655   2.586
  461SOL     OW 2281   4.497   0.098   5.242
  461SOL    HW1 2282   4.547   0.050   5.314
  461SOL    HW2 2283   4.409   0.054   5.227
  462SOL     OW 2284   2.951   3.034   6.384
  462SOL    HW1 2285   3.011   3.106   6.419
  462SOL    HW2 2286   2.913   3.062   6.296
  463SOL     OW 2287   6.463   5.385   3.102
  463SOL    HW1 2288   6.485   5.287   3.093
  463SOL    HW2 2289   6.546   5.436   3.123
  464SOL     OW 2290   1.315   1.346   6.268
  464SOL    HW1 2291   1.232   1.386   6.307
  464SOL    HW2 2292   1.374   1.418   6.234
  465SOL     OW 2293   0.830   1.913   3.643
  465SOL    HW1 2294   0.880   1.835   3.681
  465SOL    HW2 2295   0.816   1.982   3.714
  466SOL     OW 2296   0.958   6.908   4.011
  466SOL    HW1 2297   0.913   6.841   4.070
  466SOL    HW2 2298   0.909   6.915   3.924
  467SOL     OW 2299   1.442   0.285   5.361
  467SOL    HW1 2300   1.361   0.320   5.407
  467SOL    HW2 2301   1.416   0.241   5.275
  468SOL     OW 2302   3.982   5.667   0.902
  468SOL    HW1 2303   3.963   5.697   0.809
  468SOL    HW2 2304   3.995   5.747   0.961
  469SOL     OW 2305   2.172   5.698   0.309
  469SOL    HW1 2306   2.270   5.693   0.288
  469SOL    HW2 2307   2.160   5.708   0.408
  470SOL     OW 2308   4.249   0.908   2.403
  470SOL    HW1 2309   4.318   0.977   2.380
  470SOL    HW2 2310   4.217   0.924   2.497
  471SOL     OW 2311   2.226   2.475   4.897
  471SOL    HW1 2312   2.305   2.536   4.902
  471SOL    HW2 2313   2.225   2.427   4.810
  472SOL     OW 2314   4.834   5.459   6.576
  472SOL    HW1 2315   4.856   5.458   6.478
  472SOL    HW2 2316   4.750   5.512   6.591
  473SOL     OW 2317   0.690   3.131   2.434
  473SOL    HW1 2318   0.658   3.180   2.353
  473SOL    HW2 2319   0.709   3.197   2.507
  474SOL     OW 2320   4.329   4.940   4.332
  474SOL    HW1 2321   4.276   4.855   4.333
  474SOL    HW2 2322   4.427   4.918   4.333
  475SOL     OW 2323   7.005   6.724   6.550
  475SOL    HW1 2324   0.064   6.782   6.546
  475SOL    HW2 2325   0.005   6.639   6.598
  476SOL     OW 2326   6.086   4.907   2.217
  476SOL    HW1 2327   6.143   4.981   2.183
  476SOL    HW2 2328   5.996   4.911   2.174
  477SOL     OW 2329   1.962   4.953   4.297
  477SOL    HW1 2330   1.883   4.935   4.355
  477SOL    HW2 2331   1.969   4.884   4.226
  478SOL     OW 2332   3.599   5.713   3.486
  478SOL    HW1 2333   3.535   5.651   3.439
  478SOL    HW2 2334   3.557   5.803   3.493
  479SOL     OW 2335   2.810   2.583   0.421
  479SOL    HW1 2336   2.896   2.590   0.369
  479SOL    HW2 2337   2.829   2.544   0.511
  480SOL     OW 2338   1.668   0.178   2.282
  480SOL    HW1 2339   1.700   0.140   2.195
  480SOL    HW2 2340   1.626   0.267   2.265
  481SOL     OW 2341   3.120   0.193   1.655
  481SOL    HW1 2342   3.048   0.174   1.589
  481SOL    HW2 2343   3.094   0.270   1.713
  482SOL     OW 2344   5.478   4.834   2.390
  482SOL    HW1 2345   5.535   4.804   2.313
  482SOL    HW2 2346   5.535   4.844   2.471
  483SOL     OW 2347   5.941   1.653   1.957
  483SOL    HW1 2348   6.016   1.593   1.986
  483SOL    HW2 2349   5.855   1.622   1.998
  484SOL     OW 2350   0.395   2.774   4.024
  484SOL    HW1 2351   0.341   2.857   4.039
  484SOL    HW2 2352   0.334   2.698   4.003
  485SOL     OW 2353   3.500   4.889   2.424
  485SOL    HW1 2354   3.440   4.841   2.359
  485SOL    HW2 2355   3.511   4.984   2.395
  486SOL     OW 2356   0.822   1.373   0.153
  486SOL    HW1 2357   0.901   1.434   0.168
  486SOL    HW2 2358   0.751   1.395   0.220
  487SOL     OW 2359   0.614   2.136   0.294
  487SOL    HW1 2360   0.540   2.157   0.358
  487SOL    HW2 2361   0.599   2.186   0.209
  488SOL     OW 2362   0.426   1.917   1.865
  488SOL    HW1 2363   0.345   1.968   1.893
  488SOL    HW2 2364   0.453   1.853   1.937
  489SOL     OW 2365   3.772   6.293   0.216
  489SOL    HW1 2366   3.869   6.316   0.224
  489SOL    HW2 2367   3.760   6.225   0.143
  490SOL     OW 2368   6.391   6.663   4.245
  490SOL    HW1 2369   6.389   6.627   4.152
  490SOL    HW2 2370   6.406   6.762   4.242
  491SOL     OW 2371   0.319   2.317   2.992
  491SOL    HW1 2372   0.360   2.300   3.082
  491SOL    HW2 2373   0.247   2.251   2.974
  492SOL     OW 2374   2.583   0.291   6.111
  492SOL    HW1 2375   2.619   0.295   6.017
  492SOL    HW2 2376   2.564   0.384   6.143
  493SOL     OW 2377   6.422   4.436   5.537
  493SOL    HW1 2378   6.507   4.395   5.570
  493SOL    HW2 2379   6.387   4.383   5.460
  494SOL     OW 2380   0.332   6.420   0.164
  494SOL    HW1 2381   0.288   6.405   0.075
  494SOL    HW2 2382   0.263   6.435   0.234
  495SOL     OW 2383   5.032   5.022   2.450
  495SOL    HW1 2384   4.984   5.030   2.537
  495SOL    HW2 2385   5.120   4.977   2.464
  496SOL     OW 2386   5.487   3.515   2.935
  496SOL    HW1 2387   5.568   3.458   2.948
  496SOL    HW2 2388   5.501   3.577   2.858
  497SOL     OW 2389   3.309   1.121   5.335
  497SOL    HW1 2390   3.303   1.025   5.309
  497SOL    HW2 2391   3.390   1.163   5.293
  498SOL     OW 2392   0.609   2.887   2.287
  498SOL    HW1 2393   0.510   2.898   2.298
  498SOL    HW2 2394   0.657   2.960   2.334
  499SOL     OW 2395   3.458   0.341   4.814
  499SOL    HW1 2396   3.393   0.326   4.739
  499SOL    HW2 2397   3.432   0.422   4.865
  500SOL     OW 2398   0.880   3.879   2.893
  500SOL    HW1 2399   0.851   3.822   2.969
  500SOL    HW2 2400   0.920   3.821   2.821
  501SOL     OW 2401   2.349   2.917   7.011
  501SOL    HW1 2402   2.446   2.921   0.014
  501SOL    HW2 2403   2.307   2.836   0.030
  502SOL     OW 2404   4.874   4.419   6.150
  502SOL    HW1 2405   4.778   4.397   6.132
  502SOL    HW2 2406   4.931   4.387   6.074
  503SOL     OW 2407   6.021   4.378   5.625
  503SOL    HW1 2408   6.103   4.326   5.601
  503SOL    HW2 2409   5.969   4.397   5.542
  504SOL     OW 2410   2.222   5.886   4.422
  504SOL    HW1 2411   2.247   5.836   4.506
  504SOL    HW2 2412   2.303   5.932   4.386
  505SOL     OW 2413   4.096   0.528   6.314
  505SOL    HW1 2414   4.130   0.439   6.285
  505SOL    HW2 2415   4.174   0.589   6.330
  506SOL     OW 2416   1.649   4.310   5.518
  506SOL    HW1 2417   1.653   4.291   5.616
  506SOL    HW2 2418   1.742   4.315   5.481
  507SOL     OW 2419   3.100   0.190   4.329
  507SOL    HW1 2420   3.127   0.286   4.337
  507SOL    HW2 2421   3.032   0.169   4.398
  508SOL     OW 2422   5.558   4.075   2.403
  508SOL    HW1 2423   5.498   4.004   2.438
  508SOL    HW2 2424   5.527   4.164   2.436
  509SOL     OW 2425   4.370   1.446   1.485
  509SOL    HW1 2426   4.458   1.435   1.439
  509SOL    HW2 2427   4.381   1.507   1.563
  510SOL     OW 2428   6.919   4.701   5.769
  510SOL    HW1 2429   6.848   4.717   5.838
  510SOL    HW2 2430   6.876   4.681   5.681
  511SOL     OW 2431   0.290   6.253   0.529
  511SOL    HW1 2432   0.331   6.265   0.619
  511SOL    HW2 2433   0.243   6.337   0.502
  512SOL     OW 2434   1.627   3.424   6.828
  512SOL    HW1 2435   1.565   3.425   6.906
  512SOL    HW2 2436   1.598   3.353   6.763
  513SOL     OW 2437   6.434   6.306   3.561
  513SOL    HW1 2438   6.505   6.317   3.492
  513SOL    HW2 2439   6.345   6.332   3.523
  514SOL     OW 2440   0.036   1.971   4.196
  514SOL    HW1 2441   6.975   2.017   4.225
  514SOL    HW2 2442   0.110   1.995   4.258
  515SOL     OW 2443   2.040   0.029   5.930
  515SOL    HW1 2444   1.993   0.118   5.932
  515SOL    HW2 2445   1.980   6.983   5.889
  516SOL     OW 2446   2.351   5.145   1.805
  516SOL    HW1 2447   2.363   5.159   1.903
  516SOL    HW2 2448   2.324   5.050   1.788
  517SOL     OW 2449   5.272   6.896   1.888
  517SOL    HW1 2450   5.325   6.812   1.882
  517SOL    HW2 2451   5.321   6.961   1.947
  518SOL     OW 2452   1.886   2.041   1.600
  518SOL    HW1 2453   1.959   2.095   1.641
  518SOL    HW2 2454   1.922   1.951   1.573
  519SOL     OW 2455   0.271   0.562   5.366
  519SOL    HW1 2456   0.274   0.582   5.464
  519SOL    HW2 2457   0.325   0.630   5.316
  520SOL     OW 2458   5.601   4.993   5.977
  520SOL    HW1 2459   5.624   4.896   5.964
  520SOL    HW2 2460   5.502   5.005   5.970
  521SOL     OW 2461   0.049   1.883   6.328
  521SOL    HW1 2462   0.130   1.937   6.351
  521SOL    HW2 2463   6.993   1.944   6.315
  522SOL     OW 2464   3.851   3.027   5.159
  522SOL    HW1 2465   3.880   2.944   5.206
  522SOL    HW2 2466   3.818   3.094   5.226
  523SOL     OW 2467   0.158   6.953   4.083
  523SOL    HW1 2468   0.240   6.958   4.141
  523SOL    HW2 2469   0.181   6.907   3.997
  524SOL     OW 2470   2.696   0.916   6.773
  524SOL    HW1 2471   2.717   0.988   6.706
  524SOL    HW2 2472   2.775   0.855   6.782
  525SOL     OW 2473   2.682   3.571   6.342
  525SOL    HW1 2474   2.780   3.556   6.331
  525SOL    HW2 2475   2.642   3.496   6.394
  526SOL     OW 2476   3.031   5.394   4.648
  526SOL    HW1 2477   2.945   5.387   4.699
  526SOL    HW2 2478   3.053   5.305   4.607
  527SOL     OW 2479   6.665   1.448   6.097
  527SOL    HW1 2480   6.709   1.358   6.091
  527SOL    HW2 2481   6.691   1.503   6.018
  528SOL     OW 2482   1.615   1.407   5.238
  528SOL    HW1 2483   1.698   1.448   5.200
  528SOL    HW2 2484   1.553   1.383   5.163
  529SOL     OW 2485   0.946   5.217   5.186
  529SOL    HW1 2486   0.948   5.204   5.087
  529SOL    HW2 2487   0.962   5.129   5.232
  530SOL     OW 2488   2.310   3.095   5.376
  530SOL    HW1 2489   2.238   3.149   5.332
  530SOL    HW2 2490   2.372   3.059   5.306
  531SOL     OW 2491   0.597   0.395   1.147
  531SOL    HW1 2492   0.568   0.304   1.175
  531SOL    HW2 2493   0.673   0.426   1.204
  532SOL     OW 2494   1.381   2.041   5.610
  532SOL    HW1 2495   1.469   2.088   5.599
  532SOL    HW2 2496   1.341   2.064   5.698
  533SOL     OW 2497   5.328   6.160   4.731
  533SOL    HW1 2498   5.330   6.072   4.779
  533SOL    HW2 2499   5.238   6.173   4.690
  534SOL     OW 2500   4.341   5.402   2.914
  534SOL    HW1 2501   4.269   5.472   2.916
  534SOL    HW2 2502   4.358   5.370   3.007
  535SOL     OW 2503   0.646   3.938   3.489
  535SOL    HW1 2504   0.602   3.956   3.401
  535SOL    HW2 2505   0.602   3.860   3.533
  536SOL     OW 2506   1.722   5.320   1.371
  536SOL    HW1 2507   1.657   5.305   1.445
  536SOL    HW2 2508   1.768   5.234   1.348
  537SOL     OW 2509   2.580   6.640   3.077
  537SOL    HW1 2510   2.677   6.638   3.056
  537SOL    HW2 2511   2.531   6.687   3.003
  538SOL     OW 2512   1.187   5.745   3.380
  538SOL    HW1 2513   1.104   5.779   3.423
  538SOL    HW2 2514   1.165   5.705   3.291
  539SOL     OW 2515   1.602   5.247   1.640
  539SOL    HW1 2516   1.526   5.181   1.646
  539SOL    HW2 2517   1.682   5.209   1.687
  540SOL     OW 2518   1.062   2.098   2.427
  540SOL    HW1 2519   0.984   2.159   2.442
  540SOL    HW2 2520   1.064   2.028   2.498
  541SOL     OW 2521   3.131   6.289   5.094
  541SOL    HW1 2522   3.190   6.365   5.125
  541SOL    HW2 2523   3.155   6.264   5.001
  542SOL     OW 2524   5.347   6.032   6.978
  542SOL    HW1 2525   5.355   6.055   0.052
  542SOL    HW2 2526   5.257   5.992   6.961
  543SOL     OW 2527   1.330   4.743   6.988
  543SOL    HW1 2528   1.284   4.727   0.054
  543SOL    HW2 2529   1.339   4.841   6.972
  544SOL     OW 2530   0.503   5.417   0.577
  544SOL    HW1 2531   0.505   5.488   0.506
  544SOL    HW2 2532   0.596   5.401   0.610
  545SOL     OW 2533   4.140   1.222   2.843
  545SOL    HW1 2534   4.211   1.247   2.777
  545SOL    HW2 2535   4.113   1.303   2.895
  546SOL     OW 2536   1.060   3.616   1.134
  546SOL    HW1 2537   1.051   3.704   1.180
  546SOL    HW2 2538   1.069   3.630   1.035
  547SOL     OW 2539   2.649   2.942   0.833
  547SOL    HW1 2540   2.556   2.955   0.797
  547SOL    HW2 2541   2.654   2.854   0.881
  548SOL     OW 2542   3.732   2.931   4.504
  548SOL    HW1 2543   3.676   2.873   4.445
  548SOL    HW2 2544   3.685   2.944   4.591
  549SOL     OW 2545   5.099   3.559   1.387
  549SOL    HW1 2546   5.063   3.525   1.473
  549SOL    HW2 2547   5.111   3.482   1.323
  550SOL     OW 2548   6.526   2.843   2.441
  550SOL    HW1 2549   6.467   2.771   2.476
  550SOL    HW2 2550   6.560   2.818   2.350
  551SOL     OW 2551   6.818   1.537   1.115
  551SOL    HW1 2552   6.753   1.612   1.100
  551SOL    HW2 2553   6.794   1.459   1.058
  552SOL     OW 2554   3.929   5.169   0.786
  552SOL    HW1 2555   3.894   5.079   0.760
  552SOL    HW2 2556   3.924   5.231   0.708
  553SOL     OW 2557   2.247   1.139   1.263
  553SOL    HW1 2558   2.271   1.203   1.336
  553SOL    HW2 2559   2.153   1.107   1.277
  554SOL     OW 2560   5.778   6.725   5.798
  554SOL    HW1 2561   5.739   6.810   5.760
  554SOL    HW2 2562   5.827   6.676   5.725
  555SOL     OW 2563   1.438   4.766   4.437
  555SOL    HW1 2564   1.518   4.780   4.378
  555SOL    HW2 2565   1.468   4.733   4.527
  556SOL     OW 2566   5.740   2.631   3.850
  556SOL    HW1 2567   5.680   2.555   3.822
  556SOL    HW2 2568   5.724   2.709   3.790
  557SOL     OW 2569   6.875   5.936   6.750
  557SOL    HW1 2570   6.900   5.927   6.846
  557SOL    HW2 2571   6.950   5.978   6.699
  558SOL     OW 2572   4.348   3.566   5.206
  558SOL    HW1 2573   4.332   3.474   5.240
  558SOL    HW2 2574   4.445   3.576   5.181
  559SOL     OW 2575   0.553   5.904   6.379
  559SOL    HW1 2576   0.608   5.981   6.412
  559SOL    HW2 2577   0.520   5.851   6.457
  560SOL     OW 2578   4.824   6.743   6.851
  560SOL    HW1 2579   4.822   6.796   6.936
  560SOL    HW2 2580   4.796   6.800   6.774
  561SOL     OW 2581   5.838   0.041   0.548
  561SOL    HW1 2582   5.908   7.021   0.491
  561SOL    HW2 2583   5.844   0.141   0.540
  562SOL     OW 2584   5.273   1.058   5.931
  562SOL    HW1 2585   5.300   1.155   5.928
  562SOL    HW2 2586   5.181   1.049   5.893
  563SOL     OW 2587   2.935   6.246   4.199
  563SOL    HW1 2588   2.974   6.207   4.282
  563SOL    HW2 2589   2.980   6.334   4.180
  564SOL     OW 2590   0.443   1.516   6.929
  564SOL    HW1 2591   0.457   1.560   6.840
  564SOL    HW2 2592   0.505   1.439   6.939
  565SOL     OW 2593   4.585   3.598   5.627
  565SOL    HW1 2594   4.586   3.500   5.607
  565SOL    HW2 2595   4.575   3.650   5.542
  566SOL     OW 2596   4.387   4.916   3.834
  566SOL    HW1 2597   4.433   4.865   3.760
  566SOL    HW2 2598   4.395   4.865   3.919
  567SOL     OW 2599   3.176   3.377   4.944
  567SOL    HW1 2600   3.095   3.407   4.893
  567SOL    HW2 2601   3.258   3.401   4.892
  568SOL     OW 2602   2.777   1.973   0.279
  568SOL    HW1 2603   2.861   2.007   0.236
  568SOL    HW2 2604   2.710   2.047   0.284
  569SOL     OW 2605   1.542   3.046   0.845
  569SOL    HW1 2606   1.603   2.967   0.847
  569SOL    HW2 2607   1.492   3.053   0.932
  570SOL     OW 2608   0.979   6.517   0.564
  570SOL    HW1 2609   0.913   6.488   0.495
  570SOL    HW2 2610   1.026   6.600   0.534
  571SOL     OW 2611   3.722   5.137   2.738
  571SOL    HW1 2612   3.739   5.069   2.809
  571SOL    HW2 2613   3.715   5.228   2.780
  572SOL     OW 2614   1.732   3.899   5.432
  572SOL    HW1 2615   1.665   3.965   5.397
  572SOL    HW2 2616   1.748   3.828   5.363
  573SOL     OW 2617   4.298   1.390   5.574
  573SOL    HW1 2618   4.324   1.315   5.513
  573SOL    HW2 2619   4.365   1.464   5.567
  574SOL     OW 2620   2.277   2.234   4.261
  574SOL    HW1 2621   2.255   2.330   4.245
  574SOL    HW2 2622   2.331   2.225   4.345
  575SOL     OW 2623   6.844   2.327   0.356
  575SOL    HW1 2624   6.763   2.271   0.340
  575SOL    HW2 2625   6.819   2.409   0.407
  576SOL     OW 2626   1.172   1.745   2.418
  576SOL    HW1 2627   1.243   1.790   2.363
  576SOL    HW2 2628   1.114   1.815   2.461
  577SOL     OW 2629   2.681   2.129   3.656
  577SOL    HW1 2630   2.584   2.150   3.670
  577SOL    HW2 2631   2.695   2.091   3.565
  578SOL     OW 2632   0.376   3.257   3.208
  578SOL    HW1 2633   0.406   3.348   3.179
  578SOL    HW2 2634   0.421   3.233   3.294
  579SOL     OW 2635   5.112   2.180   0.267
  579SOL    HW1 2636   5.038   2.221   0.214
  579SOL    HW2 2637   5.163   2.251   0.314
  580SOL     OW 2638   1.491   5.559   6.531
  580SOL    HW1 2639   1.436   5.643   6.536
  580SOL    HW2 2640   1.550   5.554   6.612
  581SOL     OW 2641   3.750   3.043   2.705
  581SOL    HW1 2642   3.785   2.992   2.626
  581SOL    HW2 2643   3.651   3.030   2.712
  582SOL     OW 2644   5.339   3.928   2.542
  582SOL    HW1 2645   5.265   3.927   2.475
  582SOL    HW2 2646   5.302   3.946   2.633
  583SOL     OW 2647   2.393   4.249   0.621
  583SOL    HW1 2648   2.422   4.322   0.559
  583SOL    HW2 2649   2.468   4.183   0.631
  584SOL     OW 2650   0.063   4.682   5.022
  584SOL    HW1 2651   0.061   4.752   5.093
  584SOL    HW2 2652   0.128   4.708   4.951
  585SOL     OW 2653   0.040   2.080   6.073
  585SOL    HW1 2654   0.056   2.094   6.171
  585SOL    HW2 2655   0.084   1.995   6.044
  586SOL     OW 2656   2.599   6.848   0.568
  586SOL    HW1 2657   2.600   6.942   0.601
  586SOL    HW2 2658   2.605   6.785   0.646
  587SOL     OW 2659   0.802   3.312   5.747
  587SOL    HW1 2660   0.894   3.300   5.710
  587SOL    HW2 2661   0.806   3.363   5.832
  588SOL     OW 2662   3.359   6.080   1.918
  588SOL    HW1 2663   3.364   6.100   1.820
  588SOL    HW2 2664   3.324   5.987   1.930
  589SOL     OW 2665   3.574   5.209   2.530
  589SOL    HW1 2666   3.606   5.166   2.614
  589SOL    HW2 2667   3.474   5.204   2.526
  590SOL     OW 2668   0.099   2.086   1.766
  590SOL    HW1 2669   0.001   2.065   1.774
  590SOL    HW2 2670   0.145   2.012   1.716
  591SOL     OW 2671   3.789   6.980   3.489
  591SOL    HW1 2672   3.855   0.016   3.536
  591SOL    HW2 2673   3.836   6.903   3.446
  592SOL     OW 2674   5.059   0.984   0.506
  592SOL    HW1 2675   5.101   1.066   0.545
  592SOL    HW2 2676   4.964   0.979   0.535
  593SOL     OW 2677   4.700   2.325   3.962
  593SOL    HW1 2678   4.789   2.295   3.929
  593SOL    HW2 2679   4.709   2.362   4.055
  594SOL     OW 2680   3.941   3.833   1.087
  594SOL    HW1 2681   3.957   3.759   1.022
  594SOL    HW2 2682   3.891   3.907   1.042
  595SOL     OW 2683   3.694   6.079   3.924
  595SOL    HW1 2684   3.658   6.150   3.864
  595SOL    HW2 2685   3.618   6.027   3.965
  596SOL     OW 2686   0.944   4.372   2.925
  596SOL    HW1 2687   0.890   4.411   2.999
  596SOL    HW2 2688   0.884   4.341   2.852
  597SOL     OW 2689   4.022   0.686   5.707
  597SOL    HW1 2690   3.959   0.623   5.662
  597SOL    HW2 2691   4.075   0.735   5.638
  598SOL     OW 2692   3.959   4.654   0.549
  598SOL    HW1 2693   3.936   4.656   0.452
  598SOL    HW2 2694   4.055   4.629   0.560
  599SOL     OW 2695   6.554   6.968   2.679
  599SOL    HW1 2696   6.568   6.882   2.631
  599SOL    HW2 2697   6.610   6.970   2.761
  600SOL     OW 2698   1.412   0.224   0.381
  600SOL    HW1 2699   1.468   0.301   0.411
  600SOL    HW2 2700   1.470   0.159   0.331
  601SOL     OW 2701   2.897   5.445   4.300
  601SOL    HW1 2702   2.852   5.527   4.266
  601SOL    HW2 2703   2.847   5.364   4.270
  602SOL     OW 2704   2.256   0.195   1.103
  602SOL    HW1 2705   2.224   0.116   1.049
  602SOL    HW2 2706   2.208   0.277   1.072
  603SOL     OW 2707   4.083   2.206   3.147
  603SOL    HW1 2708   4.160   2.237   3.090
  603SOL    HW2 2709   4.097   2.238   3.241
  604SOL     OW 2710   0.657   3.949   6.218
  604SOL    HW1 2711   0.620   3.885   6.286
  604SOL    HW2 2712   0.755   3.935   6.209
  605SOL     OW 2713   5.878   6.967   3.510
  605SOL    HW1 2714   5.976   6.946   3.516
  605SOL    HW2 2715   5.862   0.007   3.434
  606SOL     OW 2716   3.917   0.213   3.870
  606SOL    HW1 2717   3.852   0.140   3.848
  606SOL    HW2 2718   3.878   0.272   3.941
  607SOL     OW 2719   5.238   0.908   4.074
  607SOL    HW1 2720   5.247   0.939   3.980
  607SOL    HW2 2721   5.256   0.984   4.136
  608SOL     OW 2722   3.665   0.918   0.946
  608SOL    HW1 2723   3.670   0.976   0.865
  608SOL    HW2 2724   3.683   0.974   1.028
  609SOL     OW 2725   3.382   3.229   4.455
  609SOL    HW1 2726   3.454   3.214   4.388
  609SOL    HW2 2727   3.377   3.152   4.518
  610SOL     OW 2728   5.165   2.534   3.985
  610SOL    HW1 2729   5.256   2.573   3.970
  610SOL    HW2 2730   5.172   2.434   3.990
  611SOL     OW 2731   0.306   0.099   0.253
  611SOL    HW1 2732   0.375   0.111   0.181
  611SOL    HW2 2733   0.309   0.177   0.315
  612SOL     OW 2734   2.737   5.745   6.299
  612SOL    HW1 2735   2.833   5.743   6.270
  612SOL    HW2 2736   2.691   5.822   6.257
  613SOL     OW 2737   3.523   1.988   0.007
  613SOL    HW1 2738   3.508   1.892   7.009
  613SOL    HW2 2739   3.480   2.011   0.094
  614SOL     OW 2740   5.497   4.999   0.974
  614SOL    HW1 2741   5.467   4.929   1.038
  614SOL    HW2 2742   5.535   5.077   1.024
  615SOL     OW 2743   6.945   6.823   1.034
  615SOL    HW1 2744   6.881   6.849   0.962
  615SOL    HW2 2745   0.006   6.877   1.025
  616SOL     OW 2746   5.903   1.175   4.353
  616SOL    HW1 2747   5.889   1.214   4.261
  616SOL    HW2 2748   5.814   1.150   4.392
  617SOL     OW 2749   0.576   4.748   5.782
  617SOL    HW1 2750   0.655   4.700   5.745
  617SOL    HW2 2751   0.578   4.844   5.752
  618SOL     OW 2752   5.875   3.275   0.600
  618SOL    HW1 2753   5.888   3.238   0.692
  618SOL    HW2 2754   5.956   3.326   0.573
  619SOL     OW 2755   2.553   0.566   0.413
  619SOL    HW1 2756   2.485   0.635   0.438
  619SOL    HW2 2757   2.524   0.521   0.328
  620SOL     OW 2758   6.254   1.676   2.167
  620SOL    HW1 2759   6.275   1.772   2.184
  620SOL    HW2 2760   6.323   1.618   2.212
  621SOL     OW 2761   3.502   1.014   0.005
  621SOL    HW1 2762   3.510   1.107   6.993
  621SOL    HW2 2763   3.453   1.014   0.092
  622SOL     OW 2764   1.264   1.962   5.016
  622SOL    HW1 2765   1.296   2.027   4.948
  622SOL    HW2 2766   1.189   1.907   4.978
  623SOL     OW 2767   6.116   6.932   4.205
  623SOL    HW1 2768   6.067   6.968   4.285
  623SOL    HW2 2769   6.050   6.909   4.133
  624SOL     OW 2770   6.368   0.622   6.546
  624SOL    HW1 2771   6.283   0.625   6.599
  624SOL    HW2 2772   6.424   0.701   6.568
  625SOL     OW 2773   2.431   1.336   0.200
  625SOL    HW1 2774   2.455   1.373   0.110
  625SOL    HW2 2775   2.513   1.335   0.257
  626SOL     OW 2776   0.810   5.110   4.039
  626SOL    HW1 2777   0.751   5.164   3.979
  626SOL    HW2 2778   0.898   5.095   3.993
  627SOL     OW 2779   6.380   0.024   6.888
  627SOL    HW1 2780   6.470   7.004   6.900
  627SOL    HW2 2781   6.319   7.018   6.962
  628SOL     OW 2782   4.949   4.945   5.425
  628SOL    HW1 2783   4.962   4.852   5.458
  628SOL    HW2 2784   4.970   4.950   5.327
  629SOL     OW 2785   0.271   6.640   5.940
  629SOL    HW1 2786   0.308   6.728   5.910
  629SOL    HW2 2787   0.322   6.608   6.021
  630SOL     OW 2788   6.567   0.619   0.998
  630SOL    HW1 2789   6.634   0.651   0.932
  630SOL    HW2 2790   6.566   0.681   1.077
  631SOL     OW 2791   2.161   2.202   4.966
  631SOL    HW1 2792   2.203   2.123   4.921
  631SOL    HW2 2793   2.224   2.280   4.963
  632SOL     OW 2794   2.681   3.120   6.923
  632SOL    HW1 2795   2.616   3.190   6.952
  632SOL    HW2 2796   2.652   3.031   6.958
  633SOL     OW 2797   2.025   5.871   1.709
  633SOL    HW1 2798   2.084   5.856   1.789
  633SOL    HW2 2799   2.013   5.785   1.660
  634SOL     OW 2800   3.019   3.384   4.160
  634SOL    HW1 2801   2.971   3.449   4.220
  634SOL    HW2 2802   2.971   3.377   4.073
  635SOL     OW 2803   5.813   0.714   6.454
  635SOL    HW1 2804   5.743   0.645   6.436
  635SOL    HW2 2805   5.831   0.718   6.552
  636SOL     OW 2806   2.471   0.758   6.809
  636SOL    HW1 2807   2.555   0.799   6.774
  636SOL    HW2 2808   2.418   0.827   6.858
  637SOL     OW 2809   6.746   1.153   1.965
  637SOL    HW1 2810   6.727   1.090   2.041
  637SOL    HW2 2811   6.740   1.247   1.998
  638SOL     OW 2812   6.434   3.286   3.871
  638SOL    HW1 2813   6.409   3.380   3.897
  638SOL    HW2 2814   6.478   3.240   3.948
  639SOL     OW 2815   4.779   4.762   3.128
  639SOL    HW1 2816   4.771   4.688   3.195
  639SOL    HW2 2817   4.693   4.771   3.078
  640SOL     OW 2818   0.540   2.327   2.232
  640SOL    HW1 2819   0.581   2.247   2.189
  640SOL    HW2 2820   0.570   2.409   2.185
  641SOL     OW 2821   2.018   5.210   4.400
  641SOL    HW1 2822   2.008   5.116   4.368
  641SOL    HW2 2823   1.944   5.231   4.464
  642SOL     OW 2824   0.785   3.633   4.880
  642SOL    HW1 2825   0.780   3.724   4.919
  642SOL    HW2 2826   0.866   3.626   4.822
  643SOL     OW 2827   4.767   5.109   6.601
  643SOL    HW1 2828   4.790   5.090   6.505
  643SOL    HW2 2829   4.749   5.207   6.611
  644SOL     OW 2830   6.701   0.063   4.705
  644SOL    HW1 2831   6.678   0.153   4.741
  644SOL    HW2 2832   6.682   7.016   4.774
  645SOL     OW 2833   4.274   4.876   2.239
  645SOL    HW1 2834   4.228   4.930   2.309
  645SOL    HW2 2835   4.220   4.794   2.219
  646SOL     OW 2836   3.753   0.765   5.472
  646SOL    HW1 2837   3.700   0.815   5.540
  646SOL    HW2 2838   3.794   0.684   5.515
  647SOL     OW 2839   4.351   2.272   5.566
  647SOL    HW1 2840   4.322   2.299   5.474
  647SOL    HW2 2841   4.445   2.239   5.563
  648SOL     OW 2842   5.649   2.418   3.699
  648SOL    HW1 2843   5.665   2.452   3.607
  648SOL    HW2 2844   5.689   2.326   3.708
  649SOL     OW 2845   2.603   5.415   0.759
  649SOL    HW1 2846   2.619   5.316   0.768
  649SOL    HW2 2847   2.631   5.461   0.843
  650SOL     OW 2848   7.000   5.265   1.275
  650SOL    HW1 2849   6.906   5.234   1.260
  650SOL    HW2 2850   7.000   5.343   1.338
  651SOL     OW 2851   1.419   0.342   4.805
  651SOL    HW1 2852   1.489   0.409   4.779
  651SOL    HW2 2853   1.463   0.263   4.847
  652SOL     OW 2854   3.800   6.315   1.271
  652SOL    HW1 2855   3.806   6.324   1.371
  652SOL    HW2 2856   3.890   6.331   1.231
  653SOL     OW 2857   1.091   6.709   1.807
  653SOL    HW1 2858   1.063   6.617   1.781
  653SOL    HW2 2859   1.024   6.775   1.773
  654SOL     OW 2860   7.005   6.629   5.015
  654SOL    HW1 2861   6.922   6.581   5.044
  654SOL    HW2 2862   0.010   6.595   4.924
  655SOL     OW 2863   6.616   4.407   1.970
  655SOL    HW1 2864   6.676   4.468   2.022
  655SOL    HW2 2865   6.539   4.380   2.028
  656SOL     OW 2866   3.670   6.686   0.291
  656SOL    HW1 2867   3.621   6.610   0.250
  656SOL    HW2 2868   3.631   6.772   0.259
  657SOL     OW 2869   3.987   2.997   2.159
  657SOL    HW1 2870   4.028   3.069   2.102
  657SOL    HW2 2871   4.024   3.003   2.252
  658SOL     OW 2872   2.112   3.243   3.977
  658SOL    HW1 2873   2.121   3.257   3.879
  658SOL    HW2 2874   2.057   3.317   4.017
  659SOL     OW 2875   2.282   6.296   5.727
  659SOL    HW1 2876   2.283   6.244   5.812
  659SOL    HW2 2877   2.267   6.235   5.650
  660SOL     OW 2878   4.667   4.234   2.571
  660SOL    HW1 2879   4.710   4.315   2.530
  660SOL    HW2 2880   4.657   4.163   2.501
  661SOL     OW 2881   4.166   4.724   4.363
  661SOL    HW1 2882   4.119   4.733   4.276
  661SOL    HW2 2883   4.111   4.766   4.436
  662SOL     OW 2884   5.011   3.151   6.958
  662SOL    HW1 2885   5.067   3.157   6.875
  662SOL    HW2 2886   4.936   3.216   6.953
  663SOL     OW 2887   0.291   4.501   0.461
  663SOL    HW1 2888   0.233   4.427   0.425
  663SOL    HW2 2889   0.250   4.589   0.439
  664SOL     OW 2890   1.832   0.044   0.076
  664SOL    HW1 2891   1.788   0.091   7.023
  664SOL    HW2 2892   1.919   0.004   0.045
  665SOL     OW 2893   4.331   5.342   0.823
  665SOL    HW1 2894   4.248   5.388   0.790
  665SOL    HW2 2895   4.409   5.404   0.815
  666SOL     OW 2896   3.473   1.980   0.309
  666SOL    HW1 2897   3.418   1.936   0.380
  666SOL    HW2 2898   3.544   2.037   0.351
  667SOL     OW 2899   0.730   2.813   2.668
  667SOL    HW1 2900   0.784   2.747   2.720
  667SOL    HW2 2901   0.789   2.856   2.599
  668SOL     OW 2902   5.152   6.955   0.669
  668SOL    HW1 2903   5.162   0.027   0.639
  668SOL    HW2 2904   5.168   6.951   0.768
  669SOL     OW 2905   1.703   6.069   3.101
  669SOL    HW1 2906   1.795   6.030   3.100
  669SOL    HW2 2907   1.704   6.155   3.151
  670SOL     OW 2908   3.263   3.507   3.870
  670SOL    HW1 2909   3.310   3.579   3.922
  670SOL    HW2 2910   3.255   3.425   3.927
  671SOL     OW 2911   1.910   0.257   5.926
  671SOL    HW1 2912   1.821   0.302   5.931
  671SOL    HW2 2913   1.967   0.303   5.858
  672SOL     OW 2914   2.254   3.023   4.104
  672SOL    HW1 2915   2.173   2.964   4.099
  672SOL    HW2 2916   2.230   3.115   4.075
  673SOL     OW 2917   5.747   0.204   0.869
  673SOL    HW1 2918   5.752   0.210   0.969
  673SOL    HW2 2919   5.836   0.225   0.830
  674SOL     OW 2920   0.476   1.662   3.653
  674SOL    HW1 2921   0.552   1.641   3.715
  674SOL    HW2 2922   0.429   1.744   3.686
  675SOL     OW 2923   0.056   2.779   4.687
  675SOL    HW1 2924   6.982   2.768   4.663
  675SOL    HW2 2925   0.068   2.759   4.784
  676SOL     OW 2926   1.786   4.728   4.653
  676SOL    HW1 2927   1.854   4.774   4.710
  676SOL    HW2 2928   1.823   4.642   4.620
  677SOL     OW 2929   6.574   0.161   0.945
  677SOL    HW1 2930   6.600   0.139   0.851
  677SOL    HW2 2931   6.639   0.226   0.984
  678SOL     OW 2932   2.469   1.155   5.988
  678SOL    HW1 2933   2.375   1.140   5.959
  678SOL    HW2 2934   2.510   1.229   5.934
  679SOL     OW 2935   4.577   0.068   2.644
  679SOL    HW1 2936   4.548   0.148   2.696
  679SOL    HW2 2937   4.579   7.010   2.703
  680SOL     OW 2938   4.825   4.102   5.707
  680SOL    HW1 2939   4.736   4.058   5.725
  680SOL    HW2 2940   4.891   4.071   5.775
  681SOL     OW 2941   0.919   6.559   1.228
  681SOL    HW1 2942   0.853   6.633   1.214
  681SOL    HW2 2943   0.986   6.586   1.296
  682SOL     OW 2944   1.792   6.089   0.248
  682SOL    HW1 2945   1.794   6.043   0.159
  682SOL    HW2 2946   1.880   6.132   0.265
  683SOL     OW 2947   4.929   1.764   0.152
  683SOL    HW1 2948   4.872   1.683   0.167
  683SOL    HW2 2949   4.997   1.771   0.225
  684SOL     OW 2950   0.411   5.551   6.290
  684SOL    HW1 2951   0.385   5.457   6.312
  684SOL    HW2 2952   0.346   5.614   6.333
  685SOL     OW 2953   5.691   0.050   5.501
  685SOL    HW1 2954   5.720   0.138   5.463
  685SOL    HW2 2955   5.715   7.000   5.437
  686SOL     OW 2956   5.036   4.666   3.083
  686SOL    HW1 2957   4.942   4.697   3.094
  686SOL    HW2 2958   5.037   4.568   3.061
  687SOL     OW 2959   6.660   3.657   5.673
  687SOL    HW1 2960   6.566   3.686   5.654
  687SOL    HW2 2961   6.658   3.581   5.738
  688SOL     OW 2962   6.791   4.156   5.809
  688SOL    HW1 2963   6.773   4.058   5.806
  688SOL    HW2 2964   6.730   4.203   5.744
  689SOL     OW 2965   6.026   3.603   5.848
  689SOL    HW1 2966   6.022   3.605   5.748
  689SOL    HW2 2967   5.940   3.564   5.884
  690SOL     OW 2968   1.376   2.469   2.963
  690SOL    HW1 2969   1.305   2.520   2.916
  690SOL    HW2 2970   1.338   2.383   2.998
  691SOL     OW 2971   1.115   2.810   6.588
  691SOL    HW1 2972   1.017   2.797   6.573
  691SOL    HW2 2973   1.165   2.788   6.505
  692SOL     OW 2974   2.607   0.108   2.763
  692SOL    HW1 2975   2.656   0.164   2.696
  692SOL    HW2 2976   2.655   0.022   2.777
  693SOL     OW 2977   6.824   2.618   2.064
  693SOL    HW1 2978   6.884   2.675   2.120
  693SOL    HW2 2979   6.833   2.522   2.092
  694SOL     OW 2980   2.100   0.004   0.957
  694SOL    HW1 2981   2.022   6.964   0.959
  694SOL    HW2 2982   2.115   0.034   0.862
  695SOL     OW 2983   4.780   6.144   5.464
  695SOL    HW1 2984   4.810   6.114   5.374
  695SOL    HW2 2985   4.683   6.171   5.459
  696SOL     OW 2986   4.197   5.020   2.443
  696SOL    HW1 2987   4.125   5.074   2.486
  696SOL    HW2 2988   4.287   5.057   2.470
  697SOL     OW 2989   1.022   3.967   3.976
  697SOL    HW1 2990   1.072   3.886   3.947
  697SOL    HW2 2991   0.930   3.941   4.005
  698SOL     OW 2992   4.660   0.320   3.246
  698SOL    HW1 2993   4.757   0.329   3.225
  698SOL    HW2 2994   4.640   0.225   3.272
  699SOL     OW 2995   1.887   4.325   0.809
  699SOL    HW1 2996   1.854   4.231   0.814
  699SOL    HW2 2997   1.986   4.325   0.800
  700SOL     OW 2998   2.633   2.363   4.519
  700SOL    HW1 2999   2.672   2.347   4.429
  700SOL    HW2 3000   2.592   2.454   4.522
  701SOL     OW 3001   7.003   3.894   5.971
  701SOL    HW1 3002   6.938   3.957   6.012
  701SOL    HW2 3003   0.074   3.928   5.985
  702SOL     OW 3004   5.406   6.100   4.455
  702SOL    HW1 3005   5.309   6.074   4.447
  702SOL    HW2 3006   5.413   6.189   4.500
  703SOL     OW 3007   3.647   3.561   6.732
  703SOL    HW1 3008   3.664   3.658   6.720
  703SOL    HW2 3009   3.551   3.547   6.758
  704SOL     OW 3010   1.584   0.343   6.864
  704SOL    HW1 3011   1.578   0.412   6.792
  704SOL    HW2 3012   1.660   0.281   6.845
  705SOL     OW 3013   5.962   1.937   2.582
  705SOL    HW1 3014   5.890   1.933   2.513
  705SOL    HW2 3015   6.051   1.944   2.537
  706SOL     OW 3016   3.881   1.852   3.499
  706SOL    HW1 3017   3.938   1.770   3.505
  706SOL    HW2 3018   3.806   1.836   3.436
  707SOL     OW 3019   4.756   0.500   1.605
  707SOL    HW1 3020   4.728   0.408   1.576
  707SOL    HW2 3021   4.770   0.557   1.524
  708SOL     OW 3022   4.002   0.821   1.417
  708SOL    HW1 3023   4.065   0.871   1.357
  708SOL    HW2 3024   3.920   0.877   1.432
  709SOL     OW 3025   0.766   4.743   0.592
  709SOL    HW1 3026   0.696   4.671   0.588
  709SOL    HW2 3027   0.727   4.825   0.634
  710SOL     OW 3028   2.962   3.810   2.915
  710SOL    HW1 3029   3.028   3.857   2.855
  710SOL    HW2 3030   2.916   3.738   2.863
  711SOL     OW 3031   6.618   1.259   4.380
  711SOL    HW1 3032   6.519   1.246   4.387
  711SOL    HW2 3033   6.661   1.232   4.466
  712SOL     OW 3034   1.529   3.989   1.505
  712SOL    HW1 3035   1.476   4.063   1.547
  712SOL    HW2 3036   1.516   3.990   1.406
  713SOL     OW 3037   3.336   3.164   2.527
  713SOL    HW1 3038   3.296   3.077   2.558
  713SOL    HW2 3039   3.409   3.191   2.589
  714SOL     OW 3040   5.041   4.791   5.145
  714SOL    HW1 3041   5.125   4.743   5.119
  714SOL    HW2 3042   4.964   4.755   5.092
  715SOL     OW 3043   4.775   0.226   6.315
  715SOL    HW1 3044   4.752   0.196   6.408
  715SOL    HW2 3045   4.702   0.285   6.280
  716SOL     OW 3046   0.118   4.920   1.491
  716SOL    HW1 3047   0.044   4.969   1.446
  716SOL    HW2 3048   0.081   4.841   1.540
  717SOL     OW 3049   6.356   2.715   0.723
  717SOL    HW1 3050   6.334   2.811   0.701
  717SOL    HW2 3051   6.289   2.655   0.678
  718SOL     OW 3052   3.592   3.671   6.035
  718SOL    HW1 3053   3.565   3.757   6.078
  718SOL    HW2 3054   3.691   3.670   6.022
  719SOL     OW 3055   5.789   4.219   1.108
  719SOL    HW1 3056   5.707   4.161   1.112
  719SOL    HW2 3057   5.871   4.161   1.110
  720SOL     OW 3058   2.351   1.631   6.445
  720SOL    HW1 3059   2.317   1.704   6.504
  720SOL    HW2 3060   2.335   1.655   6.349
  721SOL     OW 3061   1.423   6.848   5.782
  721SOL    HW1 3062   1.403   6.750   5.782
  721SOL    HW2 3063   1.493   6.867   5.850
  722SOL     OW 3064   3.975   0.427   4.593
  722SOL    HW1 3065   3.936   0.352   4.540
  722SOL    HW2 3066   4.055   0.464   4.546
  723SOL     OW 3067   0.939   2.882   2.213
  723SOL    HW1 3068   0.943   2.982   2.204
  723SOL    HW2 3069   1.030   2.844   2.195
  724SOL     OW 3070   6.950   0.732   4.621
  724SOL    HW1 3071   0.008   0.774   4.662
  724SOL    HW2 3072   6.892   0.803   4.581
  725SOL     OW 3073   1.936   4.541   2.245
  725SOL    HW1 3074   1.995   4.506   2.318
  725SOL    HW2 3075   1.840   4.533   2.272
  726SOL     OW 3076   3.680   7.002   6.932
  726SOL    HW1 3077   3.601   7.009   6.871
  726SOL    HW2 3078   3.747   6.938   6.893
  727SOL     OW 3079   2.483   5.130   3.910
  727SOL    HW1 3080   2.445   5.199   3.971
  727SOL    HW2 3081   2.483   5.041   3.956
  728SOL     OW 3082   6.868   4.162   4.574
  728SOL    HW1 3083   6.862   4.256   4.540
  728SOL    HW2 3084   6.840   4.099   4.501
  729SOL     OW 3085   2.402   0.270   1.525
  729SOL    HW1 3086   2.401   0.367   1.498
  729SOL    HW2 3087   2.381   0.263   1.622
  730SOL     OW 3088   6.590   0.427   3.580
  730SOL    HW1 3089   6.494   0.456   3.577
  730SOL    HW2 3090   6.647   0.504   3.610
  731SOL     OW 3091   5.543   3.593   4.765
  731SOL    HW1 3092   5.584   3.550   4.845
  731SOL    HW2 3093   5.554   3.533   4.685
  732SOL     OW 3094   6.628   2.629   1.257
  732SOL    HW1 3095   6.573   2.694   1.311
  732SOL    HW2 3096   6.692   2.582   1.318
  733SOL     OW 3097   4.731   4.096   3.886
  733SOL    HW1 3098   4.765   4.134   3.800
  733SOL    HW2 3099   4.784   4.015   3.910
  734SOL     OW 3100   6.432   4.687   0.973
  734SOL    HW1 3101   6.407   4.612   0.912
  734SOL    HW2 3102   6.493   4.653   1.045
  735SOL     OW 3103   1.837   4.383   6.224
  735SOL    HW1 3104   1.907   4.448   6.193
  735SOL    HW2 3105   1.834   4.305   6.161
  736SOL     OW 3106   6.823   0.872   3.492
  736SOL    HW1 3107   6.753   0.899   3.426
  736SOL    HW2 3108   6.873   0.954   3.521
  737SOL     OW 3109   5.621   3.387   0.734
  737SOL    HW1 3110   5.714   3.353   0.728
  737SOL    HW2 3111   5.556   3.311   0.727
  738SOL     OW 3112   0.552   3.635   3.652
  738SOL    HW1 3113   0.619   3.695   3.695
  738SOL    HW2 3114   0.483   3.609   3.719
  739SOL     OW 3115   4.265   6.341   5.978
  739SOL    HW1 3116   4.256   6.429   6.025
  739SOL    HW2 3117   4.313   6.354   5.891
  740SOL     OW 3118   6.320   6.751   1.349
  740SOL    HW1 3119   6.414   6.719   1.354
  740SOL    HW2 3120   6.262   6.681   1.308
  741SOL     OW 3121   2.085   6.661   2.976
  741SOL    HW1 3122   2.010   6.698   2.922
  741SOL    HW2 3123   2.056   6.652   3.071
  742SOL     OW 3124   1.728   6.931   3.514
  742SOL    HW1 3125   1.754   6.857   3.576
  742SOL    HW2 3126   1.741   7.019   3.560
  743SOL     OW 3127   1.804   3.713   4.383
  743SOL    HW1 3128   1.781   3.729   4.479
  743SOL    HW2 3129   1.885   3.766   4.359
  744SOL     OW 3130   0.222   5.507   0.407
  744SOL    HW1 3131   0.307   5.541   0.449
  744SOL    HW2 3132   0.163   5.469   0.477
  745SOL     OW 3133   1.258   6.050   2.581
  745SOL    HW1 3134   1.308   6.084   2.661
  745SOL    HW2 3135   1.323   6.018   2.512
  746SOL     OW 3136   1.429   0.779   4.818
  746SOL    HW1 3137   1.362   0.718   4.861
  746SOL    HW2 3138   1.409   0.874   4.842
  747SOL     OW 3139   4.464   4.727   3.637
  747SOL    HW1 3140   4.494   4.656   3.700
  747SOL    HW2 3141   4.482   4.698   3.543
  748SOL     OW 3142   4.731   3.676   0.978
  748SOL    HW1 3143   4.768   3.732   1.051
  748SOL    HW2 3144   4.653   3.722   0.936
  749SOL     OW 3145   0.761   2.309   5.329
  749SOL    HW1 3146   0.860   2.314   5.341
  749SOL    HW2 3147   0.718   2.283   5.415
  750SOL     OW 3148   2.277   4.102   0.124
  750SOL    HW1 3149   2.242   4.008   0.117
  750SOL    HW2 3150   2.323   4.127   0.039
  751SOL     OW 3151   4.333   0.824   0.183
  751SOL    HW1 3152   4.289   0.900   0.134
  751SOL    HW2 3153   4.266   0.752   0.201
  752SOL     OW 3154   4.521   2.715   1.711
  752SOL    HW1 3155   4.488   2.741   1.620
  752SOL    HW2 3156   4.468   2.636   1.744
  753SOL     OW 3157   2.261   2.775   4.742
  753SOL    HW1 3158   2.244   2.841   4.670
  753SOL    HW2 3159   2.210   2.801   4.824
  754SOL     OW 3160   3.791   5.069   6.622
  754SOL    HW1 3161   3.702   5.037   6.591
  754SOL    HW2 3162   3.791   5.079   6.721
  755SOL     OW 3163   0.511   6.233   0.290
  755SOL    HW1 3164   0.431   6.290   0.303
  755SOL    HW2 3165   0.483   6.137   0.283
  756SOL     OW 3166   4.724   0.770   1.737
  756SOL    HW1 3167   4.725   0.671   1.752
  756SOL    HW2 3168   4.742   0.789   1.640
  757SOL     OW 3169   0.432   6.740   3.621
  757SOL    HW1 3170   0.364   6.682   3.577
  757SOL    HW2 3171   0.480   6.794   3.552
  758SOL     OW 3172   3.651   2.098   1.251
  758SOL    HW1 3173   3.682   2.168   1.315
  758SOL    HW2 3174   3.620   2.017   1.301
  759SOL     OW 3175   1.206   2.110   0.402
  759SOL    HW1 3176   1.175   2.062   0.319
  759SOL    HW2 3177   1.131   2.112   0.469
  760SOL     OW 3178   5.133   1.036   6.762
  760SOL    HW1 3179   5.039   1.038   6.727
  760SOL    HW2 3180   5.131   1.021   6.861
  761SOL     OW 3181   6.201   2.289   0.053
  761SOL    HW1 3182   6.295   2.256   0.060
  761SOL    HW2 3183   6.138   2.215   0.077
  762SOL     OW 3184   2.497   6.222   3.921
  762SOL    HW1 3185   2.483   6.317   3.894
  762SOL    HW2 3186   2.594   6.206   3.939
  763SOL     OW 3187   3.957   6.169   6.659
  763SOL    HW1 3188   3.888   6.164   6.587
  763SOL    HW2 3189   4.010   6.084   6.662
  764SOL     OW 3190   3.407   1.919   1.928
  764SOL    HW1 3191   3.409   1.829   1.972
  764SOL    HW2 3192   3.500   1.958   1.930
  765SOL     OW 3193   6.667   0.047   2.927
  765SOL    HW1 3194   6.701   0.139   2.947
  765SOL    HW2 3195   6.739   7.003   2.944
  766SOL     OW 3196   7.019   6.544   0.063
  766SOL    HW1 3197   6.933   6.522   0.109
  766SOL    HW2 3198   0.045   6.459   0.041
  767SOL     OW 3199   6.600   6.705   2.578
  767SOL    HW1 3200   6.548   6.741   2.500
  767SOL    HW2 3201   6.675   6.648   2.544
  768SOL     OW 3202   2.703   6.571   2.684
  768SOL    HW1 3203   2.756   6.486   2.686
  768SOL    HW2 3204   2.626   6.564   2.747
  769SOL     OW 3205   4.472   0.355   5.273
  769SOL    HW1 3206   4.488   0.256   5.270
  769SOL    HW2 3207   4.559   0.402   5.278
  770SOL     OW 3208   2.847   4.963   4.086
  770SOL    HW1 3209   2.760   4.958   4.136
  770SOL    HW2 3210   2.916   5.008   4.142
  771SOL     OW 3211   1.003   5.027   3.528
  771SOL    HW1 3212   1.008   5.123   3.558
  771SOL    HW2 3213   0.933   4.979   3.580
  772SOL     OW 3214   6.886   3.945   6.865
  772SOL    HW1 3215   6.819   3.961   6.793
  772SOL    HW2 3216   6.977   3.940   6.826
  773SOL     OW 3217   6.527   3.830   2.254
  773SOL    HW1 3218   6.611   3.876   2.225
  773SOL    HW2 3219   6.523   3.739   2.212
  774SOL     OW 3220   1.388   1.291   1.562
  774SOL    HW1 3221   1.346   1.266   1.649
  774SOL    HW2 3222   1.478   1.247   1.555
  775SOL     OW 3223   1.517   2.126   4.430
  775SOL    HW1 3224   1.576   2.088   4.501
  775SOL    HW2 3225   1.526   2.225   4.428
  776SOL     OW 3226   2.199   0.509   6.175
  776SOL    HW1 3227   2.118   0.517   6.232
  776SOL    HW2 3228   2.217   0.596   6.130
  777SOL     OW 3229   4.238   1.137   0.999
  777SOL    HW1 3230   4.233   1.125   1.099
  777SOL    HW2 3231   4.319   1.192   0.977
  778SOL     OW 3232   4.306   0.368   4.140
  778SOL    HW1 3233   4.277   0.358   4.235
  778SOL    HW2 3234   4.404   0.384   4.136
  779SOL     OW 3235   0.320   2.284   2.040
  779SOL    HW1 3236   0.405   2.309   2.085
  779SOL    HW2 3237   0.336   2.275   1.942
  780SOL     OW 3238   6.063   3.201   4.422
  780SOL    HW1 3239   6.049   3.149   4.337
  780SOL    HW2 3240   6.032   3.295   4.409
  781SOL     OW 3241   6.832   1.196   6.082
  781SOL    HW1 3242   6.884   1.145   6.013
  781SOL    HW2 3243   6.864   1.171   6.173
  782SOL     OW 3244   0.148   2.933   1.007
  782SOL    HW1 3245   0.112   2.863   1.068
  782SOL    HW2 3246   0.203   2.998   1.060
  783SOL     OW 3247   3.213   5.092   0.248
  783SOL    HW1 3248   3.121   5.114   0.280
  783SOL    HW2 3249   3.280   5.134   0.310
  784SOL     OW 3250   3.663   0.920   5.018
  784SOL    HW1 3251   3.689   1.016   5.031
  784SOL    HW2 3252   3.694   0.889   4.929
  785SOL     OW 3253   5.943   1.519   3.410
  785SOL    HW1 3254   6.004   1.512   3.489
  785SOL    HW2 3255   5.888   1.436   3.404
  786SOL     OW 3256   6.933   6.707   0.371
  786SOL    HW1 3257   6.924   6.789   0.313
  786SOL    HW2 3258   6.889   6.630   0.326
  787SOL     OW 3259   2.672   2.012   6.457
  787SOL    HW1 3260   2.652   1.978   6.548
  787SOL    HW2 3261   2.626   1.955   6.389
  788SOL     OW 3262   1.726   3.570   4.118
  788SOL    HW1 3263   1.748   3.608   4.208
  788SOL    HW2 3264   1.627   3.553   4.113
  789SOL     OW 3265   5.209   3.735   1.657
  789SOL    HW1 3266   5.113   3.708   1.649
  789SOL    HW2 3267   5.265   3.654   1.673
  790SOL     OW 3268   2.828   1.064   3.700
  790SOL    HW1 3269   2.877   1.042   3.616
  790SOL    HW2 3270   2.796   1.159   3.695
  791SOL     OW 3271   3.493   1.283   4.885
  791SOL    HW1 3272   3.413   1.325   4.842
  791SOL    HW2 3273   3.569   1.347   4.884
  792SOL     OW 3274   5.960   0.145   2.655
  792SOL    HW1 3275   6.003   0.161   2.567
  792SOL    HW2 3276   5.962   0.047   2.677
  793SOL     OW 3277   5.239   0.174   0.573
  793SOL    HW1 3278   5.223   0.166   0.475
  793SOL    HW2 3279   5.296   0.254   0.591
  794SOL     OW 3280   2.197   4.838   5.631
  794SOL    HW1 3281   2.248   4.921   5.654
  794SOL    HW2 3282   2.258   4.759   5.637
  795SOL     OW 3283   4.633   4.667   6.004
  795SOL    HW1 3284   4.580   4.615   5.937
  795SOL    HW2 3285   4.617   4.630   6.095
  796SOL     OW 3286   6.807   2.543   6.344
  796SOL    HW1 3287   6.738   2.524   6.413
  796SOL    HW2 3288   6.898   2.535   6.385
  797SOL     OW 3289   6.083   2.805   4.369
  797SOL    HW1 3290   6.083   2.752   4.284
  797SOL    HW2 3291   6.086   2.902   4.348
  798SOL     OW 3292   5.484   0.700   6.830
  798SOL    HW1 3293   5.496   0.643   6.749
  798SOL    HW2 3294   5.391   0.689   6.865
  799SOL     OW 3295   6.406   2.117   3.406
  799SOL    HW1 3296   6.447   2.086   3.491
  799SOL    HW2 3297   6.369   2.209   3.418
  800SOL     OW 3298   5.349   1.004   2.370
  800SOL    HW1 3299   5.441   1.038   2.390
  800SOL    HW2 3300   5.319   0.944   2.445
  801SOL     OW 3301   6.976   1.958   3.348
  801SOL    HW1 3302   0.013   1.961   3.429
  801SOL    HW2 3303   6.967   2.050   3.310
  802SOL     OW 3304   5.452   1.343   0.398
  802SOL    HW1 3305   5.368   1.394   0.414
  802SOL    HW2 3306   5.531   1.403   0.410
  803SOL     OW 3307   6.280   5.606   4.353
  803SOL    HW1 3308   6.379   5.596   4.343
  803SOL    HW2 3309   6.259   5.699   4.381
  804SOL     OW 3310   0.697   6.526   6.954
  804SOL    HW1 3311   0.618   6.572   6.995
  804SOL    HW2 3312   0.738   6.464   7.021
  805SOL     OW 3313   3.034   2.836   5.936
  805SOL    HW1 3314   3.058   2.845   5.839
  805SOL    HW2 3315   3.086   2.761   5.976
  806SOL     OW 3316   5.021   1.700   6.888
  806SOL    HW1 3317   4.936   1.672   6.843
  806SOL    HW2 3318   4.999   1.755   6.968
  807SOL     OW 3319   1.152   0.729   3.221
  807SOL    HW1 3320   1.168   0.707   3.124
  807SOL    HW2 3321   1.060   0.698   3.247
  808SOL     OW 3322   5.830   3.283   5.938
  808SOL    HW1 3323   5.881   3.283   5.852
  808SOL    HW2 3324   5.766   3.360   5.939
  809SOL     OW 3325   0.637   4.271   0.261
  809SOL    HW1 3326   0.560   4.281   0.324
  809SOL    HW2 3327   0.716   4.234   0.311
  810SOL     OW 3328   5.669   3.695   0.204
  810SOL    HW1 3329   5.707   3.610   0.169
  810SOL    HW2 3330   5.593   3.675   0.266
  811SOL     OW 3331   5.056   5.024   4.033
  811SOL    HW1 3332   5.037   5.096   4.100
  811SOL    HW2 3333   4.972   5.004   3.982
  812SOL     OW 3334   0.453   6.970   1.414
  812SOL    HW1 3335   0.416   6.996   1.503
  812SOL    HW2 3336   0.378   6.935   1.357
  813SOL     OW 3337   4.864   5.332   2.580
  813SOL    HW1 3338   4.836   5.269   2.507
  813SOL    HW2 3339   4.915   5.283   2.649
  814SOL     OW 3340   6.061   6.395   2.113
  814SOL    HW1 3341   6.041   6.476   2.168
  814SOL    HW2 3342   6.145   6.409   2.061
  815SOL     OW 3343   6.744   2.295   0.954
  815SOL    HW1 3344   6.689   2.374   0.982
  815SOL    HW2 3345   6.760   2.299   0.855
  816SOL     OW 3346   6.484   6.132   1.217
  816SOL    HW1 3347   6.477   6.073   1.297
  816SOL    HW2 3348   6.443   6.087   1.138
  817SOL     OW 3349   1.917   3.409   2.287
  817SOL    HW1 3350   1.995   3.365   2.242
  817SOL    HW2 3351   1.870   3.469   2.222
  818SOL     OW 3352   6.009   1.344   1.084
  818SOL    HW1 3353   6.088   1.403   1.066
  818SOL    HW2 3354   5.928   1.400   1.099
  819SOL     OW 3355   0.011   2.468   3.173
  819SOL    HW1 3356   0.053   2.555   3.202
  819SOL    HW2 3357   6.975   2.485   3.094
  820SOL     OW 3358   1.035   2.615   4.285
  820SOL    HW1 3359   0.955   2.643   4.232
  820SOL    HW2 3360   1.006   2.583   4.375
  821SOL     OW 3361   1.540   3.804   6.916
  821SOL    HW1 3362   1.576   3.779   7.006
  821SOL    HW2 3363   1.440   3.807   6.920
  822SOL     OW 3364   1.243   3.917   4.345
  822SOL    HW1 3365   1.333   3.891   4.312
  822SOL    HW2 3366   1.245   4.011   4.380
  823SOL     OW 3367   4.621   4.302   6.983
  823SOL    HW1 3368   4.713   4.340   6.992
  823SOL    HW2 3369   4.606   4.270   6.889
  824SOL     OW 3370   5.157   2.683   5.215
  824SOL    HW1 3371   5.163   2.618   5.291
  824SOL    HW2 3372   5.141   2.635   5.130
  825SOL     OW 3373   2.189   3.116   2.519
  825SOL    HW1 3374   2.226   3.072   2.601
  825SOL    HW2 3375   2.153   3.206   2.544
  826SOL     OW 3376   6.444   3.123   6.380
  826SOL    HW1 3377   6.515   3.193   6.390
  826SOL    HW2 3378   6.409   3.098   6.470
  827SOL     OW 3379   3.535   5.659   0.178
  827SOL    HW1 3380   3.626   5.641   0.142
  827SOL    HW2 3381   3.476   5.694   0.105
  828SOL     OW 3382   5.724   1.010   5.515
  828SOL    HW1 3383   5.784   1.047   5.444
  828SOL    HW2 3384   5.770   0.937   5.564
  829SOL     OW 3385   3.129   3.227   4.539
  829SOL    HW1 3386   3.130   3.175   4.625
  829SOL    HW2 3387   3.222   3.233   4.503
  830SOL     OW 3388   4.675   4.013   5.282
  830SOL    HW1 3389   4.581   4.035   5.309
  830SOL    HW2 3390   4.726   4.098   5.267
  831SOL     OW 3391   6.486   0.716   5.424
  831SOL    HW1 3392   6.557   0.783   5.403
  831SOL    HW2 3393   6.447   0.737   5.514
  832SOL     OW 3394   2.146   2.228   6.476
  832SOL    HW1 3395   2.111   2.163   6.543
  832SOL    HW2 3396   2.117   2.200   6.385
  833SOL     OW 3397   6.064   6.834   6.581
  833SOL    HW1 3398   5.981   6.871   6.537
  833SOL    HW2 3399   6.100   6.760   6.525
  834SOL     OW 3400   3.033   3.948   4.366
  834SOL    HW1 3401   3.082   4.005   4.431
  834SOL    HW2 3402   2.980   4.006   4.304
  835SOL     OW 3403   3.425   0.126   3.856
  835SOL    HW1 3404   3.421   0.045   3.797
  835SOL    HW2 3405   3.353   0.120   3.926
  836SOL     OW 3406   3.286   0.643   0.278
  836SOL    HW1 3407   3.358   0.577   0.299
  836SOL    HW2 3408   3.304   0.728   0.329
  837SOL     OW 3409   4.818   0.771   5.564
  837SOL    HW1 3410   4.754   0.844   5.587
  837SOL    HW2 3411   4.823   0.761   5.464
  838SOL     OW 3412   2.188   5.795   3.814
  838SOL    HW1 3413   2.131   5.742   3.751
  838SOL    HW2 3414   2.160   5.775   3.909
  839SOL     OW 3415   3.064   1.728   3.373
  839SOL    HW1 3416   3.041   1.672   3.453
  839SOL    HW2 3417   3.081   1.668   3.295
  840SOL     OW 3418   1.324   1.447   6.820
  840SOL    HW1 3419   1.391   1.400   6.877
  840SOL    HW2 3420   1.232   1.419   6.845
  841SOL     OW 3421   6.997   3.585   6.896
  841SOL    HW1 3422   6.932   3.637   6.951
  841SOL    HW2 3423   6.963   3.492   6.882
  842SOL     OW 3424   3.883   4.840   3.337
  842SOL    HW1 3425   3.958   4.876   3.392
  842SOL    HW2 3426   3.895   4.868   3.241
  843SOL     OW 3427   6.295   2.253   2.124
  843SOL    HW1 3428   6.306   2.344   2.083
  843SOL    HW2 3429   6.203   2.219   2.104
  844SOL     OW 3430   4.692   5.888   0.864
  844SOL    HW1 3431   4.594   5.906   0.875
  844SOL    HW2 3432   4.722   5.825   0.936
  845SOL     OW 3433   0.083   4.324   4.429
  845SOL    HW1 3434   0.132   4.282   4.505
  845SOL    HW2 3435   7.014   4.351   4.459
  846SOL     OW 3436   6.182   1.804   6.865
  846SOL    HW1 3437   6.167   1.737   6.938
  846SOL    HW2 3438   6.203   1.757   6.780
  847SOL     OW 3439   5.345   3.179   2.049
  847SOL    HW1 3440   5.401   3.109   2.004
  847SOL    HW2 3441   5.267   3.135   2.093
  848SOL     OW 3442   6.058   0.156   6.217
  848SOL    HW1 3443   6.003   0.154   6.134
  848SOL    HW2 3444   6.136   0.218   6.204
  849SOL     OW 3445   0.410   5.056   4.830
  849SOL    HW1 3446   0.486   5.022   4.774
  849SOL    HW2 3447   0.431   5.148   4.862
  850SOL     OW 3448   4.248   0.979   2.958
  850SOL    HW1 3449   4.344   0.990   2.934
  850SOL    HW2 3450   4.195   1.055   2.920
  851SOL     OW 3451   0.983   0.763   6.600
  851SOL    HW1 3452   1.050   0.830   6.633
  851SOL    HW2 3453   0.994   0.751   6.501
  852SOL     OW 3454   2.186   3.545   6.420
  852SOL    HW1 3455   2.275   3.504   6.442
  852SOL    HW2 3456   2.113   3.484   6.450
  853SOL     OW 3457   0.860   3.068   1.514
  853SOL    HW1 3458   0.886   3.165   1.520
  853SOL    HW2 3459   0.761   3.061   1.508
  854SOL     OW 3460   5.211   5.338   2.605
  854SOL    HW1 3461   5.197   5.390   2.690
  854SOL    HW2 3462   5.163   5.384   2.530
  855SOL     OW 3463   5.439   6.659   1.739
  855SOL    HW1 3464   5.500   6.698   1.671
  855SOL    HW2 3465   5.395   6.577   1.701
  856SOL     OW 3466   2.150   6.122   5.130
  856SOL    HW1 3467   2.150   6.222   5.127
  856SOL    HW2 3468   2.144   6.086   5.037
  857SOL     OW 3469   5.872   3.435   1.276
  857SOL    HW1 3470   5.939   3.374   1.233
  857SOL    HW2 3471   5.783   3.423   1.231
  858SOL     OW 3472   3.008   5.082   1.179
  858SOL    HW1 3473   2.935   5.023   1.213
  858SOL    HW2 3474   3.009   5.080   1.079
  859SOL     OW 3475   6.860   5.076   0.321
  859SOL    HW1 3476   6.947   5.111   0.289
  859SOL    HW2 3477   6.808   5.149   0.364
  860SOL     OW 3478   2.210   4.830   1.052
  860SOL    HW1 3479   2.165   4.757   1.103
  860SOL    HW2 3480   2.153   4.912   1.053
  861SOL     OW 3481   3.444   5.777   5.380
  861SOL    HW1 3482   3.379   5.812   5.447
  861SOL    HW2 3483   3.523   5.738   5.427
  862SOL     OW 3484   4.819   4.329   4.284
  862SOL    HW1 3485   4.808   4.319   4.383
  862SOL    HW2 3486   4.810   4.239   4.241
  863SOL     OW 3487   6.793   0.691   1.206
  863SOL    HW1 3488   6.801   0.596   1.237
  863SOL    HW2 3489   6.698   0.720   1.212
  864SOL     OW 3490   6.231   4.359   2.487
  864SOL    HW1 3491   6.265   4.366   2.393
  864SOL    HW2 3492   6.257   4.271   2.526
  865SOL     OW 3493   1.769   6.483   4.334
  865SOL    HW1 3494   1.799   6.531   4.416
  865SOL    HW2 3495   1.793   6.386   4.340
  866SOL     OW 3496   3.169   1.824   2.292
  866SOL    HW1 3497   3.178   1.874   2.378
  866SOL    HW2 3498   3.086   1.853   2.244
  867SOL     OW 3499   2.462   3.454   6.488
  867SOL    HW1 3500   2.458   3.390   6.411
  867SOL    HW2 3501   2.494   3.405   6.570
  868SOL     OW 3502   5.389   1.728   3.058
  868SOL    HW1 3503   5.416   1.824   3.067
  868SOL    HW2 3504   5.289   1.721   3.056
  869SOL     OW 3505   6.464   6.381   2.391
  869SOL    HW1 3506   6.422   6.291   2.381
  869SOL    HW2 3507   6.473   6.423   2.301
  870SOL     OW 3508   6.544   1.222   1.161
  870SOL    HW1 3509   6.556   1.204   1.258
  870SOL    HW2 3510   6.581   1.313   1.139
  871SOL     OW 3511   5.959   2.401   1.289
  871SOL    HW1 3512   5.860   2.400   1.274
  871SOL    HW2 3513   6.003   2.456   1.218
  872SOL     OW 3514   6.086   2.305   3.976
  872SOL    HW1 3515   5.992   2.337   3.968
  872SOL    HW2 3516   6.106   2.285   4.072
  873SOL     OW 3517   3.719   6.549   4.687
  873SOL    HW1 3518   3.642   6.597   4.644
  873SOL    HW2 3519   3.687   6.503   4.770
  874SOL     OW 3520   1.070   3.427   5.356
  874SOL    HW1 3521   0.985   3.388   5.322
  874SOL    HW2 3522   1.145   3.361   5.341
  875SOL     OW 3523   5.839   3.906   0.186
  875SOL    HW1 3524   5.774   3.830   0.195
  875SOL    HW2 3525   5.812   3.980   0.248
  876SOL     OW 3526   0.026   3.455   1.916
  876SOL    HW1 3527   0.089   3.381   1.889
  876SOL    HW2 3528   6.962   3.415   1.947
  877SOL     OW 3529   5.118   5.871   0.132
  877SOL    HW1 3530   5.079   5.944   0.189
  877SOL    HW2 3531   5.045   5.815   0.093
  878SOL     OW 3532   2.729   4.959   0.592
  878SOL    HW1 3533   2.781   4.886   0.636
  878SOL    HW2 3534   2.668   5.002   0.658
  879SOL     OW 3535   4.474   2.263   2.618
  879SOL    HW1 3536   4.539   2.331   2.652
  879SOL    HW2 3537   4.467   2.270   2.519
  880SOL     OW 3538   3.994   5.528   0.246
  880SOL    HW1 3539   4.077   5.537   0.191
  880SOL    HW2 3540   3.923   5.589   0.210
  881SOL     OW 3541   3.879   5.034   4.805
  881SOL    HW1 3542   3.944   4.964   4.775
  881SOL    HW2 3543   3.802   5.038   4.741
  882SOL     OW 3544   1.011   1.478   4.352
  882SOL    HW1 3545   0.978   1.532   4.429
  882SOL    HW2 3546   1.109   1.494   4.339
  883SOL     OW 3547   2.991   5.615   5.929
  883SOL    HW1 3548   2.920   5.686   5.926
  883SOL    HW2 3549   2.982   5.562   6.013
  884SOL     OW 3550   5.020   3.148   1.633
  884SOL    HW1 3551   4.961   3.097   1.571
  884SOL    HW2 3552   4.965   3.188   1.706
  885SOL     OW 3553   5.457   6.326   0.465
  885SOL    HW1 3554   5.420   6.419   0.455
  885SOL    HW2 3555   5.517   6.323   0.545
  886SOL     OW 3556   4.222   1.956   6.279
  886SOL    HW1 3557   4.223   2.044   6.232
  886SOL    HW2 3558   4.279   1.961   6.361
  887SOL     OW 3559   4.003   0.272   6.059
  887SOL    HW1 3560   4.085   0.239   6.106
  887SOL    HW2 3561   4.028   0.348   5.999
  888SOL     OW 3562   6.498   6.168   3.200
  888SOL    HW1 3563   6.573   6.110   3.168
  888SOL    HW2 3564   6.513   6.192   3.296
  889SOL     OW 3565   0.464   6.809   5.067
  889SOL    HW1 3566   0.502   6.854   4.987
  889SOL    HW2 3567   0.501   6.850   5.150
  890SOL     OW 3568   2.779   4.696   2.256
  890SOL    HW1 3569   2.687   4.658   2.254
  890SOL    HW2 3570   2.830   4.665   2.175
  891SOL     OW 3571   5.494   3.148   6.839
  891SOL    HW1 3572   5.415   3.178   6.893
  891SOL    HW2 3573   5.492   3.193   6.750
  892SOL     OW 3574   2.656   4.664   1.310
  892SOL    HW1 3575   2.719   4.590   1.334
  892SOL    HW2 3576   2.636   4.718   1.392
  893SOL     OW 3577   1.062   0.054   6.972
  893SOL    HW1 3578   1.123   0.024   0.024
  893SOL    HW2 3579   1.101   0.027   6.884
  894SOL     OW 3580   1.026   5.793   4.218
  894SOL    HW1 3581   1.059   5.708   4.258
  894SOL    HW2 3582   1.098   5.835   4.163
  895SOL     OW 3583   2.530   6.667   4.805
  895SOL    HW1 3584   2.522   6.628   4.897
  895SOL    HW2 3585   2.484   6.607   4.740
  896SOL     OW 3586   5.762   6.816   2.573
  896SOL    HW1 3587   5.728   6.722   2.574
  896SOL    HW2 3588   5.713   6.868   2.503
  897SOL     OW 3589   5.253   1.977   6.156
  897SOL    HW1 3590   5.179   1.991   6.221
  897SOL    HW2 3591   5.235   2.029   6.073
  898SOL     OW 3592   5.820   6.387   3.456
  898SOL    HW1 3593   5.815   6.468   3.515
  898SOL    HW2 3594   5.898   6.397   3.393
  899SOL     OW 3595   0.395   4.545   5.657
  899SOL    HW1 3596   0.447   4.620   5.698
  899SOL    HW2 3597   0.300   4.552   5.685
  900SOL     OW 3598   0.888   5.785   3.264
  900SOL    HW1 3599   0.942   5.869   3.262
  900SOL    HW2 3600   0.913   5.728   3.185
  901SOL     OW 3601   6.105   1.387   3.992
  901SOL    HW1 3602   6.181   1.362   4.052
  901SOL    HW2 3603   6.095   1.487   3.991
  902SOL     OW 3604   6.681   6.239   0.337
  902SOL    HW1 3605   6.742   6.219   0.413
  902SOL    HW2 3606   6.694   6.170   0.265
  903SOL     OW 3607   1.267   5.027   0.430
  903SOL    HW1 3608   1.352   5.003   0.382
  903SOL    HW2 3609   1.288   5.082   0.511
  904SOL     OW 3610   1.821   1.648   3.439
  904SOL    HW1 3611   1.725   1.653   3.466
  904SOL    HW2 3612   1.837   1.561   3.392
  905SOL     OW 3613   5.633   2.617   5.146
  905SOL    HW1 3614   5.649   2.664   5.060
  905SOL    HW2 3615   5.718   2.614   5.199
  906SOL     OW 3616   6.382   3.259   5.971
  906SOL    HW1 3617   6.382   3.181   6.034
  906SOL    HW2 3618   6.323   3.331   6.008
  907SOL     OW 3619   6.480   2.412   2.968
  907SOL    HW1 3620   6.490   2.502   3.011
  907SOL    HW2 3621   6.570   2.371   2.955
  908SOL     OW 3622   1.847   0.962   4.064
  908SOL    HW1 3623   1.930   1.001   4.104
  908SOL    HW2 3624   1.805   0.899   4.129
  909SOL     OW 3625   3.486   1.370   1.961
  909SOL    HW1 3626   3.449   1.385   1.870
  909SOL    HW2 3627   3.557   1.300   1.958
  910SOL     OW 3628   2.337   2.211   1.036
  910SOL    HW1 3629   2.257   2.268   1.055
  910SOL    HW2 3630   2.307   2.124   0.997
  911SOL     OW 3631   0.198   4.599   0.819
  911SOL    HW1 3632   0.192   4.564   0.912
  911SOL    HW2 3633   0.291   4.633   0.802
  912SOL     OW 3634   1.218   0.281   5.821
  912SOL    HW1 3635   1.197   0.229   5.904
  912SOL    HW2 3636   1.143   0.343   5.801
  913SOL     OW 3637   2.935   0.763   2.177
  913SOL    HW1 3638   2.907   0.773   2.272
  913SOL    HW2 3639   2.869   0.810   2.118
  914SOL     OW 3640   2.854   6.292   2.871
  914SOL    HW1 3641   2.855   6.285   2.771
  914SOL    HW2 3642   2.936   6.339   2.901
  915SOL     OW 3643   0.526   2.984   0.587
  915SOL    HW1 3644   0.523   2.982   0.487
  915SOL    HW2 3645   0.459   3.049   0.621
  916SOL     OW 3646   2.285   2.983   2.740
  916SOL    HW1 3647   2.304   3.030   2.826
  916SOL    HW2 3648   2.291   2.884   2.755
  917SOL     OW 3649   4.077   1.944   0.153
  917SOL    HW1 3650   4.040   2.037   0.159
  917SOL    HW2 3651   4.013   1.885   0.104
  918SOL     OW 3652   1.527   0.437   6.359
  918SOL    HW1 3653   1.572   0.522   6.333
  918SOL    HW2 3654   1.594   0.362   6.357
  919SOL     OW 3655   2.859   5.953   2.721
  919SOL    HW1 3656   2.796   6.005   2.662
  919SOL    HW2 3657   2.816   5.935   2.809
  920SOL     OW 3658   2.430   0.637   3.806
  920SOL    HW1 3659   2.468   0.723   3.772
  920SOL    HW2 3660   2.411   0.644   3.904
  921SOL     OW 3661   5.475   5.156   5.227
  921SOL    HW1 3662   5.392   5.209   5.209
  921SOL    HW2 3663   5.530   5.151   5.144
  922SOL     OW 3664   2.911   3.942   0.067
  922SOL    HW1 3665   2.898   4.036   0.036
  922SOL    HW2 3666   2.986   3.938   0.133
  923SOL     OW 3667   3.839   0.072   6.546
  923SOL    HW1 3668   3.838   0.063   6.446
  923SOL    HW2 3669   3.763   0.130   6.575
  924SOL     OW 3670   5.601   3.051   3.375
  924SOL    HW1 3671   5.514   3.099   3.388
  924SOL    HW2 3672   5.637   3.070   3.284
  925SOL     OW 3673   6.673   1.589   3.641
  925SOL    HW1 3674   6.673   1.503   3.693
  925SOL    HW2 3675   6.582   1.630   3.643
  926SOL     OW 3676   5.293   5.949   1.052
  926SOL    HW1 3677   5.222   5.898   1.101
  926SOL    HW2 3678   5.265   6.044   1.040
  927SOL     OW 3679   3.908   4.849   5.266
  927SOL    HW1 3680   3.888   4.800   5.181
  927SOL    HW2 3681   3.824   4.855   5.320
  928SOL     OW 3682   1.106   1.498   1.144
  928SOL    HW1 3683   1.203   1.484   1.128
  928SOL    HW2 3684   1.093   1.532   1.238
  929SOL     OW 3685   0.112   2.250   2.343
  929SOL    HW1 3686   0.164   2.200   2.412
  929SOL    HW2 3687   0.146   2.344   2.337
  930SOL     OW 3688   5.270   5.861   4.114
  930SOL    HW1 3689   5.251   5.921   4.192
  930SOL    HW2 3690   5.184   5.818   4.085
  931SOL     OW 3691   1.906   2.614   2.527
  931SOL    HW1 3692   1.952   2.668   2.457
  931SOL    HW2 3693   1.948   2.523   2.531
  932SOL     OW 3694   4.692   6.480   0.873
  932SOL    HW1 3695   4.680   6.578   0.858
  932SOL    HW2 3696   4.716   6.436   0.787
  933SOL     OW 3697   1.600   5.933   2.848
  933SOL    HW1 3698   1.608   5.960   2.943
  933SOL    HW2 3699   1.689   5.902   2.814
  934SOL     OW 3700   3.025   0.806   5.571
  934SOL    HW1 3701   3.036   0.895   5.528
  934SOL    HW2 3702   3.023   0.816   5.670
  935SOL     OW 3703   3.446   3.593   6.280
  935SOL    HW1 3704   3.516   3.542   6.329
  935SOL    HW2 3705   3.480   3.619   6.189
  936SOL     OW 3706   0.981   1.696   1.390
  936SOL    HW1 3707   1.078   1.703   1.411
  936SOL    HW2 3708   0.933   1.652   1.466
  937SOL     OW 3709   4.803   2.375   4.479
  937SOL    HW1 3710   4.886   2.429   4.469
  937SOL    HW2 3711   4.736   2.426   4.533
  938SOL     OW 3712   0.406   2.672   6.797
  938SOL    HW1 3713   0.463   2.753   6.811
  938SOL    HW2 3714   0.418   2.609   6.874
  939SOL     OW 3715   5.859   0.968   5.784
  939SOL    HW1 3716   5.792   0.905   5.821
  939SOL    HW2 3717   5.834   1.062   5.807
  940SOL     OW 3718   6.633   1.098   4.156
  940SOL    HW1 3719   6.625   1.149   4.071
  940SOL    HW2 3720   6.625   1.160   4.234
  941SOL     OW 3721   5.533   2.764   4.582
  941SOL    HW1 3722   5.568   2.702   4.512
  941SOL    HW2 3723   5.437   2.742   4.601
  942SOL     OW 3724   5.765   6.507   5.307
  942SOL    HW1 3725   5.730   6.502   5.214
  942SOL    HW2 3726   5.834   6.579   5.313
  943SOL     OW 3727   5.647   2.139   1.166
  943SOL    HW1 3728   5.702   2.104   1.091
  943SOL    HW2 3729   5.560   2.091   1.169
  944SOL     OW 3730   5.732   4.494   4.172
  944SOL    HW1 3731   5.656   4.431   4.192
  944SOL    HW2 3732   5.814   4.462   4.218
  945SOL     OW 3733   5.188   4.288   4.641
  945SOL    HW1 3734   5.140   4.332   4.565
  945SOL    HW2 3735   5.281   4.264   4.613
  946SOL     OW 3736   5.460   2.220   5.444
  946SOL    HW1 3737   5.478   2.312   5.411
  946SOL    HW2 3738   5.517   2.155   5.393
  947SOL     OW 3739   1.921   2.705   5.582
  947SOL    HW1 3740   1.956   2.625   5.534
  947SOL    HW2 3741   1.978   2.726   5.661
  948SOL     OW 3742   3.611   2.194   0.484
  948SOL    HW1 3743   3.655   2.119   0.533
  948SOL    HW2 3744   3.588   2.267   0.548
  949SOL     OW 3745   5.788   5.805   6.399
  949SOL    HW1 3746   5.831   5.719   6.425
  949SOL    HW2 3747   5.693   5.806   6.430
  950SOL     OW 3748   4.430   4.904   1.710
  950SOL    HW1 3749   4.383   4.977   1.661
  950SOL    HW2 3750   4.494   4.944   1.776
  951SOL     OW 3751   0.478   2.048   2.791
  951SOL    HW1 3752   0.390   2.006   2.768
  951SOL    HW2 3753   0.540   2.040   2.712
  952SOL     OW 3754   4.882   1.956   2.412
  952SOL    HW1 3755   4.880   1.863   2.449
  952SOL    HW2 3756   4.829   2.016   2.471
  953SOL     OW 3757   4.031   0.060   0.021
  953SOL    HW1 3758   3.956   7.018   0.006
  953SOL    HW2 3759   4.049   0.110   6.959
  954SOL     OW 3760   6.216   6.278   0.852
  954SOL    HW1 3761   6.167   6.269   0.939
  954SOL    HW2 3762   6.313   6.295   0.871
  955SOL     OW 3763   0.435   6.690   2.859
  955SOL    HW1 3764   0.352   6.688   2.915
  955SOL    HW2 3765   0.413   6.723   2.768
  956SOL     OW 3766   1.148   2.742   0.954
  956SOL    HW1 3767   1.190   2.805   1.020
  956SOL    HW2 3768   1.162   2.648   0.984
  957SOL     OW 3769   2.293   5.801   4.912
  957SOL    HW1 3770   2.201   5.767   4.894
  957SOL    HW2 3771   2.327   5.762   4.997
  958SOL     OW 3772   4.993   2.780   0.830
  958SOL    HW1 3773   4.973   2.752   0.736
  958SOL    HW2 3774   5.001   2.880   0.834
  959SOL     OW 3775   1.784   4.527   2.828
  959SOL    HW1 3776   1.696   4.496   2.865
  959SOL    HW2 3777   1.829   4.451   2.782
  960SOL     OW 3778   1.371   5.447   4.582
  960SOL    HW1 3779   1.274   5.455   4.605
  960SOL    HW2 3780   1.403   5.533   4.543
  961SOL     OW 3781   3.811   0.667   1.903
  961SOL    HW1 3782   3.777   0.593   1.961
  961SOL    HW2 3783   3.809   0.753   1.954
  962SOL     OW 3784   1.604   0.562   4.105
  962SOL    HW1 3785   1.660   0.480   4.101
  962SOL    HW2 3786   1.565   0.581   4.015
  963SOL     OW 3787   6.817   6.932   0.783
  963SOL    HW1 3788   6.803   0.007   0.767
  963SOL    HW2 3789   6.890   6.899   0.723
  964SOL     OW 3790   5.256   3.490   1.962
  964SOL    HW1 3791   5.217   3.571   2.006
  964SOL    HW2 3792   5.315   3.442   2.027
  965SOL     OW 3793   0.766   1.877   0.753
  965SOL    HW1 3794   0.705   1.896   0.677
  965SOL    HW2 3795   0.735   1.927   0.834
  966SOL     OW 3796   6.901   2.512   2.920
  966SOL    HW1 3797   6.933   2.590   2.867
  966SOL    HW2 3798   6.915   2.428   2.867
  967SOL     OW 3799   1.682   6.135   2.114
  967SOL    HW1 3800   1.684   6.184   2.027
  967SOL    HW2 3801   1.694   6.037   2.097
  968SOL     OW 3802   5.100   2.997   2.543
  968SOL    HW1 3803   5.002   2.987   2.526
  968SOL    HW2 3804   5.135   3.073   2.489
  969SOL     OW 3805   4.428   6.000   5.920
  969SOL    HW1 3806   4.379   6.043   5.997
  969SOL    HW2 3807   4.396   6.041   5.834
  970SOL     OW 3808   4.365   2.423   5.306
  970SOL    HW1 3809   4.356   2.517   5.337
  970SOL    HW2 3810   4.281   2.395   5.259
  971SOL     OW 3811   6.778   1.814   1.638
  971SOL    HW1 3812   6.724   1.732   1.617
  971SOL    HW2 3813   6.792   1.820   1.737
  972SOL     OW 3814   6.585   5.749   1.149
  972SOL    HW1 3815   6.550   5.811   1.219
  972SOL    HW2 3816   6.591   5.798   1.062
  973SOL     OW 3817   5.670   4.142   5.730
  973SOL    HW1 3818   5.730   4.219   5.751
  973SOL    HW2 3819   5.625   4.157   5.642
  974SOL     OW 3820   2.418   0.846   4.050
  974SOL    HW1 3821   2.473   0.866   3.968
  974SOL    HW2 3822   2.454   0.897   4.128
  975SOL     OW 3823   3.147   6.700   5.210
  975SOL    HW1 3824   3.047   6.691   5.207
  975SOL    HW2 3825   3.186   6.666   5.124
  976SOL     OW 3826   0.359   4.482   3.776
  976SOL    HW1 3827   0.398   4.455   3.688
  976SOL    HW2 3828   0.259   4.479   3.771
  977SOL     OW 3829   2.146   1.256   3.507
  977SOL    HW1 3830   2.138   1.187   3.579
  977SOL    HW2 3831   2.243   1.275   3.490
  978SOL     OW 3832   5.609   3.407   4.524
  978SOL    HW1 3833   5.530   3.383   4.467
  978SOL    HW2 3834   5.659   3.482   4.481
  979SOL     OW 3835   6.466   0.887   3.497
  979SOL    HW1 3836   6.445   0.790   3.506
  979SOL    HW2 3837   6.482   0.908   3.401
  980SOL     OW 3838   6.231   1.441   4.510
  980SOL    HW1 3839   6.133   1.423   4.503
  980SOL    HW2 3840   6.250   1.535   4.482
  981SOL     OW 3841   6.995   2.096   4.935
  981SOL    HW1 3842   6.939   2.164   4.983
  981SOL    HW2 3843   0.029   2.047   5.001
  982SOL     OW 3844   1.429   3.243   1.445
  982SOL    HW1 3845   1.417   3.212   1.351
  982SOL    HW2 3846   1.509   3.304   1.450
  983SOL     OW 3847   5.847   2.053   3.409
  983SOL    HW1 3848   5.846   1.999   3.325
  983SOL    HW2 3849   5.918   2.018   3.471
  984SOL     OW 3850   4.506   1.774   4.740
  984SOL    HW1 3851   4.550   1.696   4.696
  984SOL    HW2 3852   4.426   1.803   4.686
  985SOL     OW 3853   3.779   5.466   0.398
  985SOL    HW1 3854   3.761   5.529   0.474
  985SOL    HW2 3855   3.862   5.495   0.349
  986SOL     OW 3856   4.513   4.827   6.235
  986SOL    HW1 3857   4.548   4.863   6.149
  986SOL    HW2 3858   4.559   4.871   6.312
  987SOL     OW 3859   4.358   6.912   2.342
  987SOL    HW1 3860   4.367   6.866   2.253
  987SOL    HW2 3861   4.381   7.008   2.332
  988SOL     OW 3862   3.792   3.633   2.014
  988SOL    HW1 3863   3.774   3.572   1.938
  988SOL    HW2 3864   3.796   3.727   1.982
  989SOL     OW 3865   0.577   0.286   5.974
  989SOL    HW1 3866   0.660   0.285   5.920
  989SOL    HW2 3867   0.512   0.219   5.938
  990SOL     OW 3868   4.677   0.147   3.913
  990SOL    HW1 3869   4.717   0.095   3.989
  990SOL    HW2 3870   4.608   0.210   3.949
  991SOL     OW 3871   6.601   1.299   5.072
  991SOL    HW1 3872   6.608   1.379   5.014
  991SOL    HW2 3873   6.608   1.326   5.168
  992SOL     OW 3874   0.700   3.602   0.205
  992SOL    HW1 3875   0.622   3.594   0.267
  992SOL    HW2 3876   0.685   3.543   0.125
  993SOL     OW 3877   3.153   4.911   3.420
  993SOL    HW1 3878   3.055   4.914   3.440
  993SOL    HW2 3879   3.204   4.952   3.496
  994SOL     OW 3880   2.894   3.515   2.899
  994SOL    HW1 3881   2.800   3.479   2.901
  994SOL    HW2 3882   2.940   3.491   2.984
  995SOL     OW 3883   2.100   1.522   5.035
  995SOL    HW1 3884   2.130   1.614   5.060
  995SOL    HW2 3885   2.180   1.466   5.013
  996SOL     OW 3886   2.146   3.797   2.505
  996SOL    HW1 3887   2.207   3.798   2.584
  996SOL    HW2 3888   2.128   3.702   2.479
  997SOL     OW 3889   0.200   1.176   1.684
  997SOL    HW1 3890   0.253   1.161   1.601
  997SOL    HW2 3891   0.123   1.111   1.687
  998SOL     OW 3892   4.688   6.863   2.483
  998SOL    HW1 3893   4.630   6.940   2.509
  998SOL    HW2 3894   4.749   6.891   2.409
  999SOL     OW 3895   6.756   5.483   1.634
  999SOL    HW1 3896   6.824   5.432   1.687
  999SOL    HW2 3897   6.714   5.422   1.567
 1000SOL     OW 3898   3.375   2.094   4.310
 1000SOL    HW1 3899   3.365   2.150   4.392
 1000SOL    HW2 3900   3.293   2.038   4.298
 1001SOL     OW 3901   5.402   0.349   5.593
 1001SOL    HW1 3902   5.421   0.435   5.546
 1001SOL    HW2 3903   5.485   0.318   5.640
 1002SOL     OW 3904   6.352   0.826   0.377
 1002SOL    HW1 3905   6.323   0.795   0.286
 1002SOL    HW2 3906   6.277   0.872   0.422
 1003SOL     OW 3907   3.790   5.957   2.780
 1003SOL    HW1 3908   3.728   5.910   2.717
 1003SOL    HW2 3909   3.835   6.032   2.732
 1004SOL     OW 3910   6.058   0.041   0.360
 1004SOL    HW1 3911   6.122   0.117   0.345
 1004SOL    HW2 3912   6.016   0.015   0.273
 1005SOL     OW 3913   0.628   6.803   3.009
 1005SOL    HW1 3914   0.545   6.777   2.961
 1005SOL    HW2 3915   0.605   6.858   3.089
 1006SOL     OW 3916   2.494   5.037   1.197
 1006SOL    HW1 3917   2.477   5.036   1.296
 1006SOL    HW2 3918   2.528   4.947   1.168
 1007SOL     OW 3919   0.229   1.519   3.628
 1007SOL    HW1 3920   0.321   1.513   3.666
 1007SOL    HW2 3921   0.233   1.504   3.529
 1008SOL     OW 3922   2.144   3.339   3.718
 1008SOL    HW1 3923   2.211   3.316   3.647
 1008SOL    HW2 3924   2.051   3.322   3.682
 1009SOL     OW 3925   0.820   6.355   5.221
 1009SOL    HW1 3926   0.730   6.332   5.184
 1009SOL    HW2 3927   0.813   6.370   5.319
 1010SOL     OW 3928   4.528   2.594   0.210
 1010SOL    HW1 3929   4.589   2.631   0.140
 1010SOL    HW2 3930   4.500   2.668   0.271
 1011SOL     OW 3931   2.695   6.240   3.467
 1011SOL    HW1 3932   2.705   6.144   3.442
 1011SOL    HW2 3933   2.784   6.279   3.486
 1012SOL     OW 3934   5.076   4.885   6.891
 1012SOL    HW1 3935   4.988   4.927   6.913
 1012SOL    HW2 3936   5.148   4.926   6.947
 1013SOL     OW 3937   0.914   1.089   1.170
 1013SOL    HW1 3938   0.822   1.128   1.161
 1013SOL    HW2 3939   0.908   0.990   1.174
 1014SOL     OW 3940   4.736   6.416   5.763
 1014SOL    HW1 3941   4.795   6.456   5.833
 1014SOL    HW2 3942   4.788   6.402   5.679
 1015SOL     OW 3943   3.647   5.953   4.495
 1015SOL    HW1 3944   3.641   5.890   4.572
 1015SOL    HW2 3945   3.600   5.914   4.415
 1016SOL     OW 3946   3.932   2.818   1.287
 1016SOL    HW1 3947   4.029   2.834   1.303
 1016SOL    HW2 3948   3.917   2.796   1.190
 1017SOL     OW 3949   4.316   2.412   0.091
 1017SOL    HW1 3950   4.322   2.397   7.015
 1017SOL    HW2 3951   4.393   2.469   0.120
 1018SOL     OW 3952   1.559   2.764   2.763
 1018SOL    HW1 3953   1.545   2.666   2.756
 1018SOL    HW2 3954   1.657   2.783   2.774
 1019SOL     OW 3955   0.224   1.788   6.682
 1019SOL    HW1 3956   0.209   1.869   6.739
 1019SOL    HW2 3957   0.140   1.734   6.678
 1020SOL     OW 3958   2.647   1.515   1.790
 1020SOL    HW1 3959   2.624   1.563   1.875
 1020SOL    HW2 3960   2.653   1.417   1.808
 1021SOL     OW 3961   6.804   1.122   0.788
 1021SOL    HW1 3962   6.717   1.084   0.755
 1021SOL    HW2 3963   6.826   1.084   0.878
 1022SOL     OW 3964   4.222   3.562   6.120
 1022SOL    HW1 3965   4.232   3.645   6.176
 1022SOL    HW2 3966   4.301   3.503   6.134
 1023SOL     OW 3967   5.641   0.710   2.368
 1023SOL    HW1 3968   5.585   0.632   2.396
 1023SOL    HW2 3969   5.599   0.753   2.287
 1024SOL     OW 3970   6.640   1.330   3.678
 1024SOL    HW1 3971   6.722   1.318   3.622
 1024SOL    HW2 3972   6.621   1.245   3.727
 1025SOL     OW 3973   3.481   4.628   1.216
 1025SOL    HW1 3974   3.560   4.634   1.155
 1025SOL    HW2 3975   3.397   4.620   1.161
 1026SOL     OW 3976   1.907   2.060   0.473
 1026SOL    HW1 3977   1.848   2.138   0.452
 1026SOL    HW2 3978   2.000   2.079   0.439
 1027SOL     OW 3979   2.785   4.699   2.574
 1027SOL    HW1 3980   2.822   4.791   2.570
 1027SOL    HW2 3981   2.823   4.644   2.500
 1028SOL     OW 3982   1.418   5.859   0.889
 1028SOL    HW1 3983   1.440   5.938   0.832
 1028SOL    HW2 3984   1.397   5.780   0.831
 1029SOL     OW 3985   1.963   0.134   6.373
 1029SOL    HW1 3986   1.904   0.209   6.344
 1029SOL    HW2 3987   1.976   0.139   6.472
 1030SOL     OW 3988   4.197   3.627   4.981
 1030SOL    HW1 3989   4.148   3.713   4.996
 1030SOL    HW2 3990   4.259   3.611   5.058
 1031SOL     OW 3991   2.672   5.719   2.000
 1031SOL    HW1 3992   2.744   5.682   2.059
 1031SOL    HW2 3993   2.610   5.645   1.972
 1032SOL     OW 3994   1.382   1.578   4.639
 1032SOL    HW1 3995   1.433   1.606   4.558
 1032SOL    HW2 3996   1.355   1.659   4.691
 1033SOL     OW 3997   2.419   5.796   2.465
 1033SOL    HW1 3998   2.408   5.712   2.411
 1033SOL    HW2 3999   2.476   5.861   2.414
 1034SOL     OW 4000   1.515   5.104   3.923
 1034SOL    HW1 4001   1.479   5.087   3.831
 1034SOL    HW2 4002   1.615   5.096   3.922
 1035SOL     OW 4003   2.708   1.014   4.471
 1035SOL    HW1 4004   2.644   0.988   4.542
 1035SOL    HW2 4005   2.695   1.111   4.447
 1036SOL     OW 4006   4.543   2.631   0.551
 1036SOL    HW1 4007   4.567   2.706   0.489
 1036SOL    HW2 4008   4.531   2.547   0.498
 1037SOL     OW 4009   2.138   1.626   0.203
 1037SOL    HW1 4010   2.237   1.638   0.212
 1037SOL    HW2 4011   2.114   1.614   0.107
 1038SOL     OW 4012   2.011   1.242   5.335
 1038SOL    HW1 4013   2.105   1.215   5.316
 1038SOL    HW2 4014   2.010   1.313   5.405
 1039SOL     OW 4015   3.880   2.205   4.369
 1039SOL    HW1 4016   3.849   2.184   4.277
 1039SOL    HW2 4017   3.816   2.167   4.436
 1040SOL     OW 4018   6.390   4.595   2.813
 1040SOL    HW1 4019   6.445   4.643   2.881
 1040SOL    HW2 4020   6.421   4.500   2.806
 1041SOL     OW 4021   0.423   0.926   4.259
 1041SOL    HW1 4022   0.421   0.982   4.342
 1041SOL    HW2 4023   0.463   0.837   4.280
 1042SOL     OW 4024   5.853   4.930   0.519
 1042SOL    HW1 4025   5.831   5.027   0.518
 1042SOL    HW2 4026   5.907   4.909   0.601
 1043SOL     OW 4027   3.180   1.943   6.278
 1043SOL    HW1 4028   3.087   1.962   6.311
 1043SOL    HW2 4029   3.245   1.999   6.328
 1044SOL     OW 4030   4.170   3.370   2.041
 1044SOL    HW1 4031   4.263   3.364   2.077
 1044SOL    HW2 4032   4.156   3.459   1.999
 1045SOL     OW 4033   3.386   1.387   3.699
 1045SOL    HW1 4034   3.480   1.360   3.679
 1045SOL    HW2 4035   3.332   1.306   3.722
 1046SOL     OW 4036   3.925   0.614   1.254
 1046SOL    HW1 4037   3.947   0.670   1.334
 1046SOL    HW2 4038   3.986   0.534   1.252
 1047SOL     OW 4039   0.761   4.818   2.872
 1047SOL    HW1 4040   0.818   4.874   2.932
 1047SOL    HW2 4041   0.813   4.792   2.791
 1048SOL     OW 4042   4.888   4.244   5.490
 1048SOL    HW1 4043   4.886   4.340   5.517
 1048SOL    HW2 4044   4.849   4.187   5.562
 1049SOL     OW 4045   0.322   3.399   4.865
 1049SOL    HW1 4046   0.348   3.317   4.814
 1049SOL    HW2 4047   0.226   3.422   4.846
 1050SOL     OW 4048   3.563   0.644   0.083
 1050SOL    HW1 4049   3.573   0.708   0.159
 1050SOL    HW2 4050   3.504   0.569   0.110
 1051SOL     OW 4051   4.865   4.614   0.704
 1051SOL    HW1 4052   4.927   4.540   0.679
 1051SOL    HW2 4053   4.878   4.691   0.640
 1052SOL     OW 4054   3.623   0.338   4.376
 1052SOL    HW1 4055   3.708   0.294   4.405
 1052SOL    HW2 4056   3.611   0.423   4.427
 1053SOL     OW 4057   4.635   4.340   3.946
 1053SOL    HW1 4058   4.684   4.350   4.033
 1053SOL    HW2 4059   4.652   4.249   3.909
 1054SOL     OW 4060   3.561   5.790   4.676
 1054SOL    HW1 4061   3.612   5.823   4.756
 1054SOL    HW2 4062   3.499   5.717   4.704
 1055SOL     OW 4063   4.510   6.288   5.389
 1055SOL    HW1 4064   4.499   6.223   5.314
 1055SOL    HW2 4065   4.523   6.380   5.351
 1056SOL     OW 4066   1.629   6.906   4.998
 1056SOL    HW1 4067   1.682   6.877   4.918
 1056SOL    HW2 4068   1.638   6.838   5.071
 1057SOL     OW 4069   3.123   3.911   2.658
 1057SOL    HW1 4070   3.039   3.858   2.646
 1057SOL    HW2 4071   3.134   3.974   2.581
 1058SOL     OW 4072   3.521   1.221   1.681
 1058SOL    HW1 4073   3.603   1.279   1.679
 1058SOL    HW2 4074   3.515   1.169   1.596
 1059SOL     OW 4075   4.145   1.731   1.374
 1059SOL    HW1 4076   4.077   1.802   1.357
 1059SOL    HW2 4077   4.101   1.641   1.371
 1060SOL     OW 4078   1.523   1.822   5.824
 1060SOL    HW1 4079   1.535   1.801   5.922
 1060SOL    HW2 4080   1.603   1.870   5.790
 1061SOL     OW 4081   3.504   5.059   1.554
 1061SOL    HW1 4082   3.489   5.013   1.466
 1061SOL    HW2 4083   3.529   4.991   1.623
 1062SOL     OW 4084   5.744   5.416   5.162
 1062SOL    HW1 4085   5.783   5.381   5.077
 1062SOL    HW2 4086   5.743   5.344   5.231
 1063SOL     OW 4087   1.614   2.755   6.944
 1063SOL    HW1 4088   1.661   2.735   0.008
 1063SOL    HW2 4089   1.679   2.748   6.868
 1064SOL     OW 4090   6.654   2.799   2.192
 1064SOL    HW1 4091   6.713   2.730   2.150
 1064SOL    HW2 4092   6.646   2.878   2.131
 1065SOL     OW 4093   6.684   6.817   4.904
 1065SOL    HW1 4094   6.693   6.726   4.863
 1065SOL    HW2 4095   6.659   6.807   5.000
 1066SOL     OW 4096   4.803   0.528   3.418
 1066SOL    HW1 4097   4.750   0.479   3.348
 1066SOL    HW2 4098   4.897   0.494   3.418
 1067SOL     OW 4099   1.735   3.207   2.316
 1067SOL    HW1 4100   1.695   3.224   2.407
 1067SOL    HW2 4101   1.817   3.262   2.305
 1068SOL     OW 4102   0.592   3.512   2.103
 1068SOL    HW1 4103   0.630   3.596   2.144
 1068SOL    HW2 4104   0.558   3.532   2.012
 1069SOL     OW 4105   3.962   4.232   1.082
 1069SOL    HW1 4106   4.045   4.208   1.133
 1069SOL    HW2 4107   3.920   4.150   1.045
 1070SOL     OW 4108   2.195   1.010   0.303
 1070SOL    HW1 4109   2.263   1.012   0.230
 1070SOL    HW2 4110   2.164   1.103   0.322
 1071SOL     OW 4111   4.192   6.566   3.564
 1071SOL    HW1 4112   4.255   6.540   3.490
 1071SOL    HW2 4113   4.110   6.608   3.524
 1072SOL     OW 4114   4.008   6.143   2.964
 1072SOL    HW1 4115   3.963   6.112   3.048
 1072SOL    HW2 4116   3.948   6.127   2.886
 1073SOL     OW 4117   2.338   4.612   2.755
 1073SOL    HW1 4118   2.430   4.634   2.787
 1073SOL    HW2 4119   2.290   4.558   2.824
 1074SOL     OW 4120   1.253   5.428   1.798
 1074SOL    HW1 4121   1.241   5.502   1.732
 1074SOL    HW2 4122   1.256   5.340   1.749
 1075SOL     OW 4123   6.366   4.592   4.096
 1075SOL    HW1 4124   6.320   4.672   4.135
 1075SOL    HW2 4125   6.456   4.581   4.139
 1076SOL     OW 4126   0.666   4.536   3.598
 1076SOL    HW1 4127   0.696   4.601   3.529
 1076SOL    HW2 4128   0.579   4.495   3.569
 1077SOL     OW 4129   4.416   0.172   1.048
 1077SOL    HW1 4130   4.325   0.212   1.060
 1077SOL    HW2 4131   4.484   0.245   1.053
 1078SOL     OW 4132   1.062   2.430   1.447
 1078SOL    HW1 4133   1.015   2.419   1.535
 1078SOL    HW2 4134   1.064   2.343   1.398
 1079SOL     OW 4135   2.363   5.689   3.464
 1079SOL    HW1 4136   2.281   5.744   3.451
 1079SOL    HW2 4137   2.436   5.746   3.502
 1080SOL     OW 4138   1.803   5.542   4.722
 1080SOL    HW1 4139   1.839   5.573   4.810
 1080SOL    HW2 4140   1.809   5.443   4.717
 1081SOL     OW 4141   1.750   0.815   0.276
 1081SOL    HW1 4142   1.809   0.829   0.196
 1081SOL    HW2 4143   1.746   0.718   0.298
 1082SOL     OW 4144   2.124   6.671   5.995
 1082SOL    HW1 4145   2.181   6.743   6.036
 1082SOL    HW2 4146   2.133   6.587   6.049
 1083SOL     OW 4147   3.416   3.434   1.273
 1083SOL    HW1 4148   3.332   3.460   1.225
 1083SOL    HW2 4149   3.396   3.421   1.370
 1084SOL     OW 4150   6.294   4.019   0.810
 1084SOL    HW1 4151   6.269   3.923   0.821
 1084SOL    HW2 4152   6.215   4.076   0.831
 1085SOL     OW 4153   2.067   3.848   4.321
 1085SOL    HW1 4154   2.057   3.798   4.235
 1085SOL    HW2 4155   2.125   3.929   4.306
 1086SOL     OW 4156   4.558   4.718   2.459
 1086SOL    HW1 4157   4.499   4.775   2.516
 1086SOL    HW2 4158   4.623   4.776   2.410
 1087SOL     OW 4159   4.327   3.024   5.545
 1087SOL    HW1 4160   4.257   3.062   5.484
 1087SOL    HW2 4161   4.387   3.097   5.577
 1088SOL     OW 4162   5.017   4.158   4.034
 1088SOL    HW1 4163   4.984   4.239   3.985
 1088SOL    HW2 4164   4.942   4.118   4.087
 1089SOL     OW 4165   0.551   6.987   3.239
 1089SOL    HW1 4166   0.475   0.027   3.250
 1089SOL    HW2 4167   0.551   6.921   3.314
 1090SOL     OW 4168   1.013   1.746   6.311
 1090SOL    HW1 4169   1.074   1.762   6.233
 1090SOL    HW2 4170   0.952   1.825   6.322
 1091SOL     OW 4171   1.829   1.966   5.084
 1091SOL    HW1 4172   1.818   1.979   4.986
 1091SOL    HW2 4173   1.745   1.994   5.131
 1092SOL     OW 4174   2.247   4.295   1.511
 1092SOL    HW1 4175   2.154   4.321   1.537
 1092SOL    HW2 4176   2.311   4.319   1.584
 1093SOL     OW 4177   0.141   1.831   2.452
 1093SOL    HW1 4178   0.083   1.751   2.462
 1093SOL    HW2 4179   0.236   1.806   2.472
 1094SOL     OW 4180   0.492   6.267   1.367
 1094SOL    HW1 4181   0.580   6.309   1.343
 1094SOL    HW2 4182   0.498   6.168   1.354
 1095SOL     OW 4183   5.646   3.768   6.052
 1095SOL    HW1 4184   5.612   3.767   6.146
 1095SOL    HW2 4185   5.659   3.863   6.023
 1096SOL     OW 4186   3.432   4.583   1.652
 1096SOL    HW1 4187   3.375   4.663   1.633
 1096SOL    HW2 4188   3.505   4.609   1.714
 1097SOL     OW 4189   0.898   5.532   5.577
 1097SOL    HW1 4190   0.937   5.518   5.486
 1097SOL    HW2 4191   0.950   5.479   5.644
 1098SOL     OW 4192   4.260   2.038   2.281
 1098SOL    HW1 4193   4.189   1.967   2.288
 1098SOL    HW2 4194   4.266   2.069   2.186
 1099SOL     OW 4195   4.129   1.930   3.340
 1099SOL    HW1 4196   4.135   2.028   3.360
 1099SOL    HW2 4197   4.038   1.896   3.363
 1100SOL     OW 4198   0.302   1.000   7.011
 1100SOL    HW1 4199   0.371   1.035   0.053
 1100SOL    HW2 4200   0.322   0.905   6.989
 1101SOL     OW 4201   5.549   2.748   1.053
 1101SOL    HW1 4202   5.599   2.664   1.074
 1101SOL    HW2 4203   5.613   2.821   1.032
 1102SOL     OW 4204   0.591   4.758   3.414
 1102SOL    HW1 4205   0.529   4.745   3.337
 1102SOL    HW2 4206   0.545   4.811   3.485
 1103SOL     OW 4207   1.060   2.947   1.355
 1103SOL    HW1 4208   0.996   3.016   1.387
 1103SOL    HW2 4209   1.020   2.856   1.366
 1104SOL     OW 4210   3.146   4.967   6.017
 1104SOL    HW1 4211   3.203   4.945   5.938
 1104SOL    HW2 4212   3.062   4.913   6.015
 1105SOL     OW 4213   4.418   4.357   6.684
 1105SOL    HW1 4214   4.375   4.274   6.722
 1105SOL    HW2 4215   4.458   4.411   6.758
 1106SOL     OW 4216   0.139   2.568   6.153
 1106SOL    HW1 4217   0.182   2.517   6.228
 1106SOL    HW2 4218   0.174   2.534   6.066
 1107SOL     OW 4219   0.624   0.415   0.850
 1107SOL    HW1 4220   0.604   0.428   0.947
 1107SOL    HW2 4221   0.541   0.434   0.796
 1108SOL     OW 4222   0.782   1.520   5.230
 1108SOL    HW1 4223   0.852   1.581   5.191
 1108SOL    HW2 4224   0.758   1.450   5.162
 1109SOL     OW 4225   4.707   0.091   4.326
 1109SOL    HW1 4226   4.752   0.136   4.403
 1109SOL    HW2 4227   4.614   0.064   4.352
 1110SOL     OW 4228   3.262   3.165   1.956
 1110SOL    HW1 4229   3.189   3.145   2.021
 1110SOL    HW2 4230   3.316   3.242   1.989
 1111SOL     OW 4231   5.669   0.039   6.977
 1111SOL    HW1 4232   5.635   0.101   0.025
 1111SOL    HW2 4233   5.758   0.070   6.945
 1112SOL     OW 4234   6.752   0.993   2.722
 1112SOL    HW1 4235   6.763   0.919   2.655
 1112SOL    HW2 4236   6.698   0.959   2.800
 1113SOL     OW 4237   6.493   3.626   2.097
 1113SOL    HW1 4238   6.408   3.604   2.049
 1113SOL    HW2 4239   6.570   3.590   2.045
 1114SOL     OW 4240   4.879   1.850   5.116
 1114SOL    HW1 4241   4.803   1.790   5.092
 1114SOL    HW2 4242   4.855   1.945   5.092
 1115SOL     OW 4243   2.923   3.348   0.862
 1115SOL    HW1 4244   2.876   3.311   0.941
 1115SOL    HW2 4245   3.002   3.291   0.840
 1116SOL     OW 4246   4.418   6.858   4.357
 1116SOL    HW1 4247   4.460   6.880   4.445
 1116SOL    HW2 4248   4.336   6.913   4.345
 1117SOL     OW 4249   2.697   3.091   1.405
 1117SOL    HW1 4250   2.777   3.064   1.352
 1117SOL    HW2 4251   2.615   3.081   1.349
 1118SOL     OW 4252   2.094   3.754   4.015
 1118SOL    HW1 4253   2.105   3.854   4.017
 1118SOL    HW2 4254   2.101   3.723   3.920
 1119SOL     OW 4255   4.056   3.776   1.714
 1119SOL    HW1 4256   4.096   3.823   1.636
 1119SOL    HW2 4257   3.993   3.838   1.762
 1120SOL     OW 4258   3.663   0.488   5.210
 1120SOL    HW1 4259   3.747   0.515   5.258
 1120SOL    HW2 4260   3.674   0.502   5.112
 1121SOL     OW 4261   5.661   3.107   1.810
 1121SOL    HW1 4262   5.612   3.055   1.739
 1121SOL    HW2 4263   5.753   3.129   1.777
 1122SOL     OW 4264   5.112   4.018   6.599
 1122SOL    HW1 4265   5.128   3.927   6.640
 1122SOL    HW2 4266   5.099   4.008   6.501
 1123SOL     OW 4267   3.461   0.394   2.281
 1123SOL    HW1 4268   3.506   0.411   2.369
 1123SOL    HW2 4269   3.467   0.297   2.258
 1124SOL     OW 4270   0.594   3.886   4.758
 1124SOL    HW1 4271   0.559   3.794   4.774
 1124SOL    HW2 4272   0.685   3.880   4.716
 1125SOL     OW 4273   3.464   3.517   5.018
 1125SOL    HW1 4274   3.470   3.441   5.082
 1125SOL    HW2 4275   3.381   3.570   5.036
 1126SOL     OW 4276   5.518   6.304   2.020
 1126SOL    HW1 4277   5.545   6.397   1.994
 1126SOL    HW2 4278   5.573   6.238   1.969
 1127SOL     OW 4279   1.360   4.908   6.658
 1127SOL    HW1 4280   1.340   4.811   6.643
 1127SOL    HW2 4281   1.445   4.917   6.710
 1128SOL     OW 4282   2.865   1.825   4.957
 1128SOL    HW1 4283   2.889   1.909   5.006
 1128SOL    HW2 4284   2.765   1.813   4.960
 1129SOL     OW 4285   5.689   0.868   6.879
 1129SOL    HW1 4286   5.656   0.944   6.935
 1129SOL    HW2 4287   5.612   0.808   6.855
 1130SOL     OW 4288   0.285   4.642   6.685
 1130SOL    HW1 4289   0.205   4.655   6.743
 1130SOL    HW2 4290   0.320   4.549   6.697
 1131SOL     OW 4291   0.257   5.443   5.723
 1131SOL    HW1 4292   0.299   5.530   5.696
 1131SOL    HW2 4293   0.318   5.367   5.700
 1132SOL     OW 4294   5.463   6.802   5.423
 1132SOL    HW1 4295   5.435   6.761   5.510
 1132SOL    HW2 4296   5.443   6.900   5.426
 1133SOL     OW 4297   0.218   3.737   1.450
 1133SOL    HW1 4298   0.139   3.711   1.506
 1133SOL    HW2 4299   0.277   3.799   1.502
 1134SOL     OW 4300   5.347   2.662   6.352
 1134SOL    HW1 4301   5.347   2.587   6.286
 1134SOL    HW2 4302   5.261   2.660   6.404
 1135SOL     OW 4303   2.938   2.172   3.103
 1135SOL    HW1 4304   2.958   2.136   3.194
 1135SOL    HW2 4305   3.003   2.134   3.037
 1136SOL     OW 4306   3.331   5.371   3.953
 1136SOL    HW1 4307   3.271   5.382   4.032
 1136SOL    HW2 4308   3.384   5.287   3.963
 1137SOL     OW 4309   1.676   0.912   5.847
 1137SOL    HW1 4310   1.681   0.812   5.851
 1137SOL    HW2 4311   1.590   0.940   5.804
 1138SOL     OW 4312   0.410   4.121   5.602
 1138SOL    HW1 4313   0.345   4.054   5.568
 1138SOL    HW2 4314   0.431   4.188   5.531
 1139SOL     OW 4315   1.440   5.972   2.397
 1139SOL    HW1 4316   1.538   5.980   2.378
 1139SOL    HW2 4317   1.390   5.963   2.312
 1140SOL     OW 4318   3.793   1.725   3.972
 1140SOL    HW1 4319   3.713   1.669   3.993
 1140SOL    HW2 4320   3.788   1.757   3.877
 1141SOL     OW 4321   6.607   5.485   5.239
 1141SOL    HW1 4322   6.642   5.441   5.322
 1141SOL    HW2 4323   6.509   5.501   5.248
 1142SOL     OW 4324   6.412   0.844   4.297
 1142SOL    HW1 4325   6.334   0.803   4.251
 1142SOL    HW2 4326   6.451   0.916   4.240
 1143SOL     OW 4327   4.339   2.046   2.723
 1143SOL    HW1 4328   4.246   2.014   2.703
 1143SOL    HW2 4329   4.364   2.117   2.657
 1144SOL     OW 4330   0.380   5.519   4.656
 1144SOL    HW1 4331   0.348   5.599   4.707
 1144SOL    HW2 4332   0.345   5.523   4.563
 1145SOL     OW 4333   0.797   5.689   4.887
 1145SOL    HW1 4334   0.862   5.732   4.824
 1145SOL    HW2 4335   0.770   5.755   4.957
 1146SOL     OW 4336   5.790   2.151   0.853
 1146SOL    HW1 4337   5.793   2.080   0.923
 1146SOL    HW2 4338   5.712   2.134   0.792
 1147SOL     OW 4339   6.861   3.019   2.224
 1147SOL    HW1 4340   6.792   3.000   2.155
 1147SOL    HW2 4341   6.893   3.113   2.215
 1148SOL     OW 4342   3.655   6.919   0.603
 1148SOL    HW1 4343   3.646   6.973   0.687
 1148SOL    HW2 4344   3.599   6.959   0.531
 1149SOL     OW 4345   6.292   3.019   2.104
 1149SOL    HW1 4346   6.203   3.057   2.126
 1149SOL    HW2 4347   6.361   3.058   2.165
 1150SOL     OW 4348   1.429   5.002   0.002
 1150SOL    HW1 4349   1.334   5.033   0.010
 1150SOL    HW2 4350   1.473   5.004   0.092
 1151SOL     OW 4351   5.306   5.058   6.506
 1151SOL    HW1 4352   5.282   5.115   6.584
 1151SOL    HW2 4353   5.255   4.971   6.512
 1152SOL     OW 4354   1.009   0.275   4.664
 1152SOL    HW1 4355   1.096   0.307   4.626
 1152SOL    HW2 4356   0.968   0.209   4.602
 1153SOL     OW 4357   2.456   5.156   3.016
 1153SOL    HW1 4358   2.386   5.151   3.088
 1153SOL    HW2 4359   2.479   5.252   2.998
 1154SOL     OW 4360   1.045   4.204   1.921
 1154SOL    HW1 4361   1.067   4.302   1.920
 1154SOL    HW2 4362   1.035   4.173   2.015
 1155SOL     OW 4363   3.653   6.098   2.122
 1155SOL    HW1 4364   3.686   6.168   2.185
 1155SOL    HW2 4365   3.612   6.141   2.042
 1156SOL     OW 4366   2.175   0.249   4.203
 1156SOL    HW1 4367   2.126   0.237   4.289
 1156SOL    HW2 4368   2.253   0.187   4.200
 1157SOL     OW 4369   0.585   2.920   3.895
 1157SOL    HW1 4370   0.613   2.875   3.810
 1157SOL    HW2 4371   0.512   2.866   3.938
 1158SOL     OW 4372   4.347   5.521   5.969
 1158SOL    HW1 4373   4.434   5.471   5.966
 1158SOL    HW2 4374   4.280   5.468   6.020
 1159SOL     OW 4375   4.351   5.160   3.718
 1159SOL    HW1 4376   4.364   5.072   3.765
 1159SOL    HW2 4377   4.343   5.144   3.620
 1160SOL     OW 4378   3.181   3.807   0.893
 1160SOL    HW1 4379   3.202   3.871   0.819
 1160SOL    HW2 4380   3.114   3.740   0.861
 1161SOL     OW 4381   5.352   1.057   3.395
 1161SOL    HW1 4382   5.402   0.983   3.439
 1161SOL    HW2 4383   5.254   1.036   3.395
 1162SOL     OW 4384   3.554   4.133   2.192
 1162SOL    HW1 4385   3.577   4.082   2.108
 1162SOL    HW2 4386   3.552   4.231   2.172
 1163SOL     OW 4387   4.940   2.020   2.804
 1163SOL    HW1 4388   4.859   1.966   2.825
 1163SOL    HW2 4389   5.001   1.967   2.744
 1164SOL     OW 4390   6.073   3.481   3.767
 1164SOL    HW1 4391   5.983   3.506   3.802
 1164SOL    HW2 4392   6.138   3.553   3.789
 1165SOL     OW 4393   0.781   4.961   3.208
 1165SOL    HW1 4394   0.749   4.912   3.289
 1165SOL    HW2 4395   0.881   4.951   3.201
 1166SOL     OW 4396   4.278   2.672   6.442
 1166SOL    HW1 4397   4.346   2.603   6.418
 1166SOL    HW2 4398   4.187   2.630   6.445
 1167SOL     OW 4399   4.688   1.652   5.050
 1167SOL    HW1 4400   4.598   1.617   5.024
 1167SOL    HW2 4401   4.721   1.603   5.130
 1168SOL     OW 4402   6.130   6.678   3.540
 1168SOL    HW1 4403   6.043   6.635   3.563
 1168SOL    HW2 4404   6.148   6.667   3.442
 1169SOL     OW 4405   0.503   3.562   1.828
 1169SOL    HW1 4406   0.433   3.626   1.860
 1169SOL    HW2 4407   0.552   3.604   1.751
 1170SOL     OW 4408   3.091   1.048   0.947
 1170SOL    HW1 4409   3.100   0.990   0.866
 1170SOL    HW2 4410   3.133   1.002   1.026
 1171SOL     OW 4411   2.687   5.931   0.451
 1171SOL    HW1 4412   2.756   5.984   0.402
 1171SOL    HW2 4413   2.650   5.986   0.526
 1172SOL     OW 4414   3.278   3.734   5.045
 1172SOL    HW1 4415   3.312   3.789   5.121
 1172SOL    HW2 4416   3.180   3.718   5.057
 1173SOL     OW 4417   3.772   1.168   6.762
 1173SOL    HW1 4418   3.751   1.247   6.820
 1173SOL    HW2 4419   3.744   1.084   6.808
 1174SOL     OW 4420   2.934   5.918   0.861
 1174SOL    HW1 4421   2.901   6.012   0.851
 1174SOL    HW2 4422   2.920   5.888   0.955
 1175SOL     OW 4423   6.373   4.842   5.766
 1175SOL    HW1 4424   6.363   4.830   5.865
 1175SOL    HW2 4425   6.311   4.914   5.735
 1176SOL     OW 4426   5.715   4.360   0.888
 1176SOL    HW1 4427   5.746   4.312   0.969
 1176SOL    HW2 4428   5.785   4.356   0.817
 1177SOL     OW 4429   6.410   2.536   5.910
 1177SOL    HW1 4430   6.482   2.468   5.926
 1177SOL    HW2 4431   6.329   2.511   5.963
 1178SOL     OW 4432   6.314   3.606   1.798
 1178SOL    HW1 4433   6.289   3.686   1.854
 1178SOL    HW2 4434   6.330   3.528   1.858
 1179SOL     OW 4435   2.498   5.583   6.276
 1179SOL    HW1 4436   2.478   5.505   6.216
 1179SOL    HW2 4437   2.590   5.617   6.255
 1180SOL     OW 4438   2.605   1.791   4.278
 1180SOL    HW1 4439   2.587   1.708   4.330
 1180SOL    HW2 4440   2.602   1.771   4.180
 1181SOL     OW 4441   2.001   4.351   3.084
 1181SOL    HW1 4442   2.018   4.443   3.048
 1181SOL    HW2 4443   2.074   4.289   3.054
 1182SOL     OW 4444   2.016   3.666   3.480
 1182SOL    HW1 4445   2.027   3.763   3.455
 1182SOL    HW2 4446   1.931   3.655   3.531
 1183SOL     OW 4447   4.389   5.604   1.274
 1183SOL    HW1 4448   4.368   5.589   1.370
 1183SOL    HW2 4449   4.304   5.610   1.221
 1184SOL     OW 4450   3.015   2.841   5.599
 1184SOL    HW1 4451   3.011   2.823   5.501
 1184SOL    HW2 4452   3.098   2.893   5.620
 1185SOL     OW 4453   1.855   1.194   6.598
 1185SOL    HW1 4454   1.945   1.200   6.642
 1185SOL    HW2 4455   1.866   1.202   6.499
 1186SOL     OW 4456   4.842   1.570   4.843
 1186SOL    HW1 4457   4.778   1.607   4.911
 1186SOL    HW2 4458   4.869   1.478   4.869
 1187SOL     OW 4459   6.228   0.611   5.311
 1187SOL    HW1 4460   6.301   0.632   5.375
 1187SOL    HW2 4461   6.267   0.594   5.220
 1188SOL     OW 4462   1.536   0.149   5.589
 1188SOL    HW1 4463   1.470   0.074   5.590
 1188SOL    HW2 4464   1.515   0.212   5.514
 1189SOL     OW 4465   5.659   0.919   1.718
 1189SOL    HW1 4466   5.571   0.932   1.764
 1189SOL    HW2 4467   5.652   0.948   1.623
 1190SOL     OW 4468   4.241   5.058   3.009
 1190SOL    HW1 4469   4.326   5.098   2.973
 1190SOL    HW2 4470   4.168   5.071   2.942
 1191SOL     OW 4471   3.386   5.467   6.202
 1191SOL    HW1 4472   3.446   5.388   6.203
 1191SOL    HW2 4473   3.346   5.481   6.293
 1192SOL     OW 4474   5.219   5.181   2.905
 1192SOL    HW1 4475   5.251   5.148   2.994
 1192SOL    HW2 4476   5.287   5.242   2.866
 1193SOL     OW 4477   4.841   0.536   4.152
 1193SOL    HW1 4478   4.881   0.538   4.060
 1193SOL    HW2 4479   4.859   0.446   4.193
 1194SOL     OW 4480   5.981   6.993   0.867
 1194SOL    HW1 4481   6.024   6.903   0.857
 1194SOL    HW2 4482   5.893   6.994   0.819
 1195SOL     OW 4483   4.581   0.693   6.364
 1195SOL    HW1 4484   4.565   0.788   6.392
 1195SOL    HW2 4485   4.602   0.691   6.266
 1196SOL     OW 4486   0.774   5.440   2.133
 1196SOL    HW1 4487   0.802   5.346   2.113
 1196SOL    HW2 4488   0.677   5.451   2.112
 1197SOL     OW 4489   3.732   5.411   6.073
 1197SOL    HW1 4490   3.674   5.456   6.005
 1197SOL    HW2 4491   3.757   5.320   6.041
 1198SOL     OW 4492   2.873   1.942   2.547
 1198SOL    HW1 4493   2.885   1.844   2.539
 1198SOL    HW2 4494   2.948   1.982   2.599
 1199SOL     OW 4495   4.118   3.459   2.669
 1199SOL    HW1 4496   4.160   3.398   2.737
 1199SOL    HW2 4497   4.120   3.416   2.579
 1200SOL     OW 4498   3.630   3.849   0.254
 1200SOL    HW1 4499   3.681   3.837   0.169
 1200SOL    HW2 4500   3.639   3.767   0.311
 1201SOL     OW 4501   1.180   0.969   5.092
 1201SOL    HW1 4502   1.123   0.996   5.169
 1201SOL    HW2 4503   1.268   0.936   5.126
 1202SOL     OW 4504   6.083   0.187   4.612
 1202SOL    HW1 4505   5.994   0.200   4.568
 1202SOL    HW2 4506   6.135   0.272   4.606
 1203SOL     OW 4507   5.291   7.001   1.296
 1203SOL    HW1 4508   5.212   6.941   1.305
 1203SOL    HW2 4509   5.370   6.948   1.267
 1204SOL     OW 4510   3.064   0.844   0.652
 1204SOL    HW1 4511   3.149   0.868   0.699
 1204SOL    HW2 4512   3.070   0.751   0.618
 1205SOL     OW 4513   6.709   2.968   5.201
 1205SOL    HW1 4514   6.617   2.987   5.234
 1205SOL    HW2 4515   6.770   2.951   5.279
 1206SOL     OW 4516   2.409   1.732   4.707
 1206SOL    HW1 4517   2.366   1.641   4.708
 1206SOL    HW2 4518   2.499   1.727   4.751
 1207SOL     OW 4519   5.620   6.855   6.618
 1207SOL    HW1 4520   5.625   6.802   6.702
 1207SOL    HW2 4521   5.538   6.830   6.567
 1208SOL     OW 4522   4.121   3.517   3.591
 1208SOL    HW1 4523   4.141   3.446   3.660
 1208SOL    HW2 4524   4.121   3.607   3.635
 1209SOL     OW 4525   5.972   5.425   4.127
 1209SOL    HW1 4526   5.929   5.346   4.170
 1209SOL    HW2 4527   5.901   5.489   4.096
 1210SOL     OW 4528   3.421   0.037   2.754
 1210SOL    HW1 4529   3.505   7.013   2.782
 1210SOL    HW2 4530   3.367   7.000   2.695
 1211SOL     OW 4531   0.479   4.171   4.732
 1211SOL    HW1 4532   0.517   4.224   4.807
 1211SOL    HW2 4533   0.486   4.074   4.752
 1212SOL     OW 4534   1.728   4.023   5.138
 1212SOL    HW1 4535   1.701   4.068   5.223
 1212SOL    HW2 4536   1.817   3.979   5.149
 1213SOL     OW 4537   5.811   1.969   5.644
 1213SOL    HW1 4538   5.820   1.899   5.573
 1213SOL    HW2 4539   5.715   1.978   5.670
 1214SOL     OW 4540   2.210   2.975   3.428
 1214SOL    HW1 4541   2.163   3.060   3.403
 1214SOL    HW2 4542   2.218   2.916   3.348
 1215SOL     OW 4543   1.171   4.928   1.340
 1215SOL    HW1 4544   1.243   4.881   1.390
 1215SOL    HW2 4545   1.212   4.994   1.276
 1216SOL     OW 4546   2.610   0.341   1.841
 1216SOL    HW1 4547   2.512   0.334   1.820
 1216SOL    HW2 4548   2.623   0.403   1.918
 1217SOL     OW 4549   1.267   0.005   1.857
 1217SOL    HW1 4550   1.268   0.090   1.909
 1217SOL    HW2 4551   1.304   0.021   1.766
 1218SOL     OW 4552   0.594   3.770   3.032
 1218SOL    HW1 4553   0.534   3.693   3.052
 1218SOL    HW2 4554   0.682   3.756   3.077
 1219SOL     OW 4555   3.516   6.017   2.453
 1219SOL    HW1 4556   3.552   6.101   2.493
 1219SOL    HW2 4557   3.482   6.036   2.360
 1220SOL     OW 4558   6.142   3.738   3.226
 1220SOL    HW1 4559   6.078   3.711   3.297
 1220SOL    HW2 4560   6.231   3.761   3.267
 1221SOL     OW 4561   4.847   3.394   6.909
 1221SOL    HW1 4562   4.890   3.446   6.835
 1221SOL    HW2 4563   4.748   3.396   6.897
 1222SOL     OW 4564   6.846   6.315   1.610
 1222SOL    HW1 4565   6.946   6.306   1.608
 1222SOL    HW2 4566   6.806   6.260   1.537
 1223SOL     OW 4567   6.220   6.685   5.960
 1223SOL    HW1 4568   6.318   6.678   5.941
 1223SOL    HW2 4569   6.177   6.742   5.890
 1224SOL     OW 4570   4.943   4.756   2.228
 1224SOL    HW1 4571   4.917   4.772   2.133
 1224SOL    HW2 4572   5.042   4.772   2.238
 1225SOL     OW 4573   4.983   2.334   6.922
 1225SOL    HW1 4574   5.022   2.426   6.936
 1225SOL    HW2 4575   5.055   2.272   6.890
 1226SOL     OW 4576   5.913   5.379   1.151
 1226SOL    HW1 4577   5.850   5.339   1.218
 1226SOL    HW2 4578   5.929   5.314   1.077
 1227SOL     OW 4579   5.146   4.305   6.058
 1227SOL    HW1 4580   5.113   4.218   6.094
 1227SOL    HW2 4581   5.154   4.300   5.958
 1228SOL     OW 4582   3.472   2.958   2.811
 1228SOL    HW1 4583   3.489   2.861   2.826
 1228SOL    HW2 4584   3.407   2.992   2.878
 1229SOL     OW 4585   2.340   5.490   2.998
 1229SOL    HW1 4586   2.275   5.547   2.948
 1229SOL    HW2 4587   2.421   5.544   3.020
 1230SOL     OW 4588   5.534   5.226   1.160
 1230SOL    HW1 4589   5.553   5.299   1.095
 1230SOL    HW2 4590   5.605   5.226   1.231
 1231SOL     OW 4591   1.641   2.396   6.628
 1231SOL    HW1 4592   1.631   2.493   6.605
 1231SOL    HW2 4593   1.725   2.383   6.682
 1232SOL     OW 4594   3.437   0.384   5.539
 1232SOL    HW1 4595   3.346   0.343   5.542
 1232SOL    HW2 4596   3.444   0.455   5.609
 1233SOL     OW 4597   0.342   5.645   5.577
 1233SOL    HW1 4598   0.337   5.598   5.489
 1233SOL    HW2 4599   0.435   5.678   5.592
 1234SOL     OW 4600   6.676   2.995   0.083
 1234SOL    HW1 4601   6.741   3.071   0.087
 1234SOL    HW2 4602   6.617   3.007   0.003
 1235SOL     OW 4603   6.375   5.206   0.787
 1235SOL    HW1 4604   6.392   5.108   0.793
 1235SOL    HW2 4605   6.451   5.251   0.741
 1236SOL     OW 4606   1.081   1.583   2.162
 1236SOL    HW1 4607   1.127   1.636   2.233
 1236SOL    HW2 4608   1.116   1.489   2.162
 1237SOL     OW 4609   0.634   6.871   4.395
 1237SOL    HW1 4610   0.707   6.879   4.464
 1237SOL    HW2 4611   0.557   6.821   4.434
 1238SOL     OW 4612   0.003   0.259   4.524
 1238SOL    HW1 4613   6.969   0.190   4.479
 1238SOL    HW2 4614   6.998   0.350   4.493
 1239SOL     OW 4615   5.701   4.876   4.880
 1239SOL    HW1 4616   5.698   4.819   4.962
 1239SOL    HW2 4617   5.703   4.817   4.799
 1240SOL     OW 4618   6.202   4.661   3.351
 1240SOL    HW1 4619   6.287   4.615   3.324
 1240SOL    HW2 4620   6.196   4.665   3.451
 1241SOL     OW 4621   4.820   4.768   4.977
 1241SOL    HW1 4622   4.781   4.854   5.010
 1241SOL    HW2 4623   4.783   4.747   4.886
 1242SOL     OW 4624   1.126   4.946   6.792
 1242SOL    HW1 4625   1.146   5.001   6.874
 1242SOL    HW2 4626   1.194   4.966   6.722
 1243SOL     OW 4627   1.034   4.439   4.635
 1243SOL    HW1 4628   1.069   4.410   4.546
 1243SOL    HW2 4629   1.098   4.502   4.678
 1244SOL     OW 4630   5.391   0.667   4.909
 1244SOL    HW1 4631   5.427   0.620   4.990
 1244SOL    HW2 4632   5.334   0.604   4.856
 1245SOL     OW 4633   4.811   6.922   1.209
 1245SOL    HW1 4634   4.872   6.915   1.129
 1245SOL    HW2 4635   4.798   6.831   1.248
 1246SOL     OW 4636   5.087   1.375   0.238
 1246SOL    HW1 4637   5.001   1.421   0.215
 1246SOL    HW2 4638   5.139   1.433   0.301
 1247SOL     OW 4639   0.135   0.032   3.711
 1247SOL    HW1 4640   0.158   6.974   3.766
 1247SOL    HW2 4641   0.137   0.114   3.769
 1248SOL     OW 4642   1.318   6.708   4.364
 1248SOL    HW1 4643   1.380   6.632   4.346
 1248SOL    HW2 4644   1.294   6.753   4.278
 1249SOL     OW 4645   5.788   4.817   6.661
 1249SOL    HW1 4646   5.793   4.722   6.633
 1249SOL    HW2 4647   5.862   4.838   6.724
 1250SOL     OW 4648   6.744   3.495   5.045
 1250SOL    HW1 4649   6.761   3.398   5.063
 1250SOL    HW2 4650   6.831   3.544   5.034
 1251SOL     OW 4651   3.157   0.502   2.777
 1251SOL    HW1 4652   3.142   0.586   2.724
 1251SOL    HW2 4653   3.188   0.429   2.716
 1252SOL     OW 4654   1.735   5.598   6.674
 1252SOL    HW1 4655   1.798   5.633   6.604
 1252SOL    HW2 4656   1.778   5.522   6.722
 1253SOL     OW 4657   3.294   1.330   0.758
 1253SOL    HW1 4658   3.296   1.429   0.748
 1253SOL    HW2 4659   3.378   1.299   0.802
 1254SOL     OW 4660   6.720   1.253   1.711
 1254SOL    HW1 4661   6.780   1.214   1.641
 1254SOL    HW2 4662   6.746   1.218   1.801
 1255SOL     OW 4663   5.796   1.366   5.407
 1255SOL    HW1 4664   5.861   1.431   5.367
 1255SOL    HW2 4665   5.785   1.385   5.504
 1256SOL     OW 4666   1.253   5.997   4.477
 1256SOL    HW1 4667   1.276   6.037   4.566
 1256SOL    HW2 4668   1.164   6.032   4.447
 1257SOL     OW 4669   0.549   5.576   4.071
 1257SOL    HW1 4670   0.468   5.634   4.056
 1257SOL    HW2 4671   0.577   5.582   4.167
 1258SOL     OW 4672   4.406   6.775   4.950
 1258SOL    HW1 4673   4.446   6.821   4.871
 1258SOL    HW2 4674   4.409   6.676   4.935
 1259SOL     OW 4675   5.945   0.353   3.893
 1259SOL    HW1 4676   6.039   0.351   3.927
 1259SOL    HW2 4677   5.933   0.283   3.823
 1260SOL     OW 4678   2.246   0.564   1.913
 1260SOL    HW1 4679   2.279   0.637   1.973
 1260SOL    HW2 4680   2.146   0.567   1.910
 1261SOL     OW 4681   6.349   4.653   6.045
 1261SOL    HW1 4682   6.427   4.613   5.998
 1261SOL    HW2 4683   6.381   4.716   6.117
 1262SOL     OW 4684   4.601   5.049   0.598
 1262SOL    HW1 4685   4.672   5.112   0.629
 1262SOL    HW2 4686   4.549   5.017   0.677
 1263SOL     OW 4687   6.964   2.244   1.378
 1263SOL    HW1 4688   0.037   2.214   1.390
 1263SOL    HW2 4689   6.924   2.195   1.301
 1264SOL     OW 4690   0.151   3.166   3.312
 1264SOL    HW1 4691   0.228   3.198   3.256
 1264SOL    HW2 4692   0.177   3.081   3.359
 1265SOL     OW 4693   6.270   4.544   5.291
 1265SOL    HW1 4694   6.297   4.610   5.362
 1265SOL    HW2 4695   6.230   4.464   5.334
 1266SOL     OW 4696   2.770   1.987   4.627
 1266SOL    HW1 4697   2.821   2.065   4.662
 1266SOL    HW2 4698   2.818   1.947   4.548
 1267SOL     OW 4699   6.975   5.151   2.853
 1267SOL    HW1 4700   6.912   5.172   2.929
 1267SOL    HW2 4701   0.046   5.173   2.881
 1268SOL     OW 4702   6.151   2.833   0.364
 1268SOL    HW1 4703   6.068   2.810   0.314
 1268SOL    HW2 4704   6.227   2.779   0.328
 1269SOL     OW 4705   6.916   5.256   5.100
 1269SOL    HW1 4706   7.004   5.271   5.055
 1269SOL    HW2 4707   6.922   5.175   5.158
 1270SOL     OW 4708   1.936   3.102   4.870
 1270SOL    HW1 4709   1.908   3.174   4.807
 1270SOL    HW2 4710   1.856   3.050   4.900
 1271SOL     OW 4711   4.028   1.182   2.550
 1271SOL    HW1 4712   4.100   1.243   2.517
 1271SOL    HW2 4713   4.021   1.188   2.650
 1272SOL     OW 4714   0.440   5.720   1.619
 1272SOL    HW1 4715   0.426   5.748   1.524
 1272SOL    HW2 4716   0.351   5.710   1.664
 1273SOL     OW 4717   2.474   5.922   6.610
 1273SOL    HW1 4718   2.553   5.879   6.566
 1273SOL    HW2 4719   2.426   5.853   6.665
 1274SOL     OW 4720   0.024   2.359   1.695
 1274SOL    HW1 4721   0.018   2.261   1.679
 1274SOL    HW2 4722   0.060   2.376   1.787
 1275SOL     OW 4723   3.391   1.740   4.633
 1275SOL    HW1 4724   3.298   1.767   4.656
 1275SOL    HW2 4725   3.428   1.804   4.565
 1276SOL     OW 4726   6.874   0.258   3.260
 1276SOL    HW1 4727   6.949   0.302   3.309
 1276SOL    HW2 4728   6.835   0.186   3.317
 1277SOL     OW 4729   0.038   0.214   4.792
 1277SOL    HW1 4730   0.133   0.220   4.823
 1277SOL    HW2 4731   0.031   0.252   4.699
 1278SOL     OW 4732   2.150   2.056   5.865
 1278SOL    HW1 4733   2.113   2.142   5.831
 1278SOL    HW2 4734   2.247   2.067   5.886
 1279SOL     OW 4735   2.629   5.683   0.046
 1279SOL    HW1 4736   2.635   5.593   0.002
 1279SOL    HW2 4737   2.658   5.676   0.141
 1280SOL     OW 4738   3.064   6.945   3.710
 1280SOL    HW1 4739   3.088   6.873   3.775
 1280SOL    HW2 4740   3.051   6.905   3.619
 1281SOL     OW 4741   1.017   6.029   3.250
 1281SOL    HW1 4742   1.074   6.036   3.169
 1281SOL    HW2 4743   0.925   6.061   3.229
 1282SOL     OW 4744   0.475   0.904   1.690
 1282SOL    HW1 4745   0.400   0.898   1.625
 1282SOL    HW2 4746   0.494   1.000   1.711
 1283SOL     OW 4747   5.728   5.213   5.352
 1283SOL    HW1 4748   5.724   5.228   5.450
 1283SOL    HW2 4749   5.643   5.173   5.320
 1284SOL     OW 4750   2.697   2.484   1.814
 1284SOL    HW1 4751   2.649   2.512   1.897
 1284SOL    HW2 4752   2.780   2.434   1.838
 1285SOL     OW 4753   4.353   2.683   5.340
 1285SOL    HW1 4754   4.375   2.780   5.337
 1285SOL    HW2 4755   4.260   2.669   5.305
 1286SOL     OW 4756   5.522   4.783   1.541
 1286SOL    HW1 4757   5.573   4.701   1.515
 1286SOL    HW2 4758   5.431   4.780   1.498
 1287SOL     OW 4759   0.088   6.067   6.603
 1287SOL    HW1 4760   0.171   6.123   6.600
 1287SOL    HW2 4761   0.053   6.054   6.510
 1288SOL     OW 4762   6.705   3.292   1.150
 1288SOL    HW1 4763   6.725   3.249   1.239
 1288SOL    HW2 4764   6.607   3.312   1.144
 1289SOL     OW 4765   0.688   5.810   2.474
 1289SOL    HW1 4766   0.745   5.743   2.426
 1289SOL    HW2 4767   0.592   5.785   2.466
 1290SOL     OW 4768   0.902   6.134   0.674
 1290SOL    HW1 4769   0.842   6.125   0.754
 1290SOL    HW2 4770   0.846   6.138   0.591
 1291SOL     OW 4771   1.775   6.085   6.855
 1291SOL    HW1 4772   1.716   6.049   6.928
 1291SOL    HW2 4773   1.748   6.045   6.767
 1292SOL     OW 4774   0.794   5.372   0.601
 1292SOL    HW1 4775   0.839   5.343   0.517
 1292SOL    HW2 4776   0.844   5.448   0.641
 1293SOL     OW 4777   0.553   2.461   6.360
 1293SOL    HW1 4778   0.624   2.391   6.350
 1293SOL    HW2 4779   0.531   2.500   6.271
 1294SOL     OW 4780   0.101   2.460   1.997
 1294SOL    HW1 4781   0.148   2.545   1.976
 1294SOL    HW2 4782   0.168   2.390   2.024
 1295SOL     OW 4783   5.636   2.664   1.725
 1295SOL    HW1 4784   5.698   2.615   1.665
 1295SOL    HW2 4785   5.638   2.761   1.704
 1296SOL     OW 4786   3.413   2.069   6.385
 1296SOL    HW1 4787   3.436   2.060   6.482
 1296SOL    HW2 4788   3.462   1.998   6.333
 1297SOL     OW 4789   6.923   1.181   5.551
 1297SOL    HW1 4790   6.845   1.199   5.610
 1297SOL    HW2 4791   6.980   1.263   5.545
 1298SOL     OW 4792   6.066   2.817   3.270
 1298SOL    HW1 4793   6.116   2.850   3.350
 1298SOL    HW2 4794   6.095   2.724   3.249
 1299SOL     OW 4795   1.456   3.557   4.096
 1299SOL    HW1 4796   1.458   3.632   4.162
 1299SOL    HW2 4797   1.369   3.509   4.102
 1300SOL     OW 4798   3.761   3.018   1.730
 1300SOL    HW1 4799   3.718   3.107   1.744
 1300SOL    HW2 4800   3.744   2.987   1.636
 1301SOL     OW 4801   1.218   6.909   4.118
 1301SOL    HW1 4802   1.210   6.991   4.061
 1301SOL    HW2 4803   1.141   6.848   4.101
 1302SOL     OW 4804   2.886   6.188   4.774
 1302SOL    HW1 4805   2.808   6.205   4.714
 1302SOL    HW2 4806   2.895   6.262   4.840
 1303SOL     OW 4807   3.199   1.815   0.984
 1303SOL    HW1 4808   3.220   1.832   0.888
 1303SOL    HW2 4809   3.245   1.731   1.014
 1304SOL     OW 4810   2.483   0.352   6.739
 1304SOL    HW1 4811   2.460   0.444   6.706
 1304SOL    HW2 4812   2.407   0.316   6.793
 1305SOL     OW 4813   4.675   0.441   5.034
 1305SOL    HW1 4814   4.665   0.347   5.000
 1305SOL    HW2 4815   4.706   0.440   5.129
 1306SOL     OW 4816   0.840   4.557   4.362
 1306SOL    HW1 4817   0.785   4.479   4.332
 1306SOL    HW2 4818   0.882   4.536   4.450
 1307SOL     OW 4819   1.574   2.137   4.004
 1307SOL    HW1 4820   1.633   2.108   4.079
 1307SOL    HW2 4821   1.517   2.213   4.035
 1308SOL     OW 4822   4.915   6.239   3.743
 1308SOL    HW1 4823   4.847   6.310   3.726
 1308SOL    HW2 4824   5.002   6.282   3.768
 1309SOL     OW 4825   6.373   2.676   4.709
 1309SOL    HW1 4826   6.457   2.627   4.732
 1309SOL    HW2 4827   6.360   2.752   4.773
 1310SOL     OW 4828   5.835   3.832   4.374
 1310SOL    HW1 4829   5.842   3.882   4.461
 1310SOL    HW2 4830   5.842   3.896   4.298
 1311SOL     OW 4831   6.050   6.001   5.247
 1311SOL    HW1 4832   6.114   6.077   5.265
 1311SOL    HW2 4833   5.957   6.037   5.244
 1312SOL     OW 4834   0.611   0.046   0.493
 1312SOL    HW1 4835   0.671   7.018   0.556
 1312SOL    HW2 4836   0.626   0.015   0.400
 1313SOL     OW 4837   3.541   5.346   4.674
 1313SOL    HW1 4838   3.594   5.410   4.619
 1313SOL    HW2 4839   3.546   5.372   4.770
 1314SOL     OW 4840   0.829   1.402   5.527
 1314SOL    HW1 4841   0.856   1.437   5.437
 1314SOL    HW2 4842   0.787   1.312   5.515
 1315SOL     OW 4843   2.308   1.359   2.167
 1315SOL    HW1 4844   2.374   1.377   2.240
 1315SOL    HW2 4845   2.255   1.442   2.149
 1316SOL     OW 4846   2.743   6.841   3.945
 1316SOL    HW1 4847   2.668   6.904   3.923
 1316SOL    HW2 4848   2.765   6.786   3.865
 1317SOL     OW 4849   6.960   5.081   4.269
 1317SOL    HW1 4850   7.007   4.994   4.254
 1317SOL    HW2 4851   6.972   5.139   4.189
 1318SOL     OW 4852   0.368   6.781   0.478
 1318SOL    HW1 4853   0.455   6.806   0.434
 1318SOL    HW2 4854   0.293   6.831   0.436
 1319SOL     OW 4855   6.157   1.414   6.702
 1319SOL    HW1 4856   6.074   1.462   6.732
 1319SOL    HW2 4857   6.181   1.343   6.769
 1320SOL     OW 4858   5.426   5.373   5.867
 1320SOL    HW1 4859   5.501   5.404   5.926
 1320SOL    HW2 4860   5.439   5.277   5.844
 1321SOL     OW 4861   3.765   2.692   0.015
 1321SOL    HW1 4862   3.774   2.611   6.979
 1321SOL    HW2 4863   3.669   2.710   0.032
 1322SOL     OW 4864   6.487   1.470   3.924
 1322SOL    HW1 4865   6.429   1.424   3.990
 1322SOL    HW2 4866   6.537   1.402   3.870
 1323SOL     OW 4867   0.036   1.664   5.006
 1323SOL    HW1 4868   6.979   1.642   4.950
 1323SOL    HW2 4869   0.023   1.752   5.050
 1324SOL     OW 4870   1.535   3.461   1.650
 1324SOL    HW1 4871   1.596   3.395   1.607
 1324SOL    HW2 4872   1.513   3.533   1.584
 1325SOL     OW 4873   2.969   6.189   3.239
 1325SOL    HW1 4874   2.967   6.100   3.285
 1325SOL    HW2 4875   3.064   6.214   3.218
 1326SOL     OW 4876   5.394   3.228   4.353
 1326SOL    HW1 4877   5.448   3.147   4.374
 1326SOL    HW2 4878   5.361   3.269   4.439
 1327SOL     OW 4879   4.026   5.130   2.862
 1327SOL    HW1 4880   3.992   5.055   2.806
 1327SOL    HW2 4881   3.996   5.217   2.822
 1328SOL     OW 4882   1.782   2.301   6.379
 1328SOL    HW1 4883   1.802   2.394   6.409
 1328SOL    HW2 4884   1.683   2.287   6.374
 1329SOL     OW 4885   0.770   1.083   0.383
 1329SOL    HW1 4886   0.776   0.997   0.434
 1329SOL    HW2 4887   0.856   1.098   0.335
 1330SOL     OW 4888   6.888   6.942   1.285
 1330SOL    HW1 4889   6.951   6.903   1.352
 1330SOL    HW2 4890   6.899   6.894   1.198
 1331SOL     OW 4891   5.306   0.328   1.707
 1331SOL    HW1 4892   5.206   0.324   1.711
 1331SOL    HW2 4893   5.339   0.267   1.635
 1332SOL     OW 4894   4.433   1.251   1.275
 1332SOL    HW1 4895   4.497   1.176   1.261
 1332SOL    HW2 4896   4.380   1.235   1.358
 1333SOL     OW 4897   3.989   3.807   5.096
 1333SOL    HW1 4898   3.995   3.902   5.066
 1333SOL    HW2 4899   3.909   3.795   5.153
 1334SOL     OW 4900   0.412   3.888   4.440
 1334SOL    HW1 4901   0.490   3.826   4.441
 1334SOL    HW2 4902   0.328   3.836   4.454
 1335SOL     OW 4903   2.419   4.882   3.361
 1335SOL    HW1 4904   2.442   4.978   3.373
 1335SOL    HW2 4905   2.449   4.851   3.271
 1336SOL     OW 4906   0.569   0.734   5.328
 1336SOL    HW1 4907   0.633   0.729   5.405
 1336SOL    HW2 4908   0.496   0.800   5.350
 1337SOL     OW 4909   2.276   2.337   6.019
 1337SOL    HW1 4910   2.182   2.370   6.025
 1337SOL    HW2 4911   2.295   2.278   6.098
 1338SOL     OW 4912   4.219   5.608   6.537
 1338SOL    HW1 4913   4.152   5.670   6.494
 1338SOL    HW2 4914   4.257   5.547   6.468
 1339SOL     OW 4915   6.548   4.216   5.352
 1339SOL    HW1 4916   6.551   4.171   5.262
 1339SOL    HW2 4917   6.501   4.156   5.417
 1340SOL     OW 4918   1.375   2.167   0.613
 1340SOL    HW1 4919   1.419   2.079   0.629
 1340SOL    HW2 4920   1.321   2.163   0.529
 1341SOL     OW 4921   3.786   1.473   3.587
 1341SOL    HW1 4922   3.866   1.520   3.550
 1341SOL    HW2 4923   3.710   1.538   3.596
 1342SOL     OW 4924   0.374   6.326   0.792
 1342SOL    HW1 4925   0.314   6.393   0.837
 1342SOL    HW2 4926   0.408   6.261   0.860
 1343SOL     OW 4927   3.922   6.018   3.540
 1343SOL    HW1 4928   3.861   6.089   3.575
 1343SOL    HW2 4929   3.897   5.930   3.581
 1344SOL     OW 4930   6.329   1.050   2.536
 1344SOL    HW1 4931   6.340   1.034   2.634
 1344SOL    HW2 4932   6.315   0.963   2.489
 1345SOL     OW 4933   0.305   0.431   2.475
 1345SOL    HW1 4934   0.393   0.392   2.501
 1345SOL    HW2 4935   0.244   0.359   2.444
 1346SOL     OW 4936   0.519   0.351   3.686
 1346SOL    HW1 4937   0.534   0.253   3.685
 1346SOL    HW2 4938   0.510   0.385   3.593
 1347SOL     OW 4939   6.350   6.723   3.674
 1347SOL    HW1 4940   6.368   6.651   3.740
 1347SOL    HW2 4941   6.262   6.707   3.629
 1348SOL     OW 4942   5.926   4.211   4.437
 1348SOL    HW1 4943   5.972   4.284   4.387
 1348SOL    HW2 4944   5.864   4.162   4.375
 1349SOL     OW 4945   3.613   3.094   6.848
 1349SOL    HW1 4946   3.711   3.099   6.868
 1349SOL    HW2 4947   3.590   3.001   6.819
 1350SOL     OW 4948   3.281   0.642   6.672
 1350SOL    HW1 4949   3.348   0.661   6.744
 1350SOL    HW2 4950   3.200   0.699   6.686
 1351SOL     OW 4951   0.269   1.188   3.396
 1351SOL    HW1 4952   0.280   1.216   3.491
 1351SOL    HW2 4953   0.203   1.248   3.351
 1352SOL     OW 4954   0.327   0.694   3.573
 1352SOL    HW1 4955   0.236   0.699   3.615
 1352SOL    HW2 4956   0.384   0.769   3.607
 1353SOL     OW 4957   0.780   3.907   4.043
 1353SOL    HW1 4958   0.754   3.991   4.090
 1353SOL    HW2 4959   0.787   3.833   4.110
 1354SOL     OW 4960   0.451   6.822   2.611
 1354SOL    HW1 4961   0.406   6.851   2.526
 1354SOL    HW2 4962   0.547   6.804   2.594
 1355SOL     OW 4963   4.754   2.863   0.068
 1355SOL    HW1 4964   4.675   2.832   0.015
 1355SOL    HW2 4965   4.744   2.960   0.088
 1356SOL     OW 4966   3.432   3.577   2.483
 1356SOL    HW1 4967   3.509   3.525   2.520
 1356SOL    HW2 4968   3.402   3.644   2.551
 1357SOL     OW 4969   2.579   2.970   5.645
 1357SOL    HW1 4970   2.626   2.990   5.559
 1357SOL    HW2 4971   2.645   2.934   5.711
 1358SOL     OW 4972   2.197   2.613   6.154
 1358SOL    HW1 4973   2.207   2.713   6.147
 1358SOL    HW2 4974   2.279   2.568   6.119
 1359SOL     OW 4975   6.527   2.210   0.249
 1359SOL    HW1 4976   6.505   2.116   0.272
 1359SOL    HW2 4977   6.578   2.213   0.163
 1360SOL     OW 4978   3.946   3.896   3.892
 1360SOL    HW1 4979   3.874   3.960   3.866
 1360SOL    HW2 4980   3.966   3.905   3.990
 1361SOL     OW 4981   0.973   6.238   0.283
 1361SOL    HW1 4982   1.011   6.319   0.326
 1361SOL    HW2 4983   1.032   6.209   0.207
 1362SOL     OW 4984   2.933   3.336   6.084
 1362SOL    HW1 4985   2.898   3.349   6.177
 1362SOL    HW2 4986   2.991   3.255   6.082
 1363SOL     OW 4987   6.283   6.484   2.637
 1363SOL    HW1 4988   6.346   6.443   2.703
 1363SOL    HW2 4989   6.328   6.489   2.547
 1364SOL     OW 4990   6.884   3.726   1.179
 1364SOL    HW1 4991   6.794   3.766   1.167
 1364SOL    HW2 4992   6.929   3.718   1.090
 1365SOL     OW 4993   0.339   3.613   6.537
 1365SOL    HW1 4994   0.258   3.672   6.537
 1365SOL    HW2 4995   0.317   3.527   6.490
 1366SOL     OW 4996   6.735   1.504   0.617
 1366SOL    HW1 4997   6.636   1.512   0.608
 1366SOL    HW2 4998   6.760   1.502   0.714
 1367SOL     OW 4999   0.227   6.047   4.309
 1367SOL    HW1 5000   0.307   5.988   4.300
 1367SOL    HW2 5001   0.170   6.015   4.385
 1368SOL     OW 5002   0.060   6.889   4.939
 1368SOL    HW1 5003   0.040   6.897   4.841
 1368SOL    HW2 5004   0.036   6.797   4.970
 1369SOL     OW 5005   2.767   6.539   3.298
 1369SOL    HW1 5006   2.673   6.562   3.324
 1369SOL    HW2 5007   2.768   6.455   3.245
 1370SOL     OW 5008   6.731   2.716   3.206
 1370SOL    HW1 5009   6.741   2.736   3.109
 1370SOL    HW2 5010   6.692   2.795   3.253
 1371SOL     OW 5011   5.942   1.886   5.278
 1371SOL    HW1 5012   5.878   1.811   5.292
 1371SOL    HW2 5013   6.029   1.850   5.243
 1372SOL     OW 5014   6.736   2.507   6.937
 1372SOL    HW1 5015   6.722   2.533   0.010
 1372SOL    HW2 5016   6.740   2.589   6.880
 1373SOL     OW 5017   4.685   2.711   1.921
 1373SOL    HW1 5018   4.705   2.805   1.950
 1373SOL    HW2 5019   4.619   2.712   1.847
 1374SOL     OW 5020   4.969   4.924   0.609
 1374SOL    HW1 5021   4.923   4.924   0.698
 1374SOL    HW2 5022   5.059   4.882   0.618
 1375SOL     OW 5023   5.830   5.781   4.791
 1375SOL    HW1 5024   5.901   5.836   4.833
 1375SOL    HW2 5025   5.860   5.686   4.786
 1376SOL     OW 5026   2.063   5.200   6.343
 1376SOL    HW1 5027   2.117   5.195   6.259
 1376SOL    HW2 5028   2.056   5.109   6.384
 1377SOL     OW 5029   1.836   1.392   2.712
 1377SOL    HW1 5030   1.775   1.357   2.640
 1377SOL    HW2 5031   1.856   1.488   2.694
 1378SOL     OW 5032   5.015   2.608   4.440
 1378SOL    HW1 5033   5.094   2.661   4.469
 1378SOL    HW2 5034   5.007   2.612   4.340
 1379SOL     OW 5035   5.195   5.373   0.970
 1379SOL    HW1 5036   5.114   5.428   0.955
 1379SOL    HW2 5037   5.240   5.401   1.054
 1380SOL     OW 5038   0.245   5.584   1.356
 1380SOL    HW1 5039   0.157   5.539   1.371
 1380SOL    HW2 5040   0.303   5.524   1.300
 1381SOL     OW 5041   5.747   2.547   5.489
 1381SOL    HW1 5042   5.803   2.508   5.563
 1381SOL    HW2 5043   5.806   2.576   5.414
 1382SOL     OW 5044   4.350   3.044   0.798
 1382SOL    HW1 5045   4.320   2.993   0.879
 1382SOL    HW2 5046   4.284   3.029   0.724
 1383SOL     OW 5047   0.361   0.741   1.913
 1383SOL    HW1 5048   0.388   0.781   1.825
 1383SOL    HW2 5049   0.443   0.727   1.969
 1384SOL     OW 5050   5.134   0.979   1.483
 1384SOL    HW1 5051   5.202   0.964   1.411
 1384SOL    HW2 5052   5.166   0.938   1.568
 1385SOL     OW 5053   1.748   5.337   2.640
 1385SOL    HW1 5054   1.820   5.268   2.649
 1385SOL    HW2 5055   1.779   5.410   2.580
 1386SOL     OW 5056   3.098   5.729   4.135
 1386SOL    HW1 5057   3.067   5.727   4.230
 1386SOL    HW2 5058   3.057   5.808   4.089
 1387SOL     OW 5059   4.057   6.041   2.046
 1387SOL    HW1 5060   4.064   6.139   2.028
 1387SOL    HW2 5061   4.089   5.990   1.966
 1388SOL     OW 5062   0.095   0.443   1.237
 1388SOL    HW1 5063   0.084   0.372   1.167
 1388SOL    HW2 5064   0.005   0.464   1.277
 1389SOL     OW 5065   6.559   0.945   3.235
 1389SOL    HW1 5066   6.506   1.014   3.186
 1389SOL    HW2 5067   6.656   0.953   3.210
 1390SOL     OW 5068   6.956   2.402   5.571
 1390SOL    HW1 5069   6.918   2.459   5.644
 1390SOL    HW2 5070   6.962   2.308   5.602
 1391SOL     OW 5071   6.399   1.675   3.289
 1391SOL    HW1 5072   6.446   1.587   3.278
 1391SOL    HW2 5073   6.303   1.666   3.264
 1392SOL     OW 5074   4.681   5.047   5.315
 1392SOL    HW1 5075   4.742   5.012   5.386
 1392SOL    HW2 5076   4.589   5.011   5.329
 1393SOL     OW 5077   4.504   0.114   5.619
 1393SOL    HW1 5078   4.415   0.074   5.597
 1393SOL    HW2 5079   4.532   0.085   5.710
 1394SOL     OW 5080   2.884   5.633   5.332
 1394SOL    HW1 5081   2.977   5.654   5.301
 1394SOL    HW2 5082   2.863   5.538   5.311
 1395SOL     OW 5083   3.497   4.460   5.887
 1395SOL    HW1 5084   3.576   4.519   5.903
 1395SOL    HW2 5085   3.414   4.506   5.919
 1396SOL     OW 5086   6.634   6.265   4.722
 1396SOL    HW1 5087   6.602   6.328   4.793
 1396SOL    HW2 5088   6.579   6.276   4.639
 1397SOL     OW 5089   5.421   0.156   4.416
 1397SOL    HW1 5090   5.335   0.195   4.447
 1397SOL    HW2 5091   5.477   0.130   4.496
 1398SOL     OW 5092   1.343   1.475   5.297
 1398SOL    HW1 5093   1.441   1.499   5.295
 1398SOL    HW2 5094   1.316   1.452   5.390
 1399SOL     OW 5095   3.506   5.614   1.066
 1399SOL    HW1 5096   3.496   5.697   1.012
 1399SOL    HW2 5097   3.592   5.568   1.042
 1400SOL     OW 5098   6.635   1.008   2.176
 1400SOL    HW1 5099   6.554   1.056   2.142
 1400SOL    HW2 5100   6.694   1.072   2.226
 1401SOL     OW 5101   0.561   2.095   5.492
 1401SOL    HW1 5102   0.592   2.010   5.536
 1401SOL    HW2 5103   0.524   2.156   5.562
 1402SOL     OW 5104   0.072   3.244   0.145
 1402SOL    HW1 5105   0.150   3.241   0.207
 1402SOL    HW2 5106   0.077   3.326   0.088
 1403SOL     OW 5107   3.029   6.464   2.155
 1403SOL    HW1 5108   3.090   6.421   2.088
 1403SOL    HW2 5109   3.077   6.539   2.200
 1404SOL     OW 5110   5.774   0.662   0.231
 1404SOL    HW1 5111   5.708   0.727   0.269
 1404SOL    HW2 5112   5.832   0.626   0.304
 1405SOL     OW 5113   1.866   3.970   1.007
 1405SOL    HW1 5114   1.864   4.025   0.923
 1405SOL    HW2 5115   1.811   3.887   0.993
 1406SOL     OW 5116   0.879   4.185   1.502
 1406SOL    HW1 5117   0.947   4.141   1.560
 1406SOL    HW2 5118   0.843   4.118   1.437
 1407SOL     OW 5119   6.436   1.478   2.228
 1407SOL    HW1 5120   6.535   1.491   2.233
 1407SOL    HW2 5121   6.413   1.388   2.265
 1408SOL     OW 5122   5.429   0.885   6.283
 1408SOL    HW1 5123   5.397   0.883   6.378
 1408SOL    HW2 5124   5.526   0.908   6.280
 1409SOL     OW 5125   6.942   0.471   4.377
 1409SOL    HW1 5126   7.008   0.464   4.301
 1409SOL    HW2 5127   6.945   0.563   4.415
 1410SOL     OW 5128   0.885   2.856   0.041
 1410SOL    HW1 5129   0.965   2.869   7.005
 1410SOL    HW2 5130   0.837   2.773   0.013
 1411SOL     OW 5131   2.203   6.449   2.511
 1411SOL    HW1 5132   2.207   6.447   2.611
 1411SOL    HW2 5133   2.255   6.527   2.476
 1412SOL     OW 5134   1.927   2.925   0.457
 1412SOL    HW1 5135   1.987   2.960   0.384
 1412SOL    HW2 5136   1.857   2.993   0.477
 1413SOL     OW 5137   2.280   0.784   4.373
 1413SOL    HW1 5138   2.262   0.737   4.287
 1413SOL    HW2 5139   2.199   0.781   4.432
 1414SOL     OW 5140   2.394   1.961   1.821
 1414SOL    HW1 5141   2.398   1.862   1.808
 1414SOL    HW2 5142   2.478   2.003   1.786
 1415SOL     OW 5143   3.233   6.322   4.834
 1415SOL    HW1 5144   3.262   6.383   4.760
 1415SOL    HW2 5145   3.272   6.231   4.819
 1416SOL     OW 5146   4.544   4.594   2.698
 1416SOL    HW1 5147   4.495   4.669   2.743
 1416SOL    HW2 5148   4.562   4.619   2.603
 1417SOL     OW 5149   2.674   2.433   6.672
 1417SOL    HW1 5150   2.736   2.396   6.742
 1417SOL    HW2 5151   2.706   2.523   6.644
 1418SOL     OW 5152   3.191   4.088   2.918
 1418SOL    HW1 5153   3.142   4.153   2.859
 1418SOL    HW2 5154   3.289   4.108   2.916
 1419SOL     OW 5155   3.365   6.448   4.613
 1419SOL    HW1 5156   3.315   6.446   4.527
 1419SOL    HW2 5157   3.414   6.535   4.622
 1420SOL     OW 5158   1.214   6.447   2.353
 1420SOL    HW1 5159   1.181   6.361   2.390
 1420SOL    HW2 5160   1.258   6.431   2.265
 1421SOL     OW 5161   2.145   2.124   2.997
 1421SOL    HW1 5162   2.221   2.101   3.058
 1421SOL    HW2 5163   2.164   2.210   2.950
 1422SOL     OW 5164   2.317   4.903   1.722
 1422SOL    HW1 5165   2.308   4.894   1.623
 1422SOL    HW2 5166   2.334   4.813   1.763
 1423SOL     OW 5167   5.333   6.339   2.540
 1423SOL    HW1 5168   5.258   6.274   2.549
 1423SOL    HW2 5169   5.381   6.323   2.454
 1424SOL     OW 5170   5.286   4.936   4.769
 1424SOL    HW1 5171   5.322   5.014   4.819
 1424SOL    HW2 5172   5.332   4.928   4.680
 1425SOL     OW 5173   1.979   6.535   3.924
 1425SOL    HW1 5174   1.921   6.479   3.865
 1425SOL    HW2 5175   1.923   6.578   3.995
 1426SOL     OW 5176   1.233   1.911   5.872
 1426SOL    HW1 5177   1.237   2.008   5.900
 1426SOL    HW2 5178   1.324   1.880   5.846
 1427SOL     OW 5179   6.833   0.053   3.441
 1427SOL    HW1 5180   6.771   6.998   3.448
 1427SOL    HW2 5181   6.836   0.102   3.528
 1428SOL     OW 5182   6.163   2.132   0.459
 1428SOL    HW1 5183   6.087   2.074   0.489
 1428SOL    HW2 5184   6.169   2.129   0.359
 1429SOL     OW 5185   6.635   0.504   0.499
 1429SOL    HW1 5186   6.584   0.534   0.418
 1429SOL    HW2 5187   6.733   0.507   0.480
 1430SOL     OW 5188   1.435   4.051   3.749
 1430SOL    HW1 5189   1.531   4.029   3.767
 1430SOL    HW2 5190   1.381   3.966   3.747
 1431SOL     OW 5191   2.632   1.660   2.025
 1431SOL    HW1 5192   2.665   1.745   2.066
 1431SOL    HW2 5193   2.532   1.659   2.028
 1432SOL     OW 5194   2.749   1.093   3.364
 1432SOL    HW1 5195   2.652   1.103   3.386
 1432SOL    HW2 5196   2.800   1.167   3.407
 1433SOL     OW 5197   4.103   0.537   3.966
 1433SOL    HW1 5198   4.165   0.482   4.023
 1433SOL    HW2 5199   4.127   0.633   3.974
 1434SOL     OW 5200   0.431   0.955   5.369
 1434SOL    HW1 5201   0.518   1.002   5.352
 1434SOL    HW2 5202   0.361   1.022   5.392
 1435SOL     OW 5203   5.804   1.540   2.769
 1435SOL    HW1 5204   5.806   1.612   2.838
 1435SOL    HW2 5205   5.878   1.475   2.786
 1436SOL     OW 5206   3.708   3.887   6.743
 1436SOL    HW1 5207   3.656   3.937   6.812
 1436SOL    HW2 5208   3.668   3.902   6.653
 1437SOL     OW 5209   3.060   1.294   3.424
 1437SOL    HW1 5210   3.123   1.371   3.438
 1437SOL    HW2 5211   2.994   1.319   3.353
 1438SOL     OW 5212   3.713   6.662   1.709
 1438SOL    HW1 5213   3.704   6.627   1.802
 1438SOL    HW2 5214   3.637   6.724   1.689
 1439SOL     OW 5215   0.321   6.138   2.184
 1439SOL    HW1 5216   0.313   6.103   2.277
 1439SOL    HW2 5217   0.392   6.088   2.135
 1440SOL     OW 5218   2.812   3.931   0.931
 1440SOL    HW1 5219   2.730   3.907   0.878
 1440SOL    HW2 5220   2.861   4.004   0.884
 1441SOL     OW 5221   6.050   6.919   1.296
 1441SOL    HW1 5222   6.015   6.845   1.238
 1441SOL    HW2 5223   6.045   6.893   1.392
 1442SOL     OW 5224   5.845   6.077   0.246
 1442SOL    HW1 5225   5.770   6.144   0.246
 1442SOL    HW2 5226   5.859   6.044   0.340
 1443SOL     OW 5227   0.684   2.390   2.675
 1443SOL    HW1 5228   0.710   2.464   2.613
 1443SOL    HW2 5229   0.586   2.392   2.691
 1444SOL     OW 5230   5.555   6.767   0.573
 1444SOL    HW1 5231   5.636   6.796   0.622
 1444SOL    HW2 5232   5.514   6.845   0.525
 1445SOL     OW 5233   0.649   3.424   2.880
 1445SOL    HW1 5234   0.727   3.478   2.849
 1445SOL    HW2 5235   0.663   3.396   2.975
 1446SOL     OW 5236   5.837   6.906   6.469
 1446SOL    HW1 5237   5.794   6.994   6.452
 1446SOL    HW2 5238   5.792   6.861   6.546
 1447SOL     OW 5239   5.510   5.510   3.486
 1447SOL    HW1 5240   5.520   5.490   3.584
 1447SOL    HW2 5241   5.424   5.557   3.470
 1448SOL     OW 5242   0.433   2.906   5.186
 1448SOL    HW1 5243   0.364   2.952   5.129
 1448SOL    HW2 5244   0.524   2.933   5.155
 1449SOL     OW 5245   1.580   3.846   4.988
 1449SOL    HW1 5246   1.635   3.898   5.053
 1449SOL    HW2 5247   1.564   3.901   4.906
 1450SOL     OW 5248   1.588   1.803   5.429
 1450SOL    HW1 5249   1.534   1.722   5.452
 1450SOL    HW2 5250   1.678   1.796   5.472
 1451SOL     OW 5251   2.333   6.461   1.262
 1451SOL    HW1 5252   2.343   6.365   1.288
 1451SOL    HW2 5253   2.368   6.519   1.334
 1452SOL     OW 5254   4.282   3.234   6.337
 1452SOL    HW1 5255   4.207   3.300   6.346
 1452SOL    HW2 5256   4.245   3.141   6.341
 1453SOL     OW 5257   0.661   4.464   5.457
 1453SOL    HW1 5258   0.759   4.481   5.471
 1453SOL    HW2 5259   0.617   4.448   5.545
 1454SOL     OW 5260   3.043   2.211   3.623
 1454SOL    HW1 5261   3.015   2.269   3.700
 1454SOL    HW2 5262   3.063   2.119   3.655
 1455SOL     OW 5263   1.663   6.372   2.939
 1455SOL    HW1 5264   1.690   6.337   3.029
 1455SOL    HW2 5265   1.685   6.304   2.869
 1456SOL     OW 5266   6.592   5.700   5.806
 1456SOL    HW1 5267   6.533   5.697   5.726
 1456SOL    HW2 5268   6.683   5.667   5.782
 1457SOL     OW 5269   0.604   3.752   7.020
 1457SOL    HW1 5270   0.570   3.663   6.989
 1457SOL    HW2 5271   0.667   3.738   0.074
 1458SOL     OW 5272   5.478   5.130   5.715
 1458SOL    HW1 5273   5.546   5.059   5.699
 1458SOL    HW2 5274   5.447   5.167   5.628
 1459SOL     OW 5275   5.179   6.275   5.595
 1459SOL    HW1 5276   5.267   6.227   5.603
 1459SOL    HW2 5277   5.182   6.336   5.516
 1460SOL     OW 5278   1.667   6.707   5.198
 1460SOL    HW1 5279   1.645   6.739   5.290
 1460SOL    HW2 5280   1.702   6.613   5.203
 1461SOL     OW 5281   0.009   3.221   2.510
 1461SOL    HW1 5282   6.999   3.129   2.486
 1461SOL    HW2 5283   0.075   3.214   2.585
 1462SOL     OW 5284   0.731   0.455   0.136
 1462SOL    HW1 5285   0.638   0.433   0.108
 1462SOL    HW2 5286   0.790   0.375   0.121
 1463SOL     OW 5287   2.083   6.000   6.706
 1463SOL    HW1 5288   2.010   6.067   6.722
 1463SOL    HW2 5289   2.162   6.023   6.763
 1464SOL     OW 5290   6.015   3.999   4.054
 1464SOL    HW1 5291   6.071   4.071   4.011
 1464SOL    HW2 5292   6.027   3.914   4.003
 1465SOL     OW 5293   1.801   1.422   3.254
 1465SOL    HW1 5294   1.889   1.464   3.232
 1465SOL    HW2 5295   1.729   1.466   3.200
 1466SOL     OW 5296   3.654   2.580   1.727
 1466SOL    HW1 5297   3.571   2.621   1.689
 1466SOL    HW2 5298   3.638   2.483   1.746
 1467SOL     OW 5299   0.948   1.162   3.679
 1467SOL    HW1 5300   0.962   1.082   3.738
 1467SOL    HW2 5301   0.941   1.244   3.736
 1468SOL     OW 5302   3.248   5.482   1.963
 1468SOL    HW1 5303   3.155   5.517   1.949
 1468SOL    HW2 5304   3.268   5.412   1.895
 1469SOL     OW 5305   6.151   6.113   3.725
 1469SOL    HW1 5306   6.126   6.208   3.745
 1469SOL    HW2 5307   6.156   6.099   3.626
 1470SOL     OW 5308   6.943   2.559   0.950
 1470SOL    HW1 5309   6.971   2.464   0.940
 1470SOL    HW2 5310   6.844   2.565   0.953
 1471SOL     OW 5311   6.437   7.011   1.258
 1471SOL    HW1 5312   6.371   6.940   1.282
 1471SOL    HW2 5313   6.483   6.986   1.172
 1472SOL     OW 5314   2.748   6.998   6.042
 1472SOL    HW1 5315   2.701   0.036   6.107
 1472SOL    HW2 5316   2.702   7.001   5.954
 1473SOL     OW 5317   3.413   4.931   4.327
 1473SOL    HW1 5318   3.487   4.915   4.262
 1473SOL    HW2 5319   3.362   5.013   4.300
 1474SOL     OW 5320   4.258   4.873   1.493
 1474SOL    HW1 5321   4.262   4.805   1.566
 1474SOL    HW2 5322   4.267   4.826   1.405
 1475SOL     OW 5323   5.544   0.740   0.336
 1475SOL    HW1 5324   5.488   0.805   0.284
 1475SOL    HW2 5325   5.541   0.763   0.433
 1476SOL     OW 5326   3.018   0.995   1.458
 1476SOL    HW1 5327   2.939   1.053   1.436
 1476SOL    HW2 5328   3.001   0.902   1.426
 1477SOL     OW 5329   4.428   5.832   1.073
 1477SOL    HW1 5330   4.418   5.908   1.010
 1477SOL    HW2 5331   4.355   5.835   1.141
 1478SOL     OW 5332   5.089   5.976   5.284
 1478SOL    HW1 5333   5.145   6.000   5.205
 1478SOL    HW2 5334   4.992   5.982   5.260
 1479SOL     OW 5335   3.848   3.879   1.404
 1479SOL    HW1 5336   3.836   3.788   1.444
 1479SOL    HW2 5337   3.899   3.872   1.319
 1480SOL     OW 5338   2.913   0.554   5.533
 1480SOL    HW1 5339   2.826   0.569   5.487
 1480SOL    HW2 5340   2.964   0.640   5.537
 1481SOL     OW 5341   5.377   2.754   5.031
 1481SOL    HW1 5342   5.288   2.718   5.059
 1481SOL    HW2 5343   5.366   2.849   5.001
 1482SOL     OW 5344   4.496   0.136   0.530
 1482SOL    HW1 5345   4.522   0.119   0.625
 1482SOL    HW2 5346   4.545   0.074   0.470
 1483SOL     OW 5347   4.261   1.392   6.279
 1483SOL    HW1 5348   4.187   1.384   6.212
 1483SOL    HW2 5349   4.334   1.449   6.241
 1484SOL     OW 5350   2.827   5.168   4.423
 1484SOL    HW1 5351   2.818   5.263   4.453
 1484SOL    HW2 5352   2.739   5.122   4.433
 1485SOL     OW 5353   5.152   1.828   2.688
 1485SOL    HW1 5354   5.190   1.781   2.608
 1485SOL    HW2 5355   5.225   1.878   2.736
 1486SOL     OW 5356   5.074   6.812   3.486
 1486SOL    HW1 5357   5.161   6.772   3.459
 1486SOL    HW2 5358   5.085   6.861   3.572
 1487SOL     OW 5359   0.102   0.688   0.415
 1487SOL    HW1 5360   0.157   0.687   0.332
 1487SOL    HW2 5361   0.032   0.759   0.407
 1488SOL     OW 5362   6.489   0.879   2.865
 1488SOL    HW1 5363   6.559   0.826   2.913
 1488SOL    HW2 5364   6.407   0.823   2.853
 1489SOL     OW 5365   3.961   5.112   6.233
 1489SOL    HW1 5366   3.962   5.191   6.293
 1489SOL    HW2 5367   4.030   5.046   6.262
 1490SOL     OW 5368   6.909   2.353   2.142
 1490SOL    HW1 5369   6.959   2.350   2.228
 1490SOL    HW2 5370   6.971   2.381   2.069
 1491SOL     OW 5371   6.521   3.287   1.486
 1491SOL    HW1 5372   6.564   3.372   1.515
 1491SOL    HW2 5373   6.590   3.226   1.447
 1492SOL     OW 5374   5.978   0.862   2.666
 1492SOL    HW1 5375   5.878   0.868   2.668
 1492SOL    HW2 5376   6.006   0.767   2.673
 1493SOL     OW 5377   4.312   1.704   5.876
 1493SOL    HW1 5378   4.356   1.723   5.964
 1493SOL    HW2 5379   4.216   1.681   5.891
 1494SOL     OW 5380   5.521   2.667   5.985
 1494SOL    HW1 5381   5.597   2.632   6.039
 1494SOL    HW2 5382   5.511   2.613   5.901
 1495SOL     OW 5383   5.964   3.641   4.194
 1495SOL    HW1 5384   5.929   3.708   4.259
 1495SOL    HW2 5385   5.906   3.639   4.113
 1496SOL     OW 5386   6.729   6.081   0.130
 1496SOL    HW1 5387   6.821   6.041   0.130
 1496SOL    HW2 5388   6.666   6.018   0.086
 1497SOL     OW 5389   5.233   2.832   2.732
 1497SOL    HW1 5390   5.203   2.737   2.723
 1497SOL    HW2 5391   5.179   2.890   2.671
 1498SOL     OW 5392   3.250   4.704   1.043
 1498SOL    HW1 5393   3.203   4.647   1.111
 1498SOL    HW2 5394   3.251   4.656   0.955
 1499SOL     OW 5395   6.789   3.880   5.769
 1499SOL    HW1 5396   6.874   3.878   5.821
 1499SOL    HW2 5397   6.769   3.788   5.734
 1500SOL     OW 5398   0.716   5.818   0.429
 1500SOL    HW1 5399   0.740   5.914   0.422
 1500SOL    HW2 5400   0.793   5.761   0.399
 1501SOL     OW 5401   5.615   1.185   6.111
 1501SOL    HW1 5402   5.676   1.105   6.107
 1501SOL    HW2 5403   5.637   1.240   6.191
 1502SOL     OW 5404   6.804   0.903   6.208
 1502SOL    HW1 5405   6.808   0.818   6.260
 1502SOL    HW2 5406   6.889   0.954   6.219
 1503SOL     OW 5407   0.693   4.337   1.828
 1503SOL    HW1 5408   0.659   4.334   1.922
 1503SOL    HW2 5409   0.780   4.288   1.823
 1504SOL     OW 5410   0.792   0.110   3.188
 1504SOL    HW1 5411   0.851   0.110   3.269
 1504SOL    HW2 5412   0.736   0.027   3.188
 1505SOL     OW 5413   6.183   6.777   4.909
 1505SOL    HW1 5414   6.258   6.843   4.899
 1505SOL    HW2 5415   6.169   6.729   4.823
 1506SOL     OW 5416   1.571   1.051   0.954
 1506SOL    HW1 5417   1.671   1.047   0.965
 1506SOL    HW2 5418   1.533   1.116   1.020
 1507SOL     OW 5419   1.091   2.112   4.618
 1507SOL    HW1 5420   1.119   2.021   4.587
 1507SOL    HW2 5421   0.999   2.108   4.655
 1508SOL     OW 5422   0.534   0.743   0.401
 1508SOL    HW1 5423   0.619   0.691   0.386
 1508SOL    HW2 5424   0.549   0.809   0.475
 1509SOL     OW 5425   4.994   1.281   5.001
 1509SOL    HW1 5426   4.945   1.197   5.026
 1509SOL    HW2 5427   5.081   1.258   4.958
 1510SOL     OW 5428   3.250   0.389   3.729
 1510SOL    HW1 5429   3.257   0.325   3.653
 1510SOL    HW2 5430   3.306   0.357   3.805
 1511SOL     OW 5431   3.840   3.593   3.897
 1511SOL    HW1 5432   3.785   3.573   3.815
 1511SOL    HW2 5433   3.788   3.651   3.959
 1512SOL     OW 5434   6.248   6.185   1.431
 1512SOL    HW1 5435   6.199   6.098   1.424
 1512SOL    HW2 5436   6.191   6.251   1.480
 1513SOL     OW 5437   3.004   6.903   5.824
 1513SOL    HW1 5438   3.039   6.987   5.866
 1513SOL    HW2 5439   2.961   6.847   5.895
 1514SOL     OW 5440   3.061   2.470   5.868
 1514SOL    HW1 5441   3.080   2.492   5.964
 1514SOL    HW2 5442   2.998   2.538   5.830
 1515SOL     OW 5443   6.215   1.942   2.420
 1515SOL    HW1 5444   6.276   1.962   2.496
 1515SOL    HW2 5445   6.268   1.936   2.335
 1516SOL     OW 5446   6.312   6.074   4.697
 1516SOL    HW1 5447   6.370   6.110   4.623
 1516SOL    HW2 5448   6.222   6.052   4.661
 1517SOL     OW 5449   3.709   6.179   3.585
 1517SOL    HW1 5450   3.757   6.246   3.528
 1517SOL    HW2 5451   3.675   6.223   3.668
 1518SOL     OW 5452   6.830   2.584   0.398
 1518SOL    HW1 5453   6.763   2.658   0.408
 1518SOL    HW2 5454   6.904   2.614   0.338
 1519SOL     OW 5455   0.096   4.231   0.505
 1519SOL    HW1 5456   0.005   4.231   0.463
 1519SOL    HW2 5457   0.092   4.278   0.594
 1520SOL     OW 5458   0.929   5.261   1.383
 1520SOL    HW1 5459   0.854   5.205   1.420
 1520SOL    HW2 5460   0.950   5.231   1.290
 1521SOL     OW 5461   2.064   4.553   6.425
 1521SOL    HW1 5462   2.031   4.647   6.418
 1521SOL    HW2 5463   1.987   4.490   6.429
 1522SOL     OW 5464   5.058   5.848   4.960
 1522SOL    HW1 5465   4.984   5.799   5.006
 1522SOL    HW2 5466   5.047   5.841   4.861
 1523SOL     OW 5467   3.860   6.373   6.819
 1523SOL    HW1 5468   3.887   6.306   6.749
 1523SOL    HW2 5469   3.937   6.435   6.837
 1524SOL     OW 5470   2.312   2.218   2.637
 1524SOL    HW1 5471   2.223   2.172   2.626
 1524SOL    HW2 5472   2.376   2.156   2.683
 1525SOL     OW 5473   6.344   2.464   0.996
 1525SOL    HW1 5474   6.435   2.480   1.035
 1525SOL    HW2 5475   6.336   2.369   0.965
 1526SOL     OW 5476   0.404   1.677   0.152
 1526SOL    HW1 5477   0.401   1.644   0.057
 1526SOL    HW2 5478   0.498   1.691   0.180
 1527SOL     OW 5479   3.350   1.647   4.376
 1527SOL    HW1 5480   3.387   1.677   4.464
 1527SOL    HW2 5481   3.269   1.591   4.391
 1528SOL     OW 5482   5.021   3.703   0.821
 1528SOL    HW1 5483   5.035   3.798   0.850
 1528SOL    HW2 5484   4.950   3.661   0.878
 1529SOL     OW 5485   4.939   0.791   6.253
 1529SOL    HW1 5486   4.875   0.781   6.177
 1529SOL    HW2 5487   5.031   0.808   6.218
 1530SOL     OW 5488   3.313   0.166   1.480
 1530SOL    HW1 5489   3.267   0.159   1.568
 1530SOL    HW2 5490   3.246   0.171   1.406
 1531SOL     OW 5491   3.863   0.205   4.151
 1531SOL    HW1 5492   3.772   0.169   4.133
 1531SOL    HW2 5493   3.861   0.305   4.150
 1532SOL     OW 5494   3.396   5.350   5.866
 1532SOL    HW1 5495   3.475   5.298   5.898
 1532SOL    HW2 5496   3.316   5.326   5.923
 1533SOL     OW 5497   5.276   5.468   1.224
 1533SOL    HW1 5498   5.317   5.548   1.180
 1533SOL    HW2 5499   5.205   5.498   1.288
 1534SOL     OW 5500   3.942   5.839   6.833
 1534SOL    HW1 5501   3.882   5.775   6.786
 1534SOL    HW2 5502   4.037   5.810   6.822
 1535SOL     OW 5503   6.474   6.465   4.876
 1535SOL    HW1 5504   6.474   6.420   4.966
 1535SOL    HW2 5505   6.381   6.488   4.850
 1536SOL     OW 5506   3.901   4.210   0.142
 1536SOL    HW1 5507   3.881   4.283   0.207
 1536SOL    HW2 5508   3.838   4.133   0.159
 1537SOL     OW 5509   3.210   5.075   3.867
 1537SOL    HW1 5510   3.295   5.023   3.861
 1537SOL    HW2 5511   3.184   5.107   3.776
 1538SOL     OW 5512   3.321   1.813   0.463
 1538SOL    HW1 5513   3.324   1.714   0.469
 1538SOL    HW2 5514   3.285   1.851   0.549
 1539SOL     OW 5515   5.074   3.403   1.621
 1539SOL    HW1 5516   5.067   3.305   1.603
 1539SOL    HW2 5517   5.023   3.427   1.703
 1540SOL     OW 5518   1.961   6.795   4.518
 1540SOL    HW1 5519   1.890   6.864   4.503
 1540SOL    HW2 5520   2.051   6.838   4.516
 1541SOL     OW 5521   3.363   2.996   4.595
 1541SOL    HW1 5522   3.281   3.003   4.651
 1541SOL    HW2 5523   3.438   2.959   4.650
 1542SOL     OW 5524   6.476   6.783   2.358
 1542SOL    HW1 5525   6.544   6.814   2.292
 1542SOL    HW2 5526   6.410   6.856   2.375
 1543SOL     OW 5527   3.244   5.902   6.345
 1543SOL    HW1 5528   3.164   5.867   6.297
 1543SOL    HW2 5529   3.306   5.946   6.280
 1544SOL     OW 5530   3.722   2.951   3.769
 1544SOL    HW1 5531   3.625   2.940   3.748
 1544SOL    HW2 5532   3.776   2.919   3.691
 1545SOL     OW 5533   6.327   0.367   1.780
 1545SOL    HW1 5534   6.395   0.294   1.768
 1545SOL    HW2 5535   6.354   0.447   1.727
 1546SOL     OW 5536   5.188   6.847   5.557
 1546SOL    HW1 5537   5.243   6.765   5.576
 1546SOL    HW2 5538   5.092   6.827   5.573
 1547SOL     OW 5539   1.304   3.944   0.355
 1547SOL    HW1 5540   1.373   4.016   0.367
 1547SOL    HW2 5541   1.349   3.858   0.331
 1548SOL     OW 5542   6.633   2.753   0.527
 1548SOL    HW1 5543   6.616   2.743   0.625
 1548SOL    HW2 5544   6.557   2.713   0.476
 1549SOL     OW 5545   3.693   1.497   4.596
 1549SOL    HW1 5546   3.606   1.449   4.582
 1549SOL    HW2 5547   3.681   1.594   4.577
 1550SOL     OW 5548   3.680   3.492   2.606
 1550SOL    HW1 5549   3.638   3.464   2.693
 1550SOL    HW2 5550   3.719   3.584   2.616
 1551SOL     OW 5551   0.831   5.284   6.914
 1551SOL    HW1 5552   0.793   5.370   6.881
 1551SOL    HW2 5553   0.767   5.241   6.977
 1552SOL     OW 5554   2.748   5.019   1.529
 1552SOL    HW1 5555   2.766   4.958   1.606
 1552SOL    HW2 5556   2.676   5.084   1.554
 1553SOL     OW 5557   0.389   1.657   6.015
 1553SOL    HW1 5558   0.307   1.660   5.958
 1553SOL    HW2 5559   0.469   1.675   5.959
 1554SOL     OW 5560   3.177   1.913   3.537
 1554SOL    HW1 5561   3.161   1.838   3.473
 1554SOL    HW2 5562   3.269   1.949   3.524
 1555SOL     OW 5563   6.089   2.311   6.026
 1555SOL    HW1 5564   6.091   2.360   6.113
 1555SOL    HW2 5565   6.000   2.324   5.983
 1556SOL     OW 5566   2.329   1.056   6.646
 1556SOL    HW1 5567   2.402   1.122   6.628
 1556SOL    HW2 5568   2.340   0.977   6.585
 1557SOL     OW 5569   1.612   3.531   6.056
 1557SOL    HW1 5570   1.679   3.492   5.993
 1557SOL    HW2 5571   1.659   3.594   6.119
 1558SOL     OW 5572   6.487   0.403   4.659
 1558SOL    HW1 5573   6.499   0.388   4.757
 1558SOL    HW2 5574   6.576   0.417   4.616
 1559SOL     OW 5575   0.298   2.705   6.536
 1559SOL    HW1 5576   0.206   2.693   6.500
 1559SOL    HW2 5577   0.293   2.722   6.635
 1560SOL     OW 5578   0.003   1.023   6.294
 1560SOL    HW1 5579   0.074   0.965   6.254
 1560SOL    HW2 5580   0.043   1.111   6.320
 1561SOL     OW 5581   4.693   6.006   2.522
 1561SOL    HW1 5582   4.660   6.064   2.596
 1561SOL    HW2 5583   4.622   5.940   2.496
 1562SOL     OW 5584   4.876   0.126   2.443
 1562SOL    HW1 5585   4.882   0.219   2.480
 1562SOL    HW2 5586   4.812   0.125   2.366
 1563SOL     OW 5587   3.510   1.326   6.248
 1563SOL    HW1 5588   3.477   1.240   6.208
 1563SOL    HW2 5589   3.532   1.391   6.175
 1564SOL     OW 5590   1.286   1.379   2.180
 1564SOL    HW1 5591   1.313   1.337   2.267
 1564SOL    HW2 5592   1.363   1.428   2.141
 1565SOL     OW 5593   4.900   3.680   2.296
 1565SOL    HW1 5594   4.822   3.679   2.234
 1565SOL    HW2 5595   4.929   3.586   2.315
 1566SOL     OW 5596   5.197   4.149   3.649
 1566SOL    HW1 5597   5.250   4.103   3.578
 1566SOL    HW2 5598   5.259   4.190   3.716
 1567SOL     OW 5599   5.996   5.810   5.940
 1567SOL    HW1 5600   6.079   5.763   5.971
 1567SOL    HW2 5601   5.990   5.900   5.982
 1568SOL     OW 5602   0.958   0.533   0.569
 1568SOL    HW1 5603   0.892   0.470   0.612
 1568SOL    HW2 5604   1.047   0.488   0.564
 1569SOL     OW 5605   4.001   6.806   4.642
 1569SOL    HW1 5606   4.047   6.846   4.722
 1569SOL    HW2 5607   3.914   6.853   4.627
 1570SOL     OW 5608   2.647   1.827   1.563
 1570SOL    HW1 5609   2.590   1.898   1.522
 1570SOL    HW2 5610   2.725   1.869   1.609
 1571SOL     OW 5611   5.905   3.213   1.744
 1571SOL    HW1 5612   5.862   3.234   1.657
 1571SOL    HW2 5613   5.966   3.134   1.733
 1572SOL     OW 5614   0.463   6.948   2.013
 1572SOL    HW1 5615   0.484   6.978   1.920
 1572SOL    HW2 5616   0.372   6.905   2.015
 1573SOL     OW 5617   5.106   6.884   1.605
 1573SOL    HW1 5618   5.200   6.897   1.638
 1573SOL    HW2 5619   5.103   6.808   1.541
 1574SOL     OW 5620   0.386   2.141   1.581
 1574SOL    HW1 5621   0.318   2.079   1.619
 1574SOL    HW2 5622   0.349   2.183   1.498
 1575SOL     OW 5623   1.778   2.686   0.453
 1575SOL    HW1 5624   1.845   2.613   0.440
 1575SOL    HW2 5625   1.825   2.769   0.483
 1576SOL     OW 5626   5.654   6.399   3.727
 1576SOL    HW1 5627   5.593   6.340   3.779
 1576SOL    HW2 5628   5.728   6.344   3.689
 1577SOL     OW 5629   2.576   0.530   5.520
 1577SOL    HW1 5630   2.534   0.461   5.462
 1577SOL    HW2 5631   2.585   0.496   5.613
 1578SOL     OW 5632   5.779   3.498   5.715
 1578SOL    HW1 5633   5.838   3.418   5.712
 1578SOL    HW2 5634   5.712   3.488   5.788
 1579SOL     OW 5635   0.456   1.517   3.431
 1579SOL    HW1 5636   0.449   1.559   3.522
 1579SOL    HW2 5637   0.364   1.508   3.393
 1580SOL     OW 5638   2.718   4.485   5.390
 1580SOL    HW1 5639   2.732   4.567   5.445
 1580SOL    HW2 5640   2.764   4.495   5.302
 1581SOL     OW 5641   6.636   3.729   4.648
 1581SOL    HW1 5642   6.665   3.744   4.554
 1581SOL    HW2 5643   6.673   3.800   4.707
 1582SOL     OW 5644   0.608   4.967   4.653
 1582SOL    HW1 5645   0.694   4.919   4.669
 1582SOL    HW2 5646   0.560   4.925   4.576
 1583SOL     OW 5647   2.259   3.049   3.698
 1583SOL    HW1 5648   2.261   3.028   3.601
 1583SOL    HW2 5649   2.349   3.035   3.738
 1584SOL     OW 5650   2.172   6.829   5.648
 1584SOL    HW1 5651   2.212   6.743   5.678
 1584SOL    HW2 5652   2.082   6.841   5.689
 1585SOL     OW 5653   5.492   1.856   3.505
 1585SOL    HW1 5654   5.499   1.773   3.449
 1585SOL    HW2 5655   5.526   1.934   3.453
 1586SOL     OW 5656   3.816   3.877   2.364
 1586SOL    HW1 5657   3.758   3.951   2.398
 1586SOL    HW2 5658   3.847   3.819   2.440
 1587SOL     OW 5659   3.240   6.740   0.169
 1587SOL    HW1 5660   3.331   6.777   0.149
 1587SOL    HW2 5661   3.248   6.667   0.237
 1588SOL     OW 5662   5.530   1.821   1.928
 1588SOL    HW1 5663   5.529   1.750   1.998
 1588SOL    HW2 5664   5.575   1.785   1.846
 1589SOL     OW 5665   6.010   4.674   4.370
 1589SOL    HW1 5666   5.917   4.709   4.357
 1589SOL    HW2 5667   6.071   4.716   4.303
 1590SOL     OW 5668   1.813   0.357   0.157
 1590SOL    HW1 5669   1.766   0.276   0.124
 1590SOL    HW2 5670   1.800   0.432   0.092
 1591SOL     OW 5671   1.156   4.606   2.342
 1591SOL    HW1 5672   1.174   4.548   2.422
 1591SOL    HW2 5673   1.225   4.587   2.272
 1592SOL     OW 5674   2.914   3.765   2.577
 1592SOL    HW1 5675   2.868   3.677   2.590
 1592SOL    HW2 5676   2.931   3.780   2.480
 1593SOL     OW 5677   0.724   6.249   4.365
 1593SOL    HW1 5678   0.659   6.224   4.437
 1593SOL    HW2 5679   0.750   6.346   4.375
 1594SOL     OW 5680   0.003   5.108   2.424
 1594SOL    HW1 5681   0.034   5.014   2.436
 1594SOL    HW2 5682   6.949   5.126   2.487
 1595SOL     OW 5683   0.077   4.691   6.887
 1595SOL    HW1 5684   0.023   4.608   6.880
 1595SOL    HW2 5685   0.036   4.762   6.830
 1596SOL     OW 5686   2.362   5.781   5.963
 1596SOL    HW1 5687   2.309   5.790   6.047
 1596SOL    HW2 5688   2.395   5.871   5.935
 1597SOL     OW 5689   2.458   6.164   1.742
 1597SOL    HW1 5690   2.494   6.163   1.835
 1597SOL    HW2 5691   2.531   6.187   1.678
 1598SOL     OW 5692   0.517   4.612   1.143
 1598SOL    HW1 5693   0.447   4.560   1.192
 1598SOL    HW2 5694   0.552   4.556   1.067
 1599SOL     OW 5695   3.619   4.856   6.933
 1599SOL    HW1 5696   3.692   4.924   6.924
 1599SOL    HW2 5697   3.558   4.883   7.008
 1600SOL     OW 5698   5.489   1.270   4.796
 1600SOL    HW1 5699   5.541   1.191   4.763
 1600SOL    HW2 5700   5.498   1.346   4.732
 1601SOL     OW 5701   1.220   4.638   5.219
 1601SOL    HW1 5702   1.313   4.600   5.216
 1601SOL    HW2 5703   1.165   4.595   5.147
 1602SOL     OW 5704   1.391   5.766   3.669
 1602SOL    HW1 5705   1.323   5.712   3.620
 1602SOL    HW2 5706   1.452   5.704   3.720
 1603SOL     OW 5707   0.618   6.467   2.101
 1603SOL    HW1 5708   0.647   6.534   2.033
 1603SOL    HW2 5709   0.593   6.514   2.186
 1604SOL     OW 5710   0.082   5.149   6.467
 1604SOL    HW1 5711   0.023   5.070   6.478
 1604SOL    HW2 5712   0.159   5.143   6.531
 1605SOL     OW 5713   6.699   6.379   2.808
 1605SOL    HW1 5714   6.750   6.463   2.826
 1605SOL    HW2 5715   6.683   6.370   2.710
 1606SOL     OW 5716   4.798   0.072   5.676
 1606SOL    HW1 5717   4.782   0.001   5.745
 1606SOL    HW2 5718   4.779   0.162   5.715
 1607SOL     OW 5719   4.866   2.672   0.557
 1607SOL    HW1 5720   4.787   2.716   0.514
 1607SOL    HW2 5721   4.835   2.596   0.614
 1608SOL     OW 5722   2.265   6.765   0.867
 1608SOL    HW1 5723   2.298   6.858   0.850
 1608SOL    HW2 5724   2.311   6.702   0.805
 1609SOL     OW 5725   4.883   2.226   5.980
 1609SOL    HW1 5726   4.826   2.145   6.000
 1609SOL    HW2 5727   4.839   2.280   5.908
 1610SOL     OW 5728   6.472   6.212   4.491
 1610SOL    HW1 5729   6.532   6.173   4.421
 1610SOL    HW2 5730   6.408   6.276   4.449
 1611SOL     OW 5731   3.811   3.654   1.559
 1611SOL    HW1 5732   3.792   3.590   1.484
 1611SOL    HW2 5733   3.887   3.621   1.614
 1612SOL     OW 5734   2.279   1.506   4.760
 1612SOL    HW1 5735   2.259   1.428   4.700
 1612SOL    HW2 5736   2.298   1.473   4.852
 1613SOL     OW 5737   2.355   5.521   0.670
 1613SOL    HW1 5738   2.324   5.437   0.625
 1613SOL    HW2 5739   2.449   5.509   0.702
 1614SOL     OW 5740   6.619   2.182   7.005
 1614SOL    HW1 5741   6.661   2.268   6.978
 1614SOL    HW2 5742   6.533   2.170   6.956
 1615SOL     OW 5743   6.936   4.807   6.683
 1615SOL    HW1 5744   6.949   4.852   6.595
 1615SOL    HW2 5745   6.883   4.723   6.670
 1616SOL     OW 5746   3.427   1.795   6.235
 1616SOL    HW1 5747   3.353   1.862   6.229
 1616SOL    HW2 5748   3.419   1.745   6.322
 1617SOL     OW 5749   5.157   0.777   3.119
 1617SOL    HW1 5750   5.144   0.876   3.129
 1617SOL    HW2 5751   5.249   0.759   3.084
 1618SOL     OW 5752   6.326   3.492   1.334
 1618SOL    HW1 5753   6.353   3.419   1.272
 1618SOL    HW2 5754   6.316   3.456   1.426
 1619SOL     OW 5755   1.653   3.250   4.316
 1619SOL    HW1 5756   1.750   3.248   4.294
 1619SOL    HW2 5757   1.629   3.341   4.349
 1620SOL     OW 5758   2.999   5.547   1.850
 1620SOL    HW1 5759   2.913   5.576   1.808
 1620SOL    HW2 5760   3.075   5.569   1.789
 1621SOL     OW 5761   1.091   0.579   0.891
 1621SOL    HW1 5762   1.102   0.492   0.843
 1621SOL    HW2 5763   1.155   0.646   0.853
 1622SOL     OW 5764   1.956   1.439   4.310
 1622SOL    HW1 5765   1.913   1.524   4.341
 1622SOL    HW2 5766   1.885   1.372   4.290
 1623SOL     OW 5767   2.663   2.051   6.079
 1623SOL    HW1 5768   2.668   2.140   6.124
 1623SOL    HW2 5769   2.742   2.040   6.018
 1624SOL     OW 5770   2.991   1.723   0.146
 1624SOL    HW1 5771   2.957   1.813   0.119
 1624SOL    HW2 5772   3.075   1.733   0.200
 1625SOL     OW 5773   0.988   5.171   1.872
 1625SOL    HW1 5774   1.062   5.173   1.938
 1625SOL    HW2 5775   0.952   5.263   1.858
 1626SOL     OW 5776   1.870   3.008   6.377
 1626SOL    HW1 5777   1.849   3.044   6.467
 1626SOL    HW2 5778   1.786   2.973   6.335
 1627SOL     OW 5779   6.098   3.011   3.661
 1627SOL    HW1 5780   6.141   3.018   3.751
 1627SOL    HW2 5781   6.035   2.933   3.660
 1628SOL     OW 5782   3.614   4.547   0.557
 1628SOL    HW1 5783   3.600   4.527   0.654
 1628SOL    HW2 5784   3.596   4.465   0.503
 1629SOL     OW 5785   3.500   1.906   4.456
 1629SOL    HW1 5786   3.454   1.973   4.398
 1629SOL    HW2 5787   3.591   1.888   4.420
 1630SOL     OW 5788   0.774   4.819   5.561
 1630SOL    HW1 5789   0.859   4.766   5.559
 1630SOL    HW2 5790   0.785   4.897   5.622
 1631SOL     OW 5791   0.143   6.907   5.365
 1631SOL    HW1 5792   0.049   6.873   5.365
 1631SOL    HW2 5793   0.201   6.847   5.420
 1632SOL     OW 5794   6.863   0.461   0.787
 1632SOL    HW1 5795   6.942   0.487   0.731
 1632SOL    HW2 5796   6.812   0.543   0.813
 1633SOL     OW 5797   6.034   2.194   3.609
 1633SOL    HW1 5798   6.034   2.113   3.551
 1633SOL    HW2 5799   6.121   2.200   3.658
 1634SOL     OW 5800   2.636   0.175   6.555
 1634SOL    HW1 5801   2.728   0.172   6.594
 1634SOL    HW2 5802   2.578   0.232   6.613
 1635SOL     OW 5803   0.099   5.786   5.196
 1635SOL    HW1 5804   0.053   5.872   5.217
 1635SOL    HW2 5805   0.197   5.802   5.186
 1636SOL     OW 5806   2.279   6.067   2.140
 1636SOL    HW1 5807   2.236   6.069   2.230
 1636SOL    HW2 5808   2.327   5.981   2.128
 1637SOL     OW 5809   6.845   3.254   2.001
 1637SOL    HW1 5810   6.755   3.293   1.984
 1637SOL    HW2 5811   6.869   3.267   2.098
 1638SOL     OW 5812   6.791   3.346   4.243
 1638SOL    HW1 5813   6.848   3.424   4.267
 1638SOL    HW2 5814   6.750   3.308   4.326
 1639SOL     OW 5815   4.666   5.575   2.551
 1639SOL    HW1 5816   4.597   5.575   2.623
 1639SOL    HW2 5817   4.717   5.489   2.554
 1640SOL     OW 5818   6.489   0.605   0.701
 1640SOL    HW1 5819   6.548   0.551   0.641
 1640SOL    HW2 5820   6.531   0.612   0.792
 1641SOL     OW 5821   5.179   3.152   5.261
 1641SOL    HW1 5822   5.153   3.160   5.165
 1641SOL    HW2 5823   5.234   3.069   5.274
 1642SOL     OW 5824   6.750   2.301   0.646
 1642SOL    HW1 5825   6.841   2.342   0.643
 1642SOL    HW2 5826   6.756   2.204   0.623
 1643SOL     OW 5827   3.698   6.771   4.965
 1643SOL    HW1 5828   3.762   6.828   5.016
 1643SOL    HW2 5829   3.723   6.675   4.976
 1644SOL     OW 5830   2.854   1.390   1.364
 1644SOL    HW1 5831   2.837   1.301   1.406
 1644SOL    HW2 5832   2.812   1.462   1.419
 1645SOL     OW 5833   2.919   6.784   6.787
 1645SOL    HW1 5834   2.943   6.688   6.801
 1645SOL    HW2 5835   2.962   6.817   6.703
 1646SOL     OW 5836   1.208   4.402   0.719
 1646SOL    HW1 5837   1.115   4.438   0.728
 1646SOL    HW2 5838   1.210   4.306   0.747
 1647SOL     OW 5839   5.766   2.940   3.906
 1647SOL    HW1 5840   5.748   2.975   3.815
 1647SOL    HW2 5841   5.844   2.988   3.946
 1648SOL     OW 5842   4.709   0.063   2.229
 1648SOL    HW1 5843   4.683   0.136   2.165
 1648SOL    HW2 5844   4.735   7.005   2.177
 1649SOL     OW 5845   3.095   1.246   3.005
 1649SOL    HW1 5846   3.090   1.332   3.056
 1649SOL    HW2 5847   3.135   1.175   3.063
 1650SOL     OW 5848   2.589   7.014   3.823
 1650SOL    HW1 5849   2.662   0.025   3.763
 1650SOL    HW2 5850   2.572   0.058   3.895
 1651SOL     OW 5851   1.028   0.468   0.304
 1651SOL    HW1 5852   0.957   0.501   0.367
 1651SOL    HW2 5853   1.109   0.442   0.357
 1652SOL     OW 5854   2.941   2.306   1.663
 1652SOL    HW1 5855   2.950   2.328   1.760
 1652SOL    HW2 5856   2.863   2.355   1.624
 1653SOL     OW 5857   0.715   5.540   0.903
 1653SOL    HW1 5858   0.779   5.503   0.971
 1653SOL    HW2 5859   0.766   5.592   0.835
 1654SOL     OW 5860   6.633   3.487   3.105
 1654SOL    HW1 5861   6.534   3.487   3.124
 1654SOL    HW2 5862   6.653   3.556   3.036
 1655SOL     OW 5863   5.095   4.000   6.328
 1655SOL    HW1 5864   5.005   4.025   6.290
 1655SOL    HW2 5865   5.166   4.024   6.263
 1656SOL     OW 5866   1.532   4.991   3.634
 1656SOL    HW1 5867   1.562   5.021   3.543
 1656SOL    HW2 5868   1.570   4.901   3.654
 1657SOL     OW 5869   1.022   0.770   4.835
 1657SOL    HW1 5870   1.037   0.718   4.919
 1657SOL    HW2 5871   1.059   0.862   4.845
 1658SOL     OW 5872   6.189   6.235   3.021
 1658SOL    HW1 5873   6.118   6.299   3.050
 1658SOL    HW2 5874   6.277   6.281   3.020
 1659SOL     OW 5875   3.597   2.477   6.183
 1659SOL    HW1 5876   3.612   2.479   6.281
 1659SOL    HW2 5877   3.499   2.467   6.164
 1660SOL     OW 5878   1.651   6.008   3.609
 1660SOL    HW1 5879   1.638   5.955   3.693
 1660SOL    HW2 5880   1.562   6.030   3.569
 1661SOL     OW 5881   3.335   1.164   2.195
 1661SOL    HW1 5882   3.367   1.142   2.103
 1661SOL    HW2 5883   3.342   1.083   2.253
 1662SOL     OW 5884   0.411   1.099   3.183
 1662SOL    HW1 5885   0.365   1.140   3.262
 1662SOL    HW2 5886   0.448   1.009   3.209
 1663SOL     OW 5887   3.287   0.348   2.571
 1663SOL    HW1 5888   3.296   0.256   2.611
 1663SOL    HW2 5889   3.378   0.386   2.554
 1664SOL     OW 5890   1.992   5.910   4.292
 1664SOL    HW1 5891   2.077   5.903   4.345
 1664SOL    HW2 5892   2.000   5.985   4.226
 1665SOL     OW 5893   0.122   0.929   2.957
 1665SOL    HW1 5894   0.213   0.908   2.921
 1665SOL    HW2 5895   0.085   1.009   2.910
 1666SOL     OW 5896   5.561   2.918   5.835
 1666SOL    HW1 5897   5.558   2.825   5.871
 1666SOL    HW2 5898   5.515   2.921   5.746
 1667SOL     OW 5899   6.388   6.862   6.163
 1667SOL    HW1 5900   6.427   6.793   6.102
 1667SOL    HW2 5901   6.292   6.840   6.181
 1668SOL     OW 5902   3.862   0.646   4.730
 1668SOL    HW1 5903   3.915   0.687   4.805
 1668SOL    HW2 5904   3.911   0.566   4.696
 1669SOL     OW 5905   5.606   0.044   6.110
 1669SOL    HW1 5906   5.634   0.068   6.203
 1669SOL    HW2 5907   5.571   6.973   6.109
 1670SOL     OW 5908   5.646   4.587   5.370
 1670SOL    HW1 5909   5.734   4.561   5.330
 1670SOL    HW2 5910   5.583   4.510   5.366
 1671SOL     OW 5911   4.528   3.089   0.107
 1671SOL    HW1 5912   4.564   3.183   0.109
 1671SOL    HW2 5913   4.450   3.082   0.168
 1672SOL     OW 5914   1.896   5.277   2.172
 1672SOL    HW1 5915   1.832   5.220   2.122
 1672SOL    HW2 5916   1.847   5.354   2.213
 1673SOL     OW 5917   6.700   3.577   3.972
 1673SOL    HW1 5918   6.731   3.585   4.067
 1673SOL    HW2 5919   6.732   3.655   3.920
 1674SOL     OW 5920   1.077   3.998   0.216
 1674SOL    HW1 5921   1.148   3.965   0.278
 1674SOL    HW2 5922   1.018   3.922   0.189
 1675SOL     OW 5923   4.579   1.697   6.528
 1675SOL    HW1 5924   4.612   1.768   6.467
 1675SOL    HW2 5925   4.569   1.734   6.620
 1676SOL     OW 5926   1.707   0.752   2.851
 1676SOL    HW1 5927   1.651   0.729   2.931
 1676SOL    HW2 5928   1.753   0.669   2.818
 1677SOL     OW 5929   5.845   1.705   5.582
 1677SOL    HW1 5930   5.834   1.643   5.505
 1677SOL    HW2 5931   5.942   1.721   5.599
 1678SOL     OW 5932   5.234   6.672   2.118
 1678SOL    HW1 5933   5.199   6.594   2.169
 1678SOL    HW2 5934   5.202   6.668   2.023
 1679SOL     OW 5935   0.866   3.318   6.388
 1679SOL    HW1 5936   0.828   3.297   6.298
 1679SOL    HW2 5937   0.846   3.413   6.411
 1680SOL     OW 5938   0.398   1.427   4.070
 1680SOL    HW1 5939   0.304   1.410   4.043
 1680SOL    HW2 5940   0.422   1.522   4.049
 1681SOL     OW 5941   6.616   5.543   0.933
 1681SOL    HW1 5942   6.635   5.592   1.018
 1681SOL    HW2 5943   6.622   5.606   0.856
 1682SOL     OW 5944   6.504   3.284   5.535
 1682SOL    HW1 5945   6.421   3.269   5.589
 1682SOL    HW2 5946   6.509   3.217   5.461
 1683SOL     OW 5947   4.890   6.619   1.610
 1683SOL    HW1 5948   4.844   6.706   1.626
 1683SOL    HW2 5949   4.978   6.618   1.657
 1684SOL     OW 5950   0.019   6.522   5.318
 1684SOL    HW1 5951   0.071   6.537   5.234
 1684SOL    HW2 5952   6.994   6.607   5.344
 1685SOL     OW 5953   1.321   1.051   0.252
 1685SOL    HW1 5954   1.345   0.957   0.276
 1685SOL    HW2 5955   1.327   1.062   0.152
 1686SOL     OW 5956   1.279   6.358   6.118
 1686SOL    HW1 5957   1.266   6.450   6.153
 1686SOL    HW2 5958   1.204   6.336   6.055
 1687SOL     OW 5959   1.821   5.538   2.494
 1687SOL    HW1 5960   1.815   5.627   2.449
 1687SOL    HW2 5961   1.894   5.484   2.451
 1688SOL     OW 5962   1.713   1.940   2.779
 1688SOL    HW1 5963   1.718   1.850   2.736
 1688SOL    HW2 5964   1.800   1.959   2.825
 1689SOL     OW 5965   2.533   1.235   2.368
 1689SOL    HW1 5966   2.593   1.315   2.364
 1689SOL    HW2 5967   2.473   1.241   2.447
 1690SOL     OW 5968   1.780   1.591   1.720
 1690SOL    HW1 5969   1.805   1.511   1.775
 1690SOL    HW2 5970   1.779   1.672   1.778
 1691SOL     OW 5971   4.974   3.807   2.976
 1691SOL    HW1 5972   4.956   3.714   2.943
 1691SOL    HW2 5973   4.923   3.873   2.922
 1692SOL     OW 5974   0.891   0.358   2.162
 1692SOL    HW1 5975   0.944   0.398   2.086
 1692SOL    HW2 5976   0.950   0.297   2.214
 1693SOL     OW 5977   2.803   2.306   3.464
 1693SOL    HW1 5978   2.883   2.266   3.509
 1693SOL    HW2 5979   2.739   2.338   3.533
 1694SOL     OW 5980   4.512   5.826   5.205
 1694SOL    HW1 5981   4.453   5.874   5.270
 1694SOL    HW2 5982   4.562   5.754   5.252
 1695SOL     OW 5983   3.077   2.441   5.434
 1695SOL    HW1 5984   2.984   2.475   5.420
 1695SOL    HW2 5985   3.128   2.447   5.348
 1696SOL     OW 5986   5.061   5.806   0.644
 1696SOL    HW1 5987   5.084   5.732   0.707
 1696SOL    HW2 5988   5.061   5.772   0.550
 1697SOL     OW 5989   1.561   0.844   1.363
 1697SOL    HW1 5990   1.476   0.838   1.312
 1697SOL    HW2 5991   1.608   0.929   1.339
 1698SOL     OW 5992   4.353   2.386   1.286
 1698SOL    HW1 5993   4.392   2.477   1.273
 1698SOL    HW2 5994   4.347   2.366   1.383
 1699SOL     OW 5995   2.501   3.287   1.151
 1699SOL    HW1 5996   2.479   3.254   1.243
 1699SOL    HW2 5997   2.421   3.333   1.113
 1700SOL     OW 5998   7.021   2.923   3.071
 1700SOL    HW1 5999   0.053   2.845   3.101
 1700SOL    HW2 6000   6.976   2.965   3.150
 1701SOL     OW 6001   6.305   3.372   3.659
 1701SOL    HW1 6002   6.229   3.420   3.703
 1701SOL    HW2 6003   6.355   3.319   3.727
 1702SOL     OW 6004   5.343   4.050   1.278
 1702SOL    HW1 6005   5.304   4.012   1.361
 1702SOL    HW2 6006   5.441   4.030   1.275
 1703SOL     OW 6007   1.873   3.969   0.272
 1703SOL    HW1 6008   1.952   4.017   0.311
 1703SOL    HW2 6009   1.792   4.027   0.282
 1704SOL     OW 6010   0.303   0.069   1.639
 1704SOL    HW1 6011   0.247   7.012   1.617
 1704SOL    HW2 6012   0.251   0.130   1.699
 1705SOL     OW 6013   4.413   3.029   1.655
 1705SOL    HW1 6014   4.333   2.973   1.675
 1705SOL    HW2 6015   4.473   3.030   1.735
 1706SOL     OW 6016   3.192   0.617   0.870
 1706SOL    HW1 6017   3.231   0.624   0.778
 1706SOL    HW2 6018   3.264   0.626   0.938
 1707SOL     OW 6019   5.575   2.096   3.433
 1707SOL    HW1 6020   5.545   2.148   3.353
 1707SOL    HW2 6021   5.675   2.091   3.432
 1708SOL     OW 6022   6.664   5.859   3.008
 1708SOL    HW1 6023   6.735   5.926   3.029
 1708SOL    HW2 6024   6.595   5.859   3.080
 1709SOL     OW 6025   3.620   6.291   2.586
 1709SOL    HW1 6026   3.582   6.384   2.581
 1709SOL    HW2 6027   3.584   6.244   2.667
 1710SOL     OW 6028   0.412   5.073   4.298
 1710SOL    HW1 6029   0.407   5.014   4.379
 1710SOL    HW2 6030   0.426   5.168   4.327
 1711SOL     OW 6031   1.084   4.065   5.335
 1711SOL    HW1 6032   1.052   4.004   5.262
 1711SOL    HW2 6033   1.032   4.046   5.418
 1712SOL     OW 6034   0.003   4.406   0.208
 1712SOL    HW1 6035   6.957   4.351   0.257
 1712SOL    HW2 6036   6.997   4.502   0.208
 1713SOL     OW 6037   1.465   2.671   1.576
 1713SOL    HW1 6038   1.384   2.704   1.623
 1713SOL    HW2 6039   1.539   2.737   1.586
 1714SOL     OW 6040   3.282   2.185   0.531
 1714SOL    HW1 6041   3.352   2.116   0.544
 1714SOL    HW2 6042   3.286   2.221   0.438
 1715SOL     OW 6043   0.149   3.451   2.823
 1715SOL    HW1 6044   0.056   3.417   2.807
 1715SOL    HW2 6045   0.208   3.374   2.848
 1716SOL     OW 6046   0.158   6.368   6.927
 1716SOL    HW1 6047   0.078   6.315   6.901
 1716SOL    HW2 6048   0.213   6.389   6.846
 1717SOL     OW 6049   2.631   0.278   6.951
 1717SOL    HW1 6050   2.561   0.302   6.884
 1717SOL    HW2 6051   2.698   0.218   6.908
 1718SOL     OW 6052   1.719   4.506   0.159
 1718SOL    HW1 6053   1.635   4.504   0.105
 1718SOL    HW2 6054   1.781   4.434   0.127
 1719SOL     OW 6055   2.025   3.411   1.495
 1719SOL    HW1 6056   2.054   3.345   1.565
 1719SOL    HW2 6057   2.026   3.367   1.405
 1720SOL     OW 6058   6.571   1.596   0.162
 1720SOL    HW1 6059   6.585   1.684   0.115
 1720SOL    HW2 6060   6.634   1.589   0.239
 1721SOL     OW 6061   1.968   6.612   3.256
 1721SOL    HW1 6062   1.966   6.516   3.284
 1721SOL    HW2 6063   1.877   6.640   3.225
 1722SOL     OW 6064   6.097   0.206   1.929
 1722SOL    HW1 6065   6.169   0.268   1.898
 1722SOL    HW2 6066   6.137   0.130   1.979
 1723SOL     OW 6067   6.877   1.731   2.389
 1723SOL    HW1 6068   6.844   1.809   2.336
 1723SOL    HW2 6069   6.829   1.728   2.477
 1724SOL     OW 6070   4.563   1.160   0.101
 1724SOL    HW1 6071   4.632   1.161   0.028
 1724SOL    HW2 6072   4.605   1.130   0.186
 1725SOL     OW 6073   3.564   4.362   1.339
 1725SOL    HW1 6074   3.593   4.379   1.433
 1725SOL    HW2 6075   3.525   4.446   1.301
 1726SOL     OW 6076   0.516   4.133   4.378
 1726SOL    HW1 6077   0.534   4.186   4.461
 1726SOL    HW2 6078   0.458   4.055   4.400
 1727SOL     OW 6079   4.041   3.591   5.306
 1727SOL    HW1 6080   4.030   3.690   5.296
 1727SOL    HW2 6081   4.065   3.569   5.400
 1728SOL     OW 6082   4.272   4.658   4.032
 1728SOL    HW1 6083   4.312   4.615   4.113
 1728SOL    HW2 6084   4.183   4.697   4.056
 1729SOL     OW 6085   1.350   3.524   2.776
 1729SOL    HW1 6086   1.396   3.573   2.702
 1729SOL    HW2 6087   1.271   3.577   2.808
 1730SOL     OW 6088   6.765   2.373   4.836
 1730SOL    HW1 6089   6.737   2.293   4.782
 1730SOL    HW2 6090   6.784   2.344   4.930
 1731SOL     OW 6091   2.245   5.001   0.730
 1731SOL    HW1 6092   2.237   5.083   0.788
 1731SOL    HW2 6093   2.294   4.930   0.780
 1732SOL     OW 6094   1.503   4.541   7.012
 1732SOL    HW1 6095   1.439   4.466   0.007
 1732SOL    HW2 6096   1.454   4.620   6.978
 1733SOL     OW 6097   1.236   3.623   1.479
 1733SOL    HW1 6098   1.165   3.625   1.549
 1733SOL    HW2 6099   1.220   3.546   1.418
 1734SOL     OW 6100   3.812   2.749   1.047
 1734SOL    HW1 6101   3.807   2.826   0.983
 1734SOL    HW2 6102   3.733   2.689   1.032
 1735SOL     OW 6103   6.122   5.128   1.201
 1735SOL    HW1 6104   6.046   5.096   1.257
 1735SOL    HW2 6105   6.209   5.105   1.246
 1736SOL     OW 6106   3.524   2.897   0.039
 1736SOL    HW1 6107   3.596   2.935   0.097
 1736SOL    HW2 6108   3.449   2.963   0.032
 1737SOL     OW 6109   2.110   6.940   3.529
 1737SOL    HW1 6110   2.040   7.004   3.558
 1737SOL    HW2 6111   2.200   6.978   3.548
 1738SOL     OW 6112   2.274   2.875   2.374
 1738SOL    HW1 6113   2.217   2.799   2.406
 1738SOL    HW2 6114   2.250   2.958   2.424
 1739SOL     OW 6115   4.479   2.320   4.979
 1739SOL    HW1 6116   4.548   2.314   4.906
 1739SOL    HW2 6117   4.524   2.332   5.067
 1740SOL     OW 6118   0.203   0.670   6.036
 1740SOL    HW1 6119   0.200   0.705   6.130
 1740SOL    HW2 6120   0.222   0.745   5.973
 1741SOL     OW 6121   1.220   0.693   2.655
 1741SOL    HW1 6122   1.127   0.668   2.628
 1741SOL    HW2 6123   1.285   0.640   2.602
 1742SOL     OW 6124   5.936   0.551   4.648
 1742SOL    HW1 6125   6.027   0.511   4.633
 1742SOL    HW2 6126   5.874   0.520   4.575
 1743SOL     OW 6127   3.282   1.334   1.695
 1743SOL    HW1 6128   3.370   1.291   1.677
 1743SOL    HW2 6129   3.220   1.317   1.619
 1744SOL     OW 6130   2.382   0.974   1.706
 1744SOL    HW1 6131   2.290   1.012   1.696
 1744SOL    HW2 6132   2.404   0.918   1.625
 1745SOL     OW 6133   6.348   1.948   3.195
 1745SOL    HW1 6134   6.375   2.015   3.263
 1745SOL    HW2 6135   6.372   1.856   3.227
 1746SOL     OW 6136   2.610   0.553   6.234
 1746SOL    HW1 6137   2.637   0.622   6.302
 1746SOL    HW2 6138   2.625   0.589   6.142
 1747SOL     OW 6139   3.453   0.766   1.729
 1747SOL    HW1 6140   3.539   0.816   1.717
 1747SOL    HW2 6141   3.430   0.720   1.643
 1748SOL     OW 6142   5.872   1.821   3.787
 1748SOL    HW1 6143   5.780   1.809   3.749
 1748SOL    HW2 6144   5.940   1.794   3.718
 1749SOL     OW 6145   4.390   0.025   6.596
 1749SOL    HW1 6146   4.389   7.013   6.690
 1749SOL    HW2 6147   4.320   0.096   6.586
 1750SOL     OW 6148   4.972   1.673   2.796
 1750SOL    HW1 6149   5.038   1.747   2.785
 1750SOL    HW2 6150   4.894   1.706   2.849
 1751SOL     OW 6151   1.801   5.265   4.528
 1751SOL    HW1 6152   1.756   5.178   4.509
 1751SOL    HW2 6153   1.744   5.340   4.493
 1752SOL     OW 6154   6.728   1.359   0.922
 1752SOL    HW1 6155   6.768   1.273   0.890
 1752SOL    HW2 6156   6.629   1.355   0.912
 1753SOL     OW 6157   0.536   6.759   1.035
 1753SOL    HW1 6158   0.539   6.700   0.955
 1753SOL    HW2 6159   0.530   6.855   1.006
 1754SOL     OW 6160   3.561   3.400   1.014
 1754SOL    HW1 6161   3.505   3.429   1.092
 1754SOL    HW2 6162   3.654   3.382   1.046
 1755SOL     OW 6163   5.393   4.882   1.184
 1755SOL    HW1 6164   5.380   4.959   1.248
 1755SOL    HW2 6165   5.358   4.799   1.226
 1756SOL     OW 6166   6.454   5.336   4.015
 1756SOL    HW1 6167   6.460   5.248   3.969
 1756SOL    HW2 6168   6.389   5.330   4.091
 1757SOL     OW 6169   3.053   6.545   4.401
 1757SOL    HW1 6170   2.972   6.500   4.439
 1757SOL    HW2 6171   3.071   6.629   4.452
 1758SOL     OW 6172   2.378   0.489   3.433
 1758SOL    HW1 6173   2.396   0.548   3.354
 1758SOL    HW2 6174   2.417   0.398   3.416
 1759SOL     OW 6175   6.906   5.131   5.655
 1759SOL    HW1 6176   6.868   5.124   5.747
 1759SOL    HW2 6177   6.850   5.078   5.592
 1760SOL     OW 6178   6.289   1.070   1.476
 1760SOL    HW1 6179   6.257   1.094   1.385
 1760SOL    HW2 6180   6.241   1.125   1.544
 1761SOL     OW 6181   6.170   0.939   1.044
 1761SOL    HW1 6182   6.159   0.914   0.948
 1761SOL    HW2 6183   6.210   0.862   1.095
 1762SOL     OW 6184   6.311   1.809   5.971
 1762SOL    HW1 6185   6.355   1.899   5.976
 1762SOL    HW2 6186   6.342   1.753   6.048
 1763SOL     OW 6187   1.543   3.508   4.452
 1763SOL    HW1 6188   1.507   3.557   4.532
 1763SOL    HW2 6189   1.643   3.513   4.452
 1764SOL     OW 6190   0.993   3.152   3.070
 1764SOL    HW1 6191   0.924   3.096   3.024
 1764SOL    HW2 6192   1.083   3.108   3.061
 1765SOL     OW 6193   2.306   1.826   6.893
 1765SOL    HW1 6194   2.332   1.832   6.796
 1765SOL    HW2 6195   2.388   1.812   6.948
 1766SOL     OW 6196   5.638   3.097   5.103
 1766SOL    HW1 6197   5.688   3.111   5.018
 1766SOL    HW2 6198   5.621   3.185   5.147
 1767SOL     OW 6199   5.173   3.858   2.091
 1767SOL    HW1 6200   5.225   3.933   2.132
 1767SOL    HW2 6201   5.128   3.806   2.164
 1768SOL     OW 6202   4.552   6.191   3.581
 1768SOL    HW1 6203   4.487   6.188   3.657
 1768SOL    HW2 6204   4.639   6.150   3.610
 1769SOL     OW 6205   3.624   1.868   3.372
 1769SOL    HW1 6206   3.651   1.795   3.309
 1769SOL    HW2 6207   3.641   1.957   3.330
 1770SOL     OW 6208   2.582   5.663   5.410
 1770SOL    HW1 6209   2.534   5.722   5.345
 1770SOL    HW2 6210   2.666   5.628   5.368
 1771SOL     OW 6211   3.108   6.193   0.144
 1771SOL    HW1 6212   3.018   6.164   0.179
 1771SOL    HW2 6213   3.116   6.292   0.152
 1772SOL     OW 6214   3.364   6.731   3.304
 1772SOL    HW1 6215   3.279   6.766   3.343
 1772SOL    HW2 6216   3.352   6.635   3.279
 1773SOL     OW 6217   1.680   5.222   6.213
 1773SOL    HW1 6218   1.744   5.293   6.182
 1773SOL    HW2 6219   1.602   5.265   6.257
 1774SOL     OW 6220   4.379   5.612   1.559
 1774SOL    HW1 6221   4.471   5.572   1.555
 1774SOL    HW2 6222   4.384   5.707   1.528
 1775SOL     OW 6223   1.270   3.807   2.004
 1775SOL    HW1 6224   1.309   3.715   2.006
 1775SOL    HW2 6225   1.335   3.870   1.962
 1776SOL     OW 6226   4.044   6.201   4.163
 1776SOL    HW1 6227   4.033   6.200   4.262
 1776SOL    HW2 6228   3.986   6.130   4.123
 1777SOL     OW 6229   4.170   5.973   0.039
 1777SOL    HW1 6230   4.212   5.889   0.005
 1777SOL    HW2 6231   4.080   5.985   7.019
 1778SOL     OW 6232   4.138   3.169   6.037
 1778SOL    HW1 6233   4.041   3.144   6.039
 1778SOL    HW2 6234   4.179   3.133   5.953
 1779SOL     OW 6235   3.332   0.794   5.670
 1779SOL    HW1 6236   3.399   0.831   5.605
 1779SOL    HW2 6237   3.240   0.821   5.642
 1780SOL     OW 6238   3.376   3.261   6.082
 1780SOL    HW1 6239   3.371   3.311   5.996
 1780SOL    HW2 6240   3.467   3.273   6.123
 1781SOL     OW 6241   4.155   6.369   3.090
 1781SOL    HW1 6242   4.167   6.331   3.182
 1781SOL    HW2 6243   4.087   6.315   3.040
 1782SOL     OW 6244   3.396   1.144   3.250
 1782SOL    HW1 6245   3.345   1.077   3.196
 1782SOL    HW2 6246   3.379   1.128   3.348
 1783SOL     OW 6247   2.489   4.700   6.361
 1783SOL    HW1 6248   2.440   4.613   6.355
 1783SOL    HW2 6249   2.447   4.758   6.431
 1784SOL     OW 6250   3.640   0.087   5.864
 1784SOL    HW1 6251   3.611   0.162   5.923
 1784SOL    HW2 6252   3.615   0.108   5.769
 1785SOL     OW 6253   6.150   3.793   2.530
 1785SOL    HW1 6254   6.103   3.826   2.448
 1785SOL    HW2 6255   6.248   3.790   2.513
 1786SOL     OW 6256   2.316   2.346   7.003
 1786SOL    HW1 6257   2.265   2.277   6.951
 1786SOL    HW2 6258   2.264   2.431   7.005
 1787SOL     OW 6259   3.261   1.252   5.596
 1787SOL    HW1 6260   3.252   1.349   5.616
 1787SOL    HW2 6261   3.312   1.240   5.510
 1788SOL     OW 6262   1.852   5.010   6.107
 1788SOL    HW1 6263   1.810   4.963   6.184
 1788SOL    HW2 6264   1.817   5.104   6.101
 1789SOL     OW 6265   5.553   2.159   0.720
 1789SOL    HW1 6266   5.600   2.182   0.635
 1789SOL    HW2 6267   5.499   2.238   0.750
 1790SOL     OW 6268   3.891   6.763   3.400
 1790SOL    HW1 6269   3.903   6.693   3.330
 1790SOL    HW2 6270   3.803   6.751   3.445
 1791SOL     OW 6271   6.959   0.064   2.651
 1791SOL    HW1 6272   6.953   6.988   2.633
 1791SOL    HW2 6273   6.880   0.110   2.611
 1792SOL     OW 6274   0.401   3.987   5.301
 1792SOL    HW1 6275   0.456   3.946   5.228
 1792SOL    HW2 6276   0.427   4.083   5.312
 1793SOL     OW 6277   6.894   0.561   3.872
 1793SOL    HW1 6278   6.831   0.545   3.948
 1793SOL    HW2 6279   6.948   0.479   3.855
 1794SOL     OW 6280   5.169   5.780   5.864
 1794SOL    HW1 6281   5.163   5.880   5.858
 1794SOL    HW2 6282   5.261   5.751   5.838
 1795SOL     OW 6283   0.150   2.894   0.614
 1795SOL    HW1 6284   0.196   2.813   0.578
 1795SOL    HW2 6285   0.059   2.868   0.648
 1796SOL     OW 6286   2.698   0.990   6.017
 1796SOL    HW1 6287   2.706   0.896   6.050
 1796SOL    HW2 6288   2.603   1.021   6.029
 1797SOL     OW 6289   0.846   0.227   0.505
 1797SOL    HW1 6290   0.767   0.270   0.549
 1797SOL    HW2 6291   0.817   0.181   0.421
 1798SOL     OW 6292   4.440   2.524   4.026
 1798SOL    HW1 6293   4.524   2.567   3.993
 1798SOL    HW2 6294   4.408   2.458   3.958
 1799SOL     OW 6295   0.269   2.656   4.582
 1799SOL    HW1 6296   0.188   2.682   4.634
 1799SOL    HW2 6297   0.309   2.573   4.621
 1800SOL     OW 6298   4.250   4.446   1.697
 1800SOL    HW1 6299   4.234   4.537   1.737
 1800SOL    HW2 6300   4.284   4.384   1.768
 1801SOL     OW 6301   0.032   0.859   2.255
 1801SOL    HW1 6302   0.078   0.777   2.289
 1801SOL    HW2 6303   0.084   0.898   2.180
 1802SOL     OW 6304   6.061   5.836   3.835
 1802SOL    HW1 6305   6.105   5.751   3.807
 1802SOL    HW2 6306   6.105   5.914   3.790
 1803SOL     OW 6307   0.451   5.250   6.786
 1803SOL    HW1 6308   0.529   5.186   6.790
 1803SOL    HW2 6309   0.407   5.255   6.875
 1804SOL     OW 6310   2.607   4.247   5.541
 1804SOL    HW1 6311   2.656   4.314   5.485
 1804SOL    HW2 6312   2.525   4.217   5.493
 1805SOL     OW 6313   5.232   3.548   6.523
 1805SOL    HW1 6314   5.173   3.604   6.465
 1805SOL    HW2 6315   5.198   3.454   6.524
 1806SOL     OW 6316   0.370   0.431   0.744
 1806SOL    HW1 6317   0.344   0.491   0.668
 1806SOL    HW2 6318   0.398   0.342   0.708
 1807SOL     OW 6319   6.373   2.215   4.546
 1807SOL    HW1 6320   6.306   2.289   4.552
 1807SOL    HW2 6321   6.355   2.161   4.463
 1808SOL     OW 6322   0.141   5.127   4.899
 1808SOL    HW1 6323   0.216   5.082   4.851
 1808SOL    HW2 6324   0.175   5.208   4.947
 1809SOL     OW 6325   2.763   1.685   5.939
 1809SOL    HW1 6326   2.786   1.635   5.856
 1809SOL    HW2 6327   2.804   1.776   5.936
 1810SOL     OW 6328   3.439   6.996   3.605
 1810SOL    HW1 6329   3.528   7.005   3.560
 1810SOL    HW2 6330   3.392   0.061   3.604
 1811SOL     OW 6331   6.056   6.395   3.291
 1811SOL    HW1 6332   6.001   6.380   3.209
 1811SOL    HW2 6333   6.101   6.310   3.317
 1812SOL     OW 6334   4.175   6.156   5.218
 1812SOL    HW1 6335   4.088   6.124   5.181
 1812SOL    HW2 6336   4.157   6.222   5.292
 1813SOL     OW 6337   5.425   3.568   0.655
 1813SOL    HW1 6338   5.488   3.508   0.702
 1813SOL    HW2 6339   5.384   3.632   0.720
 1814SOL     OW 6340   4.780   6.886   2.079
 1814SOL    HW1 6341   4.801   6.788   2.081
 1814SOL    HW2 6342   4.838   6.931   2.013
 1815SOL     OW 6343   0.321   1.491   3.088
 1815SOL    HW1 6344   0.398   1.512   3.148
 1815SOL    HW2 6345   0.333   1.400   3.049
 1816SOL     OW 6346   2.120   2.702   1.220
 1816SOL    HW1 6347   2.124   2.692   1.120
 1816SOL    HW2 6348   2.034   2.664   1.254
 1817SOL     OW 6349   1.794   6.732   2.566
 1817SOL    HW1 6350   1.770   6.667   2.638
 1817SOL    HW2 6351   1.856   6.801   2.604
 1818SOL     OW 6352   1.437   0.323   3.311
 1818SOL    HW1 6353   1.383   0.245   3.279
 1818SOL    HW2 6354   1.533   0.311   3.283
 1819SOL     OW 6355   1.198   4.201   1.377
 1819SOL    HW1 6356   1.293   4.220   1.402
 1819SOL    HW2 6357   1.137   4.246   1.442
 1820SOL     OW 6358   4.558   1.345   2.527
 1820SOL    HW1 6359   4.612   1.307   2.603
 1820SOL    HW2 6360   4.604   1.427   2.492
 1821SOL     OW 6361   1.962   1.259   2.921
 1821SOL    HW1 6362   1.890   1.284   2.857
 1821SOL    HW2 6363   2.050   1.296   2.889
 1822SOL     OW 6364   3.392   2.663   1.740
 1822SOL    HW1 6365   3.336   2.580   1.741
 1822SOL    HW2 6366   3.400   2.699   1.833
 1823SOL     OW 6367   4.092   6.429   2.655
 1823SOL    HW1 6368   4.160   6.429   2.729
 1823SOL    HW2 6369   4.139   6.429   2.567
 1824SOL     OW 6370   3.887   2.470   1.478
 1824SOL    HW1 6371   3.908   2.520   1.562
 1824SOL    HW2 6372   3.953   2.494   1.407
 1825SOL     OW 6373   1.204   0.489   1.184
 1825SOL    HW1 6374   1.154   0.570   1.216
 1825SOL    HW2 6375   1.254   0.512   1.100
 1826SOL     OW 6376   3.009   1.342   1.147
 1826SOL    HW1 6377   2.965   1.342   1.237
 1826SOL    HW2 6378   2.945   1.376   1.078
 1827SOL     OW 6379   0.161   5.729   1.709
 1827SOL    HW1 6380   0.063   5.719   1.731
 1827SOL    HW2 6381   0.185   5.826   1.712
 1828SOL     OW 6382   1.181   2.919   7.009
 1828SOL    HW1 6383   1.129   2.985   6.955
 1828SOL    HW2 6384   1.279   2.931   6.992
 1829SOL     OW 6385   5.096   6.193   3.138
 1829SOL    HW1 6386   5.037   6.272   3.122
 1829SOL    HW2 6387   5.066   6.116   3.082
 1830SOL     OW 6388   4.426   6.764   3.928
 1830SOL    HW1 6389   4.356   6.697   3.902
 1830SOL    HW2 6390   4.505   6.716   3.966
 1831SOL     OW 6391   5.719   6.402   2.343
 1831SOL    HW1 6392   5.774   6.322   2.322
 1831SOL    HW2 6393   5.747   6.440   2.431
 1832SOL     OW 6394   4.255   2.657   1.575
 1832SOL    HW1 6395   4.238   2.638   1.478
 1832SOL    HW2 6396   4.228   2.578   1.629
 1833SOL     OW 6397   4.963   0.567   4.728
 1833SOL    HW1 6398   4.907   0.485   4.721
 1833SOL    HW2 6399   4.944   0.627   4.651
 1834SOL     OW 6400   3.049   3.580   0.756
 1834SOL    HW1 6401   3.014   3.552   0.667
 1834SOL    HW2 6402   3.002   3.529   0.828
 1835SOL     OW 6403   2.116   5.227   0.877
 1835SOL    HW1 6404   2.083   5.142   0.917
 1835SOL    HW2 6405   2.177   5.274   0.941
 1836SOL     OW 6406   0.126   1.047   0.594
 1836SOL    HW1 6407   0.060   0.995   0.540
 1836SOL    HW2 6408   0.078   1.117   0.647
 1837SOL     OW 6409   1.068   2.247   4.188
 1837SOL    HW1 6410   1.141   2.202   4.238
 1837SOL    HW2 6411   0.986   2.252   4.245
 1838SOL     OW 6412   0.213   2.500   4.074
 1838SOL    HW1 6413   0.190   2.584   4.124
 1838SOL    HW2 6414   0.159   2.424   4.110
 1839SOL     OW 6415   6.483   3.269   4.848
 1839SOL    HW1 6416   6.502   3.179   4.886
 1839SOL    HW2 6417   6.403   3.264   4.787
 1840SOL     OW 6418   2.696   5.672   0.545
 1840SOL    HW1 6419   2.682   5.667   0.644
 1840SOL    HW2 6420   2.704   5.768   0.518
 1841SOL     OW 6421   1.999   3.483   4.063
 1841SOL    HW1 6422   2.053   3.564   4.044
 1841SOL    HW2 6423   1.901   3.504   4.055
 1842SOL     OW 6424   0.428   5.167   0.537
 1842SOL    HW1 6425   0.473   5.255   0.555
 1842SOL    HW2 6426   0.368   5.144   0.613
 1843SOL     OW 6427   2.442   1.852   5.697
 1843SOL    HW1 6428   2.466   1.930   5.754
 1843SOL    HW2 6429   2.364   1.804   5.738
 1844SOL     OW 6430   3.958   2.173   4.742
 1844SOL    HW1 6431   3.869   2.168   4.697
 1844SOL    HW2 6432   3.998   2.082   4.746
 1845SOL     OW 6433   3.586   0.392   6.844
 1845SOL    HW1 6434   3.501   0.420   6.887
 1845SOL    HW2 6435   3.660   0.453   6.875
 1846SOL     OW 6436   3.943   2.227   6.851
 1846SOL    HW1 6437   4.006   2.155   6.824
 1846SOL    HW2 6438   3.860   2.186   6.890
 1847SOL     OW 6439   0.671   7.022   1.002
 1847SOL    HW1 6440   0.689   0.093   0.970
 1847SOL    HW2 6441   0.757   6.970   1.003
 1848SOL     OW 6442   3.203   6.286   2.513
 1848SOL    HW1 6443   3.109   6.252   2.520
 1848SOL    HW2 6444   3.263   6.213   2.482
 1849SOL     OW 6445   3.666   0.810   0.259
 1849SOL    HW1 6446   3.659   0.818   0.359
 1849SOL    HW2 6447   3.744   0.865   0.228
 1850SOL     OW 6448   6.099   2.029   3.108
 1850SOL    HW1 6449   6.198   2.034   3.121
 1850SOL    HW2 6450   6.072   2.089   3.032
 1851SOL     OW 6451   0.495   1.320   2.307
 1851SOL    HW1 6452   0.429   1.268   2.361
 1851SOL    HW2 6453   0.528   1.264   2.231
 1852SOL     OW 6454   3.994   3.330   0.430
 1852SOL    HW1 6455   3.909   3.284   0.458
 1852SOL    HW2 6456   4.036   3.279   0.355
 1853SOL     OW 6457   0.895   4.058   1.086
 1853SOL    HW1 6458   0.886   4.004   1.003
 1853SOL    HW2 6459   0.970   4.022   1.142
 1854SOL     OW 6460   3.255   5.855   4.412
 1854SOL    HW1 6461   3.339   5.807   4.388
 1854SOL    HW2 6462   3.196   5.793   4.464
 1855SOL     OW 6463   4.978   5.301   0.582
 1855SOL    HW1 6464   4.945   5.332   0.494
 1855SOL    HW2 6465   4.912   5.238   0.623
 1856SOL     OW 6466   5.545   2.876   5.262
 1856SOL    HW1 6467   5.542   2.791   5.210
 1856SOL    HW2 6468   5.559   2.953   5.199
 1857SOL     OW 6469   3.693   0.862   4.748
 1857SOL    HW1 6470   3.744   0.776   4.754
 1857SOL    HW2 6471   3.707   0.903   4.658
 1858SOL     OW 6472   5.159   2.938   3.932
 1858SOL    HW1 6473   5.139   2.914   3.837
 1858SOL    HW2 6474   5.073   2.953   3.982
 1859SOL     OW 6475   4.259   1.954   4.115
 1859SOL    HW1 6476   4.346   1.927   4.156
 1859SOL    HW2 6477   4.185   1.938   4.180
 1860SOL     OW 6478   6.185   0.800   4.175
 1860SOL    HW1 6479   6.199   0.738   4.097
 1860SOL    HW2 6480   6.124   0.874   4.147
 1861SOL     OW 6481   4.966   6.176   2.789
 1861SOL    HW1 6482   5.034   6.237   2.747
 1861SOL    HW2 6483   4.879   6.225   2.800
 1862SOL     OW 6484   2.035   0.952   7.008
 1862SOL    HW1 6485   1.943   0.950   6.969
 1862SOL    HW2 6486   2.055   0.865   0.029
 1863SOL     OW 6487   2.752   2.521   1.319
 1863SOL    HW1 6488   2.687   2.465   1.268
 1863SOL    HW2 6489   2.827   2.549   1.259
 1864SOL     OW 6490   0.517   6.444   4.124
 1864SOL    HW1 6491   0.491   6.540   4.133
 1864SOL    HW2 6492   0.442   6.386   4.159
 1865SOL     OW 6493   3.753   1.587   5.673
 1865SOL    HW1 6494   3.761   1.578   5.772
 1865SOL    HW2 6495   3.657   1.586   5.647
 1866SOL     OW 6496   4.658   4.526   2.109
 1866SOL    HW1 6497   4.643   4.431   2.085
 1866SOL    HW2 6498   4.667   4.534   2.209
 1867SOL     OW 6499   0.319   4.155   6.917
 1867SOL    HW1 6500   0.385   4.206   6.972
 1867SOL    HW2 6501   0.232   4.148   6.966
 1868SOL     OW 6502   5.498   4.807   6.286
 1868SOL    HW1 6503   5.521   4.891   6.336
 1868SOL    HW2 6504   5.400   4.790   6.293
 1869SOL     OW 6505   6.345   1.456   5.223
 1869SOL    HW1 6506   6.441   1.434   5.242
 1869SOL    HW2 6507   6.329   1.451   5.124
 1870SOL     OW 6508   1.398   4.392   5.427
 1870SOL    HW1 6509   1.489   4.364   5.458
 1870SOL    HW2 6510   1.389   4.491   5.435
 1871SOL     OW 6511   2.188   0.148   0.459
 1871SOL    HW1 6512   2.256   0.116   0.394
 1871SOL    HW2 6513   2.099   0.157   0.413
 1872SOL     OW 6514   2.532   4.464   0.492
 1872SOL    HW1 6515   2.487   4.550   0.516
 1872SOL    HW2 6516   2.612   4.451   0.551
 1873SOL     OW 6517   4.062   1.405   5.733
 1873SOL    HW1 6518   4.151   1.413   5.688
 1873SOL    HW2 6519   4.013   1.492   5.723
 1874SOL     OW 6520   1.866   1.862   2.162
 1874SOL    HW1 6521   1.951   1.913   2.175
 1874SOL    HW2 6522   1.854   1.797   2.237
 1875SOL     OW 6523   0.601   6.996   6.291
 1875SOL    HW1 6524   0.656   6.990   6.374
 1875SOL    HW2 6525   0.614   6.912   6.237
 1876SOL     OW 6526   2.765   0.098   4.272
 1876SOL    HW1 6527   2.725   0.126   4.359
 1876SOL    HW2 6528   2.718   0.016   4.239
 1877SOL     OW 6529   1.047   0.513   3.917
 1877SOL    HW1 6530   0.970   0.449   3.910
 1877SOL    HW2 6531   1.078   0.518   4.012
 1878SOL     OW 6532   0.245   1.889   4.030
 1878SOL    HW1 6533   0.299   1.823   4.081
 1878SOL    HW2 6534   0.158   1.904   4.076
 1879SOL     OW 6535   1.063   3.309   4.903
 1879SOL    HW1 6536   0.993   3.252   4.945
 1879SOL    HW2 6537   1.058   3.298   4.803
 1880SOL     OW 6538   6.513   1.771   4.739
 1880SOL    HW1 6539   6.430   1.811   4.779
 1880SOL    HW2 6540   6.558   1.839   4.682
 1881SOL     OW 6541   6.398   1.863   0.911
 1881SOL    HW1 6542   6.437   1.911   0.989
 1881SOL    HW2 6543   6.339   1.789   0.942
 1882SOL     OW 6544   0.903   3.595   6.212
 1882SOL    HW1 6545   0.987   3.541   6.201
 1882SOL    HW2 6546   0.909   3.677   6.155
 1883SOL     OW 6547   6.424   2.074   2.547
 1883SOL    HW1 6548   6.468   2.111   2.629
 1883SOL    HW2 6549   6.492   2.030   2.489
 1884SOL     OW 6550   0.610   1.906   1.655
 1884SOL    HW1 6551   0.551   1.906   1.736
 1884SOL    HW2 6552   0.625   2.000   1.626
 1885SOL     OW 6553   2.073   1.504   5.952
 1885SOL    HW1 6554   2.111   1.463   6.035
 1885SOL    HW2 6555   2.007   1.441   5.911
 1886SOL     OW 6556   1.968   0.182   2.804
 1886SOL    HW1 6557   2.032   0.258   2.797
 1886SOL    HW2 6558   2.011   0.106   2.853
 1887SOL     OW 6559   1.248   6.011   5.855
 1887SOL    HW1 6560   1.322   5.949   5.883
 1887SOL    HW2 6561   1.164   5.987   5.904
 1888SOL     OW 6562   3.050   2.296   0.620
 1888SOL    HW1 6563   3.138   2.255   0.596
 1888SOL    HW2 6564   2.992   2.227   0.662
 1889SOL     OW 6565   1.273   3.540   3.737
 1889SOL    HW1 6566   1.224   3.460   3.771
 1889SOL    HW2 6567   1.370   3.533   3.762
 1890SOL     OW 6568   0.708   5.755   3.957
 1890SOL    HW1 6569   0.722   5.834   4.017
 1890SOL    HW2 6570   0.639   5.695   3.998
 1891SOL     OW 6571   3.964   3.207   1.981
 1891SOL    HW1 6572   4.041   3.266   2.006
 1891SOL    HW2 6573   3.889   3.223   2.044
 1892SOL     OW 6574   0.193   0.101   2.217
 1892SOL    HW1 6575   0.270   0.144   2.168
 1892SOL    HW2 6576   0.194   0.003   2.199
 1893SOL     OW 6577   3.723   3.263   3.027
 1893SOL    HW1 6578   3.759   3.306   2.944
 1893SOL    HW2 6579   3.751   3.167   3.030
 1894SOL     OW 6580   3.478   3.551   4.385
 1894SOL    HW1 6581   3.398   3.518   4.335
 1894SOL    HW2 6582   3.561   3.518   4.341
 1895SOL     OW 6583   4.458   0.472   0.902
 1895SOL    HW1 6584   4.546   0.503   0.867
 1895SOL    HW2 6585   4.402   0.439   0.826
 1896SOL     OW 6586   5.561   1.623   0.949
 1896SOL    HW1 6587   5.537   1.552   0.883
 1896SOL    HW2 6588   5.580   1.709   0.901
 1897SOL     OW 6589   2.110   4.827   3.106
 1897SOL    HW1 6590   2.209   4.818   3.118
 1897SOL    HW2 6591   2.075   4.745   3.059
 1898SOL     OW 6592   1.397   5.297   3.054
 1898SOL    HW1 6593   1.388   5.210   3.006
 1898SOL    HW2 6594   1.404   5.281   3.152
 1899SOL     OW 6595   0.162   0.193   1.849
 1899SOL    HW1 6596   0.098   0.269   1.859
 1899SOL    HW2 6597   0.237   0.204   1.913
 1900SOL     OW 6598   2.901   0.425   0.017
 1900SOL    HW1 6599   2.932   0.486   0.090
 1900SOL    HW2 6600   2.802   0.432   0.007
 1901SOL     OW 6601   2.804   3.608   1.278
 1901SOL    HW1 6602   2.861   3.654   1.210
 1901SOL    HW2 6603   2.762   3.528   1.237
 1902SOL     OW 6604   2.196   6.944   4.494
 1902SOL    HW1 6605   2.240   6.931   4.405
 1902SOL    HW2 6606   2.228   0.007   4.535
 1903SOL     OW 6607   0.671   2.487   3.511
 1903SOL    HW1 6608   0.651   2.418   3.441
 1903SOL    HW2 6609   0.754   2.461   3.560
 1904SOL     OW 6610   5.879   5.578   2.918
 1904SOL    HW1 6611   5.940   5.515   2.870
 1904SOL    HW2 6612   5.912   5.592   3.012
 1905SOL     OW 6613   0.858   0.751   3.846
 1905SOL    HW1 6614   0.782   0.760   3.910
 1905SOL    HW2 6615   0.921   0.680   3.879
 1906SOL     OW 6616   2.290   0.284   6.040
 1906SOL    HW1 6617   2.380   0.260   6.078
 1906SOL    HW2 6618   2.265   0.376   6.069
 1907SOL     OW 6619   5.576   2.794   0.089
 1907SOL    HW1 6620   5.517   2.777   0.010
 1907SOL    HW2 6621   5.619   2.709   0.117
 1908SOL     OW 6622   3.873   0.106   0.303
 1908SOL    HW1 6623   3.954   0.130   0.250
 1908SOL    HW2 6624   3.887   0.017   0.347
 1909SOL     OW 6625   0.021   4.046   4.766
 1909SOL    HW1 6626   6.989   4.067   4.685
 1909SOL    HW2 6627   6.983   4.013   4.839
 1910SOL     OW 6628   6.215   5.670   6.018
 1910SOL    HW1 6629   6.269   5.732   5.960
 1910SOL    HW2 6630   6.270   5.643   6.097
 1911SOL     OW 6631   0.201   4.854   4.252
 1911SOL    HW1 6632   0.193   4.773   4.194
 1911SOL    HW2 6633   0.298   4.873   4.271
 1912SOL     OW 6634   2.779   4.774   3.006
 1912SOL    HW1 6635   2.758   4.716   2.927
 1912SOL    HW2 6636   2.774   4.870   2.979
 1913SOL     OW 6637   2.711   5.052   4.740
 1913SOL    HW1 6638   2.675   5.008   4.822
 1913SOL    HW2 6639   2.810   5.063   4.750
 1914SOL     OW 6640   2.549   4.589   6.031
 1914SOL    HW1 6641   2.604   4.515   6.068
 1914SOL    HW2 6642   2.524   4.652   6.105
 1915SOL     OW 6643   5.249   2.815   6.092
 1915SOL    HW1 6644   5.325   2.781   6.036
 1915SOL    HW2 6645   5.264   2.788   6.187
 1916SOL     OW 6646   3.949   0.156   1.602
 1916SOL    HW1 6647   3.885   0.148   1.679
 1916SOL    HW2 6648   3.902   0.134   1.517
 1917SOL     OW 6649   2.529   4.128   0.941
 1917SOL    HW1 6650   2.457   4.076   0.894
 1917SOL    HW2 6651   2.556   4.080   1.024
 1918SOL     OW 6652   0.530   1.372   4.991
 1918SOL    HW1 6653   0.575   1.461   5.000
 1918SOL    HW2 6654   0.433   1.386   4.969
 1919SOL     OW 6655   1.294   2.404   1.804
 1919SOL    HW1 6656   1.285   2.306   1.782
 1919SOL    HW2 6657   1.355   2.414   1.882
 1920SOL     OW 6658   5.271   2.322   1.499
 1920SOL    HW1 6659   5.250   2.252   1.568
 1920SOL    HW2 6660   5.199   2.391   1.499
 1921SOL     OW 6661   1.376   2.858   0.274
 1921SOL    HW1 6662   1.350   2.792   0.205
 1921SOL    HW2 6663   1.418   2.811   0.352
 1922SOL     OW 6664   3.484   3.400   2.039
 1922SOL    HW1 6665   3.533   3.461   1.978
 1922SOL    HW2 6666   3.517   3.307   2.028
 1923SOL     OW 6667   4.446   0.645   5.863
 1923SOL    HW1 6668   4.461   0.547   5.855
 1923SOL    HW2 6669   4.423   0.682   5.773
 1924SOL     OW 6670   4.593   6.918   1.058
 1924SOL    HW1 6671   4.520   6.985   1.044
 1924SOL    HW2 6672   4.658   6.953   1.126
 1925SOL     OW 6673   0.956   4.484   0.706
 1925SOL    HW1 6674   0.982   4.580   0.710
 1925SOL    HW2 6675   0.856   4.477   0.705
 1926SOL     OW 6676   4.023   0.440   1.594
 1926SOL    HW1 6677   3.938   0.491   1.597
 1926SOL    HW2 6678   4.003   0.343   1.579
 1927SOL     OW 6679   2.019   4.772   1.677
 1927SOL    HW1 6680   2.087   4.818   1.620
 1927SOL    HW2 6681   2.003   4.826   1.759
 1928SOL     OW 6682   4.593   4.376   3.572
 1928SOL    HW1 6683   4.550   4.405   3.657
 1928SOL    HW2 6684   4.591   4.451   3.506
 1929SOL     OW 6685   3.152   0.698   2.965
 1929SOL    HW1 6686   3.127   0.618   2.910
 1929SOL    HW2 6687   3.238   0.735   2.931
 1930SOL     OW 6688   4.979   3.549   6.711
 1930SOL    HW1 6689   5.061   3.606   6.706
 1930SOL    HW2 6690   4.960   3.510   6.621
 1931SOL     OW 6691   1.059   1.243   5.632
 1931SOL    HW1 6692   1.064   1.160   5.576
 1931SOL    HW2 6693   0.991   1.305   5.595
 1932SOL     OW 6694   4.504   2.049   2.928
 1932SOL    HW1 6695   4.535   2.142   2.950
 1932SOL    HW2 6696   4.445   2.051   2.848
 1933SOL     OW 6697   0.763   1.592   0.449
 1933SOL    HW1 6698   0.778   1.493   0.447
 1933SOL    HW2 6699   0.810   1.631   0.528
 1934SOL     OW 6700   0.025   0.178   5.686
 1934SOL    HW1 6701   0.036   0.190   5.587
 1934SOL    HW2 6702   0.111   0.143   5.724
 1935SOL     OW 6703   5.992   4.780   3.696
 1935SOL    HW1 6704   5.941   4.762   3.780
 1935SOL    HW2 6705   5.936   4.835   3.634
 1936SOL     OW 6706   5.270   3.217   4.781
 1936SOL    HW1 6707   5.355   3.255   4.817
 1936SOL    HW2 6708   5.234   3.275   4.709
 1937SOL     OW 6709   4.966   4.788   6.646
 1937SOL    HW1 6710   5.006   4.856   6.708
 1937SOL    HW2 6711   5.036   4.757   6.581
 1938SOL     OW 6712   1.419   2.651   6.762
 1938SOL    HW1 6713   1.454   2.620   6.674
 1938SOL    HW2 6714   1.496   2.670   6.823
 1939SOL     OW 6715   1.148   6.634   4.928
 1939SOL    HW1 6716   1.081   6.707   4.942
 1939SOL    HW2 6717   1.100   6.546   4.923
 1940SOL     OW 6718   6.540   4.886   1.432
 1940SOL    HW1 6719   6.624   4.880   1.379
 1940SOL    HW2 6720   6.483   4.806   1.413
 1941SOL     OW 6721   0.745   2.947   4.126
 1941SOL    HW1 6722   0.831   2.928   4.078
 1941SOL    HW2 6723   0.672   2.963   4.059
 1942SOL     OW 6724   5.721   3.781   2.270
 1942SOL    HW1 6725   5.739   3.755   2.365
 1942SOL    HW2 6726   5.757   3.873   2.253
 1943SOL     OW 6727   0.955   1.106   2.178
 1943SOL    HW1 6728   0.993   1.035   2.120
 1943SOL    HW2 6729   0.905   1.172   2.121
 1944SOL     OW 6730   6.795   2.899   1.262
 1944SOL    HW1 6731   6.759   2.928   1.174
 1944SOL    HW2 6732   6.755   2.811   1.287
 1945SOL     OW 6733   4.471   6.831   1.376
 1945SOL    HW1 6734   4.428   6.798   1.292
 1945SOL    HW2 6735   4.522   6.915   1.357
 1946SOL     OW 6736   6.069   6.377   1.526
 1946SOL    HW1 6737   6.049   6.405   1.620
 1946SOL    HW2 6738   6.067   6.456   1.466
 1947SOL     OW 6739   5.441   4.404   3.066
 1947SOL    HW1 6740   5.428   4.500   3.043
 1947SOL    HW2 6741   5.405   4.347   2.993
 1948SOL     OW 6742   5.100   3.188   2.853
 1948SOL    HW1 6743   5.157   3.139   2.918
 1948SOL    HW2 6744   5.140   3.277   2.833
 1949SOL     OW 6745   3.405   5.171   6.448
 1949SOL    HW1 6746   3.464   5.092   6.464
 1949SOL    HW2 6747   3.430   5.214   6.361
 1950SOL     OW 6748   3.745   4.092   4.156
 1950SOL    HW1 6749   3.717   4.132   4.243
 1950SOL    HW2 6750   3.821   4.028   4.171
 1951SOL     OW 6751   6.801   4.610   5.524
 1951SOL    HW1 6752   6.729   4.679   5.529
 1951SOL    HW2 6753   6.777   4.541   5.456
 1952SOL     OW 6754   5.533   4.273   6.903
 1952SOL    HW1 6755   5.550   4.222   6.819
 1952SOL    HW2 6756   5.465   4.344   6.886
 1953SOL     OW 6757   0.757   1.514   6.349
 1953SOL    HW1 6758   0.809   1.561   6.421
 1953SOL    HW2 6759   0.737   1.421   6.378
 1954SOL     OW 6760   3.663   0.624   1.364
 1954SOL    HW1 6761   3.728   0.553   1.338
 1954SOL    HW2 6762   3.710   0.694   1.417
 1955SOL     OW 6763   0.711   1.514   1.842
 1955SOL    HW1 6764   0.767   1.432   1.828
 1955SOL    HW2 6765   0.621   1.486   1.875
 1956SOL     OW 6766   5.858   0.771   2.182
 1956SOL    HW1 6767   5.942   0.723   2.205
 1956SOL    HW2 6768   5.839   0.840   2.252
 1957SOL     OW 6769   5.602   2.387   4.372
 1957SOL    HW1 6770   5.623   2.470   4.424
 1957SOL    HW2 6771   5.567   2.411   4.282
 1958SOL     OW 6772   4.579   1.890   1.016
 1958SOL    HW1 6773   4.479   1.890   1.014
 1958SOL    HW2 6774   4.614   1.855   0.929
 1959SOL     OW 6775   0.282   0.173   4.496
 1959SOL    HW1 6776   0.192   0.215   4.496
 1959SOL    HW2 6777   0.272   0.073   4.496
 1960SOL     OW 6778   5.770   4.112   3.231
 1960SOL    HW1 6779   5.713   4.133   3.152
 1960SOL    HW2 6780   5.846   4.053   3.202
 1961SOL     OW 6781   6.678   3.997   4.718
 1961SOL    HW1 6782   6.589   3.988   4.673
 1961SOL    HW2 6783   6.729   4.072   4.676
 1962SOL     OW 6784   0.899   0.313   2.715
 1962SOL    HW1 6785   0.989   0.294   2.677
 1962SOL    HW2 6786   0.839   0.234   2.701
 1963SOL     OW 6787   0.444   1.893   2.259
 1963SOL    HW1 6788   0.473   1.987   2.277
 1963SOL    HW2 6789   0.346   1.891   2.238
 1964SOL     OW 6790   5.312   4.451   1.597
 1964SOL    HW1 6791   5.371   4.377   1.565
 1964SOL    HW2 6792   5.228   4.412   1.636
 1965SOL     OW 6793   0.730   4.337   3.794
 1965SOL    HW1 6794   0.796   4.372   3.859
 1965SOL    HW2 6795   0.716   4.404   3.721
 1966SOL     OW 6796   1.856   5.078   0.252
 1966SOL    HW1 6797   1.858   5.029   0.340
 1966SOL    HW2 6798   1.811   5.021   0.183
 1967SOL     OW 6799   5.623   2.814   3.641
 1967SOL    HW1 6800   5.535   2.860   3.632
 1967SOL    HW2 6801   5.694   2.881   3.659
 1968SOL     OW 6802   2.337   1.652   5.224
 1968SOL    HW1 6803   2.253   1.684   5.267
 1968SOL    HW2 6804   2.349   1.554   5.243
 1969SOL     OW 6805   3.146   6.194   0.785
 1969SOL    HW1 6806   3.157   6.104   0.742
 1969SOL    HW2 6807   3.049   6.212   0.800
 1970SOL     OW 6808   6.336   5.568   5.265
 1970SOL    HW1 6809   6.259   5.550   5.326
 1970SOL    HW2 6810   6.307   5.627   5.190
 1971SOL     OW 6811   1.140   6.686   5.429
 1971SOL    HW1 6812   1.099   6.609   5.380
 1971SOL    HW2 6813   1.225   6.714   5.383
 1972SOL     OW 6814   5.859   2.661   2.226
 1972SOL    HW1 6815   5.884   2.758   2.217
 1972SOL    HW2 6816   5.943   2.606   2.225
 1973SOL     OW 6817   1.838   4.486   0.397
 1973SOL    HW1 6818   1.779   4.506   0.318
 1973SOL    HW2 6819   1.933   4.508   0.374
 1974SOL     OW 6820   3.600   6.227   4.652
 1974SOL    HW1 6821   3.524   6.178   4.695
 1974SOL    HW2 6822   3.579   6.243   4.556
 1975SOL     OW 6823   1.388   2.977   2.840
 1975SOL    HW1 6824   1.441   2.915   2.783
 1975SOL    HW2 6825   1.447   3.016   2.911
 1976SOL     OW 6826   0.243   0.030   6.229
 1976SOL    HW1 6827   0.189   6.990   6.174
 1976SOL    HW2 6828   0.307   7.001   6.285
 1977SOL     OW 6829   1.935   4.202   6.009
 1977SOL    HW1 6830   2.029   4.207   5.974
 1977SOL    HW2 6831   1.877   4.154   5.942
 1978SOL     OW 6832   2.667   6.945   1.981
 1978SOL    HW1 6833   2.705   6.862   1.938
 1978SOL    HW2 6834   2.624   6.920   2.068
 1979SOL     OW 6835   6.923   5.324   6.703
 1979SOL    HW1 6836   6.972   5.242   6.731
 1979SOL    HW2 6837   6.826   5.314   6.723
 1980SOL     OW 6838   3.063   1.686   1.317
 1980SOL    HW1 6839   3.018   1.764   1.360
 1980SOL    HW2 6840   2.996   1.613   1.303
 1981SOL     OW 6841   4.441   2.253   3.271
 1981SOL    HW1 6842   4.421   2.303   3.355
 1981SOL    HW2 6843   4.440   2.155   3.290
 1982SOL     OW 6844   6.887   2.608   4.344
 1982SOL    HW1 6845   6.957   2.566   4.402
 1982SOL    HW2 6846   6.811   2.544   4.331
 1983SOL     OW 6847   0.343   0.158   0.943
 1983SOL    HW1 6848   0.406   0.158   1.021
 1983SOL    HW2 6849   0.329   0.252   0.912
 1984SOL     OW 6850   5.748   3.143   5.545
 1984SOL    HW1 6851   5.769   3.113   5.638
 1984SOL    HW2 6852   5.802   3.090   5.480
 1985SOL     OW 6853   6.393   3.979   2.040
 1985SOL    HW1 6854   6.331   3.929   1.979
 1985SOL    HW2 6855   6.428   3.917   2.110
 1986SOL     OW 6856   3.142   2.125   1.004
 1986SOL    HW1 6857   3.239   2.125   0.978
 1986SOL    HW2 6858   3.111   2.031   1.016
 1987SOL     OW 6859   2.192   0.001   2.606
 1987SOL    HW1 6860   2.281   0.004   2.560
 1987SOL    HW2 6861   2.207   0.000   2.705
 1988SOL     OW 6862   0.265   1.661   1.187
 1988SOL    HW1 6863   0.166   1.655   1.173
 1988SOL    HW2 6864   0.291   1.603   1.264
 1989SOL     OW 6865   3.397   4.954   4.751
 1989SOL    HW1 6866   3.332   5.015   4.795
 1989SOL    HW2 6867   3.350   4.898   4.683
 1990SOL     OW 6868   4.178   0.168   0.768
 1990SOL    HW1 6869   4.103   0.113   0.803
 1990SOL    HW2 6870   4.148   0.217   0.687
 1991SOL     OW 6871   3.357   5.221   0.418
 1991SOL    HW1 6872   3.443   5.246   0.374
 1991SOL    HW2 6873   3.313   5.302   0.456
 1992SOL     OW 6874   0.946   5.816   1.298
 1992SOL    HW1 6875   1.035   5.770   1.288
 1992SOL    HW2 6876   0.946   5.900   1.245
 1993SOL     OW 6877   2.037   3.429   4.321
 1993SOL    HW1 6878   2.079   3.516   4.348
 1993SOL    HW2 6879   2.008   3.434   4.226
 1994SOL     OW 6880   3.315   3.369   0.569
 1994SOL    HW1 6881   3.292   3.273   0.560
 1994SOL    HW2 6882   3.239   3.418   0.612
 1995SOL     OW 6883   5.701   2.649   4.398
 1995SOL    HW1 6884   5.704   2.691   4.307
 1995SOL    HW2 6885   5.788   2.663   4.444
 1996SOL     OW 6886   3.812   1.645   0.466
 1996SOL    HW1 6887   3.894   1.655   0.409
 1996SOL    HW2 6888   3.795   1.548   0.483
 1997SOL     OW 6889   4.036   1.190   3.526
 1997SOL    HW1 6890   4.025   1.257   3.452
 1997SOL    HW2 6891   4.129   1.155   3.525
 1998SOL     OW 6892   1.774   3.500   1.214
 1998SOL    HW1 6893   1.768   3.586   1.163
 1998SOL    HW2 6894   1.870   3.482   1.236
 1999SOL     OW 6895   1.313   6.878   5.060
 1999SOL    HW1 6896   1.331   6.948   4.991
 1999SOL    HW2 6897   1.341   6.789   5.025
 2000SOL     OW 6898   3.663   4.196   6.122
 2000SOL    HW1 6899   3.636   4.138   6.045
 2000SOL    HW2 6900   3.643   4.148   6.208
 2001SOL     OW 6901   2.488   1.403   6.400
 2001SOL    HW1 6902   2.577   1.423   6.360
 2001SOL    HW2 6903   2.442   1.489   6.423
 2002SOL     OW 6904   0.169   4.841   1.090
 2002SOL    HW1 6905   0.211   4.906   1.153
 2002SOL    HW2 6906   0.075   4.870   1.071
 2003SOL     OW 6907   6.855   5.415   2.294
 2003SOL    HW1 6908   6.911   5.493   2.266
 2003SOL    HW2 6909   6.759   5.438   2.283
 2004SOL     OW 6910   3.635   0.344   3.386
 2004SOL    HW1 6911   3.733   0.344   3.365
 2004SOL    HW2 6912   3.622   0.372   3.481
 2005SOL     OW 6913   1.285   6.241   0.968
 2005SOL    HW1 6914   1.259   6.180   1.043
 2005SOL    HW2 6915   1.235   6.214   0.885
 2006SOL     OW 6916   5.364   0.041   2.724
 2006SOL    HW1 6917   5.438   0.020   2.788
 2006SOL    HW2 6918   5.287   7.002   2.742
 2007SOL     OW 6919   5.839   4.769   0.282
 2007SOL    HW1 6920   5.816   4.832   0.356
 2007SOL    HW2 6921   5.762   4.763   0.218
 2008SOL     OW 6922   2.064   3.623   3.785
 2008SOL    HW1 6923   2.120   3.543   3.767
 2008SOL    HW2 6924   1.975   3.613   3.741
 2009SOL     OW 6925   6.361   6.917   1.794
 2009SOL    HW1 6926   6.315   6.862   1.724
 2009SOL    HW2 6927   6.327   6.892   1.884
 2010SOL     OW 6928   1.454   1.957   1.665
 2010SOL    HW1 6929   1.404   1.873   1.683
 2010SOL    HW2 6930   1.398   2.017   1.607
 2011SOL     OW 6931   0.746   6.293   5.703
 2011SOL    HW1 6932   0.783   6.224   5.766
 2011SOL    HW2 6933   0.740   6.381   5.750
 2012SOL     OW 6934   1.284   3.214   2.283
 2012SOL    HW1 6935   1.248   3.126   2.316
 2012SOL    HW2 6936   1.304   3.274   2.360
 2013SOL     OW 6937   0.146   3.160   2.946
 2013SOL    HW1 6938   0.098   3.222   3.008
 2013SOL    HW2 6939   0.097   3.073   2.942
 2014SOL     OW 6940   3.168   0.753   4.143
 2014SOL    HW1 6941   3.086   0.805   4.119
 2014SOL    HW2 6942   3.164   0.662   4.102
 2015SOL     OW 6943   4.246   1.149   1.521
 2015SOL    HW1 6944   4.248   1.072   1.584
 2015SOL    HW2 6945   4.254   1.235   1.572
 2016SOL     OW 6946   1.826   7.011   5.646
 2016SOL    HW1 6947   1.803   6.914   5.643
 2016SOL    HW2 6948   1.763   0.036   5.708
 2017SOL     OW 6949   3.402   6.556   2.747
 2017SOL    HW1 6950   3.482   6.565   2.688
 2017SOL    HW2 6951   3.402   6.629   2.815
 2018SOL     OW 6952   0.745   1.016   3.497
 2018SOL    HW1 6953   0.804   1.031   3.576
 2018SOL    HW2 6954   0.798   1.029   3.413
 2019SOL     OW 6955   6.085   5.025   6.523
 2019SOL    HW1 6956   6.154   5.029   6.596
 2019SOL    HW2 6957   6.057   4.930   6.510
 2020SOL     OW 6958   2.518   6.170   6.100
 2020SOL    HW1 6959   2.581   6.168   6.177
 2020SOL    HW2 6960   2.491   6.265   6.081
 2021SOL     OW 6961   6.576   5.782   3.935
 2021SOL    HW1 6962   6.552   5.864   3.987
 2021SOL    HW2 6963   6.494   5.735   3.905
 2022SOL     OW 6964   2.087   3.652   5.322
 2022SOL    HW1 6965   2.096   3.749   5.343
 2022SOL    HW2 6966   2.009   3.638   5.261
 2023SOL     OW 6967   0.334   0.091   6.973
 2023SOL    HW1 6968   0.360   0.015   6.913
 2023SOL    HW2 6969   0.414   0.146   6.995
 2024SOL     OW 6970   0.927   5.882   4.744
 2024SOL    HW1 6971   0.930   5.973   4.786
 2024SOL    HW2 6972   0.875   5.888   4.659
 2025SOL     OW 6973   2.246   0.597   4.774
 2025SOL    HW1 6974   2.338   0.614   4.737
 2025SOL    HW2 6975   2.238   0.636   4.865
 2026SOL     OW 6976   6.349   0.800   5.747
 2026SOL    HW1 6977   6.326   0.716   5.796
 2026SOL    HW2 6978   6.265   0.844   5.714
 2027SOL     OW 6979   0.491   6.020   3.084
 2027SOL    HW1 6980   0.393   6.036   3.085
 2027SOL    HW2 6981   0.523   6.005   3.178
 2028SOL     OW 6982   4.109   5.286   3.757
 2028SOL    HW1 6983   4.194   5.234   3.764
 2028SOL    HW2 6984   4.075   5.283   3.663
 2029SOL     OW 6985   5.806   2.408   6.311
 2029SOL    HW1 6986   5.879   2.454   6.361
 2029SOL    HW2 6987   5.750   2.475   6.263
 2030SOL     OW 6988   2.468   6.256   3.087
 2030SOL    HW1 6989   2.441   6.290   2.997
 2030SOL    HW2 6990   2.542   6.313   3.123
 2031SOL     OW 6991   6.650   5.524   3.763
 2031SOL    HW1 6992   6.658   5.521   3.862
 2031SOL    HW2 6993   6.712   5.594   3.726
 2032SOL     OW 6994   3.018   2.174   5.509
 2032SOL    HW1 6995   3.015   2.273   5.519
 2032SOL    HW2 6996   2.970   2.148   5.425
 2033SOL     OW 6997   1.825   1.884   0.648
 2033SOL    HW1 6998   1.890   1.927   0.586
 2033SOL    HW2 6999   1.845   1.786   0.654
 2034SOL     OW 7000   0.126   4.544   5.692
 2034SOL    HW1 7001   0.121   4.537   5.593
 2034SOL    HW2 7002   0.050   4.601   5.725
 2035SOL     OW 7003   5.717   7.001   2.380
 2035SOL    HW1 7004   5.810   7.004   2.415
 2035SOL    HW2 7005   5.706   0.044   2.305
 2036SOL     OW 7006   1.458   4.299   1.428
 2036SOL    HW1 7007   1.426   4.393   1.442
 2036SOL    HW2 7008   1.550   4.300   1.390
 2037SOL     OW 7009   0.342   3.204   6.534
 2037SOL    HW1 7010   0.431   3.246   6.550
 2037SOL    HW2 7011   0.281   3.271   6.491
 2038SOL     OW 7012   1.766   1.452   6.806
 2038SOL    HW1 7013   1.851   1.498   6.780
 2038SOL    HW2 7014   1.768   1.431   6.903
 2039SOL     OW 7015   6.568   6.010   2.622
 2039SOL    HW1 7016   6.557   6.075   2.697
 2039SOL    HW2 7017   6.595   6.060   2.539
 2040SOL     OW 7018   1.750   2.654   0.152
 2040SOL    HW1 7019   1.724   2.672   0.247
 2040SOL    HW2 7020   1.711   2.566   0.123
 2041SOL     OW 7021   1.952   0.507   6.269
 2041SOL    HW1 7022   1.894   0.425   6.268
 2041SOL    HW2 7023   1.903   0.582   6.225
 2042SOL     OW 7024   4.983   1.460   5.526
 2042SOL    HW1 7025   4.964   1.441   5.429
 2042SOL    HW2 7026   4.997   1.558   5.538
 2043SOL     OW 7027   6.402   3.690   0.717
 2043SOL    HW1 7028   6.431   3.737   0.634
 2043SOL    HW2 7029   6.308   3.717   0.740
 2044SOL     OW 7030   4.377   0.412   0.642
 2044SOL    HW1 7031   4.280   0.431   0.626
 2044SOL    HW2 7032   4.400   0.321   0.606
 2045SOL     OW 7033   2.054   6.530   6.569
 2045SOL    HW1 7034   1.985   6.563   6.634
 2045SOL    HW2 7035   2.014   6.458   6.513
 2046SOL     OW 7036   1.024   2.292   4.817
 2046SOL    HW1 7037   1.064   2.279   4.726
 2046SOL    HW2 7038   1.096   2.295   4.886
 2047SOL     OW 7039   6.841   0.627   0.179
 2047SOL    HW1 7040   6.742   0.636   0.186
 2047SOL    HW2 7041   6.883   0.718   0.181
 2048SOL     OW 7042   0.825   1.983   4.659
 2048SOL    HW1 7043   0.845   1.951   4.567
 2048SOL    HW2 7044   0.729   1.963   4.681
 2049SOL     OW 7045   4.821   2.099   5.004
 2049SOL    HW1 7046   4.916   2.104   4.973
 2049SOL    HW2 7047   4.795   2.186   5.046
 2050SOL     OW 7048   0.584   0.984   3.914
 2050SOL    HW1 7049   0.600   0.904   3.972
 2050SOL    HW2 7050   0.508   1.037   3.950
 2051SOL     OW 7051   3.293   5.990   0.619
 2051SOL    HW1 7052   3.368   5.928   0.643
 2051SOL    HW2 7053   3.210   5.937   0.600
 2052SOL     OW 7054   1.814   4.060   6.581
 2052SOL    HW1 7055   1.716   4.068   6.565
 2052SOL    HW2 7056   1.864   4.116   6.513
 2053SOL     OW 7057   1.271   5.407   4.015
 2053SOL    HW1 7058   1.339   5.446   4.078
 2053SOL    HW2 7059   1.229   5.326   4.058
 2054SOL     OW 7060   3.390   3.182   3.617
 2054SOL    HW1 7061   3.467   3.220   3.667
 2054SOL    HW2 7062   3.366   3.092   3.654
 2055SOL     OW 7063   2.901   1.926   5.945
 2055SOL    HW1 7064   2.874   1.939   5.850
 2055SOL    HW2 7065   2.965   1.998   5.972
 2056SOL     OW 7066   3.987   4.832   1.140
 2056SOL    HW1 7067   4.019   4.811   1.048
 2056SOL    HW2 7068   3.900   4.786   1.156
 2057SOL     OW 7069   6.159   2.260   4.269
 2057SOL    HW1 7070   6.060   2.267   4.278
 2057SOL    HW2 7071   6.183   2.172   4.229
 2058SOL     OW 7072   0.200   5.508   2.959
 2058SOL    HW1 7073   0.211   5.589   3.017
 2058SOL    HW2 7074   0.123   5.522   2.897
 2059SOL     OW 7075   1.572   0.173   6.458
 2059SOL    HW1 7076   1.573   0.101   6.528
 2059SOL    HW2 7077   1.511   0.247   6.487
 2060SOL     OW 7078   1.261   3.388   6.679
 2060SOL    HW1 7079   1.229   3.308   6.629
 2060SOL    HW2 7080   1.284   3.362   6.773
 2061SOL     OW 7081   2.075   2.107   2.650
 2061SOL    HW1 7082   1.995   2.094   2.591
 2061SOL    HW2 7083   2.057   2.182   2.714
 2062SOL     OW 7084   6.678   4.939   4.506
 2062SOL    HW1 7085   6.705   5.024   4.461
 2062SOL    HW2 7086   6.741   4.920   4.582
 2063SOL     OW 7087   0.692   1.023   4.682
 2063SOL    HW1 7088   0.743   0.972   4.751
 2063SOL    HW2 7089   0.715   0.988   4.591
 2064SOL     OW 7090   0.776   3.203   3.619
 2064SOL    HW1 7091   0.798   3.107   3.604
 2064SOL    HW2 7092   0.717   3.237   3.545
 2065SOL     OW 7093   4.290   3.051   5.828
 2065SOL    HW1 7094   4.374   3.013   5.865
 2065SOL    HW2 7095   4.273   3.012   5.737
 2066SOL     OW 7096   6.488   3.678   4.975
 2066SOL    HW1 7097   6.409   3.616   4.969
 2066SOL    HW2 7098   6.569   3.626   5.000
 2067SOL     OW 7099   6.512   5.308   1.072
 2067SOL    HW1 7100   6.415   5.324   1.093
 2067SOL    HW2 7101   6.541   5.371   1.000
 2068SOL     OW 7102   3.678   0.536   4.936
 2068SOL    HW1 7103   3.621   0.473   4.883
 2068SOL    HW2 7104   3.740   0.585   4.874
 2069SOL     OW 7105   0.190   2.453   3.783
 2069SOL    HW1 7106   0.224   2.475   3.875
 2069SOL    HW2 7107   0.265   2.462   3.717
 2070SOL     OW 7108   0.677   4.370   0.673
 2070SOL    HW1 7109   0.674   4.280   0.716
 2070SOL    HW2 7110   0.633   4.437   0.733
 2071SOL     OW 7111   0.029   1.638   5.483
 2071SOL    HW1 7112   6.984   1.679   5.544
 2071SOL    HW2 7113   0.112   1.693   5.485
 2072SOL     OW 7114   4.162   4.244   5.877
 2072SOL    HW1 7115   4.186   4.171   5.813
 2072SOL    HW2 7116   4.231   4.315   5.874
 2073SOL     OW 7117   3.107   5.879   6.977
 2073SOL    HW1 7118   3.012   5.892   6.947
 2073SOL    HW2 7119   3.155   5.967   6.975
 2074SOL     OW 7120   0.827   3.760   5.537
 2074SOL    HW1 7121   0.771   3.686   5.500
 2074SOL    HW2 7122   0.771   3.817   5.598
 2075SOL     OW 7123   6.650   1.576   1.558
 2075SOL    HW1 7124   6.583   1.615   1.494
 2075SOL    HW2 7125   6.603   1.517   1.623
 2076SOL     OW 7126   5.718   6.897   4.861
 2076SOL    HW1 7127   5.727   6.997   4.856
 2076SOL    HW2 7128   5.708   6.860   4.768
 2077SOL     OW 7129   6.699   3.997   0.536
 2077SOL    HW1 7130   6.643   3.916   0.524
 2077SOL    HW2 7131   6.788   3.971   0.574
 2078SOL     OW 7132   0.508   3.043   6.135
 2078SOL    HW1 7133   0.513   2.977   6.209
 2078SOL    HW2 7134   0.455   3.004   6.059
 2079SOL     OW 7135   4.799   2.275   2.577
 2079SOL    HW1 7136   4.751   2.192   2.604
 2079SOL    HW2 7137   4.759   2.354   2.624
 2080SOL     OW 7138   2.570   2.898   6.136
 2080SOL    HW1 7139   2.623   2.859   6.211
 2080SOL    HW2 7140   2.623   2.970   6.091
 2081SOL     OW 7141   6.029   6.794   2.878
 2081SOL    HW1 7142   6.092   6.819   2.804
 2081SOL    HW2 7143   6.046   6.699   2.906
 2082SOL     OW 7144   6.871   6.256   3.409
 2082SOL    HW1 7145   6.882   6.188   3.481
 2082SOL    HW2 7146   6.956   6.308   3.398
 2083SOL     OW 7147   0.328   6.310   3.766
 2083SOL    HW1 7148   0.337   6.405   3.736
 2083SOL    HW2 7149   0.247   6.301   3.825
 2084SOL     OW 7150   6.834   2.081   1.668
 2084SOL    HW1 7151   6.848   2.111   1.573
 2084SOL    HW2 7152   6.831   1.981   1.671
 2085SOL     OW 7153   4.976   5.574   0.993
 2085SOL    HW1 7154   4.905   5.573   0.922
 2085SOL    HW2 7155   5.058   5.618   0.957
 2086SOL     OW 7156   4.621   0.387   6.802
 2086SOL    HW1 7157   4.648   0.473   6.847
 2086SOL    HW2 7158   4.532   0.358   6.837
 2087SOL     OW 7159   4.253   2.238   6.398
 2087SOL    HW1 7160   4.303   2.323   6.415
 2087SOL    HW2 7161   4.305   2.161   6.435
 2088SOL     OW 7162   0.639   5.558   5.656
 2088SOL    HW1 7163   0.726   5.559   5.607
 2088SOL    HW2 7164   0.655   5.581   5.752
 2089SOL     OW 7165   2.856   3.674   0.101
 2089SOL    HW1 7166   2.903   3.743   0.047
 2089SOL    HW2 7167   2.907   3.655   0.184
 2090SOL     OW 7168   4.695   3.409   5.351
 2090SOL    HW1 7169   4.692   3.476   5.277
 2090SOL    HW2 7170   4.782   3.359   5.348
 2091SOL     OW 7171   5.437   5.895   1.718
 2091SOL    HW1 7172   5.484   5.820   1.764
 2091SOL    HW2 7173   5.503   5.946   1.662
 2092SOL     OW 7174   4.669   3.633   1.607
 2092SOL    HW1 7175   4.574   3.659   1.623
 2092SOL    HW2 7176   4.672   3.548   1.555
 2093SOL     OW 7177   3.960   1.515   2.604
 2093SOL    HW1 7178   3.918   1.546   2.519
 2093SOL    HW2 7179   4.057   1.536   2.603
 2094SOL     OW 7180   5.549   2.056   6.581
 2094SOL    HW1 7181   5.620   2.023   6.518
 2094SOL    HW2 7182   5.568   2.022   6.673
 2095SOL     OW 7183   5.000   6.803   3.043
 2095SOL    HW1 7184   4.990   6.752   3.129
 2095SOL    HW2 7185   4.934   6.878   3.042
 2096SOL     OW 7186   4.975   6.822   2.366
 2096SOL    HW1 7187   4.993   6.889   2.439
 2096SOL    HW2 7188   4.984   6.867   2.277
 2097SOL     OW 7189   1.054   5.294   6.175
 2097SOL    HW1 7190   1.076   5.249   6.261
 2097SOL    HW2 7191   1.124   5.364   6.155
 2098SOL     OW 7192   3.081   5.917   3.273
 2098SOL    HW1 7193   3.040   5.834   3.311
 2098SOL    HW2 7194   3.149   5.892   3.205
 2099SOL     OW 7195   4.578   0.926   6.785
 2099SOL    HW1 7196   4.670   0.894   6.807
 2099SOL    HW2 7197   4.574   1.026   6.797
 2100SOL     OW 7198   5.560   0.135   1.229
 2100SOL    HW1 7199   5.547   0.045   1.186
 2100SOL    HW2 7200   5.569   0.123   1.328
 2101SOL     OW 7201   0.132   6.420   1.891
 2101SOL    HW1 7202   0.214   6.403   1.946
 2101SOL    HW2 7203   0.102   6.514   1.904
 2102SOL     OW 7204   3.566   2.831   0.463
 2102SOL    HW1 7205   3.628   2.883   0.523
 2102SOL    HW2 7206   3.603   2.739   0.450
 2103SOL     OW 7207   3.009   5.901   0.597
 2103SOL    HW1 7208   2.973   5.919   0.688
 2103SOL    HW2 7209   2.987   5.808   0.569
 2104SOL     OW 7210   1.253   4.808   3.241
 2104SOL    HW1 7211   1.315   4.850   3.174
 2104SOL    HW2 7212   1.307   4.758   3.308
 2105SOL     OW 7213   6.627   4.257   5.623
 2105SOL    HW1 7214   6.633   4.216   5.532
 2105SOL    HW2 7215   6.571   4.199   5.682
 2106SOL     OW 7216   4.589   3.946   1.296
 2106SOL    HW1 7217   4.491   3.929   1.297
 2106SOL    HW2 7218   4.611   4.021   1.359
 2107SOL     OW 7219   5.058   4.303   5.774
 2107SOL    HW1 7220   5.064   4.206   5.751
 2107SOL    HW2 7221   4.965   4.326   5.802
 2108SOL     OW 7222   5.591   6.904   5.687
 2108SOL    HW1 7223   5.498   6.937   5.704
 2108SOL    HW2 7224   5.646   6.978   5.647
 2109SOL     OW 7225   2.896   6.592   3.539
 2109SOL    HW1 7226   2.904   6.498   3.571
 2109SOL    HW2 7227   2.854   6.593   3.448
 2110SOL     OW 7228   4.000   0.369   0.046
 2110SOL    HW1 7229   3.966   0.462   0.059
 2110SOL    HW2 7230   3.926   0.304   0.057
 2111SOL     OW 7231   1.326   2.487   5.681
 2111SOL    HW1 7232   1.310   2.526   5.591
 2111SOL    HW2 7233   1.389   2.410   5.674
 2112SOL     OW 7234   0.247   0.542   6.648
 2112SOL    HW1 7235   0.212   0.480   6.577
 2112SOL    HW2 7236   0.303   0.490   6.713
 2113SOL     OW 7237   0.888   0.743   4.568
 2113SOL    HW1 7238   0.888   0.828   4.516
 2113SOL    HW2 7239   0.940   0.755   4.652
 2114SOL     OW 7240   1.622   1.758   6.134
 2114SOL    HW1 7241   1.582   1.824   6.196
 2114SOL    HW2 7242   1.718   1.780   6.118
 2115SOL     OW 7243   6.947   5.732   3.083
 2115SOL    HW1 7244   6.993   5.811   3.042
 2115SOL    HW2 7245   6.936   5.660   3.015
 2116SOL     OW 7246   0.870   2.135   0.131
 2116SOL    HW1 7247   0.789   2.101   0.178
 2116SOL    HW2 7248   0.952   2.097   0.175
 2117SOL     OW 7249   5.528   1.654   2.357
 2117SOL    HW1 7250   5.475   1.739   2.348
 2117SOL    HW2 7251   5.590   1.663   2.436
 2118SOL     OW 7252   6.074   2.860   2.203
 2118SOL    HW1 7253   6.123   2.855   2.290
 2118SOL    HW2 7254   6.125   2.812   2.132
 2119SOL     OW 7255   2.730   1.121   6.974
 2119SOL    HW1 7256   2.731   1.043   6.911
 2119SOL    HW2 7257   2.702   1.090   0.042
 2120SOL     OW 7258   5.463   1.180   0.716
 2120SOL    HW1 7259   5.478   1.154   0.620
 2120SOL    HW2 7260   5.421   1.104   0.764
 2121SOL     OW 7261   1.079   0.604   6.778
 2121SOL    HW1 7262   1.046   0.512   6.755
 2121SOL    HW2 7263   1.024   0.672   6.729
 2122SOL     OW 7264   6.010   1.023   4.072
 2122SOL    HW1 7265   5.978   1.003   3.979
 2122SOL    HW2 7266   5.980   1.115   4.097
 2123SOL     OW 7267   1.624   5.825   3.166
 2123SOL    HW1 7268   1.654   5.793   3.256
 2123SOL    HW2 7269   1.645   5.922   3.156
 2124SOL     OW 7270   3.880   3.630   5.978
 2124SOL    HW1 7271   3.865   3.531   5.975
 2124SOL    HW2 7272   3.962   3.653   5.926
 2125SOL     OW 7273   1.477   5.570   3.867
 2125SOL    HW1 7274   1.405   5.502   3.884
 2125SOL    HW2 7275   1.460   5.651   3.922
 2126SOL     OW 7276   3.336   4.595   6.922
 2126SOL    HW1 7277   3.385   4.677   6.892
 2126SOL    HW2 7278   3.380   4.558   7.004
 2127SOL     OW 7279   0.607   2.195   4.144
 2127SOL    HW1 7280   0.572   2.184   4.237
 2127SOL    HW2 7281   0.551   2.262   4.095
 2128SOL     OW 7282   5.249   2.774   1.772
 2128SOL    HW1 7283   5.303   2.691   1.770
 2128SOL    HW2 7284   5.152   2.751   1.765
 2129SOL     OW 7285   4.784   4.686   4.038
 2129SOL    HW1 7286   4.800   4.618   3.967
 2129SOL    HW2 7287   4.777   4.777   3.996
 2130SOL     OW 7288   2.422   0.313   2.826
 2130SOL    HW1 7289   2.485   0.235   2.833
 2130SOL    HW2 7290   2.350   0.304   2.895
 2131SOL     OW 7291   5.281   1.024   4.751
 2131SOL    HW1 7292   5.201   0.988   4.704
 2131SOL    HW2 7293   5.282   0.991   4.846
 2132SOL     OW 7294   3.051   2.631   0.305
 2132SOL    HW1 7295   3.057   2.724   0.267
 2132SOL    HW2 7296   3.102   2.628   0.391
 2133SOL     OW 7297   3.058   2.179   2.242
 2133SOL    HW1 7298   2.992   2.239   2.198
 2133SOL    HW2 7299   3.141   2.173   2.186
 2134SOL     OW 7300   1.656   6.738   4.526
 2134SOL    HW1 7301   1.588   6.809   4.544
 2134SOL    HW2 7302   1.615   6.648   4.537
 2135SOL     OW 7303   1.233   1.141   3.820
 2135SOL    HW1 7304   1.143   1.102   3.840
 2135SOL    HW2 7305   1.270   1.101   3.737
 2136SOL     OW 7306   0.330   4.430   3.288
 2136SOL    HW1 7307   0.357   4.357   3.225
 2136SOL    HW2 7308   0.235   4.416   3.315
 2137SOL     OW 7309   0.897   0.629   5.264
 2137SOL    HW1 7310   0.819   0.576   5.296
 2137SOL    HW2 7311   0.867   0.695   5.195
 2138SOL     OW 7312   1.238   2.657   0.056
 2138SOL    HW1 7313   1.193   2.746   0.054
 2138SOL    HW2 7314   1.213   2.608   0.140
 2139SOL     OW 7315   2.574   1.024   5.571
 2139SOL    HW1 7316   2.575   0.936   5.524
 2139SOL    HW2 7317   2.545   1.096   5.508
 2140SOL     OW 7318   2.223   5.884   2.931
 2140SOL    HW1 7319   2.165   5.804   2.922
 2140SOL    HW2 7320   2.177   5.964   2.894
 2141SOL     OW 7321   5.400   2.157   0.453
 2141SOL    HW1 7322   5.496   2.184   0.461
 2141SOL    HW2 7323   5.350   2.189   0.533
 2142SOL     OW 7324   2.586   1.724   3.018
 2142SOL    HW1 7325   2.584   1.819   2.988
 2142SOL    HW2 7326   2.680   1.693   3.024
 2143SOL     OW 7327   3.507   0.037   0.417
 2143SOL    HW1 7328   3.435   0.042   0.347
 2143SOL    HW2 7329   3.558   0.122   0.419
 2144SOL     OW 7330   6.825   0.982   3.223
 2144SOL    HW1 7331   6.810   1.049   3.150
 2144SOL    HW2 7332   6.873   1.026   3.299
 2145SOL     OW 7333   3.927   5.738   2.879
 2145SOL    HW1 7334   3.867   5.811   2.846
 2145SOL    HW2 7335   3.973   5.695   2.801
 2146SOL     OW 7336   3.599   2.845   1.863
 2146SOL    HW1 7337   3.649   2.758   1.858
 2146SOL    HW2 7338   3.654   2.918   1.824
 2147SOL     OW 7339   1.338   0.696   5.309
 2147SOL    HW1 7340   1.366   0.745   5.392
 2147SOL    HW2 7341   1.251   0.732   5.278
 2148SOL     OW 7342   5.387   2.874   2.943
 2148SOL    HW1 7343   5.460   2.805   2.940
 2148SOL    HW2 7344   5.330   2.865   2.861
 2149SOL     OW 7345   3.658   0.835   2.895
 2149SOL    HW1 7346   3.719   0.766   2.934
 2149SOL    HW2 7347   3.713   0.910   2.859
 2150SOL     OW 7348   3.701   2.098   3.220
 2150SOL    HW1 7349   3.754   2.074   3.139
 2150SOL    HW2 7350   3.759   2.147   3.285
 2151SOL     OW 7351   3.729   2.713   5.719
 2151SOL    HW1 7352   3.798   2.649   5.686
 2151SOL    HW2 7353   3.667   2.666   5.783
 2152SOL     OW 7354   6.378   5.629   1.793
 2152SOL    HW1 7355   6.308   5.566   1.826
 2152SOL    HW2 7356   6.429   5.586   1.719
 2153SOL     OW 7357   5.011   2.635   3.295
 2153SOL    HW1 7358   4.942   2.562   3.302
 2153SOL    HW2 7359   5.092   2.609   3.347
 2154SOL     OW 7360   4.288   6.607   5.167
 2154SOL    HW1 7361   4.374   6.599   5.217
 2154SOL    HW2 7362   4.226   6.668   5.217
 2155SOL     OW 7363   0.216   4.096   0.306
 2155SOL    HW1 7364   0.182   4.150   0.384
 2155SOL    HW2 7365   0.172   4.129   0.222
 2156SOL     OW 7366   1.171   0.695   1.593
 2156SOL    HW1 7367   1.242   0.752   1.553
 2156SOL    HW2 7368   1.113   0.658   1.520
 2157SOL     OW 7369   0.934   1.350   4.893
 2157SOL    HW1 7370   0.879   1.366   4.811
 2157SOL    HW2 7371   1.014   1.410   4.892
 2158SOL     OW 7372   4.135   6.361   1.983
 2158SOL    HW1 7373   4.119   6.460   1.989
 2158SOL    HW2 7374   4.080   6.322   1.909
 2159SOL     OW 7375   2.019   6.116   4.493
 2159SOL    HW1 7376   2.098   6.055   4.487
 2159SOL    HW2 7377   1.961   6.089   4.570
 2160SOL     OW 7378   3.133   3.833   1.182
 2160SOL    HW1 7379   3.187   3.888   1.245
 2160SOL    HW2 7380   3.179   3.829   1.093
 2161SOL     OW 7381   5.176   2.480   3.469
 2161SOL    HW1 7382   5.264   2.438   3.448
 2161SOL    HW2 7383   5.113   2.410   3.502
 2162SOL     OW 7384   0.899   0.968   6.857
 2162SOL    HW1 7385   0.892   1.032   6.933
 2162SOL    HW2 7386   0.849   1.006   6.778
 2163SOL     OW 7387   1.779   2.096   0.796
 2163SOL    HW1 7388   1.718   2.077   0.873
 2163SOL    HW2 7389   1.781   2.017   0.735
 2164SOL     OW 7390   1.426   0.287   1.311
 2164SOL    HW1 7391   1.514   0.318   1.346
 2164SOL    HW2 7392   1.393   0.352   1.242
 2165SOL     OW 7393   2.363   6.594   1.889
 2165SOL    HW1 7394   2.327   6.681   1.856
 2165SOL    HW2 7395   2.334   6.520   1.828
 2166SOL     OW 7396   0.118   2.237   6.356
 2166SOL    HW1 7397   0.197   2.298   6.363
 2166SOL    HW2 7398   0.049   2.279   6.298
 2167SOL     OW 7399   3.075   0.044   2.648
 2167SOL    HW1 7400   3.053   6.983   2.698
 2167SOL    HW2 7401   3.054   0.032   2.551
 2168SOL     OW 7402   5.777   5.380   4.456
 2168SOL    HW1 7403   5.865   5.422   4.479
 2168SOL    HW2 7404   5.707   5.451   4.450
 2169SOL     OW 7405   4.776   1.700   5.867
 2169SOL    HW1 7406   4.700   1.764   5.876
 2169SOL    HW2 7407   4.742   1.607   5.877
 2170SOL     OW 7408   4.623   4.868   4.345
 2170SOL    HW1 7409   4.651   4.926   4.268
 2170SOL    HW2 7410   4.680   4.888   4.425
 2171SOL     OW 7411   0.407   2.479   0.008
 2171SOL    HW1 7412   0.491   2.437   0.042
 2171SOL    HW2 7413   0.355   2.518   0.084
 2172SOL     OW 7414   2.443   1.122   0.747
 2172SOL    HW1 7415   2.501   1.084   0.818
 2172SOL    HW2 7416   2.347   1.105   0.769
 2173SOL     OW 7417   5.989   1.554   5.299
 2173SOL    HW1 7418   5.999   1.506   5.211
 2173SOL    HW2 7419   6.013   1.650   5.287
 2174SOL     OW 7420   0.781   5.918   5.060
 2174SOL    HW1 7421   0.755   5.888   5.151
 2174SOL    HW2 7422   0.822   6.009   5.065
 2175SOL     OW 7423   2.472   6.560   5.039
 2175SOL    HW1 7424   2.442   6.557   5.134
 2175SOL    HW2 7425   2.545   6.492   5.025
 2176SOL     OW 7426   1.542   1.977   2.472
 2176SOL    HW1 7427   1.496   2.052   2.425
 2176SOL    HW2 7428   1.545   1.996   2.570
 2177SOL     OW 7429   6.997   1.831   1.452
 2177SOL    HW1 7430   6.941   1.788   1.523
 2177SOL    HW2 7431   6.990   1.778   1.368
 2178SOL     OW 7432   0.710   5.105   0.150
 2178SOL    HW1 7433   0.710   5.010   0.120
 2178SOL    HW2 7434   0.766   5.115   0.232
 2179SOL     OW 7435   1.230   4.823   4.125
 2179SOL    HW1 7436   1.273   4.913   4.137
 2179SOL    HW2 7437   1.132   4.835   4.109
 2180SOL     OW 7438   3.781   2.919   2.454
 2180SOL    HW1 7439   3.685   2.896   2.472
 2180SOL    HW2 7440   3.821   2.849   2.394
 2181SOL     OW 7441   5.129   5.225   6.025
 2181SOL    HW1 7442   5.136   5.289   5.949
 2181SOL    HW2 7443   5.160   5.269   6.110
 2182SOL     OW 7444   6.555   2.772   6.722
 2182SOL    HW1 7445   6.653   2.763   6.702
 2182SOL    HW2 7446   6.504   2.773   6.637
 2183SOL     OW 7447   2.854   3.320   1.175
 2183SOL    HW1 7448   2.950   3.292   1.179
 2183SOL    HW2 7449   2.803   3.255   1.119
 2184SOL     OW 7450   3.639   2.751   6.138
 2184SOL    HW1 7451   3.631   2.656   6.169
 2184SOL    HW2 7452   3.653   2.753   6.039
 2185SOL     OW 7453   1.972   1.084   1.284
 2185SOL    HW1 7454   1.910   1.118   1.213
 2185SOL    HW2 7455   1.937   1.111   1.374
 2186SOL     OW 7456   0.637   5.849   2.911
 2186SOL    HW1 7457   0.544   5.853   2.873
 2186SOL    HW2 7458   0.643   5.908   2.991
 2187SOL     OW 7459   6.983   1.267   6.558
 2187SOL    HW1 7460   6.994   1.195   6.489
 2187SOL    HW2 7461   6.886   1.289   6.568
 2188SOL     OW 7462   5.457   0.518   2.470
 2188SOL    HW1 7463   5.502   0.431   2.491
 2188SOL    HW2 7464   5.370   0.522   2.519
 2189SOL     OW 7465   1.955   0.515   6.765
 2189SOL    HW1 7466   1.901   0.524   6.681
 2189SOL    HW2 7467   2.046   0.552   6.750
 2190SOL     OW 7468   4.755   2.047   1.639
 2190SOL    HW1 7469   4.829   2.067   1.704
 2190SOL    HW2 7470   4.725   2.132   1.596
 2191SOL     OW 7471   3.328   2.306   0.280
 2191SOL    HW1 7472   3.407   2.257   0.243
 2191SOL    HW2 7473   3.270   2.337   0.205
 2192SOL     OW 7474   4.870   5.739   5.170
 2192SOL    HW1 7475   4.827   5.659   5.211
 2192SOL    HW2 7476   4.817   5.821   5.193
 2193SOL     OW 7477   0.390   4.730   5.965
 2193SOL    HW1 7478   0.450   4.742   5.886
 2193SOL    HW2 7479   0.315   4.795   5.960
 2194SOL     OW 7480   2.842   0.187   1.482
 2194SOL    HW1 7481   2.841   0.250   1.560
 2194SOL    HW2 7482   2.748   0.164   1.456
 2195SOL     OW 7483   1.301   4.355   2.716
 2195SOL    HW1 7484   1.216   4.402   2.697
 2195SOL    HW2 7485   1.337   4.385   2.805
 2196SOL     OW 7486   3.719   2.981   6.297
 2196SOL    HW1 7487   3.668   2.972   6.382
 2196SOL    HW2 7488   3.714   2.894   6.246
 2197SOL     OW 7489   4.379   4.983   0.358
 2197SOL    HW1 7490   4.358   5.050   0.429
 2197SOL    HW2 7491   4.445   4.917   0.394
 2198SOL     OW 7492   6.375   4.202   0.132
 2198SOL    HW1 7493   6.369   4.127   0.198
 2198SOL    HW2 7494   6.331   4.283   0.171
 2199SOL     OW 7495   4.429   0.763   1.614
 2199SOL    HW1 7496   4.519   0.722   1.628
 2199SOL    HW2 7497   4.383   0.718   1.537
 2200SOL     OW 7498   2.904   0.701   4.967
 2200SOL    HW1 7499   2.956   0.762   4.908
 2200SOL    HW2 7500   2.941   0.705   5.060
 2201SOL     OW 7501   4.824   3.885   2.005
 2201SOL    HW1 7502   4.832   3.969   2.058
 2201SOL    HW2 7503   4.812   3.907   1.909
 2202SOL     OW 7504   4.682   5.922   3.589
 2202SOL    HW1 7505   4.714   5.952   3.499
 2202SOL    HW2 7506   4.639   5.833   3.580
 2203SOL     OW 7507   3.721   1.668   3.196
 2203SOL    HW1 7508   3.651   1.645   3.128
 2203SOL    HW2 7509   3.770   1.585   3.223
 2204SOL     OW 7510   2.732   2.757   1.043
 2204SOL    HW1 7511   2.831   2.750   1.029
 2204SOL    HW2 7512   2.713   2.817   1.121
 2205SOL     OW 7513   2.226   0.307   0.164
 2205SOL    HW1 7514   2.129   0.297   0.187
 2205SOL    HW2 7515   2.275   0.223   0.190
 2206SOL     OW 7516   2.131   2.773   6.684
 2206SOL    HW1 7517   2.055   2.732   6.634
 2206SOL    HW2 7518   2.192   2.819   6.619
 2207SOL     OW 7519   0.978   4.358   5.038
 2207SOL    HW1 7520   1.053   4.325   5.095
 2207SOL    HW2 7521   0.953   4.288   4.971
 2208SOL     OW 7522   0.479   4.217   1.638
 2208SOL    HW1 7523   0.495   4.262   1.551
 2208SOL    HW2 7524   0.547   4.247   1.705
 2209SOL     OW 7525   1.185   5.664   0.830
 2209SOL    HW1 7526   1.224   5.586   0.881
 2209SOL    HW2 7527   1.191   5.645   0.732
 2210SOL     OW 7528   0.766   6.060   3.985
 2210SOL    HW1 7529   0.858   6.083   3.954
 2210SOL    HW2 7530   0.702   6.070   3.909
 2211SOL     OW 7531   6.286   1.378   5.901
 2211SOL    HW1 7532   6.351   1.337   5.836
 2211SOL    HW2 7533   6.296   1.333   5.990
 2212SOL     OW 7534   1.426   0.017   6.288
 2212SOL    HW1 7535   1.501   0.009   6.223
 2212SOL    HW2 7536   1.448   0.087   6.356
 2213SOL     OW 7537   3.650   0.988   3.463
 2213SOL    HW1 7538   3.560   0.968   3.500
 2213SOL    HW2 7539   3.665   0.935   3.379
 2214SOL     OW 7540   3.945   0.518   5.288
 2214SOL    HW1 7541   3.947   0.443   5.354
 2214SOL    HW2 7542   3.966   0.482   5.196
 2215SOL     OW 7543   5.908   2.937   5.196
 2215SOL    HW1 7544   5.931   2.945   5.293
 2215SOL    HW2 7545   5.832   2.998   5.174
 2216SOL     OW 7546   2.321   0.307   1.830
 2216SOL    HW1 7547   2.332   0.261   1.918
 2216SOL    HW2 7548   2.294   0.402   1.845
 2217SOL     OW 7549   4.460   0.722   1.301
 2217SOL    HW1 7550   4.410   0.637   1.282
 2217SOL    HW2 7551   4.481   0.767   1.214
 2218SOL     OW 7552   1.430   5.810   1.440
 2218SOL    HW1 7553   1.514   5.758   1.456
 2218SOL    HW2 7554   1.390   5.836   1.528
 2219SOL     OW 7555   1.172   3.107   2.727
 2219SOL    HW1 7556   1.245   3.054   2.771
 2219SOL    HW2 7557   1.095   3.046   2.707
 2220SOL     OW 7558   0.590   0.194   0.165
 2220SOL    HW1 7559   0.611   0.190   0.068
 2220SOL    HW2 7560   0.667   0.159   0.218
 2221SOL     OW 7561   0.374   2.036   0.679
 2221SOL    HW1 7562   0.427   1.961   0.639
 2221SOL    HW2 7563   0.297   1.998   0.731
 2222SOL     OW 7564   5.856   6.126   2.716
 2222SOL    HW1 7565   5.773   6.071   2.726
 2222SOL    HW2 7566   5.906   6.097   2.635
 2223SOL     OW 7567   5.719   5.080   1.928
 2223SOL    HW1 7568   5.731   5.042   1.836
 2223SOL    HW2 7569   5.630   5.126   1.934
 2224SOL     OW 7570   1.239   5.168   1.104
 2224SOL    HW1 7571   1.329   5.208   1.086
 2224SOL    HW2 7572   1.231   5.080   1.059
 2225SOL     OW 7573   6.867   4.968   1.394
 2225SOL    HW1 7574   6.892   5.056   1.352
 2225SOL    HW2 7575   6.823   4.910   1.327
 2226SOL     OW 7576   4.292   3.910   1.317
 2226SOL    HW1 7577   4.230   3.833   1.331
 2226SOL    HW2 7578   4.248   3.995   1.346
 2227SOL     OW 7579   1.090   3.353   3.834
 2227SOL    HW1 7580   1.057   3.304   3.914
 2227SOL    HW2 7581   1.012   3.376   3.775
 2228SOL     OW 7582   1.932   4.888   5.712
 2228SOL    HW1 7583   1.901   4.983   5.722
 2228SOL    HW2 7584   2.029   4.887   5.687
 2229SOL     OW 7585   4.785   0.773   2.961
 2229SOL    HW1 7586   4.849   0.717   3.014
 2229SOL    HW2 7587   4.699   0.781   3.011
 2230SOL     OW 7588   1.601   5.522   0.086
 2230SOL    HW1 7589   1.698   5.522   0.060
 2230SOL    HW2 7590   1.545   5.553   0.010
 2231SOL     OW 7591   2.898   6.808   1.567
 2231SOL    HW1 7592   2.952   6.852   1.495
 2231SOL    HW2 7593   2.910   6.708   1.561
 2232SOL     OW 7594   6.434   3.209   2.774
 2232SOL    HW1 7595   6.477   3.299   2.766
 2232SOL    HW2 7596   6.473   3.147   2.707
 2233SOL     OW 7597   3.702   1.787   0.260
 2233SOL    HW1 7598   3.634   1.859   0.271
 2233SOL    HW2 7599   3.744   1.767   0.349
 2234SOL     OW 7600   2.740   2.181   0.577
 2234SOL    HW1 7601   2.662   2.143   0.528
 2234SOL    HW2 7602   2.745   2.279   0.559
 2235SOL     OW 7603   1.890   0.221   1.314
 2235SOL    HW1 7604   1.863   0.130   1.345
 2235SOL    HW2 7605   1.967   0.254   1.369
 2236SOL     OW 7606   6.421   3.899   6.882
 2236SOL    HW1 7607   6.352   3.828   6.891
 2236SOL    HW2 7608   6.504   3.872   6.930
 2237SOL     OW 7609   6.865   2.149   4.312
 2237SOL    HW1 7610   6.874   2.131   4.410
 2237SOL    HW2 7611   6.830   2.242   4.299
 2238SOL     OW 7612   0.699   5.936   2.039
 2238SOL    HW1 7613   0.693   6.028   2.077
 2238SOL    HW2 7614   0.643   5.930   1.956
 2239SOL     OW 7615   4.820   5.144   3.137
 2239SOL    HW1 7616   4.862   5.233   3.121
 2239SOL    HW2 7617   4.886   5.072   3.117
 2240SOL     OW 7618   5.621   4.065   2.153
 2240SOL    HW1 7619   5.599   4.073   2.251
 2240SOL    HW2 7620   5.593   3.975   2.120
 2241SOL     OW 7621   0.708   0.454   2.426
 2241SOL    HW1 7622   0.663   0.365   2.433
 2241SOL    HW2 7623   0.648   0.525   2.463
 2242SOL     OW 7624   4.743   2.804   2.737
 2242SOL    HW1 7625   4.791   2.719   2.757
 2242SOL    HW2 7626   4.684   2.792   2.657
 2243SOL     OW 7627   2.729   5.857   5.045
 2243SOL    HW1 7628   2.693   5.948   5.068
 2243SOL    HW2 7629   2.806   5.867   4.982
 2244SOL     OW 7630   2.190   1.163   4.946
 2244SOL    HW1 7631   2.107   1.195   4.901
 2244SOL    HW2 7632   2.212   1.071   4.913
 2245SOL     OW 7633   0.622   1.754   2.096
 2245SOL    HW1 7634   0.581   1.806   2.171
 2245SOL    HW2 7635   0.722   1.758   2.104
 2246SOL     OW 7636   1.040   3.741   4.390
 2246SOL    HW1 7637   1.092   3.672   4.441
 2246SOL    HW2 7638   1.104   3.806   4.348
 2247SOL     OW 7639   2.150   1.936   6.156
 2247SOL    HW1 7640   2.094   2.002   6.207
 2247SOL    HW2 7641   2.138   1.951   6.058
 2248SOL     OW 7642   5.118   4.274   5.313
 2248SOL    HW1 7643   5.188   4.284   5.383
 2248SOL    HW2 7644   5.031   4.248   5.355
 2249SOL     OW 7645   4.527   5.821   4.862
 2249SOL    HW1 7646   4.525   5.875   4.946
 2249SOL    HW2 7647   4.560   5.729   4.883
 2250SOL     OW 7648   5.749   5.429   0.488
 2250SOL    HW1 7649   5.650   5.425   0.502
 2250SOL    HW2 7650   5.768   5.457   0.394
 2251SOL     OW 7651   0.078   1.014   6.739
 2251SOL    HW1 7652   0.043   1.108   6.739
 2251SOL    HW2 7653   0.027   0.960   6.806
 2252SOL     OW 7654   3.201   1.513   5.632
 2252SOL    HW1 7655   3.293   1.542   5.605
 2252SOL    HW2 7656   3.167   1.574   5.704
 2253SOL     OW 7657   1.899   2.820   6.007
 2253SOL    HW1 7658   1.821   2.835   5.946
 2253SOL    HW2 7659   1.933   2.908   6.039
 2254SOL     OW 7660   1.723   3.681   6.233
 2254SOL    HW1 7661   1.779   3.757   6.266
 2254SOL    HW2 7662   1.721   3.609   6.303
 2255SOL     OW 7663   5.743   2.114   1.466
 2255SOL    HW1 7664   5.816   2.169   1.425
 2255SOL    HW2 7665   5.718   2.041   1.403
 2256SOL     OW 7666   3.984   5.079   2.010
 2256SOL    HW1 7667   3.940   5.154   2.060
 2256SOL    HW2 7668   3.968   4.993   2.058
 2257SOL     OW 7669   1.823   4.008   3.655
 2257SOL    HW1 7670   1.821   4.017   3.556
 2257SOL    HW2 7671   1.767   3.930   3.683
 2258SOL     OW 7672   2.043   5.738   4.857
 2258SOL    HW1 7673   1.966   5.694   4.903
 2258SOL    HW2 7674   2.017   5.763   4.764
 2259SOL     OW 7675   5.730   3.148   6.425
 2259SOL    HW1 7676   5.759   3.144   6.329
 2259SOL    HW2 7677   5.803   3.115   6.484
 2260SOL     OW 7678   5.489   4.973   0.491
 2260SOL    HW1 7679   5.493   4.905   0.418
 2260SOL    HW2 7680   5.539   4.939   0.571
 2261SOL     OW 7681   4.076   6.715   6.159
 2261SOL    HW1 7682   4.114   6.805   6.178
 2261SOL    HW2 7683   3.977   6.716   6.177
 2262SOL     OW 7684   4.182   1.482   2.959
 2262SOL    HW1 7685   4.282   1.484   2.954
 2262SOL    HW2 7686   4.148   1.571   2.987
 2263SOL     OW 7687   6.992   4.446   6.868
 2263SOL    HW1 7688   6.959   4.409   6.955
 2263SOL    HW2 7689   0.005   4.372   6.812
 2264SOL     OW 7690   3.981   3.861   3.599
 2264SOL    HW1 7691   3.925   3.942   3.580
 2264SOL    HW2 7692   3.979   3.841   3.697
 2265SOL     OW 7693   6.668   0.460   2.206
 2265SOL    HW1 7694   6.653   0.558   2.193
 2265SOL    HW2 7695   6.584   0.418   2.241
 2266SOL     OW 7696   6.002   0.275   0.814
 2266SOL    HW1 7697   6.060   0.349   0.849
 2266SOL    HW2 7698   5.990   0.286   0.716
 2267SOL     OW 7699   5.158   1.501   5.814
 2267SOL    HW1 7700   5.215   1.563   5.759
 2267SOL    HW2 7701   5.181   1.406   5.791
 2268SOL     OW 7702   6.600   5.301   0.686
 2268SOL    HW1 7703   6.684   5.278   0.638
 2268SOL    HW2 7704   6.614   5.381   0.743
 2269SOL     OW 7705   6.912   5.179   4.783
 2269SOL    HW1 7706   6.991   5.160   4.842
 2269SOL    HW2 7707   6.943   5.186   4.688
 2270SOL     OW 7708   4.385   3.311   1.562
 2270SOL    HW1 7709   4.409   3.219   1.594
 2270SOL    HW2 7710   4.310   3.347   1.619
 2271SOL     OW 7711   6.256   4.317   2.804
 2271SOL    HW1 7712   6.342   4.323   2.755
 2271SOL    HW2 7713   6.249   4.228   2.849
 2272SOL     OW 7714   4.751   1.994   6.072
 2272SOL    HW1 7715   4.696   1.952   6.000
 2272SOL    HW2 7716   4.817   1.928   6.108
 2273SOL     OW 7717   0.968   1.701   3.735
 2273SOL    HW1 7718   0.965   1.741   3.827
 2273SOL    HW2 7719   1.061   1.710   3.699
 2274SOL     OW 7720   1.576   3.132   3.316
 2274SOL    HW1 7721   1.530   3.119   3.404
 2274SOL    HW2 7722   1.600   3.229   3.305
 2275SOL     OW 7723   4.870   0.185   3.731
 2275SOL    HW1 7724   4.950   0.137   3.768
 2275SOL    HW2 7725   4.791   0.169   3.791
 2276SOL     OW 7726   4.264   5.144   1.645
 2276SOL    HW1 7727   4.275   5.231   1.693
 2276SOL    HW2 7728   4.169   5.135   1.613
 2277SOL     OW 7729   3.368   3.849   0.499
 2277SOL    HW1 7730   3.454   3.817   0.539
 2277SOL    HW2 7731   3.355   3.803   0.411
 2278SOL     OW 7732   5.478   6.766   0.962
 2278SOL    HW1 7733   5.438   6.676   0.976
 2278SOL    HW2 7734   5.564   6.757   0.912
 2279SOL     OW 7735   4.761   4.237   4.545
 2279SOL    HW1 7736   4.719   4.265   4.631
 2279SOL    HW2 7737   4.789   4.141   4.552
 2280SOL     OW 7738   5.077   6.751   6.193
 2280SOL    HW1 7739   5.066   6.833   6.136
 2280SOL    HW2 7740   5.089   6.671   6.135
 2281SOL     OW 7741   2.719   3.154   1.023
 2281SOL    HW1 7742   2.631   3.177   1.063
 2281SOL    HW2 7743   2.712   3.067   0.974
 2282SOL     OW 7744   3.950   5.386   2.771
 2282SOL    HW1 7745   3.855   5.416   2.761
 2282SOL    HW2 7746   4.010   5.451   2.725
 2283SOL     OW 7747   6.953   3.938   2.874
 2283SOL    HW1 7748   6.991   3.879   2.946
 2283SOL    HW2 7749   6.860   3.907   2.852
 2284SOL     OW 7750   2.528   2.569   2.399
 2284SOL    HW1 7751   2.505   2.613   2.312
 2284SOL    HW2 7752   2.600   2.501   2.384
 2285SOL     OW 7753   1.879   4.314   0.053
 2285SOL    HW1 7754   1.929   4.355   6.999
 2285SOL    HW2 7755   1.936   4.318   0.135
 2286SOL     OW 7756   6.175   6.700   4.454
 2286SOL    HW1 7757   6.158   6.786   4.405
 2286SOL    HW2 7758   6.252   6.652   4.412
 2287SOL     OW 7759   2.143   2.983   1.791
 2287SOL    HW1 7760   2.237   3.009   1.767
 2287SOL    HW2 7761   2.136   2.971   1.891
 2288SOL     OW 7762   0.833   6.477   4.478
 2288SOL    HW1 7763   0.913   6.472   4.418
 2288SOL    HW2 7764   0.859   6.451   4.571
 2289SOL     OW 7765   4.342   2.674   1.216
 2289SOL    HW1 7766   4.243   2.686   1.206
 2289SOL    HW2 7767   4.383   2.664   1.125
 2290SOL     OW 7768   3.418   3.423   2.789
 2290SOL    HW1 7769   3.424   3.367   2.872
 2290SOL    HW2 7770   3.396   3.517   2.815
 2291SOL     OW 7771   1.186   2.476   0.262
 2291SOL    HW1 7772   1.225   2.414   0.330
 2291SOL    HW2 7773   1.143   2.423   0.189
 2292SOL     OW 7774   4.709   1.892   2.853
 2292SOL    HW1 7775   4.633   1.944   2.893
 2292SOL    HW2 7776   4.688   1.795   2.856
 2293SOL     OW 7777   6.701   1.407   6.865
 2293SOL    HW1 7778   6.787   1.363   6.839
 2293SOL    HW2 7779   6.680   1.386   6.960
 2294SOL     OW 7780   6.901   1.871   5.567
 2294SOL    HW1 7781   6.934   1.880   5.473
 2294SOL    HW2 7782   6.804   1.846   5.566
 2295SOL     OW 7783   5.623   6.347   1.158
 2295SOL    HW1 7784   5.566   6.283   1.108
 2295SOL    HW2 7785   5.700   6.299   1.199
 2296SOL     OW 7786   3.791   5.548   4.281
 2296SOL    HW1 7787   3.796   5.644   4.255
 2296SOL    HW2 7788   3.881   5.506   4.269
 2297SOL     OW 7789   4.333   4.130   5.400
 2297SOL    HW1 7790   4.244   4.170   5.379
 2297SOL    HW2 7791   4.404   4.182   5.352
 2298SOL     OW 7792   3.771   3.599   4.844
 2298SOL    HW1 7793   3.787   3.583   4.941
 2298SOL    HW2 7794   3.854   3.637   4.802
 2299SOL     OW 7795   6.226   3.277   4.770
 2299SOL    HW1 7796   6.159   3.283   4.844
 2299SOL    HW2 7797   6.208   3.194   4.716
 2300SOL     OW 7798   4.852   6.181   2.372
 2300SOL    HW1 7799   4.857   6.275   2.406
 2300SOL    HW2 7800   4.798   6.126   2.436
 2301SOL     OW 7801   3.672   3.396   4.279
 2301SOL    HW1 7802   3.724   3.420   4.197
 2301SOL    HW2 7803   3.612   3.318   4.259
 2302SOL     OW 7804   5.664   2.541   0.164
 2302SOL    HW1 7805   5.705   2.498   0.084
 2302SOL    HW2 7806   5.594   2.480   0.202
 2303SOL     OW 7807   3.773   2.021   6.923
 2303SOL    HW1 7808   3.678   2.008   6.951
 2303SOL    HW2 7809   3.832   1.961   6.977
 2304SOL     OW 7810   5.360   6.022   2.344
 2304SOL    HW1 7811   5.284   6.085   2.360
 2304SOL    HW2 7812   5.330   5.929   2.361
 2305SOL     OW 7813   2.526   0.665   4.598
 2305SOL    HW1 7814   2.481   0.612   4.527
 2305SOL    HW2 7815   2.625   0.654   4.591
 2306SOL     OW 7816   1.249   4.974   4.447
 2306SOL    HW1 7817   1.322   5.041   4.457
 2306SOL    HW2 7818   1.289   4.886   4.420
 2307SOL     OW 7819   6.682   3.527   5.923
 2307SOL    HW1 7820   6.596   3.497   5.965
 2307SOL    HW2 7821   6.755   3.463   5.949
 2308SOL     OW 7822   1.873   5.464   1.869
 2308SOL    HW1 7823   1.891   5.496   1.962
 2308SOL    HW2 7824   1.943   5.498   1.807
 2309SOL     OW 7825   2.090   6.544   5.364
 2309SOL    HW1 7826   2.159   6.514   5.430
 2309SOL    HW2 7827   2.090   6.644   5.360
 2310SOL     OW 7828   4.695   6.823   1.658
 2310SOL    HW1 7829   4.646   6.818   1.571
 2310SOL    HW2 7830   4.652   6.891   1.717
 2311SOL     OW 7831   3.248   5.368   1.465
 2311SOL    HW1 7832   3.193   5.353   1.383
 2311SOL    HW2 7833   3.339   5.401   1.438
 2312SOL     OW 7834   2.904   4.948   2.624
 2312SOL    HW1 7835   2.970   4.964   2.551
 2312SOL    HW2 7836   2.932   5.000   2.705
 2313SOL     OW 7837   5.033   5.545   1.423
 2313SOL    HW1 7838   5.066   5.531   1.516
 2313SOL    HW2 7839   4.969   5.472   1.399
 2314SOL     OW 7840   1.636   5.444   4.471
 2314SOL    HW1 7841   1.546   5.470   4.506
 2314SOL    HW2 7842   1.694   5.525   4.466
 2315SOL     OW 7843   4.395   2.616   6.710
 2315SOL    HW1 7844   4.452   2.692   6.679
 2315SOL    HW2 7845   4.337   2.584   6.635
 2316SOL     OW 7846   5.036   4.293   2.067
 2316SOL    HW1 7847   5.088   4.208   2.062
 2316SOL    HW2 7848   4.945   4.279   2.028
 2317SOL     OW 7849   0.468   4.948   3.835
 2317SOL    HW1 7850   0.449   4.994   3.922
 2317SOL    HW2 7851   0.487   4.851   3.852
 2318SOL     OW 7852   0.033   0.752   4.293
 2318SOL    HW1 7853   0.082   0.681   4.344
 2318SOL    HW2 7854   0.074   0.762   4.202
 2319SOL     OW 7855   0.830   4.215   3.283
 2319SOL    HW1 7856   0.855   4.311   3.276
 2319SOL    HW2 7857   0.814   4.178   3.191
 2320SOL     OW 7858   6.125   4.597   4.832
 2320SOL    HW1 7859   6.209   4.646   4.852
 2320SOL    HW2 7860   6.072   4.648   4.764
 2321SOL     OW 7861   2.500   5.406   4.984
 2321SOL    HW1 7862   2.590   5.445   5.004
 2321SOL    HW2 7863   2.456   5.458   4.910
 2322SOL     OW 7864   2.420   0.806   6.082
 2322SOL    HW1 7865   2.323   0.828   6.075
 2322SOL    HW2 7866   2.447   0.747   6.006
 2323SOL     OW 7867   5.270   4.685   1.433
 2323SOL    HW1 7868   5.186   4.736   1.449
 2323SOL    HW2 7869   5.279   4.614   1.503
 2324SOL     OW 7870   0.091   4.482   3.786
 2324SOL    HW1 7871   0.082   4.547   3.861
 2324SOL    HW2 7872   0.031   4.510   3.710
 2325SOL     OW 7873   7.008   2.806   0.823
 2325SOL    HW1 7874   6.973   2.720   0.858
 2325SOL    HW2 7875   0.037   2.853   0.895
 2326SOL     OW 7876   1.960   4.928   6.775
 2326SOL    HW1 7877   1.879   4.932   6.834
 2326SOL    HW2 7878   1.987   4.833   6.762
 2327SOL     OW 7879   5.621   2.300   4.975
 2327SOL    HW1 7880   5.703   2.263   5.020
 2327SOL    HW2 7881   5.603   2.249   4.892
 2328SOL     OW 7882   5.700   6.634   3.524
 2328SOL    HW1 7883   5.732   6.709   3.581
 2328SOL    HW2 7884   5.605   6.611   3.547
 2329SOL     OW 7885   6.793   6.075   3.625
 2329SOL    HW1 7886   6.835   6.071   3.716
 2329SOL    HW2 7887   6.695   6.054   3.632
 2330SOL     OW 7888   0.273   3.866   1.719
 2330SOL    HW1 7889   0.278   3.798   1.792
 2330SOL    HW2 7890   0.364   3.880   1.680
 2331SOL     OW 7891   0.595   4.056   5.815
 2331SOL    HW1 7892   0.649   4.115   5.754
 2331SOL    HW2 7893   0.519   4.017   5.764
 2332SOL     OW 7894   5.900   2.317   5.133
 2332SOL    HW1 7895   5.952   2.390   5.177
 2332SOL    HW2 7896   5.868   2.252   5.202
 2333SOL     OW 7897   1.647   4.584   3.785
 2333SOL    HW1 7898   1.621   4.565   3.690
 2333SOL    HW2 7899   1.570   4.626   3.833
 2334SOL     OW 7900   2.422   0.417   0.928
 2334SOL    HW1 7901   2.475   0.341   0.891
 2334SOL    HW2 7902   2.325   0.395   0.925
 2335SOL     OW 7903   4.622   6.323   4.239
 2335SOL    HW1 7904   4.683   6.290   4.167
 2335SOL    HW2 7905   4.531   6.338   4.201
 2336SOL     OW 7906   4.611   2.182   5.638
 2336SOL    HW1 7907   4.571   2.092   5.619
 2336SOL    HW2 7908   4.647   2.183   5.731
 2337SOL     OW 7909   5.855   0.236   3.000
 2337SOL    HW1 7910   5.911   0.253   2.919
 2337SOL    HW2 7911   5.838   0.138   3.010
 2338SOL     OW 7912   1.637   6.710   6.031
 2338SOL    HW1 7913   1.581   6.653   5.969
 2338SOL    HW2 7914   1.687   6.651   6.094
 2339SOL     OW 7915   4.039   4.622   6.897
 2339SOL    HW1 7916   4.050   4.539   6.951
 2339SOL    HW2 7917   4.086   4.612   6.810
 2340SOL     OW 7918   4.044   4.787   4.088
 2340SOL    HW1 7919   4.047   4.806   3.990
 2340SOL    HW2 7920   3.992   4.859   4.134
 2341SOL     OW 7921   6.371   5.204   0.070
 2341SOL    HW1 7922   6.384   5.198   0.169
 2341SOL    HW2 7923   6.303   5.275   0.050
 2342SOL     OW 7924   6.120   0.417   4.929
 2342SOL    HW1 7925   6.189   0.358   4.887
 2342SOL    HW2 7926   6.145   0.434   5.024
 2343SOL     OW 7927   1.224   6.684   0.519
 2343SOL    HW1 7928   1.195   6.704   0.612
 2343SOL    HW2 7929   1.243   6.769   0.470
 2344SOL     OW 7930   2.599   1.317   2.735
 2344SOL    HW1 7931   2.661   1.324   2.657
 2344SOL    HW2 7932   2.506   1.300   2.702
 2345SOL     OW 7933   1.822   1.174   3.615
 2345SOL    HW1 7934   1.781   1.171   3.524
 2345SOL    HW2 7935   1.752   1.159   3.684
 2346SOL     OW 7936   4.858   3.511   5.828
 2346SOL    HW1 7937   4.826   3.605   5.840
 2346SOL    HW2 7938   4.937   3.495   5.886
 2347SOL     OW 7939   1.188   3.441   1.293
 2347SOL    HW1 7940   1.250   3.377   1.248
 2347SOL    HW2 7941   1.134   3.489   1.224
 2348SOL     OW 7942   2.817   5.950   1.475
 2348SOL    HW1 7943   2.907   5.951   1.432
 2348SOL    HW2 7944   2.753   5.899   1.418
 2349SOL     OW 7945   4.760   5.576   5.847
 2349SOL    HW1 7946   4.825   5.566   5.923
 2349SOL    HW2 7947   4.711   5.663   5.856
 2350SOL     OW 7948   2.832   6.191   5.401
 2350SOL    HW1 7949   2.776   6.136   5.463
 2350SOL    HW2 7950   2.918   6.215   5.445
 2351SOL     OW 7951   2.352   5.559   3.865
 2351SOL    HW1 7952   2.389   5.520   3.781
 2351SOL    HW2 7953   2.300   5.642   3.844
 2352SOL     OW 7954   7.013   3.630   2.247
 2352SOL    HW1 7955   0.085   3.599   2.249
 2352SOL    HW2 7956   6.966   3.598   2.330
 2353SOL     OW 7957   2.845   3.810   6.015
 2353SOL    HW1 7958   2.876   3.717   5.995
 2353SOL    HW2 7959   2.896   3.875   5.959
 2354SOL     OW 7960   3.781   3.112   1.242
 2354SOL    HW1 7961   3.876   3.085   1.257
 2354SOL    HW2 7962   3.721   3.036   1.266
 2355SOL     OW 7963   0.124   0.090   0.737
 2355SOL    HW1 7964   0.180   0.135   0.806
 2355SOL    HW2 7965   0.044   0.049   0.780
 2356SOL     OW 7966   2.815   4.718   3.469
 2356SOL    HW1 7967   2.854   4.772   3.394
 2356SOL    HW2 7968   2.857   4.746   3.555
 2357SOL     OW 7969   6.316   4.870   1.143
 2357SOL    HW1 7970   6.346   4.800   1.077
 2357SOL    HW2 7971   6.243   4.832   1.200
 2358SOL     OW 7972   3.807   1.527   5.935
 2358SOL    HW1 7973   3.793   1.533   6.034
 2358SOL    HW2 7974   3.760   1.446   5.900
 2359SOL     OW 7975   1.927   1.302   5.854
 2359SOL    HW1 7976   1.943   1.209   5.886
 2359SOL    HW2 7977   1.834   1.310   5.818
 2360SOL     OW 7978   4.002   4.150   0.514
 2360SOL    HW1 7979   3.925   4.102   0.472
 2360SOL    HW2 7980   3.969   4.233   0.561
 2361SOL     OW 7981   4.251   6.021   1.620
 2361SOL    HW1 7982   4.251   6.111   1.576
 2361SOL    HW2 7983   4.318   5.962   1.575
 2362SOL     OW 7984   4.346   5.347   3.192
 2362SOL    HW1 7985   4.379   5.438   3.213
 2362SOL    HW2 7986   4.423   5.284   3.186
 2363SOL     OW 7987   2.635   4.079   0.668
 2363SOL    HW1 7988   2.598   4.040   0.752
 2363SOL    HW2 7989   2.606   4.023   0.590
 2364SOL     OW 7990   3.968   1.562   2.280
 2364SOL    HW1 7991   3.954   1.471   2.241
 2364SOL    HW2 7992   3.880   1.609   2.287
 2365SOL     OW 7993   5.004   3.455   3.097
 2365SOL    HW1 7994   4.937   3.388   3.067
 2365SOL    HW2 7995   4.962   3.516   3.165
 2366SOL     OW 7996   2.621   4.713   5.133
 2366SOL    HW1 7997   2.618   4.812   5.148
 2366SOL    HW2 7998   2.711   4.688   5.098
 2367SOL     OW 7999   5.862   4.550   6.266
 2367SOL    HW1 8000   5.770   4.566   6.230
 2367SOL    HW2 8001   5.930   4.574   6.196
 2368SOL     OW 8002   5.493   6.610   4.718
 2368SOL    HW1 8003   5.453   6.531   4.671
 2368SOL    HW2 8004   5.589   6.618   4.692
 2369SOL     OW 8005   3.085   1.916   4.549
 2369SOL    HW1 8006   3.012   1.878   4.492
 2369SOL    HW2 8007   3.071   1.887   4.644
 2370SOL     OW 8008   5.874   2.878   1.945
 2370SOL    HW1 8009   5.785   2.845   1.979
 2370SOL    HW2 8010   5.889   2.844   1.852
 2371SOL     OW 8011   0.614   6.563   3.233
 2371SOL    HW1 8012   0.622   6.554   3.134
 2371SOL    HW2 8013   0.680   6.503   3.278
 2372SOL     OW 8014   6.297   0.299   6.155
 2372SOL    HW1 8015   6.250   0.306   6.067
 2372SOL    HW2 8016   6.359   0.221   6.153
 2373SOL     OW 8017   5.800   5.074   0.167
 2373SOL    HW1 8018   5.731   5.103   0.234
 2373SOL    HW2 8019   5.758   5.015   0.099
 2374SOL     OW 8020   6.730   6.073   2.215
 2374SOL    HW1 8021   6.793   6.044   2.288
 2374SOL    HW2 8022   6.725   6.173   2.213
 2375SOL     OW 8023   1.087   0.515   4.189
 2375SOL    HW1 8024   1.028   0.473   4.257
 2375SOL    HW2 8025   1.153   0.576   4.234
 2376SOL     OW 8026   5.683   1.635   3.617
 2376SOL    HW1 8027   5.711   1.665   3.526
 2376SOL    HW2 8028   5.630   1.550   3.609
 2377SOL     OW 8029   4.375   4.470   5.625
 2377SOL    HW1 8030   4.284   4.480   5.586
 2377SOL    HW2 8031   4.394   4.547   5.686
 2378SOL     OW 8032   6.629   0.916   0.200
 2378SOL    HW1 8033   6.594   0.882   0.288
 2378SOL    HW2 8034   6.618   0.845   0.130
 2379SOL     OW 8035   6.330   4.689   1.416
 2379SOL    HW1 8036   6.333   4.659   1.511
 2379SOL    HW2 8037   6.235   4.710   1.391
 2380SOL     OW 8038   4.719   5.346   5.290
 2380SOL    HW1 8039   4.716   5.255   5.332
 2380SOL    HW2 8040   4.811   5.384   5.301
 2381SOL     OW 8041   1.951   4.608   4.927
 2381SOL    HW1 8042   2.031   4.651   4.968
 2381SOL    HW2 8043   1.869   4.637   4.975
 2382SOL     OW 8044   0.530   6.218   2.861
 2382SOL    HW1 8045   0.510   6.148   2.929
 2382SOL    HW2 8046   0.575   6.296   2.905
 2383SOL     OW 8047   5.669   5.544   5.752
 2383SOL    HW1 8048   5.647   5.512   5.844
 2383SOL    HW2 8049   5.720   5.474   5.703
 2384SOL     OW 8050   0.412   1.610   2.002
 2384SOL    HW1 8051   0.493   1.652   2.043
 2384SOL    HW2 8052   0.428   1.596   1.904
 2385SOL     OW 8053   0.540   1.401   0.626
 2385SOL    HW1 8054   0.447   1.388   0.591
 2385SOL    HW2 8055   0.556   1.338   0.702
 2386SOL     OW 8056   5.449   5.804   3.460
 2386SOL    HW1 8057   5.520   5.871   3.478
 2386SOL    HW2 8058   5.417   5.813   3.365
 2387SOL     OW 8059   2.051   1.670   4.088
 2387SOL    HW1 8060   2.067   1.755   4.037
 2387SOL    HW2 8061   2.037   1.691   4.184
 2388SOL     OW 8062   6.252   1.957   5.148
 2388SOL    HW1 8063   6.206   1.868   5.145
 2388SOL    HW2 8064   6.230   2.003   5.233
 2389SOL     OW 8065   4.969   4.747   4.389
 2389SOL    HW1 8066   4.986   4.699   4.475
 2389SOL    HW2 8067   4.910   4.691   4.331
 2390SOL     OW 8068   4.297   3.415   5.568
 2390SOL    HW1 8069   4.361   3.365   5.627
 2390SOL    HW2 8070   4.294   3.373   5.478
 2391SOL     OW 8071   2.713   4.933   6.073
 2391SOL    HW1 8072   2.759   4.857   6.120
 2391SOL    HW2 8073   2.618   4.939   6.105
 2392SOL     OW 8074   3.989   4.946   5.666
 2392SOL    HW1 8075   3.975   4.889   5.746
 2392SOL    HW2 8076   3.948   5.036   5.682
 2393SOL     OW 8077   4.204   4.706   1.294
 2393SOL    HW1 8078   4.179   4.746   1.206
 2393SOL    HW2 8079   4.227   4.609   1.282
 2394SOL     OW 8080   0.788   2.293   3.286
 2394SOL    HW1 8081   0.745   2.203   3.278
 2394SOL    HW2 8082   0.885   2.285   3.265
 2395SOL     OW 8083   0.653   2.379   4.698
 2395SOL    HW1 8084   0.720   2.358   4.770
 2395SOL    HW2 8085   0.691   2.446   4.635
 2396SOL     OW 8086   0.230   0.027   5.137
 2396SOL    HW1 8087   0.198   7.000   5.056
 2396SOL    HW2 8088   0.221   6.990   5.217
 2397SOL     OW 8089   0.009   4.321   5.370
 2397SOL    HW1 8090   0.066   4.403   5.369
 2397SOL    HW2 8091   0.017   4.275   5.458
 2398SOL     OW 8092   3.691   6.418   4.211
 2398SOL    HW1 8093   3.712   6.424   4.309
 2398SOL    HW2 8094   3.712   6.326   4.178
 2399SOL     OW 8095   3.516   2.160   4.080
 2399SOL    HW1 8096   3.463   2.148   4.164
 2399SOL    HW2 8097   3.461   2.131   4.002
 2400SOL     OW 8098   0.833   3.925   0.854
 2400SOL    HW1 8099   0.816   3.831   0.886
 2400SOL    HW2 8100   0.879   3.922   0.765
 2401SOL     OW 8101   2.598   0.471   5.787
 2401SOL    HW1 8102   2.624   0.377   5.812
 2401SOL    HW2 8103   2.679   0.529   5.788
 2402SOL     OW 8104   1.452   4.309   1.947
 2402SOL    HW1 8105   1.385   4.305   1.872
 2402SOL    HW2 8106   1.490   4.218   1.962
 2403SOL     OW 8107   4.005   3.389   3.179
 2403SOL    HW1 8108   4.057   3.347   3.105
 2403SOL    HW2 8109   4.067   3.445   3.234
 2404SOL     OW 8110   6.436   0.979   1.103
 2404SOL    HW1 8111   6.338   0.985   1.084
 2404SOL    HW2 8112   6.475   1.071   1.107
 2405SOL     OW 8113   2.011   2.918   0.942
 2405SOL    HW1 8114   1.980   2.825   0.963
 2405SOL    HW2 8115   2.062   2.955   1.019
 2406SOL     OW 8116   3.108   6.058   4.641
 2406SOL    HW1 8117   3.118   6.082   4.545
 2406SOL    HW2 8118   3.023   6.097   4.677
 2407SOL     OW 8119   3.240   1.181   3.816
 2407SOL    HW1 8120   3.189   1.096   3.804
 2407SOL    HW2 8121   3.332   1.160   3.848
 2408SOL     OW 8122   3.115   6.108   4.377
 2408SOL    HW1 8123   3.176   6.178   4.342
 2408SOL    HW2 8124   3.150   6.017   4.353
 2409SOL     OW 8125   1.714   3.372   1.450
 2409SOL    HW1 8126   1.738   3.434   1.375
 2409SOL    HW2 8127   1.750   3.281   1.431
 2410SOL     OW 8128   0.790   3.286   5.275
 2410SOL    HW1 8129   0.783   3.220   5.350
 2410SOL    HW2 8130   0.699   3.320   5.252
 2411SOL     OW 8131   2.966   3.842   0.520
 2411SOL    HW1 8132   3.037   3.846   0.590
 2411SOL    HW2 8133   2.906   3.921   0.529
 2412SOL     OW 8134   3.476   1.984   6.647
 2412SOL    HW1 8135   3.405   1.920   6.678
 2412SOL    HW2 8136   3.566   1.940   6.656
 2413SOL     OW 8137   0.378   3.199   6.871
 2413SOL    HW1 8138   0.319   3.189   6.791
 2413SOL    HW2 8139   0.380   3.295   6.900
 2414SOL     OW 8140   6.840   2.287   5.098
 2414SOL    HW1 8141   6.766   2.239   5.146
 2414SOL    HW2 8142   6.900   2.331   5.166
 2415SOL     OW 8143   2.675   5.313   0.336
 2415SOL    HW1 8144   2.641   5.276   0.423
 2415SOL    HW2 8145   2.611   5.381   0.302
 2416SOL     OW 8146   6.896   3.783   2.043
 2416SOL    HW1 8147   6.949   3.725   2.104
 2416SOL    HW2 8148   6.883   3.737   1.955
 2417SOL     OW 8149   3.040   2.677   1.703
 2417SOL    HW1 8150   2.954   2.683   1.653
 2417SOL    HW2 8151   3.083   2.588   1.683
 2418SOL     OW 8152   4.517   4.356   6.440
 2418SOL    HW1 8153   4.473   4.349   6.529
 2418SOL    HW2 8154   4.468   4.298   6.374
 2419SOL     OW 8155   2.476   6.473   3.819
 2419SOL    HW1 8156   2.484   6.448   3.722
 2419SOL    HW2 8157   2.430   6.562   3.826
 2420SOL     OW 8158   1.495   4.078   2.819
 2420SOL    HW1 8159   1.544   4.058   2.734
 2420SOL    HW2 8160   1.553   4.056   2.897
 2421SOL     OW 8161   2.681   5.994   4.181
 2421SOL    HW1 8162   2.708   6.036   4.267
 2421SOL    HW2 8163   2.711   6.051   4.105
 2422SOL     OW 8164   4.833   6.443   0.630
 2422SOL    HW1 8165   4.899   6.518   0.636
 2422SOL    HW2 8166   4.880   6.358   0.608
 2423SOL     OW 8167   2.653   5.392   2.810
 2423SOL    HW1 8168   2.609   5.461   2.868
 2423SOL    HW2 8169   2.604   5.386   2.722
 2424SOL     OW 8170   5.430   0.615   6.132
 2424SOL    HW1 8171   5.404   0.544   6.198
 2424SOL    HW2 8172   5.407   0.705   6.170
 2425SOL     OW 8173   5.127   5.561   4.991
 2425SOL    HW1 8174   5.123   5.656   4.959
 2425SOL    HW2 8175   5.165   5.558   5.083
 2426SOL     OW 8176   2.237   3.864   5.846
 2426SOL    HW1 8177   2.280   3.803   5.913
 2426SOL    HW2 8178   2.304   3.887   5.775
 2427SOL     OW 8179   5.371   0.904   0.227
 2427SOL    HW1 8180   5.310   0.825   0.217
 2427SOL    HW2 8181   5.318   0.984   0.255
 2428SOL     OW 8182   0.682   0.452   3.035
 2428SOL    HW1 8183   0.769   0.434   3.081
 2428SOL    HW2 8184   0.642   0.365   3.006
 2429SOL     OW 8185   5.831   4.847   1.687
 2429SOL    HW1 8186   5.761   4.792   1.732
 2429SOL    HW2 8187   5.894   4.885   1.755
 2430SOL     OW 8188   6.308   1.450   0.142
 2430SOL    HW1 8189   6.238   1.461   0.071
 2430SOL    HW2 8190   6.390   1.501   0.115
 2431SOL     OW 8191   6.799   3.015   1.814
 2431SOL    HW1 8192   6.856   3.096   1.829
 2431SOL    HW2 8193   6.858   2.934   1.806
 2432SOL     OW 8194   3.119   4.994   2.466
 2432SOL    HW1 8195   3.210   5.033   2.476
 2432SOL    HW2 8196   3.116   4.935   2.386
 2433SOL     OW 8197   6.168   4.113   5.810
 2433SOL    HW1 8198   6.088   4.054   5.800
 2433SOL    HW2 8199   6.157   4.171   5.891
 2434SOL     OW 8200   4.930   1.274   2.889
 2434SOL    HW1 8201   4.927   1.174   2.884
 2434SOL    HW2 8202   4.888   1.304   2.975
 2435SOL     OW 8203   5.853   6.686   6.943
 2435SOL    HW1 8204   5.843   6.652   0.013
 2435SOL    HW2 8205   5.948   6.714   6.927
 2436SOL     OW 8206   2.081   1.986   2.266
 2436SOL    HW1 8207   2.062   2.081   2.241
 2436SOL    HW2 8208   2.173   1.980   2.305
 2437SOL     OW 8209   0.130   4.356   2.354
 2437SOL    HW1 8210   0.049   4.314   2.312
 2437SOL    HW2 8211   0.166   4.295   2.424
 2438SOL     OW 8212   3.134   1.214   5.109
 2438SOL    HW1 8213   3.054   1.201   5.167
 2438SOL    HW2 8214   3.213   1.237   5.166
 2439SOL     OW 8215   1.046   6.647   1.477
 2439SOL    HW1 8216   1.135   6.683   1.505
 2439SOL    HW2 8217   0.973   6.706   1.512
 2440SOL     OW 8218   5.748   1.142   5.062
 2440SOL    HW1 8219   5.823   1.149   5.126
 2440SOL    HW2 8220   5.661   1.137   5.112
 2441SOL     OW 8221   6.231   0.043   6.648
 2441SOL    HW1 8222   6.287   0.021   6.728
 2441SOL    HW2 8223   6.178   6.985   6.622
 2442SOL     OW 8224   4.893   3.215   1.869
 2442SOL    HW1 8225   4.968   3.183   1.926
 2442SOL    HW2 8226   4.817   3.150   1.874
 2443SOL     OW 8227   0.646   2.192   1.600
 2443SOL    HW1 8228   0.547   2.186   1.587
 2443SOL    HW2 8229   0.680   2.274   1.555
 2444SOL     OW 8230   3.639   6.172   1.615
 2444SOL    HW1 8231   3.577   6.105   1.657
 2444SOL    HW2 8232   3.692   6.128   1.543
 2445SOL     OW 8233   6.983   2.464   0.654
 2445SOL    HW1 8234   7.002   2.477   0.557
 2445SOL    HW2 8235   0.039   2.494   0.708
 2446SOL     OW 8236   1.896   4.835   1.218
 2446SOL    HW1 8237   1.833   4.852   1.143
 2446SOL    HW2 8238   1.960   4.763   1.192
 2447SOL     OW 8239   2.873   0.006   0.157
 2447SOL    HW1 8240   2.857   6.985   0.068
 2447SOL    HW2 8241   2.788   0.049   0.188
 2448SOL     OW 8242   6.557   1.540   4.613
 2448SOL    HW1 8243   6.557   1.634   4.650
 2448SOL    HW2 8244   6.495   1.535   4.536
 2449SOL     OW 8245   1.826   4.488   1.760
 2449SOL    HW1 8246   1.772   4.519   1.681
 2449SOL    HW2 8247   1.766   4.478   1.839
 2450SOL     OW 8248   1.784   6.576   6.284
 2450SOL    HW1 8249   1.815   6.671   6.282
 2450SOL    HW2 8250   1.841   6.524   6.348
 2451SOL     OW 8251   1.066   0.184   5.182
 2451SOL    HW1 8252   1.019   0.224   5.260
 2451SOL    HW2 8253   1.097   0.092   5.205
 2452SOL     OW 8254   3.051   1.548   3.892
 2452SOL    HW1 8255   3.120   1.620   3.879
 2452SOL    HW2 8256   3.030   1.505   3.805
 2453SOL     OW 8257   1.153   1.627   6.625
 2453SOL    HW1 8258   1.214   1.613   6.703
 2453SOL    HW2 8259   1.174   1.559   6.555
 2454SOL     OW 8260   3.352   5.461   0.915
 2454SOL    HW1 8261   3.319   5.388   0.975
 2454SOL    HW2 8262   3.393   5.533   0.971
 2455SOL     OW 8263   3.375   2.192   0.901
 2455SOL    HW1 8264   3.316   2.269   0.880
 2455SOL    HW2 8265   3.446   2.220   0.965
 2456SOL     OW 8266   1.156   4.252   6.100
 2456SOL    HW1 8267   1.080   4.282   6.157
 2456SOL    HW2 8268   1.240   4.296   6.130
 2457SOL     OW 8269   5.120   2.059   5.635
 2457SOL    HW1 8270   5.109   2.056   5.535
 2457SOL    HW2 8271   5.068   1.983   5.676
 2458SOL     OW 8272   1.877   0.219   1.648
 2458SOL    HW1 8273   1.953   0.173   1.602
 2458SOL    HW2 8274   1.910   0.305   1.687
 2459SOL     OW 8275   3.092   5.951   1.458
 2459SOL    HW1 8276   3.188   5.979   1.462
 2459SOL    HW2 8277   3.068   5.901   1.541
 2460SOL     OW 8278   1.565   1.286   5.486
 2460SOL    HW1 8279   1.579   1.317   5.392
 2460SOL    HW2 8280   1.474   1.313   5.517
 2461SOL     OW 8281   4.092   1.386   3.950
 2461SOL    HW1 8282   4.056   1.390   4.043
 2461SOL    HW2 8283   4.023   1.349   3.888
 2462SOL     OW 8284   6.974   4.173   0.765
 2462SOL    HW1 8285   6.894   4.232   0.754
 2462SOL    HW2 8286   0.027   4.226   0.801
 2463SOL     OW 8287   6.695   1.258   6.510
 2463SOL    HW1 8288   6.671   1.184   6.447
 2463SOL    HW2 8289   6.623   1.269   6.578
 2464SOL     OW 8290   0.196   1.903   3.180
 2464SOL    HW1 8291   0.121   1.927   3.241
 2464SOL    HW2 8292   0.167   1.828   3.120
 2465SOL     OW 8293   0.784   4.566   5.758
 2465SOL    HW1 8294   0.838   4.583   5.675
 2465SOL    HW2 8295   0.845   4.535   5.831
 2466SOL     OW 8296   0.399   2.533   1.724
 2466SOL    HW1 8297   0.326   2.555   1.659
 2466SOL    HW2 8298   0.486   2.524   1.676
 2467SOL     OW 8299   4.961   1.383   6.079
 2467SOL    HW1 8300   4.987   1.472   6.041
 2467SOL    HW2 8301   5.032   1.352   6.142
 2468SOL     OW 8302   3.431   6.459   5.504
 2468SOL    HW1 8303   3.465   6.365   5.508
 2468SOL    HW2 8304   3.433   6.499   5.595
 2469SOL     OW 8305   3.287   2.689   5.773
 2469SOL    HW1 8306   3.273   2.603   5.724
 2469SOL    HW2 8307   3.328   2.756   5.712
 2470SOL     OW 8308   3.037   4.965   6.600
 2470SOL    HW1 8309   3.064   4.973   6.696
 2470SOL    HW2 8310   2.937   4.971   6.593
 2471SOL     OW 8311   4.395   5.852   1.462
 2471SOL    HW1 8312   4.492   5.859   1.438
 2471SOL    HW2 8313   4.340   5.855   1.378
 2472SOL     OW 8314   4.806   1.454   4.264
 2472SOL    HW1 8315   4.779   1.546   4.235
 2472SOL    HW2 8316   4.855   1.409   4.190
 2473SOL     OW 8317   0.396   3.880   5.006
 2473SOL    HW1 8318   0.456   3.897   4.928
 2473SOL    HW2 8319   0.328   3.953   5.014
 2474SOL     OW 8320   1.504   5.540   1.630
 2474SOL    HW1 8321   1.531   5.447   1.654
 2474SOL    HW2 8322   1.580   5.603   1.647
 2475SOL     OW 8323   4.868   0.403   0.821
 2475SOL    HW1 8324   4.951   0.448   0.788
 2475SOL    HW2 8325   4.887   0.358   0.908
 2476SOL     OW 8326   5.934   0.323   0.209
 2476SOL    HW1 8327   5.882   0.238   0.217
 2476SOL    HW2 8328   5.876   0.394   0.168
 2477SOL     OW 8329   3.996   0.180   3.096
 2477SOL    HW1 8330   4.095   0.198   3.092
 2477SOL    HW2 8331   3.980   0.082   3.089
 2478SOL     OW 8332   4.522   0.753   3.347
 2478SOL    HW1 8333   4.545   0.782   3.440
 2478SOL    HW2 8334   4.492   0.657   3.348
 2479SOL     OW 8335   0.529   3.620   0.539
 2479SOL    HW1 8336   0.457   3.687   0.557
 2479SOL    HW2 8337   0.569   3.590   0.625
 2480SOL     OW 8338   3.241   2.764   1.535
 2480SOL    HW1 8339   3.311   2.760   1.607
 2480SOL    HW2 8340   3.159   2.717   1.567
 2481SOL     OW 8341   2.950   0.722   0.945
 2481SOL    HW1 8342   3.049   0.712   0.937
 2481SOL    HW2 8343   2.906   0.689   0.861
 2482SOL     OW 8344   5.279   3.610   6.980
 2482SOL    HW1 8345   5.245   3.698   6.946
 2482SOL    HW2 8346   5.267   3.606   0.056
 2483SOL     OW 8347   0.704   2.097   0.958
 2483SOL    HW1 8348   0.619   2.148   0.967
 2483SOL    HW2 8349   0.782   2.160   0.967
 2484SOL     OW 8350   5.065   1.844   1.905
 2484SOL    HW1 8351   5.116   1.758   1.914
 2484SOL    HW2 8352   5.023   1.867   1.992
 2485SOL     OW 8353   4.858   2.563   5.961
 2485SOL    HW1 8354   4.895   2.651   5.931
 2485SOL    HW2 8355   4.851   2.562   6.061
 2486SOL     OW 8356   0.582   3.713   5.150
 2486SOL    HW1 8357   0.539   3.681   5.235
 2486SOL    HW2 8358   0.513   3.754   5.091
 2487SOL     OW 8359   4.611   6.038   0.059
 2487SOL    HW1 8360   4.564   6.126   0.050
 2487SOL    HW2 8361   4.571   5.988   0.136
 2488SOL     OW 8362   6.586   4.255   1.443
 2488SOL    HW1 8363   6.618   4.287   1.354
 2488SOL    HW2 8364   6.593   4.155   1.447
 2489SOL     OW 8365   0.451   5.910   4.270
 2489SOL    HW1 8366   0.508   5.987   4.242
 2489SOL    HW2 8367   0.507   5.845   4.322
 2490SOL     OW 8368   2.858   5.725   2.554
 2490SOL    HW1 8369   2.949   5.748   2.520
 2490SOL    HW2 8370   2.835   5.783   2.631
 2491SOL     OW 8371   4.513   4.650   1.577
 2491SOL    HW1 8372   4.536   4.578   1.642
 2491SOL    HW2 8373   4.480   4.731   1.626
 2492SOL     OW 8374   5.933   3.845   0.712
 2492SOL    HW1 8375   5.889   3.814   0.797
 2492SOL    HW2 8376   5.880   3.921   0.673
 2493SOL     OW 8377   0.356   6.552   1.630
 2493SOL    HW1 8378   0.399   6.554   1.540
 2493SOL    HW2 8379   0.423   6.522   1.698
 2494SOL     OW 8380   5.921   2.310   1.694
 2494SOL    HW1 8381   5.926   2.216   1.662
 2494SOL    HW2 8382   5.866   2.364   1.631
 2495SOL     OW 8383   5.987   5.697   3.472
 2495SOL    HW1 8384   5.894   5.668   3.494
 2495SOL    HW2 8385   6.053   5.643   3.525
 2496SOL     OW 8386   6.330   4.717   6.708
 2496SOL    HW1 8387   6.267   4.667   6.767
 2496SOL    HW2 8388   6.425   4.696   6.734
 2497SOL     OW 8389   0.648   6.710   1.961
 2497SOL    HW1 8390   0.724   6.762   1.999
 2497SOL    HW2 8391   0.562   6.754   1.985
 2498SOL     OW 8392   2.537   3.326   6.009
 2498SOL    HW1 8393   2.441   3.329   5.984
 2498SOL    HW2 8394   2.588   3.393   5.955
 2499SOL     OW 8395   6.221   3.463   1.593
 2499SOL    HW1 8396   6.256   3.538   1.648
 2499SOL    HW2 8397   6.138   3.492   1.545
 2500SOL     OW 8398   3.616   3.828   6.500
 2500SOL    HW1 8399   3.678   3.771   6.446
 2500SOL    HW2 8400   3.542   3.771   6.536
 2501SOL     OW 8401   5.715   5.830   0.394
 2501SOL    HW1 8402   5.640   5.862   0.335
 2501SOL    HW2 8403   5.793   5.806   0.337
 2502SOL     OW 8404   2.370   5.807   4.639
 2502SOL    HW1 8405   2.467   5.783   4.637
 2502SOL    HW2 8406   2.340   5.820   4.733
 2503SOL     OW 8407   2.715   6.853   5.379
 2503SOL    HW1 8408   2.732   6.882   5.285
 2503SOL    HW2 8409   2.715   6.933   5.439
 2504SOL     OW 8410   3.062   5.717   3.037
 2504SOL    HW1 8411   3.048   5.623   3.007
 2504SOL    HW2 8412   3.147   5.724   3.089
 2505SOL     OW 8413   0.814   5.693   2.267
 2505SOL    HW1 8414   0.830   5.622   2.199
 2505SOL    HW2 8415   0.755   5.764   2.228
 2506SOL     OW 8416   6.170   4.483   6.141
 2506SOL    HW1 8417   6.199   4.467   6.235
 2506SOL    HW2 8418   6.243   4.531   6.091
 2507SOL     OW 8419   6.832   3.221   0.138
 2507SOL    HW1 8420   6.932   3.215   0.145
 2507SOL    HW2 8421   6.801   3.309   0.174
 2508SOL     OW 8422   3.188   2.081   5.239
 2508SOL    HW1 8423   3.227   2.010   5.182
 2508SOL    HW2 8424   3.199   2.170   5.194
 2509SOL     OW 8425   6.446   3.843   6.620
 2509SOL    HW1 8426   6.435   3.868   6.716
 2509SOL    HW2 8427   6.398   3.910   6.563
 2510SOL     OW 8428   3.629   3.854   1.701
 2510SOL    HW1 8429   3.644   3.935   1.643
 2510SOL    HW2 8430   3.687   3.779   1.668
 2511SOL     OW 8431   2.146   0.689   5.052
 2511SOL    HW1 8432   2.064   0.633   5.048
 2511SOL    HW2 8433   2.184   0.687   5.144
 2512SOL     OW 8434   3.502   4.271   5.156
 2512SOL    HW1 8435   3.562   4.216   5.098
 2512SOL    HW2 8436   3.413   4.226   5.165
 2513SOL     OW 8437   2.267   6.584   5.779
 2513SOL    HW1 8438   2.221   6.595   5.867
 2513SOL    HW2 8439   2.287   6.488   5.764
 2514SOL     OW 8440   1.135   2.996   3.731
 2514SOL    HW1 8441   1.038   2.989   3.706
 2514SOL    HW2 8442   1.152   3.084   3.776
 2515SOL     OW 8443   1.937   0.616   1.381
 2515SOL    HW1 8444   1.884   0.634   1.465
 2515SOL    HW2 8445   1.977   0.702   1.349
 2516SOL     OW 8446   4.913   1.388   3.801
 2516SOL    HW1 8447   5.004   1.428   3.795
 2516SOL    HW2 8448   4.884   1.355   3.711
 2517SOL     OW 8449   1.157   1.043   4.845
 2517SOL    HW1 8450   1.136   1.139   4.864
 2517SOL    HW2 8451   1.178   0.996   4.931
 2518SOL     OW 8452   2.625   5.308   1.202
 2518SOL    HW1 8453   2.568   5.227   1.188
 2518SOL    HW2 8454   2.708   5.283   1.251
 2519SOL     OW 8455   2.394   1.255   1.458
 2519SOL    HW1 8456   2.435   1.166   1.474
 2519SOL    HW2 8457   2.466   1.324   1.448
 2520SOL     OW 8458   3.280   2.449   0.836
 2520SOL    HW1 8459   3.228   2.488   0.760
 2520SOL    HW2 8460   3.360   2.506   0.855
 2521SOL     OW 8461   3.948   1.557   4.911
 2521SOL    HW1 8462   3.893   1.474   4.903
 2521SOL    HW2 8463   4.005   1.550   4.993
 2522SOL     OW 8464   1.305   1.392   5.569
 2522SOL    HW1 8465   1.323   1.471   5.628
 2522SOL    HW2 8466   1.215   1.354   5.592
 2523SOL     OW 8467   2.158   4.311   0.751
 2523SOL    HW1 8468   2.162   4.408   0.725
 2523SOL    HW2 8469   2.251   4.276   0.761
 2524SOL     OW 8470   1.358   0.054   4.307
 2524SOL    HW1 8471   1.321   7.019   4.234
 2524SOL    HW2 8472   1.449   0.086   4.282
 2525SOL     OW 8473   1.371   2.726   4.654
 2525SOL    HW1 8474   1.466   2.697   4.651
 2525SOL    HW2 8475   1.339   2.748   4.562
 2526SOL     OW 8476   1.712   5.299   6.776
 2526SOL    HW1 8477   1.665   5.288   6.863
 2526SOL    HW2 8478   1.800   5.252   6.780
 2527SOL     OW 8479   5.280   5.758   5.518
 2527SOL    HW1 8480   5.256   5.661   5.525
 2527SOL    HW2 8481   5.201   5.814   5.540
 2528SOL     OW 8482   5.280   4.660   5.097
 2528SOL    HW1 8483   5.345   4.669   5.173
 2528SOL    HW2 8484   5.232   4.573   5.105
 2529SOL     OW 8485   0.927   0.332   6.367
 2529SOL    HW1 8486   0.915   0.267   6.292
 2529SOL    HW2 8487   0.839   0.351   6.410
 2530SOL     OW 8488   2.996   6.047   5.952
 2530SOL    HW1 8489   3.072   5.983   5.943
 2530SOL    HW2 8490   3.010   6.104   6.033
 2531SOL     OW 8491   5.748   5.964   5.621
 2531SOL    HW1 8492   5.655   5.947   5.588
 2531SOL    HW2 8493   5.786   6.044   5.574
 2532SOL     OW 8494   1.049   6.065   1.451
 2532SOL    HW1 8495   0.952   6.048   1.435
 2532SOL    HW2 8496   1.077   6.023   1.537
 2533SOL     OW 8497   4.880   0.824   3.276
 2533SOL    HW1 8498   4.969   0.798   3.238
 2533SOL    HW2 8499   4.842   0.746   3.327
 2534SOL     OW 8500   4.674   1.536   1.750
 2534SOL    HW1 8501   4.740   1.502   1.817
 2534SOL    HW2 8502   4.670   1.636   1.756
 2535SOL     OW 8503   3.707   2.760   6.505
 2535SOL    HW1 8504   3.634   2.787   6.568
 2535SOL    HW2 8505   3.787   2.731   6.557
 2536SOL     OW 8506   1.551   0.544   6.676
 2536SOL    HW1 8507   1.617   0.551   6.601
 2536SOL    HW2 8508   1.467   0.591   6.650
 2537SOL     OW 8509   3.674   0.580   6.539
 2537SOL    HW1 8510   3.596   0.600   6.479
 2537SOL    HW2 8511   3.749   0.542   6.485
 2538SOL     OW 8512   6.944   3.532   3.744
 2538SOL    HW1 8513   6.864   3.523   3.684
 2538SOL    HW2 8514   7.022   3.566   3.691
 2539SOL     OW 8515   5.861   0.862   3.483
 2539SOL    HW1 8516   5.854   0.865   3.384
 2539SOL    HW2 8517   5.857   0.956   3.520
 2540SOL     OW 8518   3.894   2.049   3.014
 2540SOL    HW1 8519   3.897   2.080   2.919
 2540SOL    HW2 8520   3.955   2.105   3.070
 2541SOL     OW 8521   2.623   0.126   4.835
 2541SOL    HW1 8522   2.566   0.208   4.826
 2541SOL    HW2 8523   2.696   0.143   4.902
 2542SOL     OW 8524   1.915   3.776   6.511
 2542SOL    HW1 8525   1.875   3.864   6.537
 2542SOL    HW2 8526   1.994   3.792   6.452
 2543SOL     OW 8527   0.804   1.328   4.266
 2543SOL    HW1 8528   0.892   1.359   4.304
 2543SOL    HW2 8529   0.821   1.264   4.191
 2544SOL     OW 8530   1.307   5.384   0.865
 2544SOL    HW1 8531   1.250   5.313   0.823
 2544SOL    HW2 8532   1.401   5.375   0.832
 2545SOL     OW 8533   1.980   0.106   2.443
 2545SOL    HW1 8534   2.037   0.113   2.525
 2545SOL    HW2 8535   1.884   0.119   2.468
 2546SOL     OW 8536   6.228   1.847   0.598
 2546SOL    HW1 8537   6.211   1.946   0.603
 2546SOL    HW2 8538   6.325   1.830   0.614
 2547SOL     OW 8539   0.121   3.959   6.769
 2547SOL    HW1 8540   0.104   3.881   6.709
 2547SOL    HW2 8541   0.211   3.998   6.750
 2548SOL     OW 8542   0.385   6.496   4.711
 2548SOL    HW1 8543   0.474   6.529   4.678
 2548SOL    HW2 8544   0.342   6.441   4.640
 2549SOL     OW 8545   0.385   0.358   1.584
 2549SOL    HW1 8546   0.294   0.395   1.565
 2549SOL    HW2 8547   0.381   0.258   1.587
 2550SOL     OW 8548   6.326   6.987   0.484
 2550SOL    HW1 8549   6.227   6.980   0.476
 2550SOL    HW2 8550   6.350   0.023   0.562
 2551SOL     OW 8551   2.578   4.534   6.616
 2551SOL    HW1 8552   2.534   4.594   6.682
 2551SOL    HW2 8553   2.597   4.585   6.532
 2552SOL     OW 8554   2.459   4.420   4.513
 2552SOL    HW1 8555   2.451   4.322   4.529
 2552SOL    HW2 8556   2.416   4.444   4.427
 2553SOL     OW 8557   3.992   3.823   6.154
 2553SOL    HW1 8558   4.089   3.815   6.172
 2553SOL    HW2 8559   3.960   3.742   6.105
 2554SOL     OW 8560   2.336   2.013   0.419
 2554SOL    HW1 8561   2.314   2.006   0.321
 2554SOL    HW2 8562   2.435   2.011   0.430
 2555SOL     OW 8563   4.965   2.902   4.285
 2555SOL    HW1 8564   4.925   2.967   4.220
 2555SOL    HW2 8565   4.939   2.928   4.378
 2556SOL     OW 8566   3.828   6.163   0.700
 2556SOL    HW1 8567   3.927   6.166   0.715
 2556SOL    HW2 8568   3.782   6.217   0.770
 2557SOL     OW 8569   2.055   3.328   6.537
 2557SOL    HW1 8570   2.048   3.269   6.456
 2557SOL    HW2 8571   2.057   3.271   6.619
 2558SOL     OW 8572   5.100   1.253   5.645
 2558SOL    HW1 8573   5.198   1.267   5.630
 2558SOL    HW2 8574   5.049   1.331   5.608
 2559SOL     OW 8575   0.800   4.327   5.964
 2559SOL    HW1 8576   0.849   4.338   6.051
 2559SOL    HW2 8577   0.712   4.373   5.969
 2560SOL     OW 8578   6.437   2.162   6.097
 2560SOL    HW1 8579   6.488   2.077   6.087
 2560SOL    HW2 8580   6.347   2.143   6.136
 2561SOL     OW 8581   3.187   5.208   4.463
 2561SOL    HW1 8582   3.129   5.250   4.393
 2561SOL    HW2 8583   3.277   5.252   4.464
 2562SOL     OW 8584   2.351   3.974   0.797
 2562SOL    HW1 8585   2.316   3.942   0.709
 2562SOL    HW2 8586   2.277   3.972   0.864
 2563SOL     OW 8587   2.932   0.556   0.254
 2563SOL    HW1 8588   3.012   0.604   0.291
 2563SOL    HW2 8589   2.850   0.613   0.267
 2564SOL     OW 8590   1.862   5.411   0.956
 2564SOL    HW1 8591   1.822   5.503   0.955
 2564SOL    HW2 8592   1.946   5.411   0.902
 2565SOL     OW 8593   1.046   0.899   0.980
 2565SOL    HW1 8594   0.961   0.856   0.948
 2565SOL    HW2 8595   1.033   0.998   0.985
 2566SOL     OW 8596   2.383   6.601   0.695
 2566SOL    HW1 8597   2.363   6.648   0.609
 2566SOL    HW2 8598   2.453   6.531   0.679
 2567SOL     OW 8599   1.345   6.886   0.390
 2567SOL    HW1 8600   1.439   6.854   0.401
 2567SOL    HW2 8601   1.340   6.984   0.410
 2568SOL     OW 8602   4.522   2.263   6.844
 2568SOL    HW1 8603   4.597   2.256   6.910
 2568SOL    HW2 8604   4.449   2.319   6.882
 2569SOL     OW 8605   3.895   1.293   3.758
 2569SOL    HW1 8606   3.936   1.234   3.689
 2569SOL    HW2 8607   3.860   1.376   3.715
 2570SOL     OW 8608   5.369   1.170   5.188
 2570SOL    HW1 8609   5.348   1.095   5.125
 2570SOL    HW2 8610   5.315   1.160   5.271
 2571SOL     OW 8611   1.156   4.911   4.692
 2571SOL    HW1 8612   1.235   4.903   4.753
 2571SOL    HW2 8613   1.186   4.947   4.604
 2572SOL     OW 8614   2.382   4.767   3.079
 2572SOL    HW1 8615   2.400   4.669   3.087
 2572SOL    HW2 8616   2.427   4.803   2.997
 2573SOL     OW 8617   0.637   1.340   1.209
 2573SOL    HW1 8618   0.664   1.288   1.128
 2573SOL    HW2 8619   0.696   1.420   1.219
 2574SOL     OW 8620   6.145   2.929   0.962
 2574SOL    HW1 8621   6.190   3.009   0.921
 2574SOL    HW2 8622   6.214   2.865   0.995
 2575SOL     OW 8623   5.965   5.740   0.273
 2575SOL    HW1 8624   6.017   5.790   0.341
 2575SOL    HW2 8625   6.017   5.734   0.188
 2576SOL     OW 8626   4.617   6.586   4.040
 2576SOL    HW1 8627   4.697   6.529   4.019
 2576SOL    HW2 8628   4.630   6.630   4.129
 2577SOL     OW 8629   3.081   4.821   2.276
 2577SOL    HW1 8630   3.009   4.759   2.244
 2577SOL    HW2 8631   3.154   4.825   2.208
 2578SOL     OW 8632   3.587   1.686   4.277
 2578SOL    HW1 8633   3.610   1.633   4.196
 2578SOL    HW2 8634   3.488   1.689   4.289
 2579SOL     OW 8635   0.763   6.425   3.383
 2579SOL    HW1 8636   0.856   6.435   3.348
 2579SOL    HW2 8637   0.767   6.403   3.481
 2580SOL     OW 8638   2.815   4.157   0.283
 2580SOL    HW1 8639   2.843   4.199   0.197
 2580SOL    HW2 8640   2.724   4.117   0.272
 2581SOL     OW 8641   2.787   6.451   5.672
 2581SOL    HW1 8642   2.706   6.400   5.701
 2581SOL    HW2 8643   2.758   6.534   5.624
 2582SOL     OW 8644   6.617   3.773   1.065
 2582SOL    HW1 8645   6.579   3.729   1.147
 2582SOL    HW2 8646   6.608   3.710   0.987
 2583SOL     OW 8647   6.969   6.529   0.689
 2583SOL    HW1 8648   6.976   6.455   0.622
 2583SOL    HW2 8649   6.917   6.605   0.649
 2584SOL     OW 8650   4.192   4.718   5.842
 2584SOL    HW1 8651   4.218   4.759   5.755
 2584SOL    HW2 8652   4.099   4.748   5.865
 2585SOL     OW 8653   3.221   5.227   6.039
 2585SOL    HW1 8654   3.212   5.128   6.028
 2585SOL    HW2 8655   3.188   5.254   6.129
 2586SOL     OW 8656   2.152   0.906   5.739
 2586SOL    HW1 8657   2.205   0.903   5.654
 2586SOL    HW2 8658   2.055   0.898   5.718
 2587SOL     OW 8659   0.320   0.849   2.768
 2587SOL    HW1 8660   0.275   0.878   2.683
 2587SOL    HW2 8661   0.347   0.753   2.760
 2588SOL     OW 8662   4.568   1.952   5.408
 2588SOL    HW1 8663   4.514   1.926   5.488
 2588SOL    HW2 8664   4.510   1.950   5.326
 2589SOL     OW 8665   1.197   6.462   0.016
 2589SOL    HW1 8666   1.117   6.460   6.979
 2589SOL    HW2 8667   1.257   6.537   7.012
 2590SOL     OW 8668   2.601   4.662   0.123
 2590SOL    HW1 8669   2.689   4.614   0.125
 2590SOL    HW2 8670   2.585   4.705   0.212
 2591SOL     OW 8671   6.184   5.638   4.089
 2591SOL    HW1 8672   6.238   5.615   4.170
 2591SOL    HW2 8673   6.105   5.576   4.084
 2592SOL     OW 8674   2.026   4.179   6.812
 2592SOL    HW1 8675   1.928   4.161   6.800
 2592SOL    HW2 8676   2.078   4.101   6.779
 2593SOL     OW 8677   3.371   5.889   0.927
 2593SOL    HW1 8678   3.297   5.843   0.878
 2593SOL    HW2 8679   3.458   5.868   0.883
 2594SOL     OW 8680   1.965   3.904   5.133
 2594SOL    HW1 8681   2.002   3.953   5.054
 2594SOL    HW2 8682   2.032   3.907   5.207
 2595SOL     OW 8683   1.396   1.846   4.715
 2595SOL    HW1 8684   1.447   1.841   4.801
 2595SOL    HW2 8685   1.456   1.882   4.644
 2596SOL     OW 8686   1.865   2.593   1.278
 2596SOL    HW1 8687   1.815   2.548   1.352
 2596SOL    HW2 8688   1.802   2.641   1.218
 2597SOL     OW 8689   0.885   5.704   6.109
 2597SOL    HW1 8690   0.829   5.672   6.185
 2597SOL    HW2 8691   0.977   5.665   6.116
 2598SOL     OW 8692   6.106   1.467   2.063
 2598SOL    HW1 8693   6.095   1.393   2.130
 2598SOL    HW2 8694   6.165   1.538   2.102
 2599SOL     OW 8695   3.215   6.918   1.573
 2599SOL    HW1 8696   3.313   6.923   1.593
 2599SOL    HW2 8697   3.165   6.974   1.639
 2600SOL     OW 8698   6.917   4.000   4.360
 2600SOL    HW1 8699   6.858   4.039   4.289
 2600SOL    HW2 8700   7.012   4.011   4.333
 2601SOL     OW 8701   0.856   1.726   2.462
 2601SOL    HW1 8702   0.785   1.765   2.522
 2601SOL    HW2 8703   0.923   1.678   2.517
 2602SOL     OW 8704   1.682   5.006   4.457
 2602SOL    HW1 8705   1.683   4.910   4.487
 2602SOL    HW2 8706   1.589   5.043   4.468
 2603SOL     OW 8707   3.191   1.406   2.526
 2603SOL    HW1 8708   3.099   1.389   2.563
 2603SOL    HW2 8709   3.184   1.463   2.444
 2604SOL     OW 8710   5.822   1.316   1.983
 2604SOL    HW1 8711   5.868   1.229   1.998
 2604SOL    HW2 8712   5.872   1.388   2.032
 2605SOL     OW 8713   0.976   3.847   1.519
 2605SOL    HW1 8714   0.986   3.764   1.574
 2605SOL    HW2 8715   0.952   3.923   1.579
 2606SOL     OW 8716   4.771   4.438   1.127
 2606SOL    HW1 8717   4.829   4.518   1.111
 2606SOL    HW2 8718   4.709   4.456   1.202
 2607SOL     OW 8719   1.762   2.166   1.398
 2607SOL    HW1 8720   1.819   2.103   1.450
 2607SOL    HW2 8721   1.795   2.170   1.303
 2608SOL     OW 8722   2.818   5.986   6.561
 2608SOL    HW1 8723   2.794   5.893   6.590
 2608SOL    HW2 8724   2.769   6.052   6.616
 2609SOL     OW 8725   0.771   0.490   1.343
 2609SOL    HW1 8726   0.743   0.461   1.435
 2609SOL    HW2 8727   0.862   0.530   1.347
 2610SOL     OW 8728   0.871   4.918   4.712
 2610SOL    HW1 8729   0.966   4.890   4.698
 2610SOL    HW2 8730   0.863   4.972   4.795
 2611SOL     OW 8731   4.991   6.522   6.865
 2611SOL    HW1 8732   4.961   6.427   6.875
 2611SOL    HW2 8733   4.911   6.581   6.849
 2612SOL     OW 8734   5.179   0.263   4.858
 2612SOL    HW1 8735   5.235   0.211   4.924
 2612SOL    HW2 8736   5.163   0.206   4.777
 2613SOL     OW 8737   0.764   5.695   6.524
 2613SOL    HW1 8738   0.745   5.685   6.426
 2613SOL    HW2 8739   0.802   5.610   6.560
 2614SOL     OW 8740   6.682   0.467   6.177
 2614SOL    HW1 8741   6.647   0.534   6.110
 2614SOL    HW2 8742   6.605   0.429   6.229
 2615SOL     OW 8743   1.171   4.140   0.833
 2615SOL    HW1 8744   1.189   4.081   0.755
 2615SOL    HW2 8745   1.178   4.086   0.917
 2616SOL     OW 8746   1.682   0.358   5.440
 2616SOL    HW1 8747   1.625   0.297   5.385
 2616SOL    HW2 8748   1.779   0.344   5.417
 2617SOL     OW 8749   5.451   0.442   0.281
 2617SOL    HW1 8750   5.444   0.542   0.276
 2617SOL    HW2 8751   5.479   0.416   0.373
 2618SOL     OW 8752   1.734   6.372   6.115
 2618SOL    HW1 8753   1.721   6.442   6.185
 2618SOL    HW2 8754   1.727   6.414   6.025
 2619SOL     OW 8755   4.380   1.790   2.022
 2619SOL    HW1 8756   4.339   1.839   1.945
 2619SOL    HW2 8757   4.320   1.713   2.047
 2620SOL     OW 8758   6.957   6.233   1.941
 2620SOL    HW1 8759   6.918   6.191   1.859
 2620SOL    HW2 8760   7.011   6.313   1.915
 2621SOL     OW 8761   1.201   5.955   3.030
 2621SOL    HW1 8762   1.151   6.009   2.962
 2621SOL    HW2 8763   1.288   6.000   3.051
 2622SOL     OW 8764   3.011   3.534   6.554
 2622SOL    HW1 8765   2.999   3.546   6.456
 2622SOL    HW2 8766   2.924   3.505   6.595
 2623SOL     OW 8767   1.005   0.165   4.076
 2623SOL    HW1 8768   0.980   0.069   4.064
 2623SOL    HW2 8769   0.941   0.223   4.026
 2624SOL     OW 8770   0.278   2.245   4.582
 2624SOL    HW1 8771   0.315   2.320   4.637
 2624SOL    HW2 8772   0.222   2.186   4.640
 2625SOL     OW 8773   1.820   5.345   5.256
 2625SOL    HW1 8774   1.731   5.318   5.218
 2625SOL    HW2 8775   1.884   5.269   5.247
 2626SOL     OW 8776   6.319   5.251   5.948
 2626SOL    HW1 8777   6.341   5.284   6.040
 2626SOL    HW2 8778   6.273   5.323   5.897
 2627SOL     OW 8779   1.116   0.159   6.075
 2627SOL    HW1 8780   1.020   0.175   6.097
 2627SOL    HW2 8781   1.173   0.226   6.124
 2628SOL     OW 8782   1.443   4.067   2.302
 2628SOL    HW1 8783   1.403   3.993   2.356
 2628SOL    HW2 8784   1.467   4.144   2.362
 2629SOL     OW 8785   4.043   3.801   3.354
 2629SOL    HW1 8786   4.047   3.816   3.453
 2629SOL    HW2 8787   3.948   3.800   3.324
 2630SOL     OW 8788   3.549   0.848   3.925
 2630SOL    HW1 8789   3.485   0.821   3.853
 2630SOL    HW2 8790   3.503   0.847   4.014
 2631SOL     OW 8791   5.878   0.852   0.051
 2631SOL    HW1 8792   5.871   0.798   0.135
 2631SOL    HW2 8793   5.800   0.831   7.015
 2632SOL     OW 8794   5.460   4.793   1.995
 2632SOL    HW1 8795   5.368   4.762   2.021
 2632SOL    HW2 8796   5.464   4.893   2.002
 2633SOL     OW 8797   6.723   3.243   5.673
 2633SOL    HW1 8798   6.798   3.308   5.662
 2633SOL    HW2 8799   6.647   3.269   5.614
 2634SOL     OW 8800   6.061   0.443   5.448
 2634SOL    HW1 8801   6.116   0.507   5.394
 2634SOL    HW2 8802   5.987   0.407   5.391
 2635SOL     OW 8803   5.875   5.526   3.731
 2635SOL    HW1 8804   5.824   5.480   3.804
 2635SOL    HW2 8805   5.811   5.573   3.671
 2636SOL     OW 8806   4.142   6.721   6.454
 2636SOL    HW1 8807   4.150   6.772   6.539
 2636SOL    HW2 8808   4.119   6.784   6.380
 2637SOL     OW 8809   1.672   1.198   3.402
 2637SOL    HW1 8810   1.573   1.196   3.386
 2637SOL    HW2 8811   1.710   1.282   3.364
 2638SOL     OW 8812   0.864   0.107   4.509
 2638SOL    HW1 8813   0.944   0.110   4.448
 2638SOL    HW2 8814   0.847   0.013   4.536
 2639SOL     OW 8815   4.272   5.044   4.722
 2639SOL    HW1 8816   4.330   4.965   4.742
 2639SOL    HW2 8817   4.327   5.128   4.724
 2640SOL     OW 8818   1.426   6.907   4.529
 2640SOL    HW1 8819   1.424   6.987   4.469
 2640SOL    HW2 8820   1.373   6.833   4.486
 2641SOL     OW 8821   5.578   1.970   6.877
 2641SOL    HW1 8822   5.582   2.067   6.900
 2641SOL    HW2 8823   5.521   1.921   6.944
 2642SOL     OW 8824   6.966   1.351   4.391
 2642SOL    HW1 8825   6.919   1.438   4.407
 2642SOL    HW2 8826   6.994   1.311   4.479
 2643SOL     OW 8827   1.209   4.068   3.537
 2643SOL    HW1 8828   1.147   4.119   3.597
 2643SOL    HW2 8829   1.289   4.039   3.590
 2644SOL     OW 8830   5.026   5.321   4.936
 2644SOL    HW1 8831   5.069   5.410   4.949
 2644SOL    HW2 8832   4.958   5.305   5.007
 2645SOL     OW 8833   4.968   4.899   3.389
 2645SOL    HW1 8834   5.054   4.851   3.371
 2645SOL    HW2 8835   4.904   4.882   3.314
 2646SOL     OW 8836   6.943   3.453   5.730
 2646SOL    HW1 8837   6.979   3.521   5.794
 2646SOL    HW2 8838   6.991   3.367   5.742
 2647SOL     OW 8839   5.098   6.923   2.145
 2647SOL    HW1 8840   5.081   6.934   2.047
 2647SOL    HW2 8841   5.165   6.850   2.159
 2648SOL     OW 8842   0.430   0.151   4.786
 2648SOL    HW1 8843   0.393   0.071   4.740
 2648SOL    HW2 8844   0.447   0.224   4.719
 2649SOL     OW 8845   5.097   2.389   1.828
 2649SOL    HW1 8846   5.158   2.428   1.897
 2649SOL    HW2 8847   5.125   2.295   1.808
 2650SOL     OW 8848   3.693   6.174   5.061
 2650SOL    HW1 8849   3.737   6.186   4.972
 2650SOL    HW2 8850   3.651   6.083   5.065
 2651SOL     OW 8851   3.949   1.869   5.047
 2651SOL    HW1 8852   3.927   1.858   4.950
 2651SOL    HW2 8853   4.047   1.857   5.061
 2652SOL     OW 8854   5.267   4.294   5.536
 2652SOL    HW1 8855   5.289   4.227   5.607
 2652SOL    HW2 8856   5.217   4.371   5.576
 2653SOL     OW 8857   2.870   6.375   0.125
 2653SOL    HW1 8858   2.882   6.474   0.125
 2653SOL    HW2 8859   2.869   6.342   0.031
 2654SOL     OW 8860   5.801   0.805   0.582
 2654SOL    HW1 8861   5.797   0.706   0.596
 2654SOL    HW2 8862   5.745   0.851   0.651
 2655SOL     OW 8863   4.993   5.738   2.897
 2655SOL    HW1 8864   4.943   5.729   2.811
 2655SOL    HW2 8865   4.968   5.823   2.942
 2656SOL     OW 8866   3.533   5.467   3.811
 2656SOL    HW1 8867   3.438   5.457   3.840
 2656SOL    HW2 8868   3.585   5.386   3.838
 2657SOL     OW 8869   1.795   3.534   0.257
 2657SOL    HW1 8870   1.756   3.620   0.288
 2657SOL    HW2 8871   1.864   3.551   0.187
 2658SOL     OW 8872   4.221   4.616   6.645
 2658SOL    HW1 8873   4.276   4.543   6.686
 2658SOL    HW2 8874   4.197   4.591   6.551
 2659SOL     OW 8875   6.699   2.617   4.901
 2659SOL    HW1 8876   6.702   2.526   4.860
 2659SOL    HW2 8877   6.756   2.679   4.847
 2660SOL     OW 8878   0.401   2.294   1.789
 2660SOL    HW1 8879   0.405   2.391   1.764
 2660SOL    HW2 8880   0.403   2.239   1.705
 2661SOL     OW 8881   1.522   1.367   0.950
 2661SOL    HW1 8882   1.441   1.378   0.893
 2661SOL    HW2 8883   1.604   1.385   0.896
 2662SOL     OW 8884   3.224   0.907   2.695
 2662SOL    HW1 8885   3.161   0.830   2.686
 2662SOL    HW2 8886   3.276   0.917   2.610
 2663SOL     OW 8887   4.101   6.503   0.114
 2663SOL    HW1 8888   4.128   6.416   0.154
 2663SOL    HW2 8889   4.097   6.494   0.014
 2664SOL     OW 8890   4.112   2.644   5.756
 2664SOL    HW1 8891   4.036   2.602   5.707
 2664SOL    HW2 8892   4.092   2.741   5.772
 2665SOL     OW 8893   1.849   3.642   5.172
 2665SOL    HW1 8894   1.759   3.686   5.181
 2665SOL    HW2 8895   1.899   3.685   5.096
 2666SOL     OW 8896   2.195   3.948   2.298
 2666SOL    HW1 8897   2.272   4.011   2.309
 2666SOL    HW2 8898   2.175   3.904   2.386
 2667SOL     OW 8899   6.413   3.775   4.203
 2667SOL    HW1 8900   6.345   3.701   4.197
 2667SOL    HW2 8901   6.382   3.844   4.268
 2668SOL     OW 8902   6.281   1.066   3.984
 2668SOL    HW1 8903   6.271   1.019   3.896
 2668SOL    HW2 8904   6.192   1.066   4.032
 2669SOL     OW 8905   2.643   1.057   0.195
 2669SOL    HW1 8906   2.548   1.061   0.162
 2669SOL    HW2 8907   2.662   0.965   0.229
 2670SOL     OW 8908   0.520   0.686   6.200
 2670SOL    HW1 8909   0.504   0.588   6.215
 2670SOL    HW2 8910   0.479   0.713   6.113
 2671SOL     OW 8911   4.137   5.198   5.845
 2671SOL    HW1 8912   4.189   5.278   5.814
 2671SOL    HW2 8913   4.174   5.165   5.931
 2672SOL     OW 8914   3.671   1.168   1.946
 2672SOL    HW1 8915   3.665   1.075   1.982
 2672SOL    HW2 8916   3.756   1.179   1.894
 2673SOL     OW 8917   4.490   0.600   2.037
 2673SOL    HW1 8918   4.427   0.563   1.969
 2673SOL    HW2 8919   4.584   0.578   2.011
 2674SOL     OW 8920   0.866   4.693   2.279
 2674SOL    HW1 8921   0.963   4.684   2.259
 2674SOL    HW2 8922   0.828   4.770   2.228
 2675SOL     OW 8923   5.822   0.262   4.519
 2675SOL    HW1 8924   5.763   0.342   4.525
 2675SOL    HW2 8925   5.782   0.195   4.456
 2676SOL     OW 8926   3.366   3.950   3.187
 2676SOL    HW1 8927   3.362   3.870   3.247
 2676SOL    HW2 8928   3.274   3.990   3.179
 2677SOL     OW 8929   2.185   4.876   1.492
 2677SOL    HW1 8930   2.236   4.954   1.454
 2677SOL    HW2 8931   2.189   4.800   1.427
 2678SOL     OW 8932   5.454   2.036   2.554
 2678SOL    HW1 8933   5.355   2.028   2.546
 2678SOL    HW2 8934   5.486   1.973   2.625
 2679SOL     OW 8935   2.043   4.588   3.788
 2679SOL    HW1 8936   1.998   4.669   3.825
 2679SOL    HW2 8937   2.005   4.566   3.698
 2680SOL     OW 8938   0.573   1.914   6.927
 2680SOL    HW1 8939   0.483   1.954   6.908
 2680SOL    HW2 8940   0.645   1.977   6.898
 2681SOL     OW 8941   1.817   2.317   5.039
 2681SOL    HW1 8942   1.908   2.353   5.064
 2681SOL    HW2 8943   1.827   2.241   4.975
 2682SOL     OW 8944   4.221   4.048   1.559
 2682SOL    HW1 8945   4.240   4.145   1.543
 2682SOL    HW2 8946   4.293   4.010   1.617
 2683SOL     OW 8947   2.399   4.487   2.444
 2683SOL    HW1 8948   2.306   4.517   2.466
 2683SOL    HW2 8949   2.461   4.520   2.514
 2684SOL     OW 8950   5.999   6.848   2.402
 2684SOL    HW1 8951   6.004   6.759   2.357
 2684SOL    HW2 8952   5.927   6.847   2.471
 2685SOL     OW 8953   0.932   6.121   5.136
 2685SOL    HW1 8954   0.979   6.079   5.214
 2685SOL    HW2 8955   0.894   6.209   5.164
 2686SOL     OW 8956   1.146   1.843   4.613
 2686SOL    HW1 8957   1.155   1.833   4.513
 2686SOL    HW2 8958   1.227   1.806   4.657
 2687SOL     OW 8959   3.732   1.599   1.515
 2687SOL    HW1 8960   3.740   1.532   1.589
 2687SOL    HW2 8961   3.696   1.555   1.433
 2688SOL     OW 8962   3.476   3.468   5.906
 2688SOL    HW1 8963   3.547   3.403   5.879
 2688SOL    HW2 8964   3.519   3.551   5.941
 2689SOL     OW 8965   1.107   3.618   3.039
 2689SOL    HW1 8966   1.138   3.570   3.121
 2689SOL    HW2 8967   1.180   3.680   3.007
 2690SOL     OW 8968   3.612   1.513   6.459
 2690SOL    HW1 8969   3.623   1.422   6.418
 2690SOL    HW2 8970   3.518   1.544   6.445
 2691SOL     OW 8971   0.491   4.689   3.908
 2691SOL    HW1 8972   0.554   4.659   3.980
 2691SOL    HW2 8973   0.461   4.609   3.855
 2692SOL     OW 8974   3.108   5.910   2.842
 2692SOL    HW1 8975   3.089   5.827   2.894
 2692SOL    HW2 8976   3.026   5.939   2.794
 2693SOL     OW 8977   1.387   5.199   3.334
 2693SOL    HW1 8978   1.464   5.136   3.338
 2693SOL    HW2 8979   1.383   5.253   3.418
 2694SOL     OW 8980   3.691   6.843   4.044
 2694SOL    HW1 8981   3.679   6.935   4.083
 2694SOL    HW2 8982   3.760   6.794   4.097
 2695SOL     OW 8983   6.940   5.206   3.580
 2695SOL    HW1 8984   6.944   5.150   3.498
 2695SOL    HW2 8985   6.844   5.215   3.609
 2696SOL     OW 8986   4.965   4.370   6.417
 2696SOL    HW1 8987   4.937   4.399   6.326
 2696SOL    HW2 8988   4.988   4.450   6.472
 2697SOL     OW 8989   4.142   2.482   0.851
 2697SOL    HW1 8990   4.226   2.517   0.810
 2697SOL    HW2 8991   4.156   2.390   0.886
 2698SOL     OW 8992   1.669   4.010   6.049
 2698SOL    HW1 8993   1.762   3.994   6.082
 2698SOL    HW2 8994   1.648   3.945   5.976
 2699SOL     OW 8995   3.335   5.919   2.188
 2699SOL    HW1 8996   3.382   5.953   2.107
 2699SOL    HW2 8997   3.261   5.982   2.213
 2700SOL     OW 8998   2.992   2.019   1.905
 2700SOL    HW1 8999   2.938   1.936   1.890
 2700SOL    HW2 9000   2.932   2.094   1.931
 2701SOL     OW 9001   5.344   2.991   4.655
 2701SOL    HW1 9002   5.309   3.081   4.681
 2701SOL    HW2 9003   5.443   2.997   4.641
 2702SOL     OW 9004   2.589   1.536   4.850
 2702SOL    HW1 9005   2.498   1.494   4.846
 2702SOL    HW2 9006   2.605   1.573   4.941
 2703SOL     OW 9007   1.497   6.846   1.817
 2703SOL    HW1 9008   1.430   6.911   1.853
 2703SOL    HW2 9009   1.558   6.894   1.754
 2704SOL     OW 9010   5.538   0.128   3.935
 2704SOL    HW1 9011   5.599   0.052   3.955
 2704SOL    HW2 9012   5.585   0.215   3.950
 2705SOL     OW 9013   6.847   6.939   5.176
 2705SOL    HW1 9014   6.823   0.001   5.224
 2705SOL    HW2 9015   6.888   6.962   5.088
 2706SOL     OW 9016   6.619   3.798   3.573
 2706SOL    HW1 9017   6.665   3.814   3.660
 2706SOL    HW2 9018   6.676   3.739   3.515
 2707SOL     OW 9019   3.911   0.316   3.317
 2707SOL    HW1 9020   3.965   0.399   3.322
 2707SOL    HW2 9021   3.933   0.267   3.232
 2708SOL     OW 9022   6.256   2.990   0.677
 2708SOL    HW1 9023   6.303   3.074   0.648
 2708SOL    HW2 9024   6.164   2.988   0.638
 2709SOL     OW 9025   4.345   1.000   4.785
 2709SOL    HW1 9026   4.343   1.037   4.878
 2709SOL    HW2 9027   4.373   1.072   4.721
 2710SOL     OW 9028   1.215   2.390   3.885
 2710SOL    HW1 9029   1.258   2.437   3.808
 2710SOL    HW2 9030   1.148   2.451   3.928
 2711SOL     OW 9031   3.448   2.094   2.761
 2711SOL    HW1 9032   3.471   2.017   2.702
 2711SOL    HW2 9033   3.401   2.164   2.707
 2712SOL     OW 9034   4.103   5.572   2.125
 2712SOL    HW1 9035   4.071   5.479   2.144
 2712SOL    HW2 9036   4.203   5.570   2.113
 2713SOL     OW 9037   3.577   4.961   6.227
 2713SOL    HW1 9038   3.612   4.947   6.319
 2713SOL    HW2 9039   3.509   4.892   6.206
 2714SOL     OW 9040   2.552   4.652   6.877
 2714SOL    HW1 9041   2.472   4.705   6.851
 2714SOL    HW2 9042   2.569   4.663   6.975
 2715SOL     OW 9043   4.308   0.858   1.015
 2715SOL    HW1 9044   4.294   0.954   0.993
 2715SOL    HW2 9045   4.224   0.821   1.055
 2716SOL     OW 9046   3.971   2.113   2.756
 2716SOL    HW1 9047   3.917   2.102   2.672
 2716SOL    HW2 9048   4.049   2.172   2.737
 2717SOL     OW 9049   0.654   1.204   2.772
 2717SOL    HW1 9050   0.636   1.110   2.801
 2717SOL    HW2 9051   0.743   1.208   2.726
 2718SOL     OW 9052   6.981   6.827   5.882
 2718SOL    HW1 9053   6.993   6.895   5.811
 2718SOL    HW2 9054   7.020   6.740   5.853
 2719SOL     OW 9055   2.073   3.543   2.462
 2719SOL    HW1 9056   2.002   3.518   2.396
 2719SOL    HW2 9057   2.115   3.461   2.500
 2720SOL     OW 9058   1.693   6.408   5.812
 2720SOL    HW1 9059   1.710   6.310   5.820
 2720SOL    HW2 9060   1.769   6.451   5.763
 2721SOL     OW 9061   3.583   5.315   1.538
 2721SOL    HW1 9062   3.561   5.218   1.528
 2721SOL    HW2 9063   3.650   5.326   1.611
 2722SOL     OW 9064   4.585   5.332   6.819
 2722SOL    HW1 9065   4.499   5.361   6.861
 2722SOL    HW2 9066   4.620   5.406   6.761
 2723SOL     OW 9067   3.284   6.763   0.501
 2723SOL    HW1 9068   3.327   6.715   0.578
 2723SOL    HW2 9069   3.313   6.859   0.503
 2724SOL     OW 9070   1.507   5.749   1.171
 2724SOL    HW1 9071   1.482   5.785   1.081
 2724SOL    HW2 9072   1.489   5.818   1.241
 2725SOL     OW 9073   5.191   3.594   5.175
 2725SOL    HW1 9074   5.248   3.609   5.094
 2725SOL    HW2 9075   5.214   3.662   5.245
 2726SOL     OW 9076   0.381   1.237   1.892
 2726SOL    HW1 9077   0.298   1.223   1.838
 2726SOL    HW2 9078   0.461   1.212   1.839
 2727SOL     OW 9079   2.006   3.899   4.630
 2727SOL    HW1 9080   2.039   3.953   4.707
 2727SOL    HW2 9081   2.002   3.802   4.656
 2728SOL     OW 9082   5.700   5.797   5.933
 2728SOL    HW1 9083   5.783   5.746   5.908
 2728SOL    HW2 9084   5.641   5.740   5.990
 2729SOL     OW 9085   5.327   5.693   6.110
 2729SOL    HW1 9086   5.359   5.775   6.158
 2729SOL    HW2 9087   5.253   5.717   6.048
 2730SOL     OW 9088   1.192   5.462   2.269
 2730SOL    HW1 9089   1.232   5.415   2.347
 2730SOL    HW2 9090   1.157   5.551   2.297
 2731SOL     OW 9091   3.192   3.226   3.953
 2731SOL    HW1 9092   3.131   3.247   3.877
 2731SOL    HW2 9093   3.168   3.137   3.992
 2732SOL     OW 9094   5.588   1.280   2.085
 2732SOL    HW1 9095   5.673   1.322   2.052
 2732SOL    HW2 9096   5.572   1.194   2.036
 2733SOL     OW 9097   0.857   0.372   6.002
 2733SOL    HW1 9098   0.868   0.341   5.908
 2733SOL    HW2 9099   0.842   0.471   6.003
 2734SOL     OW 9100   3.546   5.903   1.624
 2734SOL    HW1 9101   3.604   5.868   1.551
 2734SOL    HW2 9102   3.516   5.827   1.682
 2735SOL     OW 9103   0.585   1.342   1.472
 2735SOL    HW1 9104   0.675   1.383   1.490
 2735SOL    HW2 9105   0.570   1.336   1.373
 2736SOL     OW 9106   4.674   5.185   3.718
 2736SOL    HW1 9107   4.709   5.186   3.624
 2736SOL    HW2 9108   4.574   5.192   3.716
 2737SOL     OW 9109   2.586   1.941   6.737
 2737SOL    HW1 9110   2.526   2.012   6.698
 2737SOL    HW2 9111   2.651   1.984   6.799
 2738SOL     OW 9112   5.632   0.049   1.501
 2738SOL    HW1 9113   5.646   0.070   1.598
 2738SOL    HW2 9114   5.721   0.042   1.455
 2739SOL     OW 9115   1.066   5.223   2.212
 2739SOL    HW1 9116   1.105   5.314   2.229
 2739SOL    HW2 9117   0.999   5.202   2.283
 2740SOL     OW 9118   6.609   6.344   3.373
 2740SOL    HW1 9119   6.699   6.301   3.376
 2740SOL    HW2 9120   6.620   6.442   3.353
 2741SOL     OW 9121   1.041   1.854   4.868
 2741SOL    HW1 9122   1.054   1.856   4.769
 2741SOL    HW2 9123   0.945   1.871   4.889
 2742SOL     OW 9124   3.556   5.369   1.890
 2742SOL    HW1 9125   3.635   5.329   1.844
 2742SOL    HW2 9126   3.473   5.324   1.857
 2743SOL     OW 9127   5.916   4.525   2.535
 2743SOL    HW1 9128   5.908   4.618   2.499
 2743SOL    HW2 9129   5.960   4.529   2.625
 2744SOL     OW 9130   3.555   3.888   3.495
 2744SOL    HW1 9131   3.512   3.797   3.503
 2744SOL    HW2 9132   3.488   3.952   3.457
 2745SOL     OW 9133   6.934   0.369   5.836
 2745SOL    HW1 9134   6.934   0.346   5.933
 2745SOL    HW2 9135   6.971   0.292   5.784
 2746SOL     OW 9136   1.583   0.907   3.651
 2746SOL    HW1 9137   1.527   0.849   3.592
 2746SOL    HW2 9138   1.548   1.000   3.649
 2747SOL     OW 9139   3.786   5.937   0.514
 2747SOL    HW1 9140   3.688   5.924   0.529
 2747SOL    HW2 9141   3.812   6.029   0.542
 2748SOL     OW 9142   4.334   6.858   1.884
 2748SOL    HW1 9143   4.304   6.864   1.789
 2748SOL    HW2 9144   4.334   6.762   1.913
 2749SOL     OW 9145   1.919   3.349   0.418
 2749SOL    HW1 9146   1.970   3.406   0.483
 2749SOL    HW2 9147   1.868   3.409   0.356
 2750SOL     OW 9148   2.464   5.539   2.336
 2750SOL    HW1 9149   2.367   5.547   2.315
 2750SOL    HW2 9150   2.476   5.488   2.421
 2751SOL     OW 9151   0.515   3.282   1.104
 2751SOL    HW1 9152   0.509   3.261   1.006
 2751SOL    HW2 9153   0.466   3.366   1.123
 2752SOL     OW 9154   3.542   4.932   6.544
 2752SOL    HW1 9155   3.604   4.854   6.556
 2752SOL    HW2 9156   3.447   4.900   6.547
 2753SOL     OW 9157   5.895   5.642   5.064
 2753SOL    HW1 9158   5.836   5.583   5.118
 2753SOL    HW2 9159   5.954   5.696   5.125
 2754SOL     OW 9160   1.032   6.911   6.465
 2754SOL    HW1 9161   1.048   6.909   6.366
 2754SOL    HW2 9162   1.072   6.829   6.506
 2755SOL     OW 9163   2.847   6.659   2.994
 2755SOL    HW1 9164   2.933   6.619   2.962
 2755SOL    HW2 9165   2.863   6.754   3.020
 2756SOL     OW 9166   4.853   6.161   0.087
 2756SOL    HW1 9167   4.773   6.103   0.070
 2756SOL    HW2 9168   4.910   6.120   0.158
 2757SOL     OW 9169   0.954   4.950   1.715
 2757SOL    HW1 9170   0.985   5.039   1.748
 2757SOL    HW2 9171   0.963   4.948   1.615
 2758SOL     OW 9172   5.012   0.350   5.382
 2758SOL    HW1 9173   5.062   0.311   5.304
 2758SOL    HW2 9174   5.065   0.424   5.422
 2759SOL     OW 9175   5.698   6.443   4.477
 2759SOL    HW1 9176   5.766   6.515   4.466
 2759SOL    HW2 9177   5.721   6.387   4.557
 2760SOL     OW 9178   2.474   5.082   2.511
 2760SOL    HW1 9179   2.423   5.013   2.563
 2760SOL    HW2 9180   2.555   5.039   2.470
 2761SOL     OW 9181   2.253   5.361   2.669
 2761SOL    HW1 9182   2.241   5.457   2.693
 2761SOL    HW2 9183   2.213   5.304   2.741
 2762SOL     OW 9184   0.950   0.002   5.732
 2762SOL    HW1 9185   1.020   0.036   5.669
 2762SOL    HW2 9186   0.978   6.936   5.770
 2763SOL     OW 9187   5.273   1.597   3.601
 2763SOL    HW1 9188   5.204   1.662   3.568
 2763SOL    HW2 9189   5.364   1.626   3.568
 2764SOL     OW 9190   5.547   0.914   1.445
 2764SOL    HW1 9191   5.603   0.888   1.367
 2764SOL    HW2 9192   5.499   0.833   1.479
 2765SOL     OW 9193   5.928   1.080   2.065
 2765SOL    HW1 9194   5.840   1.048   2.098
 2765SOL    HW2 9195   6.000   1.016   2.091
 2766SOL     OW 9196   6.194   1.498   1.573
 2766SOL    HW1 9197   6.217   1.449   1.489
 2766SOL    HW2 9198   6.099   1.478   1.599
 2767SOL     OW 9199   5.662   3.689   6.318
 2767SOL    HW1 9200   5.690   3.739   6.400
 2767SOL    HW2 9201   5.593   3.620   6.343
 2768SOL     OW 9202   4.833   1.060   6.948
 2768SOL    HW1 9203   4.817   1.146   6.899
 2768SOL    HW2 9204   4.928   1.032   6.936
 2769SOL     OW 9205   0.230   4.696   1.815
 2769SOL    HW1 9206   0.293   4.773   1.817
 2769SOL    HW2 9207   0.272   4.617   1.860
 2770SOL     OW 9208   1.348   5.128   1.620
 2770SOL    HW1 9209   1.276   5.165   1.562
 2770SOL    HW2 9210   1.313   5.050   1.671
 2771SOL     OW 9211   5.724   1.855   1.313
 2771SOL    HW1 9212   5.748   1.843   1.409
 2771SOL    HW2 9213   5.638   1.809   1.293
 2772SOL     OW 9214   4.048   2.438   6.683
 2772SOL    HW1 9215   4.046   2.425   6.583
 2772SOL    HW2 9216   3.992   2.368   6.727
 2773SOL     OW 9217   3.879   4.343   6.774
 2773SOL    HW1 9218   3.933   4.329   6.692
 2773SOL    HW2 9219   3.924   4.298   6.852
 2774SOL     OW 9220   5.516   3.359   2.126
 2774SOL    HW1 9221   5.449   3.286   2.137
 2774SOL    HW2 9222   5.604   3.320   2.099
 2775SOL     OW 9223   0.315   5.851   1.357
 2775SOL    HW1 9224   0.273   5.761   1.359
 2775SOL    HW2 9225   0.262   5.914   1.414
 2776SOL     OW 9226   3.116   6.524   6.564
 2776SOL    HW1 9227   3.132   6.433   6.524
 2776SOL    HW2 9228   3.153   6.594   6.503
 2777SOL     OW 9229   3.394   1.607   2.610
 2777SOL    HW1 9230   3.324   1.540   2.585
 2777SOL    HW2 9231   3.475   1.560   2.646
 2778SOL     OW 9232   2.436   2.065   5.928
 2778SOL    HW1 9233   2.440   2.165   5.928
 2778SOL    HW2 9234   2.517   2.028   5.973
 2779SOL     OW 9235   5.210   0.421   6.708
 2779SOL    HW1 9236   5.263   0.349   6.663
 2779SOL    HW2 9237   5.132   0.380   6.756
 2780SOL     OW 9238   5.018   4.985   6.041
 2780SOL    HW1 9239   5.038   5.083   6.036
 2780SOL    HW2 9240   4.943   4.963   5.979
 2781SOL     OW 9241   5.604   4.595   1.267
 2781SOL    HW1 9242   5.527   4.537   1.241
 2781SOL    HW2 9243   5.637   4.570   1.358
 2782SOL     OW 9244   3.063   2.789   6.429
 2782SOL    HW1 9245   3.028   2.883   6.426
 2782SOL    HW2 9246   3.148   2.784   6.376
 2783SOL     OW 9247   0.128   4.548   5.417
 2783SOL    HW1 9248   0.226   4.569   5.423
 2783SOL    HW2 9249   0.086   4.608   5.348
 2784SOL     OW 9250   1.804   2.438   1.492
 2784SOL    HW1 9251   1.799   2.344   1.459
 2784SOL    HW2 9252   1.738   2.451   1.566
 2785SOL     OW 9253   6.566   0.603   0.245
 2785SOL    HW1 9254   6.555   0.513   0.204
 2785SOL    HW2 9255   6.479   0.653   0.240
 2786SOL     OW 9256   4.008   6.376   1.042
 2786SOL    HW1 9257   3.948   6.446   1.002
 2786SOL    HW2 9258   4.102   6.408   1.042
 2787SOL     OW 9259   2.217   3.065   5.953
 2787SOL    HW1 9260   2.215   3.063   5.853
 2787SOL    HW2 9261   2.234   3.159   5.984
 2788SOL     OW 9262   2.697   4.369   0.966
 2788SOL    HW1 9263   2.710   4.275   0.935
 2788SOL    HW2 9264   2.607   4.377   1.010
 2789SOL     OW 9265   0.888   1.901   4.409
 2789SOL    HW1 9266   0.810   1.907   4.347
 2789SOL    HW2 9267   0.951   1.830   4.376
 2790SOL     OW 9268   3.706   4.915   2.938
 2790SOL    HW1 9269   3.609   4.916   2.959
 2790SOL    HW2 9270   3.757   4.955   3.014
 2791SOL     OW 9271   1.256   3.509   4.950
 2791SOL    HW1 9272   1.177   3.449   4.959
 2791SOL    HW2 9273   1.340   3.455   4.962
 2792SOL     OW 9274   0.434   0.858   5.035
 2792SOL    HW1 9275   0.494   0.786   5.070
 2792SOL    HW2 9276   0.488   0.937   5.009
 2793SOL     OW 9277   5.334   1.544   2.626
 2793SOL    HW1 9278   5.265   1.520   2.695
 2793SOL    HW2 9279   5.296   1.530   2.535
 2794SOL     OW 9280   0.077   1.278   0.381
 2794SOL    HW1 9281   0.105   1.193   0.337
 2794SOL    HW2 9282   0.001   1.260   0.443
 2795SOL     OW 9283   2.919   3.955   1.423
 2795SOL    HW1 9284   2.963   3.988   1.339
 2795SOL    HW2 9285   2.942   3.859   1.437
 2796SOL     OW 9286   5.873   4.266   2.904
 2796SOL    HW1 9287   5.878   4.170   2.876
 2796SOL    HW2 9288   5.895   4.324   2.826
 2797SOL     OW 9289   4.673   5.289   5.012
 2797SOL    HW1 9290   4.604   5.356   4.984
 2797SOL    HW2 9291   4.677   5.284   5.111
 2798SOL     OW 9292   1.060   3.284   3.530
 2798SOL    HW1 9293   0.978   3.237   3.563
 2798SOL    HW2 9294   1.038   3.380   3.511
 2799SOL     OW 9295   6.751   5.076   6.269
 2799SOL    HW1 9296   6.740   5.042   6.176
 2799SOL    HW2 9297   6.823   5.146   6.270
 2800SOL     OW 9298   3.125   5.174   6.465
 2800SOL    HW1 9299   3.223   5.181   6.482
 2800SOL    HW2 9300   3.088   5.097   6.516
 2801SOL     OW 9301   5.051   5.446   2.407
 2801SOL    HW1 9302   5.028   5.540   2.382
 2801SOL    HW2 9303   4.978   5.406   2.461
 2802SOL     OW 9304   4.089   1.928   5.983
 2802SOL    HW1 9305   4.043   2.016   5.970
 2802SOL    HW2 9306   4.180   1.943   6.021
 2803SOL     OW 9307   2.415   6.797   6.090
 2803SOL    HW1 9308   2.403   6.726   6.159
 2803SOL    HW2 9309   2.339   6.861   6.094
 2804SOL     OW 9310   6.366   4.670   3.851
 2804SOL    HW1 9311   6.364   4.650   3.949
 2804SOL    HW2 9312   6.460   4.688   3.822
 2805SOL     OW 9313   5.186   2.946   1.086
 2805SOL    HW1 9314   5.207   2.987   1.175
 2805SOL    HW2 9315   5.091   2.915   1.085
 2806SOL     OW 9316   6.269   5.493   2.912
 2806SOL    HW1 9317   6.351   5.445   2.945
 2806SOL    HW2 9318   6.258   5.578   2.963
 2807SOL     OW 9319   3.819   4.888   3.652
 2807SOL    HW1 9320   3.864   4.962   3.601
 2807SOL    HW2 9321   3.781   4.822   3.587
 2808SOL     OW 9322   5.486   1.371   3.466
 2808SOL    HW1 9323   5.430   1.290   3.450
 2808SOL    HW2 9324   5.582   1.349   3.447
 2809SOL     OW 9325   6.057   2.522   1.031
 2809SOL    HW1 9326   6.134   2.458   1.033
 2809SOL    HW2 9327   6.076   2.594   0.964
 2810SOL     OW 9328   2.425   0.352   5.337
 2810SOL    HW1 9329   2.430   0.292   5.417
 2810SOL    HW2 9330   2.335   0.342   5.294
 2811SOL     OW 9331   0.859   1.221   3.054
 2811SOL    HW1 9332   0.815   1.297   3.101
 2811SOL    HW2 9333   0.838   1.135   3.101
 2812SOL     OW 9334   4.936   3.605   2.781
 2812SOL    HW1 9335   5.030   3.572   2.780
 2812SOL    HW2 9336   4.879   3.546   2.723
 2813SOL     OW 9337   5.607   6.718   6.034
 2813SOL    HW1 9338   5.673   6.706   5.959
 2813SOL    HW2 9339   5.655   6.723   6.121
 2814SOL     OW 9340   4.255   3.914   5.714
 2814SOL    HW1 9341   4.324   3.890   5.646
 2814SOL    HW2 9342   4.218   4.005   5.693
 2815SOL     OW 9343   6.688   1.102   4.671
 2815SOL    HW1 9344   6.602   1.153   4.663
 2815SOL    HW2 9345   6.755   1.158   4.720
 2816SOL     OW 9346   5.917   0.170   3.713
 2816SOL    HW1 9347   5.897   0.167   3.615
 2816SOL    HW2 9348   5.931   0.077   3.747
 2817SOL     OW 9349   1.900   1.148   1.798
 2817SOL    HW1 9350   1.931   1.232   1.842
 2817SOL    HW2 9351   1.804   1.131   1.821
 2818SOL     OW 9352   6.764   4.628   6.215
 2818SOL    HW1 9353   6.863   4.635   6.224
 2818SOL    HW2 9354   6.737   4.531   6.217
 2819SOL     OW 9355   0.318   3.299   0.235
 2819SOL    HW1 9356   0.403   3.257   0.205
 2819SOL    HW2 9357   0.300   3.381   0.182
 2820SOL     OW 9358   6.956   2.712   2.748
 2820SOL    HW1 9359   6.914   2.792   2.793
 2820SOL    HW2 9360   0.032   2.728   2.738
 2821SOL     OW 9361   1.379   4.661   5.435
 2821SOL    HW1 9362   1.309   4.671   5.364
 2821SOL    HW2 9363   1.462   4.709   5.406
 2822SOL     OW 9364   5.131   2.061   7.004
 2822SOL    HW1 9365   5.213   2.005   6.991
 2822SOL    HW2 9366   5.137   2.108   0.070
 2823SOL     OW 9367   2.479   6.950   2.250
 2823SOL    HW1 9368   2.441   6.986   2.336
 2823SOL    HW2 9369   2.404   6.924   2.189
 2824SOL     OW 9370   2.574   1.687   5.095
 2824SOL    HW1 9371   2.636   1.705   5.170
 2824SOL    HW2 9372   2.480   1.678   5.130
 2825SOL     OW 9373   6.922   6.563   0.987
 2825SOL    HW1 9374   6.930   6.652   1.031
 2825SOL    HW2 9375   6.879   6.574   0.897
 2826SOL     OW 9376   5.007   2.043   5.335
 2826SOL    HW1 9377   5.045   2.104   5.265
 2826SOL    HW2 9378   4.915   2.074   5.360
 2827SOL     OW 9379   6.057   1.129   5.077
 2827SOL    HW1 9380   6.014   1.071   5.146
 2827SOL    HW2 9381   6.141   1.085   5.045
 2828SOL     OW 9382   3.909   0.880   5.952
 2828SOL    HW1 9383   3.967   0.835   5.884
 2828SOL    HW2 9384   3.820   0.836   5.954
 2829SOL     OW 9385   3.632   6.298   5.939
 2829SOL    HW1 9386   3.728   6.271   5.940
 2829SOL    HW2 9387   3.577   6.226   5.979
 2830SOL     OW 9388   4.781   3.195   6.350
 2830SOL    HW1 9389   4.803   3.108   6.307
 2830SOL    HW2 9390   4.683   3.213   6.342
 2831SOL     OW 9391   5.707   6.307   4.245
 2831SOL    HW1 9392   5.657   6.354   4.172
 2831SOL    HW2 9393   5.700   6.361   4.329
 2832SOL     OW 9394   0.266   1.121   1.402
 2832SOL    HW1 9395   0.277   1.042   1.342
 2832SOL    HW2 9396   0.260   1.204   1.347
 2833SOL     OW 9397   6.032   2.393   1.947
 2833SOL    HW1 9398   6.006   2.322   2.013
 2833SOL    HW2 9399   5.986   2.374   1.860
 2834SOL     OW 9400   3.470   1.730   5.950
 2834SOL    HW1 9401   3.453   1.752   6.046
 2834SOL    HW2 9402   3.477   1.631   5.939
 2835SOL     OW 9403   0.552   6.539   2.417
 2835SOL    HW1 9404   0.503   6.458   2.448
 2835SOL    HW2 9405   0.637   6.548   2.469
 2836SOL     OW 9406   0.053   6.696   1.950
 2836SOL    HW1 9407   0.065   6.684   1.851
 2836SOL    HW2 9408   7.011   6.770   1.967
 2837SOL     OW 9409   5.565   3.746   3.532
 2837SOL    HW1 9410   5.482   3.756   3.477
 2837SOL    HW2 9411   5.581   3.830   3.584
 2838SOL     OW 9412   2.743   4.839   1.752
 2838SOL    HW1 9413   2.684   4.872   1.826
 2838SOL    HW2 9414   2.828   4.804   1.791
 2839SOL     OW 9415   6.037   1.758   1.646
 2839SOL    HW1 9416   6.090   1.718   1.721
 2839SOL    HW2 9417   6.058   1.710   1.561
 2840SOL     OW 9418   0.109   1.378   5.496
 2840SOL    HW1 9419   0.096   1.477   5.508
 2840SOL    HW2 9420   0.075   1.352   5.405
 2841SOL     OW 9421   1.193   5.705   1.313
 2841SOL    HW1 9422   1.209   5.644   1.235
 2841SOL    HW2 9423   1.280   5.726   1.357
 2842SOL     OW 9424   6.806   3.316   3.807
 2842SOL    HW1 9425   6.728   3.371   3.838
 2842SOL    HW2 9426   6.883   3.376   3.785
 2843SOL     OW 9427   3.707   0.955   5.285
 2843SOL    HW1 9428   3.685   0.918   5.195
 2843SOL    HW2 9429   3.755   0.885   5.339
 2844SOL     OW 9430   1.364   4.296   0.017
 2844SOL    HW1 9431   1.274   4.268   7.005
 2844SOL    HW2 9432   1.417   4.215   0.042
 2845SOL     OW 9433   0.592   4.014   6.793
 2845SOL    HW1 9434   0.546   4.091   6.750
 2845SOL    HW2 9435   0.597   4.028   6.892
 2846SOL     OW 9436   4.756   1.311   6.834
 2846SOL    HW1 9437   4.796   1.398   6.808
 2846SOL    HW2 9438   4.694   1.279   6.762
 2847SOL     OW 9439   6.273   4.391   3.601
 2847SOL    HW1 9440   6.181   4.359   3.579
 2847SOL    HW2 9441   6.271   4.488   3.624
 2848SOL     OW 9442   0.593   4.826   5.174
 2848SOL    HW1 9443   0.579   4.822   5.075
 2848SOL    HW2 9444   0.687   4.798   5.196
 2849SOL     OW 9445   2.920   1.811   0.506
 2849SOL    HW1 9446   2.853   1.841   0.437
 2849SOL    HW2 9447   2.950   1.891   0.559
 2850SOL     OW 9448   3.408   0.395   1.182
 2850SOL    HW1 9449   3.471   0.408   1.259
 2850SOL    HW2 9450   3.426   0.306   1.140
 2851SOL     OW 9451   0.942   4.563   5.532
 2851SOL    HW1 9452   1.011   4.601   5.593
 2851SOL    HW2 9453   0.987   4.520   5.454
 2852SOL     OW 9454   6.346   3.110   6.652
 2852SOL    HW1 9455   6.293   3.031   6.621
 2852SOL    HW2 9456   6.287   3.171   6.704
 2853SOL     OW 9457   3.496   2.598   1.155
 2853SOL    HW1 9458   3.557   2.554   1.221
 2853SOL    HW2 9459   3.407   2.614   1.197
 2854SOL     OW 9460   2.419   0.486   4.413
 2854SOL    HW1 9461   2.423   0.503   4.314
 2854SOL    HW2 9462   2.326   0.462   4.439
 2855SOL     OW 9463   1.946   0.902   5.340
 2855SOL    HW1 9464   1.932   0.995   5.373
 2855SOL    HW2 9465   1.913   0.896   5.245
 2856SOL     OW 9466   2.369   2.759   5.229
 2856SOL    HW1 9467   2.374   2.719   5.321
 2856SOL    HW2 9468   2.395   2.855   5.234
 2857SOL     OW 9469   2.695   2.328   1.537
 2857SOL    HW1 9470   2.729   2.282   1.455
 2857SOL    HW2 9471   2.604   2.365   1.518
 2858SOL     OW 9472   6.362   2.660   2.536
 2858SOL    HW1 9473   6.352   2.571   2.580
 2858SOL    HW2 9474   6.272   2.704   2.528
 2859SOL     OW 9475   4.891   1.189   0.861
 2859SOL    HW1 9476   4.870   1.129   0.784
 2859SOL    HW2 9477   4.966   1.150   0.915
 2860SOL     OW 9478   3.982   2.008   1.691
 2860SOL    HW1 9479   3.969   2.064   1.609
 2860SOL    HW2 9480   3.942   1.917   1.675
 2861SOL     OW 9481   4.053   5.733   5.587
 2861SOL    HW1 9482   4.011   5.725   5.496
 2861SOL    HW2 9483   4.024   5.656   5.644
 2862SOL     OW 9484   5.198   1.181   3.634
 2862SOL    HW1 9485   5.185   1.280   3.642
 2862SOL    HW2 9486   5.151   1.147   3.552
 2863SOL     OW 9487   6.296   1.961   0.019
 2863SOL    HW1 9488   6.342   2.038   6.996
 2863SOL    HW2 9489   6.262   1.897   6.973
 2864SOL     OW 9490   4.185   0.630   1.507
 2864SOL    HW1 9491   4.115   0.572   1.548
 2864SOL    HW2 9492   4.142   0.698   1.448
 2865SOL     OW 9493   4.498   4.317   5.274
 2865SOL    HW1 9494   4.409   4.355   5.248
 2865SOL    HW2 9495   4.558   4.315   5.193
 2866SOL     OW 9496   0.103   5.712   6.669
 2866SOL    HW1 9497   0.132   5.622   6.636
 2866SOL    HW2 9498   0.005   5.724   6.655
 2867SOL     OW 9499   6.151   5.063   2.697
 2867SOL    HW1 9500   6.160   4.978   2.644
 2867SOL    HW2 9501   6.131   5.139   2.634
 2868SOL     OW 9502   0.747   4.109   5.322
 2868SOL    HW1 9503   0.713   4.167   5.249
 2868SOL    HW2 9504   0.776   4.021   5.285
 2869SOL     OW 9505   6.101   0.469   2.233
 2869SOL    HW1 9506   6.080   0.390   2.290
 2869SOL    HW2 9507   6.122   0.439   2.140
 2870SOL     OW 9508   6.298   2.387   3.426
 2870SOL    HW1 9509   6.199   2.391   3.436
 2870SOL    HW2 9510   6.342   2.423   3.509
 2871SOL     OW 9511   1.909   1.838   6.526
 2871SOL    HW1 9512   1.962   1.790   6.455
 2871SOL    HW2 9513   1.861   1.915   6.484
 2872SOL     OW 9514   2.524   0.546   4.121
 2872SOL    HW1 9515   2.591   0.527   4.049
 2872SOL    HW2 9516   2.514   0.645   4.131
 2873SOL     OW 9517   1.119   5.741   2.646
 2873SOL    HW1 9518   1.190   5.683   2.686
 2873SOL    HW2 9519   1.151   5.835   2.642
 2874SOL     OW 9520   5.289   4.122   2.157
 2874SOL    HW1 9521   5.381   4.130   2.118
 2874SOL    HW2 9522   5.287   4.165   2.247
 2875SOL     OW 9523   3.519   5.978   6.273
 2875SOL    HW1 9524   3.542   5.912   6.202
 2875SOL    HW2 9525   3.542   5.940   6.363
 2876SOL     OW 9526   0.583   1.013   1.266
 2876SOL    HW1 9527   0.573   1.102   1.310
 2876SOL    HW2 9528   0.512   1.002   1.197
 2877SOL     OW 9529   3.078   2.851   5.321
 2877SOL    HW1 9530   3.105   2.943   5.294
 2877SOL    HW2 9531   3.154   2.788   5.308
 2878SOL     OW 9532   2.469   4.567   4.936
 2878SOL    HW1 9533   2.517   4.625   5.002
 2878SOL    HW2 9534   2.513   4.572   4.847
 2879SOL     OW 9535   4.839   5.010   6.830
 2879SOL    HW1 9536   4.844   5.035   6.734
 2879SOL    HW2 9537   4.762   5.058   6.873
 2880SOL     OW 9538   0.741   6.055   1.138
 2880SOL    HW1 9539   0.803   6.029   1.063
 2880SOL    HW2 9540   0.730   6.155   1.138
 2881SOL     OW 9541   6.370   6.064   0.643
 2881SOL    HW1 9542   6.339   6.128   0.573
 2881SOL    HW2 9543   6.303   5.990   0.653
 2882SOL     OW 9544   6.896   3.311   2.264
 2882SOL    HW1 9545   6.815   3.368   2.278
 2882SOL    HW2 9546   6.943   3.298   2.351
 2883SOL     OW 9547   3.644   6.929   2.825
 2883SOL    HW1 9548   3.635   6.927   2.924
 2883SOL    HW2 9549   3.734   6.896   2.799
 2884SOL     OW 9550   0.813   6.158   2.923
 2884SOL    HW1 9551   0.816   6.137   3.021
 2884SOL    HW2 9552   0.719   6.152   2.890
 2885SOL     OW 9553   0.289   2.161   2.555
 2885SOL    HW1 9554   0.270   2.096   2.629
 2885SOL    HW2 9555   0.375   2.136   2.511
 2886SOL     OW 9556   1.858   2.106   6.838
 2886SOL    HW1 9557   1.876   2.020   6.885
 2886SOL    HW2 9558   1.760   2.125   6.840
 2887SOL     OW 9559   2.049   0.407   4.834
 2887SOL    HW1 9560   2.124   0.472   4.824
 2887SOL    HW2 9561   2.085   0.314   4.836
 2888SOL     OW 9562   6.527   4.642   6.934
 2888SOL    HW1 9563   6.620   4.668   6.961
 2888SOL    HW2 9564   6.528   4.549   6.895
 2889SOL     OW 9565   0.630   0.669   1.751
 2889SOL    HW1 9566   0.579   0.751   1.724
 2889SOL    HW2 9567   0.728   0.692   1.757
 2890SOL     OW 9568   3.380   0.617   1.525
 2890SOL    HW1 9569   3.292   0.570   1.516
 2890SOL    HW2 9570   3.426   0.618   1.436
 2891SOL     OW 9571   1.819   4.153   3.916
 2891SOL    HW1 9572   1.810   4.252   3.930
 2891SOL    HW2 9573   1.847   4.136   3.821
 2892SOL     OW 9574   3.617   4.365   6.615
 2892SOL    HW1 9575   3.559   4.284   6.610
 2892SOL    HW2 9576   3.684   4.353   6.689
 2893SOL     OW 9577   2.762   6.927   5.111
 2893SOL    HW1 9578   2.759   6.849   5.048
 2893SOL    HW2 9579   2.747   7.012   5.059
 2894SOL     OW 9580   2.611   2.904   0.071
 2894SOL    HW1 9581   2.619   2.860   0.160
 2894SOL    HW2 9582   2.653   2.846   0.001
 2895SOL     OW 9583   3.867   3.258   6.315
 2895SOL    HW1 9584   3.929   3.309   6.255
 2895SOL    HW2 9585   3.859   3.164   6.283
 2896SOL     OW 9586   2.471   5.540   6.752
 2896SOL    HW1 9587   2.553   5.590   6.780
 2896SOL    HW2 9588   2.417   5.518   6.833
 2897SOL     OW 9589   2.466   6.403   3.520
 2897SOL    HW1 9590   2.476   6.472   3.449
 2897SOL    HW2 9591   2.532   6.330   3.505
 2898SOL     OW 9592   4.351   5.335   2.201
 2898SOL    HW1 9593   4.331   5.263   2.135
 2898SOL    HW2 9594   4.364   5.294   2.292
 2899SOL     OW 9595   7.005   0.011   6.588
 2899SOL    HW1 9596   6.962   6.986   6.665
 2899SOL    HW2 9597   7.002   0.109   6.603
 2900SOL     OW 9598   1.151   5.283   5.682
 2900SOL    HW1 9599   1.210   5.287   5.601
 2900SOL    HW2 9600   1.203   5.249   5.760
 2901SOL     OW 9601   3.038   0.713   2.648
 2901SOL    HW1 9602   2.957   0.769   2.662
 2901SOL    HW2 9603   3.029   0.663   2.562
 2902SOL     OW 9604   5.381   6.497   0.859
 2902SOL    HW1 9605   5.452   6.472   0.792
 2902SOL    HW2 9606   5.307   6.545   0.812
 2903SOL     OW 9607   2.521   0.985   1.964
 2903SOL    HW1 9608   2.525   1.084   1.971
 2903SOL    HW2 9609   2.462   0.959   1.887
 2904SOL     OW 9610   2.140   3.140   5.127
 2904SOL    HW1 9611   2.153   3.239   5.115
 2904SOL    HW2 9612   2.206   3.091   5.071
 2905SOL     OW 9613   1.512   1.025   2.245
 2905SOL    HW1 9614   1.445   0.952   2.257
 2905SOL    HW2 9615   1.474   1.112   2.277
 2906SOL     OW 9616   5.437   5.184   2.576
 2906SOL    HW1 9617   5.359   5.247   2.578
 2906SOL    HW2 9618   5.496   5.208   2.499
 2907SOL     OW 9619   0.376   2.104   5.296
 2907SOL    HW1 9620   0.349   2.011   5.271
 2907SOL    HW2 9621   0.445   2.100   5.369
 2908SOL     OW 9622   4.367   6.507   4.501
 2908SOL    HW1 9623   4.355   6.580   4.567
 2908SOL    HW2 9624   4.341   6.539   4.410
 2909SOL     OW 9625   1.450   5.687   4.480
 2909SOL    HW1 9626   1.373   5.748   4.463
 2909SOL    HW2 9627   1.493   5.712   4.567
 2910SOL     OW 9628   3.786   6.512   5.058
 2910SOL    HW1 9629   3.739   6.560   5.132
 2910SOL    HW2 9630   3.733   6.432   5.031
 2911SOL     OW 9631   2.028   4.613   3.457
 2911SOL    HW1 9632   1.997   4.537   3.514
 2911SOL    HW2 9633   2.042   4.581   3.363
 2912SOL     OW 9634   2.752   5.950   0.137
 2912SOL    HW1 9635   2.746   5.860   0.180
 2912SOL    HW2 9636   2.789   6.016   0.203
 2913SOL     OW 9637   1.363   3.639   2.294
 2913SOL    HW1 9638   1.398   3.577   2.225
 2913SOL    HW2 9639   1.438   3.674   2.350
 2914SOL     OW 9640   5.690   4.731   5.892
 2914SOL    HW1 9641   5.645   4.700   5.809
 2914SOL    HW2 9642   5.788   4.740   5.876
 2915SOL     OW 9643   4.255   1.185   4.237
 2915SOL    HW1 9644   4.161   1.208   4.212
 2915SOL    HW2 9645   4.256   1.137   4.325
 2916SOL     OW 9646   5.908   4.757   5.242
 2916SOL    HW1 9647   5.870   4.836   5.290
 2916SOL    HW2 9648   5.999   4.781   5.207
 2917SOL     OW 9649   4.596   0.046   1.335
 2917SOL    HW1 9650   4.674   0.097   1.298
 2917SOL    HW2 9651   4.548   0.104   1.401
 2918SOL     OW 9652   0.526   4.002   3.239
 2918SOL    HW1 9653   0.499   4.084   3.188
 2918SOL    HW2 9654   0.581   3.943   3.181
 2919SOL     OW 9655   6.147   6.493   0.694
 2919SOL    HW1 9656   6.183   6.425   0.758
 2919SOL    HW2 9657   6.203   6.494   0.611
 2920SOL     OW 9658   4.102   2.193   2.467
 2920SOL    HW1 9659   4.012   2.212   2.427
 2920SOL    HW2 9660   4.156   2.138   2.402
 2921SOL     OW 9661   0.292   1.250   2.969
 2921SOL    HW1 9662   0.337   1.189   3.035
 2921SOL    HW2 9663   0.194   1.231   2.967
 2922SOL     OW 9664   4.968   0.062   5.427
 2922SOL    HW1 9665   4.901   0.127   5.462
 2922SOL    HW2 9666   5.027   0.107   5.360
 2923SOL     OW 9667   6.712   4.756   2.294
 2923SOL    HW1 9668   6.618   4.728   2.314
 2923SOL    HW2 9669   6.746   4.813   2.370
 2924SOL     OW 9670   0.589   1.135   5.604
 2924SOL    HW1 9671   0.629   1.095   5.686
 2924SOL    HW2 9672   0.655   1.195   5.560
 2925SOL     OW 9673   5.276   2.997   1.622
 2925SOL    HW1 9674   5.201   3.055   1.654
 2925SOL    HW2 9675   5.273   2.910   1.670
 2926SOL     OW 9676   6.819   1.673   4.790
 2926SOL    HW1 9677   6.820   1.765   4.827
 2926SOL    HW2 9678   6.804   1.676   4.691
 2927SOL     OW 9679   1.279   2.494   2.313
 2927SOL    HW1 9680   1.341   2.460   2.384
 2927SOL    HW2 9681   1.269   2.425   2.241
 2928SOL     OW 9682   6.733   0.268   6.812
 2928SOL    HW1 9683   6.682   0.231   6.890
 2928SOL    HW2 9684   6.698   0.227   6.727
 2929SOL     OW 9685   0.715   0.473   6.799
 2929SOL    HW1 9686   0.744   0.558   6.843
 2929SOL    HW2 9687   0.786   0.404   6.811
 2930SOL     OW 9688   5.211   0.488   4.724
 2930SOL    HW1 9689   5.114   0.505   4.707
 2930SOL    HW2 9690   5.221   0.423   4.800
 2931SOL     OW 9691   4.839   6.300   6.491
 2931SOL    HW1 9692   4.782   6.322   6.570
 2931SOL    HW2 9693   4.794   6.333   6.408
 2932SOL     OW 9694   1.089   3.972   1.280
 2932SOL    HW1 9695   1.093   3.903   1.353
 2932SOL    HW2 9696   1.141   4.053   1.308
 2933SOL     OW 9697   5.114   2.943   3.638
 2933SOL    HW1 9698   5.076   2.856   3.607
 2933SOL    HW2 9699   5.063   3.018   3.595
 2934SOL     OW 9700   3.089   0.213   0.182
 2934SOL    HW1 9701   3.023   0.138   0.182
 2934SOL    HW2 9702   3.044   0.297   0.155
 2935SOL     OW 9703   6.219   3.912   1.168
 2935SOL    HW1 9704   6.273   3.887   1.088
 2935SOL    HW2 9705   6.194   3.829   1.218
 2936SOL     OW 9706   4.824   5.461   0.415
 2936SOL    HW1 9707   4.819   5.557   0.443
 2936SOL    HW2 9708   4.763   5.446   0.337
 2937SOL     OW 9709   3.703   5.345   0.752
 2937SOL    HW1 9710   3.714   5.275   0.823
 2937SOL    HW2 9711   3.658   5.305   0.673
 2938SOL     OW 9712   4.946   5.721   5.548
 2938SOL    HW1 9713   4.979   5.815   5.543
 2938SOL    HW2 9714   4.850   5.720   5.576
 2939SOL     OW 9715   5.921   6.735   5.349
 2939SOL    HW1 9716   6.005   6.743   5.295
 2939SOL    HW2 9717   5.849   6.791   5.306
 2940SOL     OW 9718   5.516   0.090   5.235
 2940SOL    HW1 9719   5.461   0.090   5.318
 2940SOL    HW2 9720   5.512   0.180   5.192
 2941SOL     OW 9721   0.758   1.983   5.237
 2941SOL    HW1 9722   0.712   1.898   5.262
 2941SOL    HW2 9723   0.706   2.061   5.274
 2942SOL     OW 9724   3.606   0.532   2.079
 2942SOL    HW1 9725   3.540   0.604   2.056
 2942SOL    HW2 9726   3.574   0.482   2.159
 2943SOL     OW 9727   5.669   3.303   2.927
 2943SOL    HW1 9728   5.751   3.275   2.877
 2943SOL    HW2 9729   5.672   3.265   3.020
 2944SOL     OW 9730   3.627   5.077   4.685
 2944SOL    HW1 9731   3.546   5.032   4.723
 2944SOL    HW2 9732   3.605   5.172   4.662
 2945SOL     OW 9733   3.345   3.340   3.371
 2945SOL    HW1 9734   3.253   3.380   3.372
 2945SOL    HW2 9735   3.363   3.296   3.460
 2946SOL     OW 9736   6.818   5.942   5.902
 2946SOL    HW1 9737   6.814   5.958   5.804
 2946SOL    HW2 9738   6.824   6.030   5.950
 2947SOL     OW 9739   6.666   3.651   6.579
 2947SOL    HW1 9740   6.615   3.715   6.635
 2947SOL    HW2 9741   6.673   3.686   6.485
 2948SOL     OW 9742   6.195   3.937   5.064
 2948SOL    HW1 9743   6.157   3.953   4.973
 2948SOL    HW2 9744   6.167   3.848   5.097
 2949SOL     OW 9745   1.896   6.862   0.934
 2949SOL    HW1 9746   1.942   6.773   0.933
 2949SOL    HW2 9747   1.806   6.853   0.891
 2950SOL     OW 9748   6.218   3.577   4.203
 2950SOL    HW1 9749   6.125   3.602   4.175
 2950SOL    HW2 9750   6.215   3.533   4.293
 2951SOL     OW 9751   0.350   1.672   0.413
 2951SOL    HW1 9752   0.357   1.590   0.470
 2951SOL    HW2 9753   0.387   1.653   0.322
 2952SOL     OW 9754   1.204   4.402   3.349
 2952SOL    HW1 9755   1.140   4.442   3.414
 2952SOL    HW2 9756   1.172   4.312   3.321
 2953SOL     OW 9757   4.478   2.108   1.976
 2953SOL    HW1 9758   4.509   2.014   1.964
 2953SOL    HW2 9759   4.509   2.141   2.066
 2954SOL     OW 9760   0.209   6.566   2.572
 2954SOL    HW1 9761   0.241   6.658   2.550
 2954SOL    HW2 9762   0.223   6.506   2.493
 2955SOL     OW 9763   0.486   3.263   0.853
 2955SOL    HW1 9764   0.520   3.217   0.771
 2955SOL    HW2 9765   0.485   3.361   0.838
 2956SOL     OW 9766   0.286   5.123   3.261
 2956SOL    HW1 9767   0.271   5.187   3.185
 2956SOL    HW2 9768   0.356   5.057   3.234
 2957SOL     OW 9769   6.986   4.120   1.433
 2957SOL    HW1 9770   6.971   4.146   1.338
 2957SOL    HW2 9771   6.942   4.031   1.450
 2958SOL     OW 9772   1.371   4.492   5.796
 2958SOL    HW1 9773   1.336   4.549   5.721
 2958SOL    HW2 9774   1.454   4.534   5.833
 2959SOL     OW 9775   5.162   4.740   5.987
 2959SOL    HW1 9776   5.139   4.823   6.038
 2959SOL    HW2 9777   5.078   4.688   5.970
 2960SOL     OW 9778   2.710   2.054   6.948
 2960SOL    HW1 9779   2.650   2.121   6.991
 2960SOL    HW2 9780   2.706   1.968   6.998
 2961SOL     OW 9781   5.693   3.602   4.363
 2961SOL    HW1 9782   5.752   3.683   4.365
 2961SOL    HW2 9783   5.597   3.631   4.365
 2962SOL     OW 9784   4.541   1.119   3.341
 2962SOL    HW1 9785   4.495   1.039   3.380
 2962SOL    HW2 9786   4.575   1.177   3.415
 2963SOL     OW 9787   1.782   1.129   5.446
 2963SOL    HW1 9788   1.831   1.189   5.384
 2963SOL    HW2 9789   1.693   1.170   5.468
 2964SOL     OW 9790   1.804   6.404   1.689
 2964SOL    HW1 9791   1.811   6.504   1.686
 2964SOL    HW2 9792   1.744   6.377   1.764
 2965SOL     OW 9793   0.211   1.104   5.413
 2965SOL    HW1 9794   0.163   1.025   5.451
 2965SOL    HW2 9795   0.174   1.188   5.453
 2966SOL     OW 9796   5.362   4.625   3.948
 2966SOL    HW1 9797   5.391   4.673   4.031
 2966SOL    HW2 9798   5.268   4.593   3.960
 2967SOL     OW 9799   5.430   2.422   4.120
 2967SOL    HW1 9800   5.492   2.410   4.043
 2967SOL    HW2 9801   5.437   2.516   4.154
 2968SOL     OW 9802   0.776   3.714   4.287
 2968SOL    HW1 9803   0.710   3.645   4.317
 2968SOL    HW2 9804   0.852   3.718   4.352
 2969SOL     OW 9805   5.956   2.029   4.906
 2969SOL    HW1 9806   5.948   2.097   4.833
 2969SOL    HW2 9807   5.945   2.074   4.994
 2970SOL     OW 9808   0.921   4.399   6.213
 2970SOL    HW1 9809   0.928   4.497   6.194
 2970SOL    HW2 9810   0.849   4.383   6.281
 2971SOL     OW 9811   5.714   3.076   3.641
 2971SOL    HW1 9812   5.688   3.048   3.549
 2971SOL    HW2 9813   5.742   3.172   3.641
 2972SOL     OW 9814   6.401   3.581   6.152
 2972SOL    HW1 9815   6.464   3.505   6.165
 2972SOL    HW2 9816   6.317   3.548   6.110
 2973SOL     OW 9817   5.198   0.131   3.516
 2973SOL    HW1 9818   5.249   0.081   3.446
 2973SOL    HW2 9819   5.258   0.153   3.592
 2974SOL     OW 9820   6.759   4.691   2.740
 2974SOL    HW1 9821   6.696   4.683   2.817
 2974SOL    HW2 9822   6.848   4.722   2.773
 2975SOL     OW 9823   0.370   1.242   5.192
 2975SOL    HW1 9824   0.320   1.318   5.234
 2975SOL    HW2 9825   0.456   1.276   5.155
 2976SOL     OW 9826   4.290   1.382   2.550
 2976SOL    HW1 9827   4.260   1.470   2.513
 2976SOL    HW2 9828   4.389   1.382   2.561
 2977SOL     OW 9829   2.616   6.914   4.204
 2977SOL    HW1 9830   2.680   6.903   4.128
 2977SOL    HW2 9831   2.544   6.845   4.198
 2978SOL     OW 9832   4.836   5.076   0.410
 2978SOL    HW1 9833   4.749   5.081   0.459
 2978SOL    HW2 9834   4.905   5.034   0.468
 2979SOL     OW 9835   3.681   0.352   3.036
 2979SOL    HW1 9836   3.647   0.332   2.944
 2979SOL    HW2 9837   3.755   0.288   3.059
 2980SOL     OW 9838   0.977   6.546   4.244
 2980SOL    HW1 9839   1.039   6.611   4.199
 2980SOL    HW2 9840   0.938   6.485   4.175
 2981SOL     OW 9841   1.248   0.971   5.797
 2981SOL    HW1 9842   1.266   0.881   5.837
 2981SOL    HW2 9843   1.313   0.989   5.724
 2982SOL     OW 9844   4.109   5.895   2.567
 2982SOL    HW1 9845   4.176   5.846   2.510
 2982SOL    HW2 9846   4.121   5.993   2.555
 2983SOL     OW 9847   6.746   0.885   4.519
 2983SOL    HW1 9848   6.776   0.918   4.429
 2983SOL    HW2 9849   6.724   0.963   4.577
 2984SOL     OW 9850   6.150   5.277   1.883
 2984SOL    HW1 9851   6.155   5.347   1.955
 2984SOL    HW2 9852   6.240   5.266   1.841
 2985SOL     OW 9853   0.524   2.177   4.400
 2985SOL    HW1 9854   0.529   2.088   4.445
 2985SOL    HW2 9855   0.448   2.229   4.438
 2986SOL     OW 9856   1.681   3.615   4.880
 2986SOL    HW1 9857   1.610   3.549   4.856
 2986SOL    HW2 9858   1.642   3.686   4.938
 2987SOL     OW 9859   4.075   1.298   4.686
 2987SOL    HW1 9860   4.070   1.200   4.669
 2987SOL    HW2 9861   4.042   1.347   4.605
 2988SOL     OW 9862   0.905   0.312   1.686
 2988SOL    HW1 9863   0.825   0.357   1.648
 2988SOL    HW2 9864   0.986   0.338   1.634
 2989SOL     OW 9865   6.706   4.822   1.177
 2989SOL    HW1 9866   6.667   4.730   1.186
 2989SOL    HW2 9867   6.642   4.880   1.127
 2990SOL     OW 9868   3.345   1.186   2.562
 2990SOL    HW1 9869   3.282   1.264   2.563
 2990SOL    HW2 9870   3.354   1.151   2.469
 2991SOL     OW 9871   0.490   3.939   0.275
 2991SOL    HW1 9872   0.572   3.934   0.331
 2991SOL    HW2 9873   0.411   3.958   0.333
 2992SOL     OW 9874   3.326   5.769   6.610
 2992SOL    HW1 9875   3.272   5.842   6.652
 2992SOL    HW2 9876   3.307   5.766   6.512
 2993SOL     OW 9877   1.824   4.810   1.477
 2993SOL    HW1 9878   1.850   4.808   1.380
 2993SOL    HW2 9879   1.906   4.819   1.533
 2994SOL     OW 9880   5.103   0.573   0.398
 2994SOL    HW1 9881   5.135   0.631   0.473
 2994SOL    HW2 9882   5.110   0.477   0.424
 2995SOL     OW 9883   1.127   2.257   6.868
 2995SOL    HW1 9884   1.093   2.333   6.812
 2995SOL    HW2 9885   1.115   2.280   6.965
 2996SOL     OW 9886   3.339   5.157   5.457
 2996SOL    HW1 9887   3.300   5.073   5.495
 2996SOL    HW2 9888   3.438   5.157   5.470
 2997SOL     OW 9889   5.603   6.068   1.555
 2997SOL    HW1 9890   5.699   6.053   1.534
 2997SOL    HW2 9891   5.563   6.128   1.486
 2998SOL     OW 9892   5.582   6.421   4.024
 2998SOL    HW1 9893   5.524   6.365   3.964
 2998SOL    HW2 9894   5.628   6.491   3.970
 2999SOL     OW 9895   3.613   6.673   3.169
 2999SOL    HW1 9896   3.568   6.717   3.246
 2999SOL    HW2 9897   3.647   6.742   3.105
 3000SOL     OW 9898   1.385   3.201   5.771
 3000SOL    HW1 9899   1.404   3.103   5.765
 3000SOL    HW2 9900   1.395   3.231   5.866
 3001SOL     OW 9901   4.744   0.702   5.297
 3001SOL    HW1 9902   4.664   0.759   5.279
 3001SOL    HW2 9903   4.821   0.735   5.242
 3002SOL     OW 9904   4.652   0.002   5.428
 3002SOL    HW1 9905   4.745   0.001   5.465
 3002SOL    HW2 9906   4.591   0.052   5.489
 3003SOL     OW 9907   2.569   6.312   5.743
 3003SOL    HW1 9908   2.518   6.356   5.817
 3003SOL    HW2 9909   2.507   6.257   5.688
 3004SOL     OW 9910   6.287   3.798   3.572
 3004SOL    HW1 9911   6.205   3.851   3.550
 3004SOL    HW2 9912   6.368   3.855   3.561
 3005SOL     OW 9913   3.324   3.100   1.229
 3005SOL    HW1 9914   3.336   3.196   1.202
 3005SOL    HW2 9915   3.348   3.089   1.325
 3006SOL     OW 9916   5.711   1.210   1.024
 3006SOL    HW1 9917   5.713   1.284   0.957
 3006SOL    HW2 9918   5.803   1.193   1.059
 3007SOL     OW 9919   6.166   4.692   2.995
 3007SOL    HW1 9920   6.235   4.673   2.925
 3007SOL    HW2 9921   6.096   4.752   2.957
 3008SOL     OW 9922   3.214   6.636   6.321
 3008SOL    HW1 9923   3.261   6.721   6.343
 3008SOL    HW2 9924   3.211   6.624   6.222
 3009SOL     OW 9925   1.086   0.269   2.500
 3009SOL    HW1 9926   1.125   0.178   2.510
 3009SOL    HW2 9927   1.071   0.289   2.403
 3010SOL     OW 9928   3.689   5.444   2.794
 3010SOL    HW1 9929   3.601   5.404   2.765
 3010SOL    HW2 9930   3.675   5.494   2.880
 3011SOL     OW 9931   6.341   0.278   6.777
 3011SOL    HW1 9932   6.379   0.235   6.695
 3011SOL    HW2 9933   6.342   0.213   6.853
 3012SOL     OW 9934   0.151   3.804   3.443
 3012SOL    HW1 9935   0.067   3.834   3.397
 3012SOL    HW2 9936   0.135   3.716   3.488
 3013SOL     OW 9937   6.110   5.623   2.479
 3013SOL    HW1 9938   6.041   5.553   2.461
 3013SOL    HW2 9939   6.175   5.588   2.546
 3014SOL     OW 9940   5.377   1.499   4.110
 3014SOL    HW1 9941   5.361   1.532   4.203
 3014SOL    HW2 9942   5.355   1.571   4.045
 3015SOL     OW 9943   2.358   2.659   0.587
 3015SOL    HW1 9944   2.392   2.577   0.632
 3015SOL    HW2 9945   2.428   2.694   0.525
 3016SOL     OW 9946   3.593   6.321   3.809
 3016SOL    HW1 9947   3.674   6.378   3.819
 3016SOL    HW2 9948   3.521   6.355   3.869
 3017SOL     OW 9949   1.453   6.079   1.604
 3017SOL    HW1 9950   1.553   6.070   1.601
 3017SOL    HW2 9951   1.418   6.043   1.690
 3018SOL     OW 9952   3.876   6.800   6.845
 3018SOL    HW1 9953   3.963   6.847   6.838
 3018SOL    HW2 9954   3.875   6.742   6.926
 3019SOL     OW 9955   3.199   6.289   1.152
 3019SOL    HW1 9956   3.150   6.281   1.239
 3019SOL    HW2 9957   3.167   6.370   1.103
 3020SOL     OW 9958   3.029   3.434   1.627
 3020SOL    HW1 9959   2.945   3.411   1.578
 3020SOL    HW2 9960   3.065   3.351   1.670
 3021SOL     OW 9961   1.580   2.077   6.876
 3021SOL    HW1 9962   1.540   2.114   6.792
 3021SOL    HW2 9963   1.521   2.100   6.953
 3022SOL     OW 9964   4.280   6.005   2.968
 3022SOL    HW1 9965   4.351   6.070   2.995
 3022SOL    HW2 9966   4.190   6.048   2.978
 3023SOL     OW 9967   4.049   5.796   3.936
 3023SOL    HW1 9968   4.053   5.729   3.862
 3023SOL    HW2 9969   4.102   5.763   4.014
 3024SOL     OW 9970   3.266   1.553   0.069
 3024SOL    HW1 9971   3.252   1.459   0.098
 3024SOL    HW2 9972   3.214   1.570   7.008
 3025SOL     OW 9973   2.433   3.188   1.414
 3025SOL    HW1 9974   2.333   3.190   1.408
 3025SOL    HW2 9975   2.461   3.215   1.506
 3026SOL     OW 9976   1.606   3.302   1.152
 3026SOL    HW1 9977   1.671   3.227   1.160
 3026SOL    HW2 9978   1.647   3.386   1.189
 3027SOL     OW 9979   2.831   1.246   2.283
 3027SOL    HW1 9980   2.925   1.254   2.247
 3027SOL    HW2 9981   2.784   1.172   2.236
 3028SOL     OW 9982   1.324   5.289   6.098
 3028SOL    HW1 9983   1.363   5.366   6.047
 3028SOL    HW2 9984   1.368   5.283   6.188
 3029SOL     OW 9985   5.932   5.271   4.712
 3029SOL    HW1 9986   5.885   5.188   4.685
 3029SOL    HW2 9987   6.031   5.255   4.710
 3030SOL     OW 9988   1.049   1.071   5.412
 3030SOL    HW1 9989   1.087   1.139   5.350
 3030SOL    HW2 9990   0.962   1.037   5.375
 3031SOL     OW 9991   0.585   4.270   6.611
 3031SOL    HW1 9992   0.533   4.209   6.553
 3031SOL    HW2 9993   0.652   4.320   6.556
 3032SOL     OW 9994   5.151   0.673   6.916
 3032SOL    HW1 9995   5.064   0.718   6.933
 3032SOL    HW2 9996   5.136   0.591   6.860
 3033SOL     OW 9997   0.365   3.883   6.930
 3033SOL    HW1 9998   0.443   3.836   6.972
 3033SOL    HW2 9999   0.381   3.982   6.929
 3034SOL     OW10000   3.146   6.639   3.623
 3034SOL    HW110001   3.049   6.615   3.616
 3034SOL    HW210002   3.202   6.556   3.621
 3035SOL     OW10003   6.099   1.372   0.314
 3035SOL    HW110004   6.158   1.295   0.290
 3035SOL    HW210005   6.137   1.457   0.276
 3036SOL     OW10006   1.323   3.981   6.694
 3036SOL    HW110007   1.309   3.935   6.781
 3036SOL    HW210008   1.263   4.060   6.688
 3037SOL     OW10009   6.712   5.834   4.993
 3037SOL    HW110010   6.675   5.916   4.948
 3037SOL    HW210011   6.698   5.842   5.092
 3038SOL     OW10012   5.175   0.419   6.028
 3038SOL    HW110013   5.240   0.349   5.997
 3038SOL    HW210014   5.154   0.405   6.125
 3039SOL     OW10015   0.332   4.462   1.599
 3039SOL    HW110016   0.293   4.543   1.641
 3039SOL    HW210017   0.280   4.381   1.626
 3040SOL     OW10018   3.058   3.719   6.788
 3040SOL    HW110019   3.062   3.680   6.696
 3040SOL    HW210020   3.038   3.817   6.782
 3041SOL     OW10021   2.046   2.234   5.248
 3041SOL    HW110022   2.078   2.151   5.203
 3041SOL    HW210023   2.114   2.307   5.236
 3042SOL     OW10024   5.112   0.556   1.777
 3042SOL    HW110025   5.174   0.506   1.836
 3042SOL    HW210026   5.018   0.526   1.792
 3043SOL     OW10027   0.988   5.729   0.306
 3043SOL    HW110028   0.926   5.664   0.261
 3043SOL    HW210029   1.082   5.695   0.299
 3044SOL     OW10030   3.264   4.069   5.700
 3044SOL    HW110031   3.258   4.071   5.600
 3044SOL    HW210032   3.311   3.986   5.729
 3045SOL     OW10033   4.670   1.642   2.787
 3045SOL    HW110034   4.694   1.631   2.691
 3045SOL    HW210035   4.594   1.580   2.810
 3046SOL     OW10036   1.193   2.921   5.726
 3046SOL    HW110037   1.219   2.993   5.661
 3046SOL    HW210038   1.120   2.955   5.785
 3047SOL     OW10039   6.358   6.086   2.457
 3047SOL    HW110040   6.279   6.119   2.510
 3047SOL    HW210041   6.388   5.998   2.494
 3048SOL     OW10042   3.720   3.602   1.286
 3048SOL    HW110043   3.694   3.506   1.283
 3048SOL    HW210044   3.645   3.655   1.327
 3049SOL     OW10045   1.034   0.440   1.916
 3049SOL    HW110046   1.120   0.464   1.871
 3049SOL    HW210047   0.979   0.382   1.855
 3050SOL     OW10048   3.833   5.769   3.646
 3050SOL    HW110049   3.839   5.676   3.682
 3050SOL    HW210050   3.761   5.774   3.577
 3051SOL     OW10051   2.781   5.297   6.583
 3051SOL    HW110052   2.689   5.259   6.585
 3051SOL    HW210053   2.795   5.348   6.498
 3052SOL     OW10054   4.076   0.296   2.499
 3052SOL    HW110055   4.147   0.341   2.444
 3052SOL    HW210056   4.119   0.232   2.563
 3053SOL     OW10057   6.171   0.460   0.253
 3053SOL    HW110058   6.252   0.426   0.205
 3053SOL    HW210059   6.092   0.403   0.230
 3054SOL     OW10060   0.056   3.447   0.558
 3054SOL    HW110061   0.132   3.386   0.538
 3054SOL    HW210062   0.048   3.516   0.486
 3055SOL     OW10063   5.769   0.052   3.215
 3055SOL    HW110064   5.794   0.009   3.128
 3055SOL    HW210065   5.687   0.009   3.252
 3056SOL     OW10066   6.995   0.277   6.911
 3056SOL    HW110067   7.018   0.353   6.971
 3056SOL    HW210068   6.896   0.275   6.896
 3057SOL     OW10069   5.863   4.786   2.420
 3057SOL    HW110070   5.916   4.867   2.395
 3057SOL    HW210071   5.851   4.728   2.339
 3058SOL     OW10072   6.165   5.881   0.786
 3058SOL    HW110073   6.178   5.782   0.779
 3058SOL    HW210074   6.068   5.902   0.773
 3059SOL     OW10075   0.798   2.698   4.784
 3059SOL    HW110076   0.740   2.741   4.854
 3059SOL    HW210077   0.760   2.716   4.694
 3060SOL     OW10078   0.720   6.592   1.511
 3060SOL    HW110079   0.766   6.504   1.501
 3060SOL    HW210080   0.728   6.643   1.425
 3061SOL     OW10081   6.826   1.142   4.995
 3061SOL    HW110082   6.778   1.216   5.043
 3061SOL    HW210083   6.774   1.058   5.004
 3062SOL     OW10084   2.671   6.307   1.354
 3062SOL    HW110085   2.730   6.265   1.285
 3062SOL    HW210086   2.702   6.280   1.445
 3063SOL     OW10087   1.921   4.686   1.990
 3063SOL    HW110088   1.913   4.623   1.912
 3063SOL    HW210089   1.938   4.633   2.073
 3064SOL     OW10090   6.011   3.981   3.151
 3064SOL    HW110091   6.032   4.045   3.225
 3064SOL    HW210092   6.063   3.897   3.164
 3065SOL     OW10093   1.347   0.500   0.193
 3065SOL    HW110094   1.349   0.553   0.278
 3065SOL    HW210095   1.279   0.539   0.131
 3066SOL     OW10096   6.020   4.554   0.723
 3066SOL    HW110097   5.980   4.463   0.708
 3066SOL    HW210098   5.982   4.593   0.807
 3067SOL     OW10099   4.384   0.470   4.803
 3067SOL    HW110100   4.407   0.540   4.736
 3067SOL    HW210101   4.407   0.503   4.895
 3068SOL     OW10102   5.918   5.824   1.406
 3068SOL    HW110103   6.009   5.865   1.412
 3068SOL    HW210104   5.891   5.818   1.310
 3069SOL     OW10105   0.952   5.839   1.909
 3069SOL    HW110106   0.854   5.851   1.928
 3069SOL    HW210107   0.991   5.776   1.975
 3070SOL     OW10108   2.039   1.483   3.133
 3070SOL    HW110109   2.098   1.485   3.213
 3070SOL    HW210110   2.095   1.494   3.050
 3071SOL     OW10111   6.225   0.307   3.988
 3071SOL    HW110112   6.322   0.317   3.970
 3071SOL    HW210113   6.204   0.341   4.080
 3072SOL     OW10114   0.484   6.227   2.548
 3072SOL    HW110115   0.419   6.157   2.518
 3072SOL    HW210116   0.568   6.183   2.580
 3073SOL     OW10117   0.790   3.160   5.507
 3073SOL    HW110118   0.808   3.062   5.517
 3073SOL    HW210119   0.788   3.203   5.597
 3074SOL     OW10120   4.765   3.170   0.380
 3074SOL    HW110121   4.806   3.134   0.296
 3074SOL    HW210122   4.750   3.268   0.369
 3075SOL     OW10123   1.991   6.176   1.249
 3075SOL    HW110124   2.023   6.249   1.187
 3075SOL    HW210125   1.891   6.173   1.247
 3076SOL     OW10126   6.315   0.637   5.049
 3076SOL    HW110127   6.353   0.594   4.967
 3076SOL    HW210128   6.369   0.718   5.072
 3077SOL     OW10129   6.134   4.428   4.013
 3077SOL    HW110130   6.148   4.338   3.971
 3077SOL    HW210131   6.221   4.476   4.018
 3078SOL     OW10132   1.855   3.614   2.118
 3078SOL    HW110133   1.948   3.651   2.106
 3078SOL    HW210134   1.796   3.647   2.044
 3079SOL     OW10135   0.617   2.435   5.143
 3079SOL    HW110136   0.667   2.420   5.057
 3079SOL    HW210137   0.658   2.380   5.215
 3080SOL     OW10138   6.126   5.066   0.933
 3080SOL    HW110139   6.218   5.072   0.896
 3080SOL    HW210140   6.127   5.086   1.031
 3081SOL     OW10141   0.257   4.246   6.065
 3081SOL    HW110142   0.237   4.306   5.988
 3081SOL    HW210143   0.355   4.226   6.066
 3082SOL     OW10144   3.898   6.865   2.664
 3082SOL    HW110145   3.980   6.915   2.636
 3082SOL    HW210146   3.849   6.833   2.583
 3083SOL     OW10147   3.569   0.929   2.153
 3083SOL    HW110148   3.511   0.906   2.231
 3083SOL    HW210149   3.514   0.928   2.070
 3084SOL     OW10150   4.951   5.210   4.243
 3084SOL    HW110151   4.964   5.207   4.342
 3084SOL    HW210152   4.952   5.305   4.212
 3085SOL     OW10153   6.600   5.527   2.773
 3085SOL    HW110154   6.675   5.523   2.707
 3085SOL    HW210155   6.564   5.620   2.779
 3086SOL     OW10156   5.037   1.217   2.289
 3086SOL    HW110157   5.076   1.309   2.288
 3086SOL    HW210158   5.082   1.161   2.219
 3087SOL     OW10159   6.087   4.191   3.306
 3087SOL    HW110160   6.038   4.240   3.378
 3087SOL    HW210161   6.110   4.256   3.233
 3088SOL     OW10162   2.164   4.758   5.036
 3088SOL    HW110163   2.187   4.667   5.002
 3088SOL    HW210164   2.196   4.768   5.130
 3089SOL     OW10165   1.140   2.611   6.819
 3089SOL    HW110166   1.215   2.617   6.753
 3089SOL    HW210167   1.178   2.616   6.912
 3090SOL     OW10168   1.660   1.704   1.484
 3090SOL    HW110169   1.565   1.673   1.490
 3090SOL    HW210170   1.712   1.670   1.562
 3091SOL     OW10171   2.654   0.394   0.610
 3091SOL    HW110172   2.717   0.329   0.568
 3091SOL    HW210173   2.616   0.454   0.539
 3092SOL     OW10174   6.627   6.670   0.251
 3092SOL    HW110175   6.612   6.719   0.337
 3092SOL    HW210176   6.542   6.669   0.198
 3093SOL     OW10177   5.989   5.231   5.239
 3093SOL    HW110178   6.012   5.328   5.243
 3093SOL    HW210179   5.890   5.220   5.241
 3094SOL     OW10180   3.375   5.617   4.776
 3094SOL    HW110181   3.357   5.528   4.818
 3094SOL    HW210182   3.315   5.686   4.816
 3095SOL     OW10183   2.216   4.892   4.514
 3095SOL    HW110184   2.129   4.905   4.467
 3095SOL    HW210185   2.290   4.889   4.447
 3096SOL     OW10186   6.880   6.762   5.381
 3096SOL    HW110187   6.795   6.728   5.421
 3096SOL    HW210188   6.859   6.834   5.315
 3097SOL     OW10189   0.479   2.718   0.799
 3097SOL    HW110190   0.498   2.627   0.834
 3097SOL    HW210191   0.381   2.737   0.807
 3098SOL     OW10192   2.786   3.651   0.677
 3098SOL    HW110193   2.712   3.700   0.724
 3098SOL    HW210194   2.874   3.687   0.708
 3099SOL     OW10195   0.537   6.003   5.197
 3099SOL    HW110196   0.488   5.935   5.143
 3099SOL    HW210197   0.595   5.956   5.264
 3100SOL     OW10198   6.647   6.171   5.883
 3100SOL    HW110199   6.660   6.146   5.786
 3100SOL    HW210200   6.565   6.125   5.918
 3101SOL     OW10201   4.746   6.368   6.246
 3101SOL    HW110202   4.814   6.414   6.188
 3101SOL    HW210203   4.708   6.290   6.196
 3102SOL     OW10204   1.854   4.466   1.365
 3102SOL    HW110205   1.798   4.507   1.437
 3102SOL    HW210206   1.820   4.375   1.344
 3103SOL     OW10207   3.506   2.572   0.881
 3103SOL    HW110208   3.586   2.595   0.827
 3103SOL    HW210209   3.528   2.577   0.978
 3104SOL     OW10210   5.617   6.041   4.289
 3104SOL    HW110211   5.542   6.040   4.356
 3104SOL    HW210212   5.658   6.132   4.286
 3105SOL     OW10213   5.897   6.585   3.720
 3105SOL    HW110214   5.971   6.575   3.786
 3105SOL    HW210215   5.809   6.585   3.768
 3106SOL     OW10216   6.105   2.733   2.775
 3106SOL    HW110217   6.033   2.665   2.758
 3106SOL    HW210218   6.068   2.825   2.760
 3107SOL     OW10219   3.068   0.659   3.733
 3107SOL    HW110220   3.048   0.653   3.635
 3107SOL    HW210221   3.013   0.591   3.782
 3108SOL     OW10222   1.716   0.754   4.268
 3108SOL    HW110223   1.650   0.707   4.209
 3108SOL    HW210224   1.669   0.823   4.322
 3109SOL     OW10225   4.782   6.517   2.709
 3109SOL    HW110226   4.862   6.570   2.681
 3109SOL    HW210227   4.699   6.570   2.694
 3110SOL     OW10228   0.140   3.534   3.076
 3110SOL    HW110229   0.141   3.536   2.976
 3110SOL    HW210230   0.085   3.456   3.108
 3111SOL     OW10231   6.626   4.656   3.803
 3111SOL    HW110232   6.672   4.725   3.858
 3111SOL    HW210233   6.624   4.684   3.708
 3112SOL     OW10234   4.738   3.746   6.320
 3112SOL    HW110235   4.676   3.822   6.336
 3112SOL    HW210236   4.692   3.659   6.340
 3113SOL     OW10237   2.356   0.061   3.646
 3113SOL    HW110238   2.375   0.149   3.689
 3113SOL    HW210239   2.391   7.010   3.704
 3114SOL     OW10240   4.986   3.873   0.331
 3114SOL    HW110241   4.931   3.936   0.387
 3114SOL    HW210242   5.079   3.870   0.367
 3115SOL     OW10243   3.821   3.924   0.711
 3115SOL    HW110244   3.827   3.825   0.721
 3115SOL    HW210245   3.871   3.952   0.629
 3116SOL     OW10246   6.453   2.366   6.310
 3116SOL    HW110247   6.504   2.302   6.254
 3116SOL    HW210248   6.502   2.384   6.395
 3117SOL     OW10249   4.304   3.322   5.300
 3117SOL    HW110250   4.399   3.301   5.321
 3117SOL    HW210251   4.247   3.243   5.323
 3118SOL     OW10252   0.070   5.349   0.581
 3118SOL    HW110253   0.091   5.264   0.532
 3118SOL    HW210254   7.010   5.335   0.637
 3119SOL     OW10255   1.550   4.162   4.986
 3119SOL    HW110256   1.507   4.093   4.927
 3119SOL    HW210257   1.614   4.117   5.048
 3120SOL     OW10258   2.601   5.294   4.659
 3120SOL    HW110259   2.646   5.209   4.685
 3120SOL    HW210260   2.505   5.291   4.687
 3121SOL     OW10261   0.107   1.294   2.346
 3121SOL    HW110262   0.155   1.261   2.264
 3121SOL    HW210263   0.085   1.391   2.335
 3122SOL     OW10264   2.696   5.731   6.573
 3122SOL    HW110265   2.704   5.722   6.474
 3122SOL    HW210266   2.750   5.660   6.617
 3123SOL     OW10267   3.843   6.709   4.212
 3123SOL    HW110268   3.852   6.632   4.275
 3123SOL    HW210269   3.916   6.704   4.143
 3124SOL     OW10270   4.736   1.393   5.289
 3124SOL    HW110271   4.700   1.465   5.347
 3124SOL    HW210272   4.834   1.407   5.275
 3125SOL     OW10273   6.507   1.886   5.338
 3125SOL    HW110274   6.534   1.840   5.254
 3125SOL    HW210275   6.417   1.928   5.326
 3126SOL     OW10276   4.538   5.227   6.351
 3126SOL    HW110277   4.609   5.160   6.372
 3126SOL    HW210278   4.503   5.266   6.435
 3127SOL     OW10279   1.249   1.974   4.143
 3127SOL    HW110280   1.206   1.998   4.057
 3127SOL    HW210281   1.218   2.036   4.215
 3128SOL     OW10282   2.150   1.333   0.601
 3128SOL    HW110283   2.112   1.241   0.611
 3128SOL    HW210284   2.171   1.350   0.505
 3129SOL     OW10285   6.863   4.277   4.977
 3129SOL    HW110286   6.952   4.261   5.020
 3129SOL    HW210287   6.816   4.189   4.964
 3130SOL     OW10288   2.164   4.578   2.548
 3130SOL    HW110289   2.219   4.594   2.630
 3130SOL    HW210290   2.078   4.628   2.555
 3131SOL     OW10291   0.073   3.893   2.526
 3131SOL    HW110292   0.164   3.853   2.526
 3131SOL    HW210293   0.072   3.974   2.584
 3132SOL     OW10294   5.824   6.147   5.837
 3132SOL    HW110295   5.834   6.060   5.789
 3132SOL    HW210296   5.731   6.182   5.824
 3133SOL     OW10297   2.769   1.614   3.687
 3133SOL    HW110298   2.837   1.683   3.711
 3133SOL    HW210299   2.679   1.645   3.716
 3134SOL     OW10300   4.804   2.917   1.395
 3134SOL    HW110301   4.839   2.921   1.301
 3134SOL    HW210302   4.704   2.923   1.393
 3135SOL     OW10303   3.897   2.021   3.915
 3135SOL    HW110304   3.845   1.948   3.871
 3135SOL    HW210305   3.854   2.046   4.002
 3136SOL     OW10306   6.089   5.510   6.302
 3136SOL    HW110307   6.096   5.410   6.312
 3136SOL    HW210308   6.179   5.547   6.281
 3137SOL     OW10309   5.671   2.008   4.481
 3137SOL    HW110310   5.689   2.098   4.522
 3137SOL    HW210311   5.748   1.948   4.498
 3138SOL     OW10312   6.015   1.034   4.733
 3138SOL    HW110313   6.051   1.011   4.823
 3138SOL    HW210314   5.939   1.098   4.742
 3139SOL     OW10315   5.056   5.968   5.554
 3139SOL    HW110316   5.069   6.003   5.462
 3139SOL    HW210317   5.087   6.036   5.620
 3140SOL     OW10318   6.742   6.275   6.917
 3140SOL    HW110319   6.722   6.206   6.987
 3140SOL    HW210320   6.839   6.273   6.895
 3141SOL     OW10321   1.444   5.869   0.270
 3141SOL    HW110322   1.425   5.913   0.182
 3141SOL    HW210323   1.386   5.789   0.281
 3142SOL     OW10324   4.611   6.626   6.197
 3142SOL    HW110325   4.520   6.605   6.161
 3142SOL    HW210326   4.651   6.543   6.237
 3143SOL     OW10327   0.063   2.073   6.572
 3143SOL    HW110328   0.104   2.137   6.508
 3143SOL    HW210329   0.095   2.092   6.664
 3144SOL     OW10330   1.605   3.666   6.685
 3144SOL    HW110331   1.630   3.599   6.755
 3144SOL    HW210332   1.583   3.753   6.729
 3145SOL     OW10333   2.655   5.345   3.215
 3145SOL    HW110334   2.709   5.270   3.254
 3145SOL    HW210335   2.577   5.364   3.275
 3146SOL     OW10336   1.403   0.621   3.340
 3146SOL    HW110337   1.398   0.521   3.345
 3146SOL    HW210338   1.339   0.653   3.270
 3147SOL     OW10339   4.777   3.771   0.683
 3147SOL    HW110340   4.844   3.704   0.713
 3147SOL    HW210341   4.703   3.777   0.750
 3148SOL     OW10342   4.110   5.597   4.473
 3148SOL    HW110343   4.072   5.586   4.380
 3148SOL    HW210344   4.050   5.658   4.525
 3149SOL     OW10345   3.530   0.094   5.596
 3149SOL    HW110346   3.470   0.023   5.559
 3149SOL    HW210347   3.491   0.184   5.576
 3150SOL     OW10348   5.895   6.687   4.914
 3150SOL    HW110349   5.872   6.781   4.890
 3150SOL    HW210350   5.994   6.673   4.904
 3151SOL     OW10351   4.458   1.786   6.149
 3151SOL    HW110352   4.494   1.712   6.205
 3151SOL    HW210353   4.371   1.818   6.186
 3152SOL     OW10354   0.948   5.432   1.591
 3152SOL    HW110355   0.926   5.370   1.516
 3152SOL    HW210356   1.038   5.474   1.574
 3153SOL     OW10357   5.824   4.274   2.211
 3153SOL    HW110358   5.800   4.295   2.306
 3153SOL    HW210359   5.760   4.205   2.176
 3154SOL     OW10360   5.939   2.489   5.801
 3154SOL    HW110361   5.958   2.568   5.743
 3154SOL    HW210362   6.011   2.421   5.790
 3155SOL     OW10363   5.812   5.518   0.916
 3155SOL    HW110364   5.859   5.524   0.828
 3155SOL    HW210365   5.843   5.437   0.965
 3156SOL     OW10366   3.698   3.542   3.687
 3156SOL    HW110367   3.759   3.516   3.613
 3156SOL    HW210368   3.619   3.591   3.650
 3157SOL     OW10369   2.123   3.649   4.485
 3157SOL    HW110370   2.117   3.732   4.430
 3157SOL    HW210371   2.130   3.673   4.582
 3158SOL     OW10372   4.825   6.652   1.313
 3158SOL    HW110373   4.871   6.635   1.401
 3158SOL    HW210374   4.743   6.594   1.307
 3159SOL     OW10375   4.349   5.427   6.881
 3159SOL    HW110376   4.395   5.494   6.939
 3159SOL    HW210377   4.261   5.465   6.851
 3160SOL     OW10378   4.757   4.434   6.770
 3160SOL    HW110379   4.792   4.342   6.749
 3160SOL    HW210380   4.736   4.482   6.685
 3161SOL     OW10381   1.324   1.137   2.762
 3161SOL    HW110382   1.293   1.091   2.846
 3161SOL    HW210383   1.272   1.103   2.684
 3162SOL     OW10384   0.689   5.601   6.295
 3162SOL    HW110385   0.595   5.635   6.288
 3162SOL    HW210386   0.691   5.504   6.270
 3163SOL     OW10387   3.879   3.486   6.842
 3163SOL    HW110388   3.879   3.496   6.941
 3163SOL    HW210389   3.785   3.498   6.808
 3164SOL     OW10390   5.518   3.929   0.345
 3164SOL    HW110391   5.543   3.999   0.278
 3164SOL    HW210392   5.548   3.840   0.312
 3165SOL     OW10393   0.799   1.100   2.404
 3165SOL    HW110394   0.862   1.107   2.326
 3165SOL    HW210395   0.776   1.191   2.437
 3166SOL     OW10396   5.075   3.575   6.134
 3166SOL    HW110397   5.043   3.587   6.228
 3166SOL    HW210398   5.082   3.477   6.114
 3167SOL     OW10399   0.662   4.785   1.297
 3167SOL    HW110400   0.613   4.706   1.258
 3167SOL    HW210401   0.733   4.752   1.360
 3168SOL     OW10402   5.675   3.033   1.124
 3168SOL    HW110403   5.592   3.055   1.072
 3168SOL    HW210404   5.650   3.009   1.218
 3169SOL     OW10405   1.143   2.684   4.804
 3169SOL    HW110406   1.225   2.718   4.757
 3169SOL    HW210407   1.072   2.754   4.801
 3170SOL     OW10408   4.225   0.983   6.995
 3170SOL    HW110409   4.232   0.926   6.913
 3170SOL    HW210410   4.249   1.077   6.973
 3171SOL     OW10411   5.853   6.463   2.801
 3171SOL    HW110412   5.831   6.365   2.792
 3171SOL    HW210413   5.875   6.500   2.711
 3172SOL     OW10414   6.340   6.810   5.618
 3172SOL    HW110415   6.393   6.867   5.680
 3172SOL    HW210416   6.388   6.724   5.602
 3173SOL     OW10417   2.137   0.596   1.637
 3173SOL    HW110418   2.201   0.626   1.708
 3173SOL    HW210419   2.183   0.597   1.548
 3174SOL     OW10420   2.676   2.761   6.363
 3174SOL    HW110421   2.609   2.758   6.437
 3174SOL    HW210422   2.726   2.675   6.359
 3175SOL     OW10423   1.552   6.558   0.709
 3175SOL    HW110424   1.501   6.506   0.777
 3175SOL    HW210425   1.541   6.515   0.619
 3176SOL     OW10426   1.515   4.304   6.402
 3176SOL    HW110427   1.507   4.319   6.500
 3176SOL    HW210428   1.491   4.209   6.381
 3177SOL     OW10429   5.428   5.477   6.220
 3177SOL    HW110430   5.494   5.426   6.165
 3177SOL    HW210431   5.383   5.545   6.162
 3178SOL     OW10432   0.601   4.519   1.631
 3178SOL    HW110433   0.504   4.494   1.632
 3178SOL    HW210434   0.650   4.463   1.697
 3179SOL     OW10435   1.391   1.207   2.387
 3179SOL    HW110436   1.292   1.194   2.384
 3179SOL    HW210437   1.421   1.214   2.482
 3180SOL     OW10438   5.652   0.816   5.870
 3180SOL    HW110439   5.564   0.854   5.841
 3180SOL    HW210440   5.636   0.742   5.935
 3181SOL     OW10441   0.852   0.681   3.322
 3181SOL    HW110442   0.884   0.704   3.414
 3181SOL    HW210443   0.764   0.727   3.307
 3182SOL     OW10444   1.504   5.904   5.585
 3182SOL    HW110445   1.487   5.931   5.490
 3182SOL    HW210446   1.552   5.978   5.632
 3183SOL     OW10447   4.174   4.183   1.235
 3183SOL    HW110448   4.208   4.225   1.319
 3183SOL    HW210449   4.251   4.159   1.177
 3184SOL     OW10450   2.923   1.958   2.262
 3184SOL    HW110451   2.967   2.048   2.263
 3184SOL    HW210452   2.913   1.925   2.356
 3185SOL     OW10453   0.084   6.875   6.128
 3185SOL    HW110454   0.023   6.843   6.201
 3185SOL    HW210455   0.044   6.852   6.039
 3186SOL     OW10456   3.726   1.116   2.880
 3186SOL    HW110457   3.673   1.177   2.939
 3186SOL    HW210458   3.752   1.165   2.796
 3187SOL     OW10459   3.643   4.833   0.519
 3187SOL    HW110460   3.545   4.830   0.501
 3187SOL    HW210461   3.679   4.740   0.522
 3188SOL     OW10462   4.126   6.047   3.719
 3188SOL    HW110463   4.128   5.951   3.749
 3188SOL    HW210464   4.087   6.052   3.627
 3189SOL     OW10465   1.516   6.769   3.061
 3189SOL    HW110466   1.476   6.804   3.146
 3189SOL    HW210467   1.521   6.842   2.994
 3190SOL     OW10468   1.618   6.317   2.541
 3190SOL    HW110469   1.522   6.324   2.569
 3190SOL    HW210470   1.632   6.369   2.458
 3191SOL     OW10471   4.013   0.837   1.051
 3191SOL    HW110472   3.935   0.788   1.090
 3191SOL    HW210473   3.981   0.923   1.011
 3192SOL     OW10474   0.001   2.789   2.186
 3192SOL    HW110475   0.084   2.826   2.144
 3192SOL    HW210476   6.956   2.862   2.196
 3193SOL     OW10477   4.576   2.602   5.668
 3193SOL    HW110478   4.481   2.574   5.686
 3193SOL    HW210479   4.634   2.521   5.664
 3194SOL     OW10480   0.956   3.058   5.833
 3194SOL    HW110481   0.995   3.118   5.902
 3194SOL    HW210482   0.866   3.026   5.863
 3195SOL     OW10483   0.541   2.905   3.365
 3195SOL    HW110484   0.524   2.947   3.454
 3195SOL    HW210485   0.628   2.938   3.328
 3196SOL     OW10486   6.746   0.103   5.348
 3196SOL    HW110487   6.795   0.181   5.387
 3196SOL    HW210488   6.707   0.048   5.422
 3197SOL     OW10489   1.338   4.289   3.911
 3197SOL    HW110490   1.307   4.357   3.846
 3197SOL    HW210491   1.380   4.212   3.862
 3198SOL     OW10492   0.552   2.551   6.099
 3198SOL    HW110493   0.641   2.543   6.054
 3198SOL    HW210494   0.497   2.621   6.053
 3199SOL     OW10495   4.678   2.322   1.550
 3199SOL    HW110496   4.729   2.389   1.605
 3199SOL    HW210497   4.593   2.300   1.596
 3200SOL     OW10498   6.860   2.045   0.603
 3200SOL    HW110499   6.957   2.026   0.584
 3200SOL    HW210500   6.804   1.975   0.558
 3201SOL     OW10501   4.444   4.514   3.829
 3201SOL    HW110502   4.376   4.561   3.885
 3201SOL    HW210503   4.501   4.455   3.888
 3202SOL     OW10504   1.850   5.201   1.790
 3202SOL    HW110505   1.862   5.293   1.828
 3202SOL    HW210506   1.881   5.133   1.856
 3203SOL     OW10507   6.831   0.429   1.289
 3203SOL    HW110508   6.822   0.353   1.225
 3203SOL    HW210509   6.793   0.403   1.378
 3204SOL     OW10510   6.598   5.718   1.925
 3204SOL    HW110511   6.515   5.706   1.871
 3204SOL    HW210512   6.613   5.815   1.942
 3205SOL     OW10513   0.776   3.554   3.940
 3205SOL    HW110514   0.790   3.647   3.903
 3205SOL    HW210515   0.783   3.488   3.865
 3206SOL     OW10516   1.405   6.728   6.220
 3206SOL    HW110517   1.346   6.807   6.205
 3206SOL    HW210518   1.488   6.736   6.165
 3207SOL     OW10519   0.440   0.717   4.598
 3207SOL    HW110520   0.501   0.683   4.527
 3207SOL    HW210521   0.473   0.805   4.631
 3208SOL     OW10522   5.024   6.669   4.905
 3208SOL    HW110523   5.121   6.645   4.897
 3208SOL    HW210524   4.973   6.626   4.831
 3209SOL     OW10525   2.272   0.427   4.022
 3209SOL    HW110526   2.353   0.444   4.079
 3209SOL    HW210527   2.197   0.397   4.081
 3210SOL     OW10528   6.649   4.557   2.526
 3210SOL    HW110529   6.596   4.636   2.493
 3210SOL    HW210530   6.702   4.585   2.606
 3211SOL     OW10531   1.703   4.363   2.270
 3211SOL    HW110532   1.766   4.299   2.313
 3211SOL    HW210533   1.673   4.326   2.182
 3212SOL     OW10534   5.095   2.044   6.360
 3212SOL    HW110535   5.135   2.089   6.440
 3212SOL    HW210536   5.071   1.950   6.382
 3213SOL     OW10537   5.961   6.195   2.349
 3213SOL    HW110538   5.992   6.241   2.266
 3213SOL    HW210539   5.922   6.106   2.326
 3214SOL     OW10540   3.966   5.821   6.263
 3214SOL    HW110541   3.964   5.722   6.272
 3214SOL    HW210542   3.872   5.856   6.261
 3215SOL     OW10543   5.807   1.705   6.531
 3215SOL    HW110544   5.823   1.803   6.521
 3215SOL    HW210545   5.728   1.689   6.591
 3216SOL     OW10546   5.849   6.972   2.979
 3216SOL    HW110547   5.917   6.910   2.939
 3216SOL    HW210548   5.763   6.963   2.930
 3217SOL     OW10549   6.349   4.403   2.246
 3217SOL    HW110550   6.330   4.343   2.168
 3217SOL    HW210551   6.378   4.493   2.213
 3218SOL     OW10552   3.241   0.775   3.517
 3218SOL    HW110553   3.165   0.789   3.580
 3218SOL    HW210554   3.210   0.718   3.440
 3219SOL     OW10555   6.530   0.676   3.941
 3219SOL    HW110556   6.533   0.590   3.891
 3219SOL    HW210557   6.532   0.753   3.877
 3220SOL     OW10558   6.586   3.710   5.331
 3220SOL    HW110559   6.638   3.646   5.387
 3220SOL    HW210560   6.510   3.748   5.384
 3221SOL     OW10561   3.073   6.997   3.420
 3221SOL    HW110562   2.989   0.027   3.412
 3221SOL    HW210563   3.057   6.903   3.390
 3222SOL     OW10564   5.861   2.550   3.032
 3222SOL    HW110565   5.810   2.498   2.964
 3222SOL    HW210566   5.900   2.487   3.100
 3223SOL     OW10567   1.918   4.937   5.355
 3223SOL    HW110568   1.922   4.837   5.366
 3223SOL    HW210569   1.922   4.981   5.444
 3224SOL     OW10570   4.082   4.862   7.006
 3224SOL    HW110571   4.076   4.784   6.944
 3224SOL    HW210572   4.145   4.840   0.058
 3225SOL     OW10573   2.311   3.645   0.036
 3225SOL    HW110574   2.253   3.722   0.065
 3225SOL    HW210575   2.275   3.560   0.075
 3226SOL     OW10576   1.229   0.823   3.846
 3226SOL    HW110577   1.216   0.740   3.900
 3226SOL    HW210578   1.266   0.799   3.756
 3227SOL     OW10579   3.121   1.231   5.998
 3227SOL    HW110580   3.151   1.168   5.925
 3227SOL    HW210581   3.030   1.206   6.029
 3228SOL     OW10582   5.737   3.813   4.789
 3228SOL    HW110583   5.685   3.731   4.765
 3228SOL    HW210584   5.757   3.865   4.707
 3229SOL     OW10585   4.298   1.902   5.338
 3229SOL    HW110586   4.207   1.868   5.362
 3229SOL    HW210587   4.315   1.886   5.241
 3230SOL     OW10588   0.933   0.712   3.580
 3230SOL    HW110589   0.870   0.731   3.655
 3230SOL    HW210590   0.976   0.623   3.594
 3231SOL     OW10591   5.754   6.051   1.133
 3231SOL    HW110592   5.670   5.999   1.120
 3231SOL    HW210593   5.794   6.073   1.044
 3232SOL     OW10594   2.145   4.959   3.965
 3232SOL    HW110595   2.169   4.862   3.973
 3232SOL    HW210596   2.170   4.991   3.874
 3233SOL     OW10597   0.638   4.012   1.187
 3233SOL    HW110598   0.684   3.954   1.254
 3233SOL    HW210599   0.707   4.062   1.134
 3234SOL     OW10600   0.498   1.922   5.725
 3234SOL    HW110601   0.410   1.966   5.739
 3234SOL    HW210602   0.538   1.896   5.813
 3235SOL     OW10603   5.475   6.683   2.474
 3235SOL    HW110604   5.446   6.779   2.464
 3235SOL    HW210605   5.404   6.623   2.437
 3236SOL     OW10606   0.209   3.253   1.822
 3236SOL    HW110607   0.177   3.291   1.736
 3236SOL    HW210608   0.246   3.162   1.807
 3237SOL     OW10609   3.163   0.394   4.613
 3237SOL    HW110610   3.073   0.418   4.652
 3237SOL    HW210611   3.164   0.297   4.588
 3238SOL     OW10612   0.101   6.481   6.593
 3238SOL    HW110613   0.086   6.474   6.495
 3238SOL    HW210614   0.199   6.475   6.612
 3239SOL     OW10615   6.162   6.482   5.573
 3239SOL    HW110616   6.119   6.433   5.497
 3239SOL    HW210617   6.178   6.418   5.649
 3240SOL     OW10618   1.058   1.036   4.551
 3240SOL    HW110619   1.099   1.053   4.641
 3240SOL    HW210620   1.109   1.088   4.482
 3241SOL     OW10621   5.304   0.766   3.463
 3241SOL    HW110622   5.248   0.692   3.500
 3241SOL    HW210623   5.360   0.731   3.387
 3242SOL     OW10624   3.532   6.875   0.153
 3242SOL    HW110625   3.595   6.895   0.079
 3242SOL    HW210626   3.482   6.958   0.179
 3243SOL     OW10627   3.904   5.245   0.536
 3243SOL    HW110628   3.863   5.158   0.509
 3243SOL    HW210629   3.834   5.317   0.531
 3244SOL     OW10630   3.154   5.946   6.688
 3244SOL    HW110631   3.060   5.959   6.658
 3244SOL    HW210632   3.178   6.018   6.753
 3245SOL     OW10633   3.984   2.866   6.345
 3245SOL    HW110634   3.886   2.883   6.354
 3245SOL    HW210635   4.035   2.938   6.391
 3246SOL     OW10636   5.643   6.528   3.265
 3246SOL    HW110637   5.700   6.577   3.199
 3246SOL    HW210638   5.657   6.566   3.356
 3247SOL     OW10639   0.657   2.447   4.369
 3247SOL    HW110640   0.660   2.481   4.275
 3247SOL    HW210641   0.609   2.359   4.370
 3248SOL     OW10642   6.291   3.364   2.318
 3248SOL    HW110643   6.201   3.384   2.357
 3248SOL    HW210644   6.314   3.268   2.334
 3249SOL     OW10645   2.212   4.276   5.131
 3249SOL    HW110646   2.226   4.186   5.092
 3249SOL    HW210647   2.202   4.343   5.058
 3250SOL     OW10648   4.514   6.527   2.105
 3250SOL    HW110649   4.512   6.430   2.125
 3250SOL    HW210650   4.570   6.543   2.024
 3251SOL     OW10651   3.266   0.651   3.245
 3251SOL    HW110652   3.366   0.637   3.247
 3251SOL    HW210653   3.236   0.656   3.150
 3252SOL     OW10654   3.321   1.800   3.221
 3252SOL    HW110655   3.383   1.760   3.153
 3252SOL    HW210656   3.241   1.838   3.175
 3253SOL     OW10657   4.926   3.541   1.161
 3253SOL    HW110658   4.872   3.464   1.194
 3253SOL    HW210659   4.902   3.624   1.213
 3254SOL     OW10660   5.096   4.405   2.969
 3254SOL    HW110661   5.022   4.385   2.905
 3254SOL    HW210662   5.178   4.353   2.944
 3255SOL     OW10663   4.329   5.214   0.515
 3255SOL    HW110664   4.266   5.266   0.457
 3255SOL    HW210665   4.287   5.200   0.605
 3256SOL     OW10666   6.351   6.123   5.490
 3256SOL    HW110667   6.283   6.197   5.487
 3256SOL    HW210668   6.316   6.048   5.546
 3257SOL     OW10669   1.934   2.479   0.804
 3257SOL    HW110670   1.978   2.390   0.817
 3257SOL    HW210671   1.999   2.543   0.765
 3258SOL     OW10672   5.942   0.134   1.721
 3258SOL    HW110673   5.917   0.213   1.665
 3258SOL    HW210674   6.009   0.161   1.789
 3259SOL     OW10675   4.455   6.993   4.109
 3259SOL    HW110676   4.460   6.942   4.195
 3259SOL    HW210677   4.455   6.930   4.032
 3260SOL     OW10678   1.683   2.420   0.029
 3260SOL    HW110679   1.661   2.341   0.087
 3260SOL    HW210680   1.606   2.439   6.990
 3261SOL     OW10681   4.054   6.980   2.185
 3261SOL    HW110682   4.107   0.042   2.186
 3261SOL    HW210683   3.971   6.993   2.239
 3262SOL     OW10684   4.125   1.843   2.773
 3262SOL    HW110685   4.141   1.878   2.865
 3262SOL    HW210686   4.026   1.834   2.757
 3263SOL     OW10687   4.061   6.244   1.475
 3263SOL    HW110688   4.022   6.336   1.479
 3263SOL    HW210689   3.987   6.177   1.472
 3264SOL     OW10690   5.032   4.928   6.297
 3264SOL    HW110691   5.055   4.960   6.205
 3264SOL    HW210692   5.108   4.874   6.334
 3265SOL     OW10693   4.778   0.533   6.502
 3265SOL    HW110694   4.742   0.591   6.428
 3265SOL    HW210695   4.837   0.463   6.462
 3266SOL     OW10696   0.563   1.413   6.644
 3266SOL    HW110697   0.490   1.463   6.598
 3266SOL    HW210698   0.541   1.315   6.643
 3267SOL     OW10699   3.256   2.633   1.320
 3267SOL    HW110700   3.251   2.534   1.312
 3267SOL    HW210701   3.228   2.660   1.413
 3268SOL     OW10702   0.460   4.098   6.388
 3268SOL    HW110703   0.394   4.023   6.394
 3268SOL    HW210704   0.537   4.070   6.331
 3269SOL     OW10705   4.580   3.448   1.013
 3269SOL    HW110706   4.492   3.471   1.052
 3269SOL    HW210707   4.644   3.524   1.027
 3270SOL     OW10708   1.388   6.419   4.799
 3270SOL    HW110709   1.360   6.479   4.875
 3270SOL    HW210710   1.306   6.388   4.750
 3271SOL     OW10711   5.956   1.770   0.938
 3271SOL    HW110712   6.004   1.788   0.852
 3271SOL    HW210713   6.022   1.762   1.013
 3272SOL     OW10714   5.083   0.245   0.325
 3272SOL    HW110715   5.130   0.290   0.248
 3272SOL    HW210716   4.985   0.268   0.321
 3273SOL     OW10717   6.851   6.591   2.555
 3273SOL    HW110718   6.860   6.562   2.460
 3273SOL    HW210719   6.919   6.542   2.611
 3274SOL     OW10720   3.383   2.144   6.087
 3274SOL    HW110721   3.477   2.127   6.118
 3274SOL    HW210722   3.386   2.177   5.992
 3275SOL     OW10723   3.075   1.315   6.304
 3275SOL    HW110724   3.097   1.412   6.306
 3275SOL    HW210725   3.025   1.293   6.221
 3276SOL     OW10726   2.938   6.330   0.434
 3276SOL    HW110727   3.007   6.378   0.488
 3276SOL    HW210728   2.935   6.368   0.342
 3277SOL     OW10729   6.796   6.449   5.017
 3277SOL    HW110730   6.706   6.467   5.057
 3277SOL    HW210731   6.825   6.357   5.042
 3278SOL     OW10732   1.171   0.888   6.784
 3278SOL    HW110733   1.083   0.918   6.822
 3278SOL    HW210734   1.238   0.881   6.858
 3279SOL     OW10735   1.492   0.013   1.364
 3279SOL    HW110736   1.591   7.020   1.363
 3279SOL    HW210737   1.469   0.083   1.297
 3280SOL     OW10738   1.679   4.561   6.346
 3280SOL    HW110739   1.686   4.546   6.445
 3280SOL    HW210740   1.717   4.482   6.298
 3281SOL     OW10741   2.762   5.656   0.277
 3281SOL    HW110742   2.860   5.640   0.278
 3281SOL    HW210743   2.724   5.640   0.368
 3282SOL     OW10744   2.516   5.355   2.564
 3282SOL    HW110745   2.422   5.376   2.590
 3282SOL    HW210746   2.525   5.257   2.548
 3283SOL     OW10747   2.108   0.519   3.453
 3283SOL    HW110748   2.200   0.495   3.483
 3283SOL    HW210749   2.080   0.459   3.378
 3284SOL     OW10750   6.536   3.535   0.023
 3284SOL    HW110751   6.534   3.634   0.040
 3284SOL    HW210752   6.450   3.507   7.002
 3285SOL     OW10753   0.709   1.884   4.207
 3285SOL    HW110754   0.733   1.970   4.161
 3285SOL    HW210755   0.722   1.808   4.145
 3286SOL     OW10756   3.333   4.092   5.428
 3286SOL    HW110757   3.275   4.118   5.351
 3286SOL    HW210758   3.419   4.053   5.394
 3287SOL     OW10759   1.744   5.183   0.890
 3287SOL    HW110760   1.783   5.270   0.918
 3287SOL    HW210761   1.809   5.109   0.909
 3288SOL     OW10762   0.344   6.402   6.742
 3288SOL    HW110763   0.426   6.458   6.730
 3288SOL    HW210764   0.350   6.322   6.683
 3289SOL     OW10765   2.284   5.596   4.375
 3289SOL    HW110766   2.353   5.598   4.446
 3289SOL    HW210767   2.193   5.605   4.416
 3290SOL     OW10768   6.826   5.025   1.654
 3290SOL    HW110769   6.831   4.991   1.560
 3290SOL    HW210770   6.847   4.952   1.718
 3291SOL     OW10771   1.913   6.579   1.221
 3291SOL    HW110772   1.975   6.641   1.173
 3291SOL    HW210773   1.841   6.549   1.158
 3292SOL     OW10774   1.009   6.110   6.221
 3292SOL    HW110775   1.052   6.173   6.156
 3292SOL    HW210776   0.920   6.082   6.186
 3293SOL     OW10777   6.983   1.190   2.959
 3293SOL    HW110778   6.888   1.186   2.991
 3293SOL    HW210779   6.987   1.166   2.862
 3294SOL     OW10780   0.645   0.445   0.513
 3294SOL    HW110781   0.659   0.501   0.431
 3294SOL    HW210782   0.636   0.506   0.593
 3295SOL     OW10783   1.532   2.799   6.432
 3295SOL    HW110784   1.442   2.772   6.395
 3295SOL    HW210785   1.592   2.824   6.356
 3296SOL     OW10786   1.247   6.659   2.519
 3296SOL    HW110787   1.251   6.717   2.438
 3296SOL    HW210788   1.224   6.565   2.492
 3297SOL     OW10789   3.389   2.576   6.407
 3297SOL    HW110790   3.354   2.491   6.369
 3297SOL    HW210791   3.485   2.564   6.434
 3298SOL     OW10792   6.183   3.428   2.964
 3298SOL    HW110793   6.103   3.437   3.025
 3298SOL    HW210794   6.193   3.333   2.937
 3299SOL     OW10795   2.212   6.970   5.190
 3299SOL    HW110796   2.266   6.900   5.145
 3299SOL    HW210797   2.269   7.021   5.254
 3300SOL     OW10798   6.235   0.025   5.452
 3300SOL    HW110799   6.276   6.968   5.498
 3300SOL    HW210800   6.241   0.013   5.353
 3301SOL     OW10801   0.449   3.983   2.870
 3301SOL    HW110802   0.505   3.906   2.901
 3301SOL    HW210803   0.377   4.000   2.937
 3302SOL     OW10804   1.017   4.172   3.753
 3302SOL    HW110805   1.004   4.098   3.819
 3302SOL    HW210806   0.958   4.156   3.674
 3303SOL     OW10807   3.516   3.767   3.018
 3303SOL    HW110808   3.594   3.705   3.030
 3303SOL    HW210809   3.524   3.842   3.083
 3304SOL     OW10810   0.528   6.185   4.581
 3304SOL    HW110811   0.428   6.196   4.579
 3304SOL    HW210812   0.566   6.239   4.657
 3305SOL     OW10813   1.943   1.265   2.208
 3305SOL    HW110814   1.939   1.363   2.191
 3305SOL    HW210815   1.965   1.249   2.305
 3306SOL     OW10816   1.215   3.905   3.243
 3306SOL    HW110817   1.292   3.901   3.306
 3306SOL    HW210818   1.168   3.993   3.253
 3307SOL     OW10819   0.664   6.138   6.804
 3307SOL    HW110820   0.607   6.058   6.785
 3307SOL    HW210821   0.685   6.141   6.902
 3308SOL     OW10822   4.236   6.023   0.616
 3308SOL    HW110823   4.233   5.935   0.663
 3308SOL    HW210824   4.183   6.090   0.667
 3309SOL     OW10825   6.691   5.164   3.176
 3309SOL    HW110826   6.682   5.145   3.274
 3309SOL    HW210827   6.788   5.169   3.152
 3310SOL     OW10828   1.395   6.111   2.084
 3310SOL    HW110829   1.484   6.136   2.122
 3310SOL    HW210830   1.323   6.157   2.135
 3311SOL     OW10831   4.273   6.436   1.067
 3311SOL    HW110832   4.345   6.367   1.074
 3311SOL    HW210833   4.299   6.517   1.120
 3312SOL     OW10834   2.973   3.598   0.362
 3312SOL    HW110835   2.980   3.674   0.427
 3312SOL    HW210836   2.946   3.515   0.410
 3313SOL     OW10837   6.715   5.399   4.051
 3313SOL    HW110838   6.780   5.323   4.054
 3313SOL    HW210839   6.622   5.363   4.041
 3314SOL     OW10840   0.776   3.557   5.359
 3314SOL    HW110841   0.768   3.585   5.263
 3314SOL    HW210842   0.784   3.458   5.365
 3315SOL     OW10843   6.448   1.774   3.625
 3315SOL    HW110844   6.473   1.870   3.638
 3315SOL    HW210845   6.430   1.757   3.528
 3316SOL     OW10846   4.454   1.622   0.237
 3316SOL    HW110847   4.417   1.690   0.174
 3316SOL    HW210848   4.380   1.581   0.290
 3317SOL     OW10849   3.918   2.643   1.689
 3317SOL    HW110850   3.821   2.627   1.703
 3317SOL    HW210851   3.947   2.723   1.742
 3318SOL     OW10852   2.727   5.561   5.042
 3318SOL    HW110853   2.813   5.534   5.085
 3318SOL    HW210854   2.723   5.660   5.033
 3319SOL     OW10855   0.576   5.565   5.021
 3319SOL    HW110856   0.615   5.498   5.084
 3319SOL    HW210857   0.648   5.603   4.963
 3320SOL     OW10858   0.038   0.686   6.417
 3320SOL    HW110859   6.976   0.667   6.367
 3320SOL    HW210860   0.019   0.753   6.489
 3321SOL     OW10861   3.434   4.113   3.411
 3321SOL    HW110862   3.339   4.127   3.439
 3321SOL    HW210863   3.437   4.089   3.314
 3322SOL     OW10864   4.215   1.671   1.089
 3322SOL    HW110865   4.144   1.618   1.044
 3322SOL    HW210866   4.189   1.689   1.183
 3323SOL     OW10867   2.470   5.075   0.262
 3323SOL    HW110868   2.378   5.076   0.222
 3323SOL    HW210869   2.536   5.103   0.193
 3324SOL     OW10870   0.441   2.232   0.891
 3324SOL    HW110871   0.359   2.259   0.941
 3324SOL    HW210872   0.415   2.190   0.803
 3325SOL     OW10873   1.778   3.205   0.824
 3325SOL    HW110874   1.685   3.173   0.844
 3325SOL    HW210875   1.804   3.178   0.731
 3326SOL     OW10876   6.551   1.228   1.469
 3326SOL    HW110877   6.493   1.147   1.480
 3326SOL    HW210878   6.610   1.237   1.549
 3327SOL     OW10879   3.091   5.993   2.328
 3327SOL    HW110880   3.145   5.916   2.362
 3327SOL    HW210881   2.994   5.975   2.344
 3328SOL     OW10882   4.616   0.677   2.659
 3328SOL    HW110883   4.691   0.743   2.665
 3328SOL    HW210884   4.625   0.625   2.574
 3329SOL     OW10885   5.085   0.469   5.061
 3329SOL    HW110886   5.103   0.412   4.981
 3329SOL    HW210887   5.019   0.424   5.121
 3330SOL     OW10888   6.802   5.519   2.595
 3330SOL    HW110889   6.863   5.595   2.574
 3330SOL    HW210890   6.777   5.472   2.510
 3331SOL     OW10891   2.228   3.086   3.077
 3331SOL    HW110892   2.180   3.146   3.141
 3331SOL    HW210893   2.251   3.000   3.122
 3332SOL     OW10894   3.761   5.383   1.219
 3332SOL    HW110895   3.729   5.447   1.289
 3332SOL    HW210896   3.809   5.434   1.147
 3333SOL     OW10897   2.417   3.031   1.704
 3333SOL    HW110898   2.505   2.986   1.695
 3333SOL    HW210899   2.430   3.130   1.709
 3334SOL     OW10900   1.860   2.026   2.473
 3334SOL    HW110901   1.780   1.974   2.442
 3334SOL    HW210902   1.934   2.015   2.406
 3335SOL     OW10903   4.121   4.486   5.535
 3335SOL    HW110904   4.091   4.428   5.458
 3335SOL    HW210905   4.053   4.481   5.608
 3336SOL     OW10906   5.043   5.752   4.005
 3336SOL    HW110907   4.997   5.674   3.963
 3336SOL    HW210908   5.021   5.835   3.953
 3337SOL     OW10909   3.387   3.111   3.254
 3337SOL    HW110910   3.376   3.205   3.286
 3337SOL    HW210911   3.328   3.050   3.307
 3338SOL     OW10912   2.780   2.662   1.608
 3338SOL    HW110913   2.768   2.613   1.522
 3338SOL    HW210914   2.764   2.599   1.684
 3339SOL     OW10915   1.866   6.742   5.874
 3339SOL    HW110916   1.793   6.756   5.941
 3339SOL    HW210917   1.948   6.710   5.921
 3340SOL     OW10918   3.693   0.788   4.285
 3340SOL    HW110919   3.761   0.809   4.215
 3340SOL    HW210920   3.601   0.799   4.247
 3341SOL     OW10921   1.669   4.043   3.011
 3341SOL    HW110922   1.709   4.135   3.008
 3341SOL    HW210923   1.740   3.975   2.990
 3342SOL     OW10924   6.894   0.295   2.181
 3342SOL    HW110925   6.952   0.355   2.236
 3342SOL    HW210926   6.804   0.338   2.169
 3343SOL     OW10927   4.663   5.016   6.033
 3343SOL    HW110928   4.570   4.991   6.007
 3343SOL    HW210929   4.724   4.999   5.956
 3344SOL     OW10930   0.486   3.438   2.650
 3344SOL    HW110931   0.550   3.434   2.727
 3344SOL    HW210932   0.443   3.528   2.647
 3345SOL     OW10933   6.224   4.396   0.272
 3345SOL    HW110934   6.172   4.342   0.338
 3345SOL    HW210935   6.162   4.452   0.218
 3346SOL     OW10936   1.467   1.142   0.494
 3346SOL    HW110937   1.551   1.091   0.478
 3346SOL    HW210938   1.400   1.119   0.424
 3347SOL     OW10939   7.007   3.484   6.361
 3347SOL    HW110940   6.935   3.468   6.292
 3347SOL    HW210941   6.964   3.512   6.447
 3348SOL     OW10942   3.554   3.911   6.144
 3348SOL    HW110943   3.457   3.924   6.128
 3348SOL    HW210944   3.584   3.971   6.218
 3349SOL     OW10945   1.831   4.449   3.936
 3349SOL    HW110946   1.754   4.507   3.909
 3349SOL    HW210947   1.914   4.480   3.890
 3350SOL     OW10948   0.832   3.819   4.554
 3350SOL    HW110949   0.818   3.915   4.532
 3350SOL    HW210950   0.902   3.780   4.494
 3351SOL     OW10951   4.890   0.968   1.361
 3351SOL    HW110952   4.841   1.055   1.358
 3351SOL    HW210953   4.980   0.982   1.403
 3352SOL     OW10954   6.217   1.279   6.930
 3352SOL    HW110955   6.280   1.248   7.001
 3352SOL    HW210956   6.123   1.269   6.962
 3353SOL     OW10957   2.687   0.160   0.947
 3353SOL    HW110958   2.785   0.150   0.963
 3353SOL    HW210959   2.637   0.100   1.008
 3354SOL     OW10960   3.001   4.376   6.299
 3354SOL    HW110961   3.059   4.371   6.380
 3354SOL    HW210962   3.011   4.291   6.246
 3355SOL     OW10963   2.008   0.841   4.782
 3355SOL    HW110964   1.931   0.833   4.718
 3355SOL    HW210965   1.974   0.833   4.875
 3356SOL     OW10966   1.620   6.873   5.421
 3356SOL    HW110967   1.684   6.922   5.361
 3356SOL    HW210968   1.661   6.864   5.511
 3357SOL     OW10969   3.013   3.050   2.065
 3357SOL    HW110970   2.935   3.074   2.007
 3357SOL    HW210971   3.064   2.975   2.023
 3358SOL     OW10972   6.952   0.275   1.623
 3358SOL    HW110973   6.962   0.325   1.709
 3358SOL    HW210974   6.869   0.304   1.576
 3359SOL     OW10975   6.955   6.617   4.155
 3359SOL    HW110976   0.021   6.571   4.145
 3359SOL    HW210977   6.884   6.566   4.108
 3360SOL     OW10978   1.066   3.241   4.591
 3360SOL    HW110979   1.073   3.256   4.493
 3360SOL    HW210980   1.110   3.154   4.615
 3361SOL     OW10981   6.374   6.968   5.221
 3361SOL    HW110982   6.397   0.043   5.229
 3361SOL    HW210983   6.417   6.930   5.139
 3362SOL     OW10984   3.897   0.856   4.103
 3362SOL    HW110985   3.868   0.820   4.014
 3362SOL    HW210986   3.997   0.849   4.111
 3363SOL     OW10987   5.875   3.641   6.793
 3363SOL    HW110988   5.789   3.659   6.745
 3363SOL    HW210989   5.905   3.723   6.841
 3364SOL     OW10990   1.805   3.585   3.629
 3364SOL    HW110991   1.821   3.486   3.629
 3364SOL    HW210992   1.712   3.604   3.597
 3365SOL     OW10993   2.086   4.203   3.772
 3365SOL    HW110994   2.104   4.105   3.767
 3365SOL    HW210995   2.158   4.248   3.825
 3366SOL     OW10996   5.964   3.834   3.804
 3366SOL    HW110997   5.891   3.892   3.769
 3366SOL    HW210998   6.041   3.836   3.741
 3367SOL     OW10999   3.597   3.278   3.771
 3367SOL    HW111000   3.664   3.204   3.774
 3367SOL    HW211001   3.643   3.364   3.749
 3368SOL     OW11002   1.841   6.892   2.107
 3368SOL    HW111003   1.764   6.856   2.160
 3368SOL    HW211004   1.910   6.821   2.097
 3369SOL     OW11005   5.362   2.699   0.638
 3369SOL    HW111006   5.325   2.714   0.730
 3369SOL    HW211007   5.286   2.678   0.576
 3370SOL     OW11008   0.864   5.550   2.653
 3370SOL    HW111009   0.827   5.577   2.742
 3370SOL    HW211010   0.945   5.604   2.633
 3371SOL     OW11011   2.066   2.376   2.745
 3371SOL    HW111012   2.139   2.394   2.811
 3371SOL    HW211013   2.078   2.435   2.666
 3372SOL     OW11014   5.850   3.580   2.495
 3372SOL    HW111015   5.808   3.631   2.570
 3372SOL    HW211016   5.810   3.489   2.489
 3373SOL     OW11017   6.283   3.197   1.596
 3373SOL    HW111018   6.381   3.205   1.580
 3373SOL    HW211019   6.242   3.288   1.600
 3374SOL     OW11020   0.518   0.122   4.027
 3374SOL    HW111021   0.525   0.048   3.961
 3374SOL    HW211022   0.552   0.092   4.116
 3375SOL     OW11023   6.694   4.688   5.952
 3375SOL    HW111024   6.661   4.602   5.914
 3375SOL    HW211025   6.707   4.678   6.051
 3376SOL     OW11026   2.942   3.728   4.491
 3376SOL    HW111027   2.941   3.822   4.456
 3376SOL    HW211028   2.947   3.731   4.591
 3377SOL     OW11029   6.332   5.247   3.299
 3377SOL    HW111030   6.398   5.213   3.367
 3377SOL    HW211031   6.377   5.316   3.241
 3378SOL     OW11032   1.372   6.281   0.514
 3378SOL    HW111033   1.328   6.222   0.581
 3378SOL    HW211034   1.446   6.232   0.468
 3379SOL     OW11035   6.841   4.279   3.288
 3379SOL    HW111036   6.831   4.269   3.387
 3379SOL    HW211037   6.750   4.285   3.247
 3380SOL     OW11038   3.009   4.754   0.308
 3380SOL    HW111039   2.979   4.679   0.366
 3380SOL    HW211040   2.990   4.841   0.353
 3381SOL     OW11041   1.732   3.300   6.382
 3381SOL    HW111042   1.780   3.267   6.463
 3381SOL    HW211043   1.749   3.398   6.371
 3382SOL     OW11044   6.893   3.110   0.792
 3382SOL    HW111045   6.992   3.118   0.789
 3382SOL    HW211046   6.855   3.126   0.701
 3383SOL     OW11047   4.662   5.428   0.140
 3383SOL    HW111048   4.605   5.386   0.212
 3383SOL    HW211049   4.679   5.360   0.068
 3384SOL     OW11050   2.717   4.405   6.862
 3384SOL    HW111051   2.695   4.356   6.778
 3384SOL    HW211052   2.652   4.481   6.874
 3385SOL     OW11053   0.239   2.014   4.392
 3385SOL    HW111054   0.237   2.101   4.442
 3385SOL    HW211055   0.319   1.961   4.421
 3386SOL     OW11056   0.663   4.340   5.188
 3386SOL    HW111057   0.746   4.391   5.212
 3386SOL    HW211058   0.590   4.362   5.252
 3387SOL     OW11059   6.143   0.813   3.148
 3387SOL    HW111060   6.097   0.852   3.069
 3387SOL    HW211061   6.110   0.720   3.164
 3388SOL     OW11062   6.888   3.560   0.751
 3388SOL    HW111063   6.923   3.506   0.675
 3388SOL    HW211064   6.868   3.499   0.828
 3389SOL     OW11065   5.648   6.303   0.263
 3389SOL    HW111066   5.590   6.263   0.334
 3389SOL    HW211067   5.598   6.377   0.218
 3390SOL     OW11068   3.016   6.199   6.164
 3390SOL    HW111069   3.062   6.162   6.245
 3390SOL    HW211070   2.943   6.261   6.193
 3391SOL     OW11071   5.963   3.437   4.387
 3391SOL    HW111072   5.928   3.509   4.328
 3391SOL    HW211073   5.996   3.477   4.473
 3392SOL     OW11074   4.766   6.819   5.765
 3392SOL    HW111075   4.756   6.841   5.862
 3392SOL    HW211076   4.691   6.760   5.737
 3393SOL     OW11077   5.171   5.735   0.893
 3393SOL    HW111078   5.264   5.699   0.902
 3393SOL    HW211079   5.173   5.834   0.884
 3394SOL     OW11080   3.130   5.696   1.320
 3394SOL    HW111081   3.225   5.664   1.326
 3394SOL    HW211082   3.124   5.788   1.359
 3395SOL     OW11083   2.624   0.031   3.449
 3395SOL    HW111084   2.570   6.972   3.428
 3395SOL    HW211085   2.684   0.012   3.527
 3396SOL     OW11086   4.904   1.528   4.510
 3396SOL    HW111087   4.874   1.478   4.429
 3396SOL    HW211088   4.837   1.600   4.531
 3397SOL     OW11089   2.122   6.206   6.964
 3397SOL    HW111090   2.212   6.249   6.962
 3397SOL    HW211091   2.130   6.114   7.002
 3398SOL     OW11092   7.015   2.359   4.691
 3398SOL    HW111093   0.020   2.316   4.778
 3398SOL    HW211094   6.945   2.428   4.709
 3399SOL     OW11095   6.452   6.062   1.543
 3399SOL    HW111096   6.404   6.134   1.493
 3399SOL    HW211097   6.461   6.089   1.639
 3400SOL     OW11098   4.836   1.726   6.180
 3400SOL    HW111099   4.774   1.651   6.202
 3400SOL    HW211100   4.910   1.693   6.122
 3401SOL     OW11101   6.172   3.393   5.522
 3401SOL    HW111102   6.207   3.324   5.584
 3401SOL    HW211103   6.195   3.367   5.428
 3402SOL     OW11104   5.947   3.554   1.499
 3402SOL    HW111105   5.918   3.510   1.414
 3402SOL    HW211106   5.884   3.529   1.573
 3403SOL     OW11107   5.129   6.705   6.719
 3403SOL    HW111108   5.212   6.719   6.772
 3403SOL    HW211109   5.067   6.644   6.768
 3404SOL     OW11110   5.112   4.448   5.118
 3404SOL    HW111111   5.120   4.372   5.181
 3404SOL    HW211112   5.015   4.466   5.099
 3405SOL     OW11113   4.919   6.267   6.868
 3405SOL    HW111114   4.905   6.182   6.818
 3405SOL    HW211115   4.896   6.253   6.964
 3406SOL     OW11116   2.445   4.997   1.470
 3406SOL    HW111117   2.477   5.072   1.528
 3406SOL    HW211118   2.472   4.910   1.511
 3407SOL     OW11119   1.274   3.827   7.001
 3407SOL    HW111120   1.226   3.897   0.031
 3407SOL    HW211121   1.208   3.763   6.962
 3408SOL     OW11122   4.815   1.554   3.554
 3408SOL    HW111123   4.805   1.605   3.640
 3408SOL    HW211124   4.887   1.595   3.499
 3409SOL     OW11125   4.321   6.944   0.712
 3409SOL    HW111126   4.347   6.962   0.617
 3409SOL    HW211127   4.273   0.002   0.748
 3410SOL     OW11128   6.300   0.447   3.269
 3410SOL    HW111129   6.260   0.359   3.243
 3410SOL    HW211130   6.372   0.471   3.203
 3411SOL     OW11131   5.845   1.952   6.912
 3411SOL    HW111132   5.897   1.993   6.837
 3411SOL    HW211133   5.749   1.979   6.904
 3412SOL     OW11134   6.051   3.325   1.945
 3412SOL    HW111135   6.069   3.261   2.019
 3412SOL    HW211136   6.010   3.277   1.868
 3413SOL     OW11137   6.957   2.435   6.536
 3413SOL    HW111138   6.933   2.366   6.605
 3413SOL    HW211139   0.034   2.443   6.531
 3414SOL     OW11140   2.960   4.311   1.186
 3414SOL    HW111141   3.008   4.294   1.272
 3414SOL    HW211142   2.914   4.227   1.156
 3415SOL     OW11143   1.481   1.558   6.249
 3415SOL    HW111144   1.407   1.604   6.297
 3415SOL    HW211145   1.541   1.627   6.207
 3416SOL     OW11146   5.903   0.163   6.953
 3416SOL    HW111147   5.850   0.201   6.877
 3416SOL    HW211148   5.972   0.229   6.982
 3417SOL     OW11149   5.440   6.570   3.678
 3417SOL    HW111150   5.380   6.512   3.624
 3417SOL    HW211151   5.516   6.515   3.715
 3418SOL     OW11152   4.647   5.092   1.198
 3418SOL    HW111153   4.620   5.111   1.104
 3418SOL    HW211154   4.746   5.105   1.207
 3419SOL     OW11155   2.436   5.836   5.250
 3419SOL    HW111156   2.482   5.895   5.184
 3419SOL    HW211157   2.399   5.756   5.204
 3420SOL     OW11158   4.681   2.096   2.215
 3420SOL    HW111159   4.723   2.153   2.144
 3420SOL    HW211160   4.748   2.032   2.251
 3421SOL     OW11161   6.673   2.784   3.856
 3421SOL    HW111162   6.729   2.771   3.938
 3421SOL    HW211163   6.707   2.863   3.805
 3422SOL     OW11164   2.291   5.982   0.594
 3422SOL    HW111165   2.271   5.983   0.692
 3422SOL    HW211166   2.319   6.073   0.564
 3423SOL     OW11167   1.247   4.216   5.622
 3423SOL    HW111168   1.225   4.270   5.703
 3423SOL    HW211169   1.293   4.274   5.555
 3424SOL     OW11170   4.331   0.557   1.800
 3424SOL    HW111171   4.385   0.619   1.743
 3424SOL    HW211172   4.241   0.597   1.818
 3425SOL     OW11173   5.913   3.584   0.615
 3425SOL    HW111174   5.829   3.538   0.642
 3425SOL    HW211175   5.906   3.682   0.636
 3426SOL     OW11176   5.504   3.244   6.571
 3426SOL    HW111177   5.585   3.189   6.551
 3426SOL    HW211178   5.530   3.341   6.576
 3427SOL     OW11179   1.397   2.563   1.021
 3427SOL    HW111180   1.411   2.618   1.104
 3427SOL    HW211181   1.332   2.490   1.039
 3428SOL     OW11182   4.909   6.357   5.550
 3428SOL    HW111183   4.870   6.280   5.500
 3428SOL    HW211184   4.995   6.329   5.594
 3429SOL     OW11185   6.174   0.063   1.032
 3429SOL    HW111186   6.107   0.064   0.958
 3429SOL    HW211187   6.127   0.073   1.120
 3430SOL     OW11188   2.032   4.639   5.371
 3430SOL    HW111189   2.030   4.559   5.311
 3430SOL    HW211190   2.124   4.679   5.370
 3431SOL     OW11191   0.480   4.777   2.924
 3431SOL    HW111192   0.461   4.738   2.834
 3431SOL    HW211193   0.560   4.835   2.919
 3432SOL     OW11194   1.552   4.067   0.096
 3432SOL    HW111195   1.601   4.108   0.173
 3432SOL    HW211196   1.615   4.056   0.019
 3433SOL     OW11197   2.557   1.695   6.673
 3433SOL    HW111198   2.558   1.791   6.702
 3433SOL    HW211199   2.549   1.690   6.574
 3434SOL     OW11200   3.169   2.460   1.615
 3434SOL    HW111201   3.086   2.411   1.643
 3434SOL    HW211202   3.244   2.394   1.604
 3435SOL     OW11203   2.174   1.255   1.024
 3435SOL    HW111204   2.215   1.345   1.009
 3435SOL    HW211205   2.181   1.232   1.121
 3436SOL     OW11206   3.443   0.039   6.780
 3436SOL    HW111207   3.358   0.091   6.788
 3436SOL    HW211208   3.504   0.086   6.716
 3437SOL     OW11209   1.218   6.936   6.185
 3437SOL    HW111210   1.292   6.980   6.235
 3437SOL    HW211211   1.157   7.005   6.146
 3438SOL     OW11212   1.558   3.722   1.187
 3438SOL    HW111213   1.566   3.629   1.150
 3438SOL    HW211214   1.511   3.718   1.275
 3439SOL     OW11215   2.701   5.355   1.826
 3439SOL    HW111216   2.724   5.423   1.757
 3439SOL    HW211217   2.617   5.383   1.873
 3440SOL     OW11218   4.053   3.631   4.747
 3440SOL    HW111219   4.086   3.547   4.704
 3440SOL    HW211220   4.099   3.643   4.835
 3441SOL     OW11221   5.799   4.929   5.543
 3441SOL    HW111222   5.792   4.991   5.621
 3441SOL    HW211223   5.872   4.961   5.482
 3442SOL     OW11224   2.953   2.957   1.253
 3442SOL    HW111225   3.000   2.902   1.184
 3442SOL    HW211226   3.014   2.973   1.330
 3443SOL     OW11227   0.768   6.238   2.394
 3443SOL    HW111228   0.762   6.334   2.422
 3443SOL    HW211229   0.759   6.180   2.475
 3444SOL     OW11230   6.307   3.693   6.420
 3444SOL    HW111231   6.373   3.703   6.494
 3444SOL    HW211232   6.354   3.660   6.338
 3445SOL     OW11233   5.661   4.963   3.206
 3445SOL    HW111234   5.648   4.979   3.304
 3445SOL    HW211235   5.724   5.032   3.170
 3446SOL     OW11236   5.104   1.077   0.994
 3446SOL    HW111237   5.165   1.121   1.059
 3446SOL    HW211238   5.058   1.000   1.039
 3447SOL     OW11239   4.886   0.942   6.622
 3447SOL    HW111240   4.918   0.938   6.528
 3447SOL    HW211241   4.881   0.849   6.659
 3448SOL     OW11242   1.792   5.653   4.977
 3448SOL    HW111243   1.702   5.622   5.008
 3448SOL    HW211244   1.817   5.738   5.022
 3449SOL     OW11245   0.092   4.307   5.108
 3449SOL    HW111246   0.174   4.364   5.105
 3449SOL    HW211247   0.052   4.311   5.199
 3450SOL     OW11248   2.394   6.589   1.550
 3450SOL    HW111249   2.461   6.626   1.614
 3450SOL    HW211250   2.333   6.526   1.599
 3451SOL     OW11251   2.434   1.720   1.721
 3451SOL    HW111252   2.517   1.741   1.669
 3451SOL    HW211253   2.400   1.630   1.695
 3452SOL     OW11254   4.168   0.831   4.682
 3452SOL    HW111255   4.236   0.899   4.710
 3452SOL    HW211256   4.198   0.789   4.596
 3453SOL     OW11257   3.988   6.574   5.888
 3453SOL    HW111258   4.012   6.610   5.978
 3453SOL    HW211259   3.892   6.595   5.868
 3454SOL     OW11260   0.613   2.975   1.435
 3454SOL    HW111261   0.527   3.008   1.474
 3454SOL    HW211262   0.596   2.940   1.343
 3455SOL     OW11263   0.940   2.983   4.901
 3455SOL    HW111264   0.847   2.949   4.890
 3455SOL    HW211265   0.992   2.965   4.818
 3456SOL     OW11266   5.877   5.435   3.257
 3456SOL    HW111267   5.801   5.373   3.237
 3456SOL    HW211268   5.951   5.383   3.299
 3457SOL     OW11269   3.513   4.528   6.273
 3457SOL    HW111270   3.613   4.529   6.271
 3457SOL    HW211271   3.479   4.457   6.211
 3458SOL     OW11272   4.007   1.379   1.724
 3458SOL    HW111273   4.072   1.305   1.738
 3458SOL    HW211274   4.008   1.439   1.804
 3459SOL     OW11275   4.433   6.395   2.788
 3459SOL    HW111276   4.369   6.457   2.834
 3459SOL    HW211277   4.401   6.378   2.694
 3460SOL     OW11278   4.174   1.670   4.774
 3460SOL    HW111279   4.105   1.603   4.804
 3460SOL    HW211280   4.211   1.642   4.686
 3461SOL     OW11281   5.753   5.366   4.886
 3461SOL    HW111282   5.735   5.458   4.853
 3461SOL    HW211283   5.827   5.325   4.832
 3462SOL     OW11284   1.443   3.714   6.463
 3462SOL    HW111285   1.484   3.750   6.380
 3462SOL    HW211286   1.515   3.685   6.526
 3463SOL     OW11287   4.952   4.669   1.084
 3463SOL    HW111288   4.992   4.673   0.993
 3463SOL    HW211289   4.949   4.761   1.123
 3464SOL     OW11290   0.342   4.460   5.169
 3464SOL    HW111291   0.371   4.533   5.231
 3464SOL    HW211292   0.316   4.499   5.081
 3465SOL     OW11293   0.929   1.120   1.534
 3465SOL    HW111294   0.919   1.187   1.461
 3465SOL    HW211295   0.852   1.056   1.531
 3466SOL     OW11296   6.408   3.745   5.552
 3466SOL    HW111297   6.460   3.830   5.546
 3466SOL    HW211298   6.310   3.766   5.548
 3467SOL     OW11299   2.043   2.255   0.098
 3467SOL    HW111300   2.108   2.226   0.028
 3467SOL    HW211301   1.950   2.238   0.067
 3468SOL     OW11302   3.834   6.421   3.471
 3468SOL    HW111303   3.906   6.455   3.410
 3468SOL    HW211304   3.824   6.484   3.548
 3469SOL     OW11305   5.206   3.460   2.892
 3469SOL    HW111306   5.155   3.483   2.975
 3469SOL    HW211307   5.298   3.500   2.896
 3470SOL     OW11308   0.013   5.465   1.487
 3470SOL    HW111309   0.055   5.418   1.564
 3470SOL    HW211310   6.945   5.498   1.512
 3471SOL     OW11311   4.263   6.976   5.178
 3471SOL    HW111312   4.209   6.895   5.200
 3471SOL    HW211313   4.205   0.034   5.183
 3472SOL     OW11314   3.459   1.018   5.823
 3472SOL    HW111315   3.537   1.027   5.762
 3472SOL    HW211316   3.441   0.921   5.839
 3473SOL     OW11317   4.885   1.083   5.173
 3473SOL    HW111318   4.803   1.092   5.229
 3473SOL    HW211319   4.906   0.986   5.160
 3474SOL     OW11320   4.563   4.573   0.652
 3474SOL    HW111321   4.504   4.498   0.680
 3474SOL    HW211322   4.658   4.542   0.651
 3475SOL     OW11323   2.007   5.774   5.267
 3475SOL    HW111324   2.090   5.807   5.312
 3475SOL    HW211325   1.985   5.683   5.302
 3476SOL     OW11326   4.743   1.113   4.100
 3476SOL    HW111327   4.784   1.086   4.187
 3476SOL    HW211328   4.766   1.046   4.030
 3477SOL     OW11329   4.656   5.887   1.451
 3477SOL    HW111330   4.701   5.814   1.502
 3477SOL    HW211331   4.682   5.976   1.490
 3478SOL     OW11332   4.194   4.396   0.017
 3478SOL    HW111333   4.157   4.421   0.106
 3478SOL    HW211334   4.283   4.440   0.004
 3479SOL     OW11335   0.511   0.449   1.864
 3479SOL    HW111336   0.438   0.428   1.799
 3479SOL    HW211337   0.564   0.527   1.831
 3480SOL     OW11338   1.208   1.298   4.080
 3480SOL    HW111339   1.132   1.362   4.071
 3480SOL    HW211340   1.230   1.259   3.990
 3481SOL     OW11341   2.430   7.000   6.497
 3481SOL    HW111342   2.332   7.017   6.487
 3481SOL    HW211343   2.480   0.064   6.489
 3482SOL     OW11344   0.916   1.657   0.682
 3482SOL    HW111345   0.843   1.711   0.722
 3482SOL    HW211346   0.983   1.633   0.752
 3483SOL     OW11347   3.638   0.181   1.065
 3483SOL    HW111348   3.696   0.106   1.096
 3483SOL    HW211349   3.543   0.163   1.093
 3484SOL     OW11350   3.504   3.556   3.304
 3484SOL    HW111351   3.598   3.525   3.290
 3484SOL    HW211352   3.450   3.482   3.343
 3485SOL     OW11353   0.271   1.366   4.908
 3485SOL    HW111354   0.246   1.405   4.819
 3485SOL    HW211355   0.231   1.274   4.916
 3486SOL     OW11356   4.590   1.839   2.411
 3486SOL    HW111357   4.591   1.921   2.469
 3486SOL    HW211358   4.590   1.867   2.315
 3487SOL     OW11359   0.018   0.611   6.781
 3487SOL    HW111360   0.105   0.620   6.731
 3487SOL    HW211361   0.036   0.578   6.873
 3488SOL     OW11362   6.121   3.289   4.029
 3488SOL    HW111363   6.026   3.289   4.059
 3488SOL    HW211364   6.144   3.378   3.990
 3489SOL     OW11365   2.670   6.654   0.770
 3489SOL    HW111366   2.757   6.701   0.779
 3489SOL    HW211367   2.601   6.700   0.827
 3490SOL     OW11368   3.747   3.270   0.536
 3490SOL    HW111369   3.718   3.271   0.632
 3490SOL    HW211370   3.692   3.335   0.484
 3491SOL     OW11371   0.126   3.028   4.825
 3491SOL    HW111372   0.094   2.950   4.771
 3491SOL    HW211373   0.113   3.112   4.772
 3492SOL     OW11374   5.860   4.836   6.385
 3492SOL    HW111375   5.825   4.842   6.478
 3492SOL    HW211376   5.807   4.769   6.334
 3493SOL     OW11377   6.731   4.797   0.401
 3493SOL    HW111378   6.674   4.837   0.473
 3493SOL    HW211379   6.765   4.869   0.341
 3494SOL     OW11380   3.305   0.271   0.869
 3494SOL    HW111381   3.216   0.303   0.900
 3494SOL    HW211382   3.294   0.215   0.786
 3495SOL     OW11383   5.213   4.706   0.192
 3495SOL    HW111384   5.151   4.780   0.216
 3495SOL    HW211385   5.187   4.669   0.103
 3496SOL     OW11386   1.464   4.233   0.510
 3496SOL    HW111387   1.398   4.273   0.445
 3496SOL    HW211388   1.510   4.307   0.560
 3497SOL     OW11389   4.985   6.601   3.754
 3497SOL    HW111390   4.965   6.566   3.845
 3497SOL    HW211391   5.020   6.695   3.762
 3498SOL     OW11392   2.447   1.274   1.968
 3498SOL    HW111393   2.523   1.330   1.998
 3498SOL    HW211394   2.374   1.277   2.037
 3499SOL     OW11395   6.070   3.524   3.411
 3499SOL    HW111396   6.169   3.537   3.411
 3499SOL    HW211397   6.050   3.426   3.399
 3500SOL     OW11398   6.885   3.267   0.510
 3500SOL    HW111399   6.955   3.335   0.533
 3500SOL    HW211400   6.928   3.181   0.486
 3501SOL     OW11401   1.113   4.382   4.385
 3501SOL    HW111402   1.175   4.448   4.343
 3501SOL    HW211403   1.027   4.378   4.333
 3502SOL     OW11404   0.581   3.654   1.423
 3502SOL    HW111405   0.527   3.588   1.476
 3502SOL    HW211406   0.540   3.745   1.432
 3503SOL     OW11407   4.942   6.487   3.994
 3503SOL    HW111408   5.031   6.501   4.037
 3503SOL    HW211409   4.918   6.390   3.999
 3504SOL     OW11410   1.903   2.938   2.399
 3504SOL    HW111411   1.823   2.982   2.359
 3504SOL    HW211412   1.962   3.008   2.441
 3505SOL     OW11413   4.667   5.625   5.322
 3505SOL    HW111414   4.651   5.526   5.324
 3505SOL    HW211415   4.680   5.659   5.415
 3506SOL     OW11416   5.219   4.821   2.221
 3506SOL    HW111417   5.215   4.913   2.183
 3506SOL    HW211418   5.307   4.807   2.266
 3507SOL     OW11419   0.720   0.766   5.539
 3507SOL    HW111420   0.706   0.814   5.626
 3507SOL    HW211421   0.781   0.688   5.553
 3508SOL     OW11422   6.031   2.941   6.290
 3508SOL    HW111423   6.004   3.019   6.234
 3508SOL    HW211424   5.972   2.863   6.270
 3509SOL     OW11425   6.794   5.979   1.252
 3509SOL    HW111426   6.877   6.029   1.225
 3509SOL    HW211427   6.820   5.895   1.299
 3510SOL     OW11428   1.650   3.063   2.096
 3510SOL    HW111429   1.665   3.114   2.181
 3510SOL    HW211430   1.567   3.008   2.104
 3511SOL     OW11431   0.718   1.219   5.358
 3511SOL    HW111432   0.732   1.122   5.381
 3511SOL    HW211433   0.739   1.233   5.262
 3512SOL     OW11434   3.247   3.649   1.353
 3512SOL    HW111435   3.179   3.699   1.300
 3512SOL    HW211436   3.212   3.559   1.377
 3513SOL     OW11437   6.027   4.773   1.141
 3513SOL    HW111438   6.097   4.771   1.069
 3513SOL    HW211439   5.942   4.734   1.106
 3514SOL     OW11440   1.336   6.647   1.719
 3514SOL    HW111441   1.407   6.716   1.735
 3514SOL    HW211442   1.246   6.687   1.738
 3515SOL     OW11443   3.093   6.096   3.527
 3515SOL    HW111444   3.152   6.051   3.594
 3515SOL    HW211445   3.093   6.043   3.442
 3516SOL     OW11446   2.920   1.383   0.432
 3516SOL    HW111447   2.935   1.339   0.521
 3516SOL    HW211448   2.981   1.462   0.424
 3517SOL     OW11449   1.088   0.826   6.327
 3517SOL    HW111450   1.182   0.854   6.307
 3517SOL    HW211451   1.025   0.899   6.301
 3518SOL     OW11452   4.408   2.717   6.083
 3518SOL    HW111453   4.334   2.776   6.113
 3518SOL    HW211454   4.462   2.765   6.013
 3519SOL     OW11455   2.508   6.772   0.979
 3519SOL    HW111456   2.518   6.861   1.023
 3519SOL    HW211457   2.410   6.753   0.965
 3520SOL     OW11458   4.121   5.572   1.147
 3520SOL    HW111459   4.055   5.642   1.174
 3520SOL    HW211460   4.076   5.504   1.089
 3521SOL     OW11461   5.647   2.229   0.460
 3521SOL    HW111462   5.732   2.197   0.419
 3521SOL    HW211463   5.662   2.318   0.503
 3522SOL     OW11464   3.377   5.139   2.132
 3522SOL    HW111465   3.386   5.221   2.188
 3522SOL    HW211466   3.303   5.150   2.066
 3523SOL     OW11467   1.830   5.115   5.570
 3523SOL    HW111468   1.743   5.090   5.613
 3523SOL    HW211469   1.866   5.199   5.613
 3524SOL     OW11470   2.633   6.827   1.484
 3524SOL    HW111471   2.725   6.822   1.524
 3524SOL    HW211472   2.618   6.746   1.427
 3525SOL     OW11473   1.234   2.951   2.329
 3525SOL    HW111474   1.299   2.905   2.390
 3525SOL    HW211475   1.223   2.898   2.245
 3526SOL     OW11476   2.587   0.546   2.936
 3526SOL    HW111477   2.605   0.479   3.008
 3526SOL    HW211478   2.511   0.514   2.879
 3527SOL     OW11479   4.654   3.362   5.991
 3527SOL    HW111480   4.719   3.428   5.953
 3527SOL    HW211481   4.701   3.276   6.009
 3528SOL     OW11482   0.618   6.590   4.611
 3528SOL    HW111483   0.656   6.638   4.690
 3528SOL    HW211484   0.691   6.546   4.560
 3529SOL     OW11485   3.737   6.184   6.989
 3529SOL    HW111486   3.665   6.162   6.924
 3529SOL    HW211487   3.791   6.261   6.955
 3530SOL     OW11488   1.425   6.148   2.774
 3530SOL    HW111489   1.485   6.069   2.787
 3530SOL    HW211490   1.397   6.185   2.862
 3531SOL     OW11491   4.346   3.499   6.804
 3531SOL    HW111492   4.333   3.577   6.864
 3531SOL    HW211493   4.330   3.526   6.709
 3532SOL     OW11494   2.016   6.671   0.188
 3532SOL    HW111495   2.067   6.612   0.250
 3532SOL    HW211496   1.964   6.738   0.240
 3533SOL     OW11497   1.298   1.406   3.767
 3533SOL    HW111498   1.336   1.424   3.676
 3533SOL    HW211499   1.260   1.314   3.770
 3534SOL     OW11500   5.181   1.299   4.768
 3534SOL    HW111501   5.194   1.328   4.673
 3534SOL    HW211502   5.239   1.220   4.786
 3535SOL     OW11503   4.728   5.938   6.783
 3535SOL    HW111504   4.811   5.895   6.817
 3535SOL    HW211505   4.666   5.958   6.859
 3536SOL     OW11506   1.013   4.409   3.566
 3536SOL    HW111507   0.956   4.490   3.580
 3536SOL    HW211508   0.977   4.332   3.618
 3537SOL     OW11509   2.518   4.844   0.409
 3537SOL    HW111510   2.488   4.910   0.340
 3537SOL    HW211511   2.606   4.874   0.447
 3538SOL     OW11512   2.807   0.645   4.599
 3538SOL    HW111513   2.859   0.730   4.598
 3538SOL    HW211514   2.834   0.590   4.678
 3539SOL     OW11515   5.536   5.854   6.495
 3539SOL    HW111516   5.500   5.899   6.577
 3539SOL    HW211517   5.517   5.756   6.500
 3540SOL     OW11518   2.716   3.942   6.698
 3540SOL    HW111519   2.678   3.967   6.786
 3540SOL    HW211520   2.654   3.880   6.650
 3541SOL     OW11521   1.985   2.766   1.668
 3541SOL    HW111522   2.031   2.837   1.721
 3541SOL    HW211523   2.048   2.689   1.653
 3542SOL     OW11524   5.550   1.520   6.350
 3542SOL    HW111525   5.567   1.461   6.429
 3542SOL    HW211526   5.472   1.486   6.298
 3543SOL     OW11527   0.429   2.262   3.282
 3543SOL    HW111528   0.336   2.277   3.316
 3543SOL    HW211529   0.472   2.188   3.334
 3544SOL     OW11530   2.781   4.157   7.012
 3544SOL    HW111531   2.777   4.230   6.943
 3544SOL    HW211532   2.711   4.088   6.991
 3545SOL     OW11533   3.427   6.330   1.708
 3545SOL    HW111534   3.336   6.334   1.666
 3545SOL    HW211535   3.492   6.289   1.643
 3546SOL     OW11536   6.792   4.882   2.545
 3546SOL    HW111537   6.789   4.976   2.577
 3546SOL    HW211538   6.776   4.820   2.621
 3547SOL     OW11539   0.815   3.826   5.258
 3547SOL    HW111540   0.727   3.784   5.237
 3547SOL    HW211541   0.857   3.779   5.336
 3548SOL     OW11542   5.557   0.522   5.077
 3548SOL    HW111543   5.639   0.565   5.116
 3548SOL    HW211544   5.526   0.448   5.137
 3549SOL     OW11545   2.817   6.734   0.407
 3549SOL    HW111546   2.873   6.698   0.483
 3549SOL    HW211547   2.727   6.760   0.441
 3550SOL     OW11548   5.294   0.930   5.039
 3550SOL    HW111549   5.359   0.858   5.014
 3550SOL    HW211550   5.203   0.904   5.007
 3551SOL     OW11551   4.508   1.972   4.298
 3551SOL    HW111552   4.472   2.044   4.237
 3551SOL    HW211553   4.554   2.015   4.375
 3552SOL     OW11554   0.024   0.007   3.255
 3552SOL    HW111555   6.968   0.023   3.314
 3552SOL    HW211556   0.030   0.079   3.186
 3553SOL     OW11557   5.454   5.894   6.767
 3553SOL    HW111558   5.509   5.822   6.808
 3553SOL    HW211559   5.412   5.949   6.840
 3554SOL     OW11560   5.590   3.402   0.373
 3554SOL    HW111561   5.654   3.411   0.449
 3554SOL    HW211562   5.626   3.335   0.308
 3555SOL     OW11563   3.125   2.088   4.888
 3555SOL    HW111564   3.158   2.007   4.938
 3555SOL    HW211565   3.113   2.164   4.952
 3556SOL     OW11566   5.348   1.323   5.613
 3556SOL    HW111567   5.408   1.386   5.662
 3556SOL    HW211568   5.390   1.232   5.611
 3557SOL     OW11569   5.834   0.556   0.699
 3557SOL    HW111570   5.766   0.591   0.763
 3557SOL    HW211571   5.925   0.560   0.741
 3558SOL     OW11572   3.770   5.852   2.022
 3558SOL    HW111573   3.702   5.779   2.031
 3558SOL    HW211574   3.729   5.939   2.051
 3559SOL     OW11575   4.914   6.831   5.512
 3559SOL    HW111576   4.943   6.925   5.492
 3559SOL    HW211577   4.854   6.830   5.591
 3560SOL     OW11578   2.096   5.252   4.032
 3560SOL    HW111579   2.052   5.162   4.044
 3560SOL    HW211580   2.057   5.296   3.951
 3561SOL     OW11581   4.715   3.738   5.410
 3561SOL    HW111582   4.706   3.837   5.402
 3561SOL    HW211583   4.672   3.694   5.330
 3562SOL     OW11584   2.258   1.649   6.185
 3562SOL    HW111585   2.236   1.553   6.168
 3562SOL    HW211586   2.307   1.687   6.107
 3563SOL     OW11587   6.549   3.013   4.969
 3563SOL    HW111588   6.604   2.960   5.034
 3563SOL    HW211589   6.519   2.953   4.894
 3564SOL     OW11590   5.914   3.819   1.715
 3564SOL    HW111591   5.940   3.722   1.717
 3564SOL    HW211592   5.824   3.831   1.758
 3565SOL     OW11593   3.901   5.999   4.055
 3565SOL    HW111594   3.964   5.938   4.007
 3565SOL    HW211595   3.826   6.025   3.993
 3566SOL     OW11596   1.553   0.138   4.976
 3566SOL    HW111597   1.573   0.040   4.970
 3566SOL    HW211598   1.467   0.151   5.025
 3567SOL     OW11599   6.480   3.439   6.537
 3567SOL    HW111600   6.548   3.372   6.566
 3567SOL    HW211601   6.521   3.530   6.539
 3568SOL     OW11602   5.265   4.041   6.054
 3568SOL    HW111603   5.344   4.029   6.114
 3568SOL    HW211604   5.287   4.104   5.980
 3569SOL     OW11605   2.152   1.300   4.612
 3569SOL    HW111606   2.136   1.340   4.522
 3569SOL    HW211607   2.071   1.250   4.641
 3570SOL     OW11608   6.276   2.203   3.746
 3570SOL    HW111609   6.225   2.230   3.828
 3570SOL    HW211610   6.370   2.236   3.754
 3571SOL     OW11611   6.602   6.094   5.593
 3571SOL    HW111612   6.509   6.100   5.557
 3571SOL    HW211613   6.656   6.031   5.538
 3572SOL     OW11614   6.267   5.906   4.427
 3572SOL    HW111615   6.201   5.874   4.496
 3572SOL    HW211616   6.218   5.956   4.355
 3573SOL     OW11617   1.165   2.542   2.811
 3573SOL    HW111618   1.157   2.458   2.759
 3573SOL    HW211619   1.148   2.621   2.752
 3574SOL     OW11620   6.808   3.687   0.517
 3574SOL    HW111621   6.892   3.695   0.463
 3574SOL    HW211622   6.831   3.683   0.614
 3575SOL     OW11623   6.485   5.108   1.616
 3575SOL    HW111624   6.490   5.092   1.714
 3575SOL    HW211625   6.510   5.023   1.568
 3576SOL     OW11626   0.478   1.546   6.242
 3576SOL    HW111627   0.442   1.586   6.158
 3576SOL    HW211628   0.575   1.567   6.250
 3577SOL     OW11629   1.642   2.998   0.253
 3577SOL    HW111630   1.555   2.949   0.248
 3577SOL    HW211631   1.693   2.985   0.168
 3578SOL     OW11632   4.102   5.468   0.738
 3578SOL    HW111633   4.058   5.511   0.659
 3578SOL    HW211634   4.053   5.492   0.821
 3579SOL     OW11635   0.162   4.476   4.736
 3579SOL    HW111636   0.183   4.379   4.723
 3579SOL    HW211637   0.075   4.484   4.785
 3580SOL     OW11638   6.516   2.317   2.371
 3580SOL    HW111639   6.574   2.277   2.301
 3580SOL    HW211640   6.431   2.265   2.378
 3581SOL     OW11641   6.680   0.749   2.987
 3581SOL    HW111642   6.772   0.748   2.949
 3581SOL    HW211643   6.671   0.674   3.053
 3582SOL     OW11644   0.925   0.848   5.729
 3582SOL    HW111645   0.961   0.917   5.792
 3582SOL    HW211646   1.000   0.810   5.675
 3583SOL     OW11647   1.835   5.434   0.483
 3583SOL    HW111648   1.764   5.479   0.538
 3583SOL    HW211649   1.791   5.383   0.409
 3584SOL     OW11650   4.618   6.146   6.130
 3584SOL    HW111651   4.649   6.149   6.035
 3584SOL    HW211652   4.521   6.121   6.133
 3585SOL     OW11653   2.497   4.835   3.810
 3585SOL    HW111654   2.418   4.780   3.837
 3585SOL    HW211655   2.529   4.805   3.720
 3586SOL     OW11656   6.765   2.311   6.161
 3586SOL    HW111657   6.747   2.386   6.225
 3586SOL    HW211658   6.787   2.228   6.213
 3587SOL     OW11659   4.004   0.134   6.773
 3587SOL    HW111660   4.061   0.208   6.739
 3587SOL    HW211661   3.932   0.114   6.708
 3588SOL     OW11662   1.888   1.479   5.568
 3588SOL    HW111663   1.828   1.428   5.630
 3588SOL    HW211664   1.852   1.571   5.555
 3589SOL     OW11665   3.269   0.867   5.214
 3589SOL    HW111666   3.325   0.794   5.254
 3589SOL    HW211667   3.298   0.882   5.120
 3590SOL     OW11668   2.080   5.420   6.510
 3590SOL    HW111669   2.165   5.467   6.486
 3590SOL    HW211670   2.065   5.344   6.445
 3591SOL     OW11671   5.189   2.427   5.356
 3591SOL    HW111672   5.132   2.431   5.439
 3591SOL    HW211673   5.285   2.428   5.381
 3592SOL     OW11674   4.780   2.767   2.198
 3592SOL    HW111675   4.731   2.712   2.130
 3592SOL    HW211676   4.807   2.854   2.157
 3593SOL     OW11677   1.802   5.325   3.605
 3593SOL    HW111678   1.829   5.334   3.509
 3593SOL    HW211679   1.716   5.374   3.620
 3594SOL     OW11680   2.869   1.059   3.976
 3594SOL    HW111681   2.881   1.064   3.877
 3594SOL    HW211682   2.865   0.964   4.005
 3595SOL     OW11683   3.202   6.000   5.368
 3595SOL    HW111684   3.166   5.945   5.443
 3595SOL    HW211685   3.133   6.007   5.295
 3596SOL     OW11686   6.707   2.825   2.955
 3596SOL    HW111687   6.659   2.757   2.900
 3596SOL    HW211688   6.755   2.889   2.894
 3597SOL     OW11689   3.923   5.391   3.956
 3597SOL    HW111690   4.001   5.334   3.928
 3597SOL    HW211691   3.956   5.468   4.011
 3598SOL     OW11692   1.059   6.787   6.855
 3598SOL    HW111693   1.119   6.846   6.801
 3598SOL    HW211694   1.101   6.772   6.945
 3599SOL     OW11695   0.159   1.040   4.434
 3599SOL    HW111696   0.069   1.052   4.393
 3599SOL    HW211697   0.149   1.015   4.530
 3600SOL     OW11698   5.700   0.967   0.801
 3600SOL    HW111699   5.632   1.033   0.769
 3600SOL    HW211700   5.687   0.951   0.899
 3601SOL     OW11701   6.575   3.973   6.031
 3601SOL    HW111702   6.634   3.900   6.064
 3601SOL    HW211703   6.487   3.969   6.077
 3602SOL     OW11704   2.204   1.292   0.332
 3602SOL    HW111705   2.142   1.346   0.275
 3602SOL    HW211706   2.298   1.321   0.315
 3603SOL     OW11707   4.482   4.879   4.693
 3603SOL    HW111708   4.464   4.807   4.626
 3603SOL    HW211709   4.550   4.943   4.657
 3604SOL     OW11710   0.283   2.773   2.741
 3604SOL    HW111711   0.350   2.847   2.729
 3604SOL    HW211712   0.316   2.710   2.811
 3605SOL     OW11713   6.178   3.597   6.665
 3605SOL    HW111714   6.080   3.617   6.665
 3605SOL    HW211715   6.224   3.657   6.599
 3606SOL     OW11716   0.756   4.454   4.677
 3606SOL    HW111717   0.851   4.462   4.649
 3606SOL    HW211718   0.751   4.449   4.777
 3607SOL     OW11719   5.373   6.824   0.187
 3607SOL    HW111720   5.405   6.916   0.209
 3607SOL    HW211721   5.452   6.768   0.160
 3608SOL     OW11722   0.307   2.452   2.313
 3608SOL    HW111723   0.332   2.506   2.394
 3608SOL    HW211724   0.383   2.391   2.290
 3609SOL     OW11725   6.836   0.054   4.441
 3609SOL    HW111726   6.802   6.989   4.406
 3609SOL    HW211727   6.867   0.042   4.535
 3610SOL     OW11728   1.164   6.575   5.664
 3610SOL    HW111729   1.128   6.483   5.647
 3610SOL    HW211730   1.163   6.628   5.579
 3611SOL     OW11731   3.609   5.127   5.436
 3611SOL    HW111732   3.645   5.034   5.428
 3611SOL    HW211733   3.574   5.158   5.348
 3612SOL     OW11734   1.236   0.174   1.470
 3612SOL    HW111735   1.290   0.210   1.394
 3612SOL    HW211736   1.297   0.131   1.537
 3613SOL     OW11737   5.265   5.529   6.693
 3613SOL    HW111738   5.365   5.524   6.685
 3613SOL    HW211739   5.227   5.556   6.605
 3614SOL     OW11740   3.242   2.939   3.379
 3614SOL    HW111741   3.180   2.861   3.369
 3614SOL    HW211742   3.321   2.912   3.434
 3615SOL     OW11743   6.284   5.881   6.346
 3615SOL    HW111744   6.198   5.929   6.332
 3615SOL    HW211745   6.360   5.939   6.316
 3616SOL     OW11746   0.268   2.364   5.341
 3616SOL    HW111747   0.310   2.274   5.335
 3616SOL    HW211748   0.339   2.434   5.352
 3617SOL     OW11749   0.094   1.269   6.285
 3617SOL    HW111750   0.051   1.359   6.277
 3617SOL    HW211751   0.194   1.279   6.280
 3618SOL     OW11752   2.049   2.034   6.683
 3618SOL    HW111753   1.983   2.068   6.750
 3618SOL    HW211754   2.004   1.967   6.623
 3619SOL     OW11755   6.400   1.976   4.373
 3619SOL    HW111756   6.348   1.924   4.305
 3619SOL    HW211757   6.474   2.026   4.327
 3620SOL     OW11758   5.935   6.609   5.595
 3620SOL    HW111759   5.927   6.665   5.512
 3620SOL    HW211760   6.026   6.569   5.598
 3621SOL     OW11761   1.865   3.744   5.812
 3621SOL    HW111762   1.864   3.717   5.716
 3621SOL    HW211763   1.771   3.762   5.842
 3622SOL     OW11764   0.545   2.854   1.837
 3622SOL    HW111765   0.593   2.846   1.750
 3622SOL    HW211766   0.595   2.803   1.907
 3623SOL     OW11767   5.671   5.072   3.469
 3623SOL    HW111768   5.579   5.036   3.489
 3623SOL    HW211769   5.664   5.167   3.440
 3624SOL     OW11770   2.812   6.631   2.090
 3624SOL    HW111771   2.876   6.562   2.123
 3624SOL    HW211772   2.773   6.602   2.002
 3625SOL     OW11773   6.663   3.461   4.745
 3625SOL    HW111774   6.595   3.395   4.777
 3625SOL    HW211775   6.620   3.550   4.735
 3626SOL     OW11776   2.419   3.795   5.401
 3626SOL    HW111777   2.410   3.858   5.324
 3626SOL    HW211778   2.411   3.701   5.367
 3627SOL     OW11779   2.989   3.818   3.445
 3627SOL    HW111780   2.920   3.810   3.373
 3627SOL    HW211781   3.080   3.808   3.406
 3628SOL     OW11782   2.681   5.310   2.250
 3628SOL    HW111783   2.732   5.236   2.294
 3628SOL    HW211784   2.687   5.392   2.307
 3629SOL     OW11785   6.130   1.762   5.577
 3629SOL    HW111786   6.136   1.843   5.635
 3629SOL    HW211787   6.221   1.728   5.556
 3630SOL     OW11788   6.598   2.075   4.239
 3630SOL    HW111789   6.608   2.005   4.169
 3630SOL    HW211790   6.688   2.111   4.264
 3631SOL     OW11791   2.695   1.078   4.861
 3631SOL    HW111792   2.758   1.115   4.793
 3631SOL    HW211793   2.624   1.026   4.815
 3632SOL     OW11794   4.808   1.025   0.675
 3632SOL    HW111795   4.727   1.040   0.619
 3632SOL    HW211796   4.791   0.950   0.739
 3633SOL     OW11797   2.114   2.974   5.701
 3633SOL    HW111798   2.118   2.984   5.601
 3633SOL    HW211799   2.019   2.984   5.732
 3634SOL     OW11800   1.704   6.147   5.090
 3634SOL    HW111801   1.622   6.092   5.106
 3634SOL    HW211802   1.691   6.203   5.008
 3635SOL     OW11803   2.467   1.477   5.695
 3635SOL    HW111804   2.512   1.393   5.726
 3635SOL    HW211805   2.537   1.544   5.669
 3636SOL     OW11806   0.737   5.241   5.671
 3636SOL    HW111807   0.760   5.332   5.706
 3636SOL    HW211808   0.817   5.202   5.626
 3637SOL     OW11809   5.374   0.983   1.773
 3637SOL    HW111810   5.332   0.894   1.759
 3637SOL    HW211811   5.357   1.040   1.692
 3638SOL     OW11812   0.038   4.414   3.343
 3638SOL    HW111813   6.976   4.376   3.306
 3638SOL    HW211814   0.083   4.345   3.401
 3639SOL     OW11815   2.746   5.116   0.960
 3639SOL    HW111816   2.710   5.145   1.048
 3639SOL    HW211817   2.673   5.114   0.892
 3640SOL     OW11818   3.474   5.936   1.172
 3640SOL    HW111819   3.438   5.900   1.086
 3640SOL    HW211820   3.556   5.989   1.154
 3641SOL     OW11821   2.760   1.486   4.665
 3641SOL    HW111822   2.707   1.503   4.748
 3641SOL    HW211823   2.810   1.399   4.674
 3642SOL     OW11824   5.381   0.681   3.968
 3642SOL    HW111825   5.473   0.673   3.929
 3642SOL    HW211826   5.370   0.771   4.010
 3643SOL     OW11827   2.780   4.751   4.783
 3643SOL    HW111828   2.728   4.674   4.748
 3643SOL    HW211829   2.819   4.728   4.872
 3644SOL     OW11830   6.737   0.711   0.807
 3644SOL    HW111831   6.815   0.759   0.846
 3644SOL    HW211832   6.722   0.742   0.713
 3645SOL     OW11833   4.625   1.361   3.544
 3645SOL    HW111834   4.594   1.301   3.618
 3645SOL    HW211835   4.666   1.443   3.584
 3646SOL     OW11836   0.020   5.122   5.355
 3646SOL    HW111837   6.967   5.057   5.351
 3646SOL    HW211838   7.008   5.212   5.380
 3647SOL     OW11839   2.087   2.974   1.213
 3647SOL    HW111840   2.111   3.023   1.297
 3647SOL    HW211841   2.083   2.876   1.233
 3648SOL     OW11842   3.485   5.603   2.307
 3648SOL    HW111843   3.530   5.660   2.238
 3648SOL    HW211844   3.459   5.659   2.385
 3649SOL     OW11845   3.979   3.444   0.711
 3649SOL    HW111846   3.996   3.422   0.614
 3649SOL    HW211847   4.026   3.377   0.769
 3650SOL     OW11848   1.109   5.976   1.734
 3650SOL    HW111849   1.052   5.923   1.796
 3650SOL    HW211850   1.199   5.992   1.775
 3651SOL     OW11851   1.080   6.156   2.871
 3651SOL    HW111852   1.114   6.145   2.778
 3651SOL    HW211853   0.980   6.146   2.871
 3652SOL     OW11854   4.422   5.620   3.170
 3652SOL    HW111855   4.420   5.717   3.192
 3652SOL    HW211856   4.342   5.597   3.114
 3653SOL     OW11857   0.069   1.638   2.710
 3653SOL    HW111858   0.111   1.550   2.689
 3653SOL    HW211859   6.993   1.632   2.695
 3654SOL     OW11860   1.563   6.671   1.169
 3654SOL    HW111861   1.479   6.646   1.217
 3654SOL    HW211862   1.606   6.589   1.132
 3655SOL     OW11863   1.561   0.554   4.692
 3655SOL    HW111864   1.547   0.633   4.752
 3655SOL    HW211865   1.564   0.585   4.597
 3656SOL     OW11866   2.143   2.576   2.088
 3656SOL    HW111867   2.094   2.608   2.169
 3656SOL    HW211868   2.078   2.562   2.013
 3657SOL     OW11869   3.878   5.968   0.895
 3657SOL    HW111870   3.831   6.038   0.841
 3657SOL    HW211871   3.960   6.007   0.936
 3658SOL     OW11872   1.037   6.326   5.658
 3658SOL    HW111873   0.940   6.299   5.656
 3658SOL    HW211874   1.093   6.250   5.626
 3659SOL     OW11875   2.180   4.390   6.791
 3659SOL    HW111876   2.109   4.322   6.806
 3659SOL    HW211877   2.255   4.349   6.738
 3660SOL     OW11878   4.527   5.759   2.120
 3660SOL    HW111879   4.492   5.833   2.063
 3660SOL    HW211880   4.577   5.796   2.198
 3661SOL     OW11881   4.834   1.323   0.410
 3661SOL    HW111882   4.914   1.263   0.420
 3661SOL    HW211883   4.790   1.334   0.499
 3662SOL     OW11884   3.215   0.252   5.462
 3662SOL    HW111885   3.153   0.194   5.409
 3662SOL    HW211886   3.209   0.346   5.427
 3663SOL     OW11887   1.659   2.199   0.206
 3663SOL    HW111888   1.682   2.102   0.200
 3663SOL    HW211889   1.717   2.244   0.274
 3664SOL     OW11890   5.198   1.580   0.734
 3664SOL    HW111891   5.136   1.655   0.758
 3664SOL    HW211892   5.292   1.611   0.744
 3665SOL     OW11893   0.559   0.162   5.189
 3665SOL    HW111894   0.470   0.205   5.206
 3665SOL    HW211895   0.611   0.217   5.124
 3666SOL     OW11896   1.774   3.717   4.659
 3666SOL    HW111897   1.730   3.704   4.747
 3666SOL    HW211898   1.794   3.628   4.617
 3667SOL     OW11899   6.389   0.695   6.241
 3667SOL    HW111900   6.332   0.631   6.190
 3667SOL    HW211901   6.390   0.668   6.338
 3668SOL     OW11902   1.596   6.945   2.430
 3668SOL    HW111903   1.626   0.016   2.409
 3668SOL    HW211904   1.671   6.897   2.475
 3669SOL     OW11905   6.957   2.616   3.443
 3669SOL    HW111906   6.923   2.634   3.351
 3669SOL    HW211907   6.911   2.537   3.482
 3670SOL     OW11908   2.398   5.800   5.602
 3670SOL    HW111909   2.464   5.809   5.527
 3670SOL    HW211910   2.408   5.878   5.664
 3671SOL     OW11911   0.901   0.467   3.163
 3671SOL    HW111912   0.872   0.546   3.217
 3671SOL    HW211913   0.978   0.423   3.210
 3672SOL     OW11914   6.453   1.111   0.094
 3672SOL    HW111915   6.525   1.045   0.115
 3672SOL    HW211916   6.404   1.081   0.012
 3673SOL     OW11917   5.009   0.915   0.247
 3673SOL    HW111918   5.074   0.843   0.223
 3673SOL    HW211919   5.033   0.953   0.336
 3674SOL     OW11920   1.023   6.919   0.292
 3674SOL    HW111921   0.982   6.843   0.343
 3674SOL    HW211922   1.049   6.992   0.355
 3675SOL     OW11923   2.285   2.430   5.257
 3675SOL    HW111924   2.241   2.509   5.213
 3675SOL    HW211925   2.382   2.427   5.231
 3676SOL     OW11926   3.128   5.361   4.235
 3676SOL    HW111927   3.041   5.399   4.265
 3676SOL    HW211928   3.115   5.267   4.204
 3677SOL     OW11929   6.401   6.509   3.962
 3677SOL    HW111930   6.497   6.527   3.982
 3677SOL    HW211931   6.390   6.416   3.929
 3678SOL     OW11932   1.327   2.038   3.660
 3678SOL    HW111933   1.258   2.048   3.588
 3678SOL    HW211934   1.416   2.021   3.619
 3679SOL     OW11935   0.153   0.559   1.906
 3679SOL    HW111936   0.206   0.639   1.932
 3679SOL    HW211937   0.111   0.576   1.816
 3680SOL     OW11938   6.865   3.172   4.034
 3680SOL    HW111939   6.847   3.219   3.947
 3680SOL    HW211940   6.837   3.230   4.110
 3681SOL     OW11941   0.454   6.744   6.164
 3681SOL    HW111942   0.414   6.794   6.087
 3681SOL    HW211943   0.382   6.716   6.227
 3682SOL     OW11944   6.637   2.070   5.723
 3682SOL    HW111945   6.705   2.086   5.795
 3682SOL    HW211946   6.660   1.987   5.673
 3683SOL     OW11947   6.341   6.412   4.312
 3683SOL    HW111948   6.247   6.381   4.327
 3683SOL    HW211949   6.341   6.512   4.302
 3684SOL     OW11950   1.366   3.568   1.948
 3684SOL    HW111951   1.329   3.525   1.866
 3684SOL    HW211952   1.466   3.571   1.941
 3685SOL     OW11953   6.088   6.226   6.914
 3685SOL    HW111954   6.138   6.265   6.992
 3685SOL    HW211955   6.148   6.165   6.863
 3686SOL     OW11956   6.656   4.638   1.806
 3686SOL    HW111957   6.566   4.682   1.797
 3686SOL    HW211958   6.646   4.556   1.862
 3687SOL     OW11959   3.511   0.701   6.854
 3687SOL    HW111960   3.555   0.687   6.943
 3687SOL    HW211961   3.581   0.699   6.782
 3688SOL     OW11962   1.366   3.260   6.917
 3688SOL    HW111963   1.382   3.310   7.002
 3688SOL    HW211964   1.391   3.164   6.929
 3689SOL     OW11965   1.665   1.174   4.566
 3689SOL    HW111966   1.605   1.175   4.486
 3689SOL    HW211967   1.697   1.266   4.585
 3690SOL     OW11968   5.616   0.239   5.676
 3690SOL    HW111969   5.660   0.182   5.607
 3690SOL    HW211970   5.686   0.289   5.727
 3691SOL     OW11971   2.934   3.417   0.544
 3691SOL    HW111972   2.946   3.319   0.556
 3691SOL    HW211973   2.862   3.449   0.606
 3692SOL     OW11974   2.070   0.126   4.870
 3692SOL    HW111975   2.163   0.091   4.876
 3692SOL    HW211976   2.011   0.054   4.831
 3693SOL     OW11977   3.108   2.162   3.362
 3693SOL    HW111978   3.208   2.154   3.356
 3693SOL    HW211979   3.083   2.194   3.453
 3694SOL     OW11980   1.257   6.341   3.252
 3694SOL    HW111981   1.243   6.254   3.298
 3694SOL    HW211982   1.314   6.400   3.308
 3695SOL     OW11983   2.310   1.667   2.540
 3695SOL    HW111984   2.338   1.641   2.633
 3695SOL    HW211985   2.390   1.665   2.481
 3696SOL     OW11986   4.309   0.377   6.261
 3696SOL    HW111987   4.404   0.388   6.229
 3696SOL    HW211988   4.307   0.382   6.361
 3697SOL     OW11989   6.930   6.724   3.631
 3697SOL    HW111990   0.006   6.726   3.648
 3697SOL    HW211991   6.886   6.663   3.696
 3698SOL     OW11992   2.956   0.156   5.648
 3698SOL    HW111993   3.047   0.166   5.690
 3698SOL    HW211994   2.943   0.227   5.579
 3699SOL     OW11995   6.757   4.245   2.804
 3699SOL    HW111996   6.745   4.147   2.821
 3699SOL    HW211997   6.805   4.259   2.718
 3700SOL     OW11998   6.666   0.339   4.074
 3700SOL    HW111999   6.720   0.416   4.109
 3700SOL    HW212000   6.642   0.279   4.149
 3701SOL     OW12001   6.325   0.916   4.552
 3701SOL    HW112002   6.251   0.980   4.533
 3701SOL    HW212003   6.350   0.869   4.468
 3702SOL     OW12004   3.916   0.432   0.835
 3702SOL    HW112005   4.003   0.393   0.865
 3702SOL    HW212006   3.861   0.457   0.915
 3703SOL     OW12007   3.764   4.523   6.438
 3703SOL    HW112008   3.775   4.623   6.430
 3703SOL    HW212009   3.714   4.502   6.522
 3704SOL     OW12010   3.034   1.063   2.820
 3704SOL    HW112011   3.108   0.999   2.799
 3704SOL    HW212012   3.056   1.114   2.903
 3705SOL     OW12013   5.155   0.590   3.607
 3705SOL    HW112014   5.191   0.582   3.700
 3705SOL    HW212015   5.084   0.520   3.592
 3706SOL     OW12016   2.012   2.936   4.259
 3706SOL    HW112017   2.103   2.921   4.296
 3706SOL    HW212018   1.951   2.863   4.291
 3707SOL     OW12019   5.171   2.497   5.924
 3707SOL    HW112020   5.073   2.518   5.931
 3707SOL    HW212021   5.188   2.452   5.837
 3708SOL     OW12022   6.109   0.676   6.658
 3708SOL    HW112023   6.026   0.723   6.686
 3708SOL    HW212024   6.089   0.579   6.642
 3709SOL     OW12025   3.433   0.648   6.048
 3709SOL    HW112026   3.410   0.570   6.107
 3709SOL    HW212027   3.426   0.732   6.101
 3710SOL     OW12028   6.824   5.190   0.970
 3710SOL    HW112029   6.784   5.234   1.050
 3710SOL    HW212030   6.851   5.097   0.994
 3711SOL     OW12031   0.037   5.597   2.279
 3711SOL    HW112032   0.077   5.654   2.208
 3711SOL    HW212033   0.014   5.653   2.359
 3712SOL     OW12034   1.397   6.385   6.707
 3712SOL    HW112035   1.395   6.451   6.781
 3712SOL    HW212036   1.352   6.423   6.626
 3713SOL     OW12037   3.556   6.323   5.256
 3713SOL    HW112038   3.510   6.255   5.312
 3713SOL    HW212039   3.603   6.277   5.180
 3714SOL     OW12040   4.384   0.161   4.868
 3714SOL    HW112041   4.359   0.219   4.945
 3714SOL    HW212042   4.346   0.200   4.784
 3715SOL     OW12043   5.495   5.038   4.553
 3715SOL    HW112044   5.422   5.041   4.485
 3715SOL    HW212045   5.526   4.943   4.564
 3716SOL     OW12046   0.357   6.893   4.767
 3716SOL    HW112047   0.299   6.872   4.688
 3716SOL    HW212048   0.323   6.842   4.846
 3717SOL     OW12049   5.920   6.219   1.286
 3717SOL    HW112050   5.904   6.203   1.384
 3717SOL    HW212051   5.890   6.139   1.234
 3718SOL     OW12052   1.146   6.124   6.834
 3718SOL    HW112053   1.164   6.096   6.928
 3718SOL    HW212054   1.226   6.106   6.777
 3719SOL     OW12055   4.265   5.193   6.080
 3719SOL    HW112056   4.286   5.128   6.153
 3719SOL    HW212057   4.205   5.265   6.115
 3720SOL     OW12058   6.412   1.634   6.154
 3720SOL    HW112059   6.504   1.601   6.129
 3720SOL    HW212060   6.360   1.558   6.193
 3721SOL     OW12061   5.502   4.740   0.368
 3721SOL    HW112062   5.548   4.714   0.283
 3721SOL    HW212063   5.403   4.738   0.354
 3722SOL     OW12064   6.996   5.943   2.925
 3722SOL    HW112065   0.067   5.962   2.898
 3722SOL    HW212066   6.949   6.028   2.947
 3723SOL     OW12067   4.838   0.727   1.469
 3723SOL    HW112068   4.848   0.818   1.430
 3723SOL    HW212069   4.928   0.686   1.483
 3724SOL     OW12070   1.165   5.717   6.979
 3724SOL    HW112071   1.131   5.781   6.910
 3724SOL    HW212072   1.218   5.645   6.934
 3725SOL     OW12073   6.685   5.925   6.549
 3725SOL    HW112074   6.758   5.946   6.613
 3725SOL    HW212075   6.714   5.853   6.487
 3726SOL     OW12076   5.716   4.057   1.561
 3726SOL    HW112077   5.681   4.006   1.639
 3726SOL    HW212078   5.814   4.074   1.573
 3727SOL     OW12079   1.659   3.024   4.880
 3727SOL    HW112080   1.590   3.092   4.853
 3727SOL    HW212081   1.613   2.941   4.910
 3728SOL     OW12082   2.143   3.150   0.094
 3728SOL    HW112083   2.085   3.095   0.034
 3728SOL    HW212084   2.216   3.193   0.039
 3729SOL     OW12085   1.288   1.790   3.363
 3729SOL    HW112086   1.349   1.740   3.300
 3729SOL    HW212087   1.261   1.876   3.320
 3730SOL     OW12088   3.329   1.776   6.730
 3730SOL    HW112089   3.378   1.693   6.755
 3730SOL    HW212090   3.241   1.779   6.779
 3731SOL     OW12091   4.708   0.603   0.843
 3731SOL    HW112092   4.778   0.532   0.832
 3731SOL    HW212093   4.742   0.690   0.808
 3732SOL     OW12094   2.408   3.459   5.422
 3732SOL    HW112095   2.324   3.464   5.476
 3732SOL    HW212096   2.456   3.374   5.443
 3733SOL     OW12097   2.814   4.129   1.616
 3733SOL    HW112098   2.840   4.072   1.539
 3733SOL    HW212099   2.715   4.138   1.620
 3734SOL     OW12100   4.600   0.929   2.353
 3734SOL    HW112101   4.557   0.945   2.442
 3734SOL    HW212102   4.656   0.845   2.357
 3735SOL     OW12103   2.507   2.432   2.624
 3735SOL    HW112104   2.421   2.384   2.640
 3735SOL    HW212105   2.500   2.485   2.540
 3736SOL     OW12106   6.361   2.191   0.939
 3736SOL    HW112107   6.387   2.101   0.974
 3736SOL    HW212108   6.364   2.191   0.839
 3737SOL     OW12109   4.998   0.229   2.976
 3737SOL    HW112110   5.023   0.226   3.072
 3737SOL    HW212111   4.914   0.282   2.965
 3738SOL     OW12112   6.967   6.429   3.883
 3738SOL    HW112113   6.906   6.416   3.960
 3738SOL    HW212114   6.928   6.386   3.801
 3739SOL     OW12115   1.108   3.862   2.223
 3739SOL    HW112116   1.030   3.802   2.206
 3739SOL    HW212117   1.178   3.846   2.154
 3740SOL     OW12118   5.023   1.335   6.610
 3740SOL    HW112119   4.995   1.252   6.561
 3740SOL    HW212120   5.122   1.348   6.600
 3741SOL     OW12121   4.370   3.344   0.853
 3741SOL    HW112122   4.430   3.361   0.931
 3741SOL    HW212123   4.403   3.265   0.801
 3742SOL     OW12124   3.487   2.434   5.514
 3742SOL    HW112125   3.402   2.450   5.564
 3742SOL    HW212126   3.470   2.371   5.438
 3743SOL     OW12127   6.605   5.027   6.483
 3743SOL    HW112128   6.656   5.039   6.398
 3743SOL    HW212129   6.581   4.930   6.494
 3744SOL     OW12130   0.159   5.211   3.907
 3744SOL    HW112131   0.237   5.155   3.937
 3744SOL    HW212132   0.189   5.306   3.895
 3745SOL     OW12133   3.428   5.751   2.526
 3745SOL    HW112134   3.378   5.723   2.608
 3745SOL    HW212135   3.427   5.851   2.518
 3746SOL     OW12136   4.408   1.966   1.693
 3746SOL    HW112137   4.385   1.937   1.600
 3746SOL    HW212138   4.491   1.919   1.723
 3747SOL     OW12139   3.396   1.026   0.246
 3747SOL    HW112140   3.424   0.939   0.288
 3747SOL    HW212141   3.298   1.038   0.257
 3748SOL     OW12142   6.150   0.741   2.229
 3748SOL    HW112143   6.134   0.643   2.220
 3748SOL    HW212144   6.199   0.759   2.314
 3749SOL     OW12145   2.036   6.833   4.867
 3749SOL    HW112146   2.100   6.822   4.791
 3749SOL    HW212147   1.946   6.801   4.839
 3750SOL     OW12148   0.335   3.804   0.624
 3750SOL    HW112149   0.371   3.859   0.699
 3750SOL    HW212150   0.251   3.845   0.589
 3751SOL     OW12151   0.112   4.504   2.707
 3751SOL    HW112152   0.081   4.546   2.622
 3751SOL    HW212153   0.054   4.535   2.782
 3752SOL     OW12154   6.788   0.642   6.362
 3752SOL    HW112155   6.823   0.591   6.441
 3752SOL    HW212156   6.725   0.584   6.311
 3753SOL     OW12157   6.807   0.578   4.153
 3753SOL    HW112158   6.898   0.570   4.192
 3753SOL    HW212159   6.781   0.675   4.147
 3754SOL     OW12160   1.678   1.521   1.247
 3754SOL    HW112161   1.630   1.472   1.174
 3754SOL    HW212162   1.666   1.620   1.235
 3755SOL     OW12163   2.407   4.479   4.247
 3755SOL    HW112164   2.316   4.481   4.207
 3755SOL    HW212165   2.476   4.488   4.175
 3756SOL     OW12166   2.865   6.300   6.884
 3756SOL    HW112167   2.825   6.250   6.807
 3756SOL    HW212168   2.908   6.384   6.850
 3757SOL     OW12169   6.154   4.715   1.653
 3757SOL    HW112170   6.074   4.686   1.600
 3757SOL    HW212171   6.141   4.809   1.684
 3758SOL     OW12172   2.066   0.039   3.186
 3758SOL    HW112173   1.966   0.041   3.194
 3758SOL    HW212174   2.099   6.968   3.199
 3759SOL     OW12175   5.097   0.310   4.451
 3759SOL    HW112176   5.171   0.369   4.483
 3759SOL    HW212177   5.010   0.357   4.463
 3760SOL     OW12178   0.482   0.477   3.460
 3760SOL    HW112179   0.491   0.483   3.360
 3760SOL    HW212180   0.457   0.566   3.497
 3761SOL     OW12181   4.813   0.866   3.929
 3761SOL    HW112182   4.864   0.854   3.844
 3761SOL    HW212183   4.873   0.845   4.007
 3762SOL     OW12184   0.679   3.469   2.448
 3762SOL    HW112185   0.622   3.405   2.395
 3762SOL    HW212186   0.626   3.504   2.526
 3763SOL     OW12187   0.241   5.010   0.717
 3763SOL    HW112188   0.278   5.007   0.810
 3763SOL    HW212189   0.275   4.932   0.665
 3764SOL     OW12190   2.185   6.838   2.409
 3764SOL    HW112191   2.138   6.892   2.338
 3764SOL    HW212192   2.181   6.887   2.496
 3765SOL     OW12193   6.259   2.511   1.773
 3765SOL    HW112194   6.235   2.444   1.703
 3765SOL    HW212195   6.191   2.510   1.846
 3766SOL     OW12196   0.995   3.541   3.482
 3766SOL    HW112197   0.972   3.627   3.435
 3766SOL    HW212198   1.033   3.562   3.572
 3767SOL     OW12199   1.464   4.699   6.103
 3767SOL    HW112200   1.554   4.659   6.086
 3767SOL    HW212201   1.403   4.628   6.140
 3768SOL     OW12202   1.252   0.411   4.614
 3768SOL    HW112203   1.243   0.509   4.594
 3768SOL    HW212204   1.314   0.398   4.691
 3769SOL     OW12205   5.707   5.916   4.595
 3769SOL    HW112206   5.744   5.887   4.506
 3769SOL    HW212207   5.732   5.849   4.665
 3770SOL     OW12208   1.257   0.772   0.819
 3770SOL    HW112209   1.178   0.825   0.849
 3770SOL    HW212210   1.333   0.787   0.883
 3771SOL     OW12211   6.734   4.576   0.860
 3771SOL    HW112212   6.804   4.598   0.792
 3771SOL    HW212213   6.688   4.660   0.889
 3772SOL     OW12214   1.777   5.894   0.483
 3772SOL    HW112215   1.738   5.959   0.418
 3772SOL    HW212216   1.728   5.808   0.478
 3773SOL     OW12217   5.396   3.747   5.918
 3773SOL    HW112218   5.476   3.740   5.978
 3773SOL    HW212219   5.314   3.759   5.974
 3774SOL     OW12220   6.367   5.562   1.271
 3774SOL    HW112221   6.389   5.634   1.206
 3774SOL    HW212222   6.324   5.486   1.222
 3775SOL     OW12223   4.389   5.219   4.355
 3775SOL    HW112224   4.321   5.271   4.407
 3775SOL    HW212225   4.358   5.124   4.346
 3776SOL     OW12226   3.371   2.785   6.612
 3776SOL    HW112227   3.284   2.808   6.655
 3776SOL    HW212228   3.363   2.696   6.566
 3777SOL     OW12229   3.054   6.468   4.148
 3777SOL    HW112230   3.060   6.486   4.246
 3777SOL    HW212231   3.133   6.508   4.101
 3778SOL     OW12232   3.273   5.251   5.045
 3778SOL    HW112233   3.226   5.201   4.972
 3778SOL    HW212234   3.305   5.339   5.010
 3779SOL     OW12235   6.677   5.141   7.015
 3779SOL    HW112236   6.579   5.124   7.021
 3779SOL    HW212237   6.713   5.100   6.931
 3780SOL     OW12238   6.006   3.926   1.457
 3780SOL    HW112239   6.008   3.876   1.544
 3780SOL    HW212240   5.941   3.881   1.395
 3781SOL     OW12241   2.827   5.911   4.763
 3781SOL    HW112242   2.825   6.009   4.782
 3781SOL    HW212243   2.860   5.896   4.670
 3782SOL     OW12244   5.200   5.772   1.667
 3782SOL    HW112245   5.288   5.816   1.685
 3782SOL    HW212246   5.126   5.840   1.675
 3783SOL     OW12247   5.024   5.085   5.166
 3783SOL    HW112248   5.060   4.992   5.166
 3783SOL    HW212249   4.928   5.083   5.137
 3784SOL     OW12250   6.270   1.753   4.211
 3784SOL    HW112251   6.238   1.707   4.294
 3784SOL    HW212252   6.370   1.758   4.213
 3785SOL     OW12253   1.311   3.855   4.618
 3785SOL    HW112254   1.277   3.813   4.533
 3785SOL    HW212255   1.254   3.934   4.641
 3786SOL     OW12256   2.551   2.470   4.814
 3786SOL    HW112257   2.527   2.547   4.872
 3786SOL    HW212258   2.543   2.495   4.718
 3787SOL     OW12259   4.645   0.057   3.318
 3787SOL    HW112260   4.713   0.039   3.388
 3787SOL    HW212261   4.655   7.015   3.243
 3788SOL     OW12262   6.872   3.859   5.402
 3788SOL    HW112263   6.834   3.856   5.310
 3788SOL    HW212264   6.903   3.768   5.429
 3789SOL     OW12265   1.372   2.778   2.512
 3789SOL    HW112266   1.301   2.755   2.579
 3789SOL    HW212267   1.456   2.729   2.535
 3790SOL     OW12268   0.764   6.328   1.288
 3790SOL    HW112269   0.780   6.291   1.380
 3790SOL    HW212270   0.849   6.369   1.254
 3791SOL     OW12271   5.180   0.876   6.104
 3791SOL    HW112272   5.249   0.888   6.175
 3791SOL    HW212273   5.195   0.944   6.032
 3792SOL     OW12274   0.113   0.464   4.207
 3792SOL    HW112275   0.154   0.383   4.165
 3792SOL    HW212276   0.181   0.512   4.261
 3793SOL     OW12277   5.175   5.182   7.003
 3793SOL    HW112278   5.264   5.157   0.017
 3793SOL    HW212279   5.113   5.203   0.056
 3794SOL     OW12280   1.752   3.562   6.477
 3794SOL    HW112281   1.691   3.573   6.556
 3794SOL    HW212282   1.816   3.639   6.473
 3795SOL     OW12283   2.450   5.479   1.679
 3795SOL    HW112284   2.409   5.570   1.671
 3795SOL    HW212285   2.517   5.466   1.606
 3796SOL     OW12286   4.090   2.030   6.718
 3796SOL    HW112287   4.125   1.936   6.712
 3796SOL    HW212288   4.041   2.052   6.634
 3797SOL     OW12289   1.140   4.563   2.901
 3797SOL    HW112290   1.104   4.644   2.947
 3797SOL    HW212291   1.073   4.489   2.904
 3798SOL     OW12292   1.802   6.913   3.247
 3798SOL    HW112293   1.754   6.828   3.225
 3798SOL    HW212294   1.764   6.952   3.331
 3799SOL     OW12295   6.862   2.010   2.470
 3799SOL    HW112296   6.846   2.107   2.456
 3799SOL    HW212297   6.956   1.996   2.503
 3800SOL     OW12298   5.933   2.169   2.924
 3800SOL    HW112299   5.943   2.203   3.018
 3800SOL    HW212300   5.945   2.245   2.860
 3801SOL     OW12301   5.474   0.609   1.846
 3801SOL    HW112302   5.423   0.553   1.781
 3801SOL    HW212303   5.410   0.660   1.904
 3802SOL     OW12304   5.635   2.216   2.202
 3802SOL    HW112305   5.684   2.133   2.178
 3802SOL    HW212306   5.673   2.255   2.285
 3803SOL     OW12307   3.090   3.808   4.126
 3803SOL    HW112308   3.179   3.845   4.100
 3803SOL    HW212309   3.067   3.840   4.218
 3804SOL     OW12310   3.315   6.333   3.894
 3804SOL    HW112311   3.292   6.236   3.888
 3804SOL    HW212312   3.321   6.371   3.801
 3805SOL     OW12313   2.407   2.612   0.277
 3805SOL    HW112314   2.325   2.667   0.293
 3805SOL    HW212315   2.488   2.666   0.299
 3806SOL     OW12316   3.631   4.161   0.630
 3806SOL    HW112317   3.715   4.108   0.626
 3806SOL    HW212318   3.562   4.112   0.683
 3807SOL     OW12319   1.666   4.339   4.331
 3807SOL    HW112320   1.595   4.384   4.277
 3807SOL    HW212321   1.625   4.267   4.386
 3808SOL     OW12322   3.752   6.700   6.603
 3808SOL    HW112323   3.815   6.637   6.557
 3808SOL    HW212324   3.792   6.729   6.690
 3809SOL     OW12325   4.963   2.381   1.007
 3809SOL    HW112326   4.957   2.326   1.090
 3809SOL    HW212327   4.981   2.476   1.030
 3810SOL     OW12328   6.476   2.253   1.811
 3810SOL    HW112329   6.408   2.262   1.738
 3810SOL    HW212330   6.511   2.344   1.835
 3811SOL     OW12331   0.422   5.820   5.037
 3811SOL    HW112332   0.460   5.882   4.968
 3811SOL    HW212333   0.474   5.735   5.037
 3812SOL     OW12334   4.501   6.777   0.007
 3812SOL    HW112335   4.404   6.783   0.033
 3812SOL    HW212336   4.538   6.869   7.017
 3813SOL     OW12337   6.573   3.810   0.115
 3813SOL    HW112338   6.577   3.903   0.151
 3813SOL    HW212339   6.481   3.773   0.128
 3814SOL     OW12340   6.310   0.228   4.845
 3814SOL    HW112341   6.374   0.176   4.901
 3814SOL    HW212342   6.252   0.165   4.793
 3815SOL     OW12343   5.727   3.483   6.955
 3815SOL    HW112344   5.779   3.556   6.910
 3815SOL    HW212345   5.630   3.510   6.960
 3816SOL     OW12346   1.071   5.640   5.777
 3816SOL    HW112347   1.017   5.703   5.833
 3816SOL    HW212348   1.128   5.691   5.714
 3817SOL     OW12349   5.048   3.445   2.378
 3817SOL    HW112350   5.014   3.403   2.462
 3817SOL    HW212351   5.125   3.505   2.399
 3818SOL     OW12352   6.960   0.379   1.904
 3818SOL    HW112353   6.990   0.472   1.926
 3818SOL    HW212354   6.954   0.325   1.989
 3819SOL     OW12355   6.995   4.191   3.905
 3819SOL    HW112356   6.977   4.218   3.999
 3819SOL    HW212357   6.937   4.244   3.843
 3820SOL     OW12358   5.088   0.129   4.649
 3820SOL    HW112359   5.089   0.031   4.629
 3820SOL    HW212360   5.073   0.179   4.564
 3821SOL     OW12361   1.130   0.156   0.397
 3821SOL    HW112362   1.206   0.218   0.410
 3821SOL    HW212363   1.048   0.193   0.441
 3822SOL     OW12364   4.848   1.398   1.154
 3822SOL    HW112365   4.915   1.434   1.089
 3822SOL    HW212366   4.758   1.440   1.136
 3823SOL     OW12367   4.917   4.756   5.680
 3823SOL    HW112368   4.875   4.727   5.766
 3823SOL    HW212369   5.010   4.717   5.674
 3824SOL     OW12370   1.988   3.212   6.830
 3824SOL    HW112371   2.082   3.241   6.849
 3824SOL    HW212372   1.925   3.268   6.883
 3825SOL     OW12373   1.479   4.276   5.945
 3825SOL    HW112374   1.411   4.312   5.882
 3825SOL    HW212375   1.545   4.219   5.896
 3826SOL     OW12376   6.081   4.322   3.072
 3826SOL    HW112377   6.011   4.294   3.007
 3826SOL    HW212378   6.166   4.341   3.022
 3827SOL     OW12379   1.518   1.304   1.964
 3827SOL    HW112380   1.573   1.241   2.019
 3827SOL    HW212381   1.575   1.379   1.932
 3828SOL     OW12382   3.963   3.800   4.539
 3828SOL    HW112383   4.059   3.816   4.513
 3828SOL    HW212384   3.961   3.738   4.618
 3829SOL     OW12385   0.688   4.010   2.725
 3829SOL    HW112386   0.762   3.948   2.752
 3829SOL    HW212387   0.606   3.988   2.777
 3830SOL     OW12388   0.091   0.954   4.687
 3830SOL    HW112389   0.040   0.954   4.773
 3830SOL    HW212390   0.188   0.968   4.706
 3831SOL     OW12391   4.331   1.735   3.306
 3831SOL    HW112392   4.259   1.804   3.303
 3831SOL    HW212393   4.317   1.675   3.384
 3832SOL     OW12394   0.589   0.940   2.796
 3832SOL    HW112395   0.625   0.879   2.868
 3832SOL    HW212396   0.490   0.931   2.792
 3833SOL     OW12397   1.066   0.583   5.946
 3833SOL    HW112398   1.036   0.508   5.887
 3833SOL    HW212399   0.987   0.640   5.970
 3834SOL     OW12400   4.922   4.038   0.616
 3834SOL    HW112401   4.865   3.961   0.644
 3834SOL    HW212402   4.910   4.113   0.680
 3835SOL     OW12403   4.276   6.025   4.965
 3835SOL    HW112404   4.232   6.056   4.881
 3835SOL    HW212405   4.247   6.083   5.041
 3836SOL     OW12406   6.756   5.787   6.302
 3836SOL    HW112407   6.758   5.693   6.334
 3836SOL    HW212408   6.721   5.790   6.209
 3837SOL     OW12409   4.211   4.833   5.061
 3837SOL    HW112410   4.150   4.909   5.039
 3837SOL    HW212411   4.301   4.849   5.020
 3838SOL     OW12412   1.765   1.981   3.238
 3838SOL    HW112413   1.798   1.894   3.202
 3838SOL    HW212414   1.822   2.009   3.316
 3839SOL     OW12415   4.270   0.587   2.748
 3839SOL    HW112416   4.260   0.613   2.652
 3839SOL    HW212417   4.183   0.551   2.783
 3840SOL     OW12418   2.701   0.738   0.243
 3840SOL    HW112419   2.641   0.729   0.164
 3840SOL    HW212420   2.655   0.701   0.324
 3841SOL     OW12421   6.449   4.570   3.309
 3841SOL    HW112422   6.449   4.471   3.293
 3841SOL    HW212423   6.539   4.607   3.284
 3842SOL     OW12424   2.129   2.875   5.397
 3842SOL    HW112425   2.204   2.941   5.397
 3842SOL    HW212426   2.166   2.783   5.406
 3843SOL     OW12427   5.719   2.525   0.500
 3843SOL    HW112428   5.691   2.576   0.581
 3843SOL    HW212429   5.811   2.488   0.514
 3844SOL     OW12430   1.640   5.240   0.074
 3844SOL    HW112431   1.573   5.304   0.036
 3844SOL    HW212432   1.723   5.290   0.097
 3845SOL     OW12433   2.678   6.475   0.563
 3845SOL    HW112434   2.664   6.551   0.626
 3845SOL    HW212435   2.776   6.462   0.549
 3846SOL     OW12436   0.846   2.702   3.726
 3846SOL    HW112437   0.842   2.704   3.826
 3846SOL    HW212438   0.881   2.613   3.695
 3847SOL     OW12439   6.575   1.109   5.443
 3847SOL    HW112440   6.616   1.049   5.374
 3847SOL    HW212441   6.579   1.065   5.532
 3848SOL     OW12442   5.158   3.787   2.381
 3848SOL    HW112443   5.063   3.756   2.375
 3848SOL    HW212444   5.213   3.716   2.425
 3849SOL     OW12445   0.232   5.759   6.402
 3849SOL    HW112446   0.246   5.845   6.354
 3849SOL    HW212447   0.197   5.777   6.494
 3850SOL     OW12448   2.551   2.404   1.159
 3850SOL    HW112449   2.497   2.475   1.205
 3850SOL    HW212450   2.489   2.336   1.119
 3851SOL     OW12451   7.005   5.476   3.681
 3851SOL    HW112452   0.060   5.494   3.741
 3851SOL    HW212453   7.003   5.379   3.657
 3852SOL     OW12454   3.505   5.976   5.160
 3852SOL    HW112455   3.535   5.948   5.252
 3852SOL    HW212456   3.409   5.951   5.147
 3853SOL     OW12457   2.408   1.085   3.683
 3853SOL    HW112458   2.400   1.005   3.624
 3853SOL    HW212459   2.404   1.168   3.627
 3854SOL     OW12460   1.439   2.394   2.519
 3854SOL    HW112461   1.348   2.396   2.561
 3854SOL    HW212462   1.506   2.430   2.583
 3855SOL     OW12463   4.447   6.547   0.315
 3855SOL    HW112464   4.523   6.495   0.275
 3855SOL    HW212465   4.408   6.609   0.247
 3856SOL     OW12466   0.485   2.273   6.078
 3856SOL    HW112467   0.485   2.373   6.091
 3856SOL    HW212468   0.395   2.244   6.047
 3857SOL     OW12469   2.126   0.774   6.022
 3857SOL    HW112470   2.116   0.848   6.088
 3857SOL    HW212471   2.145   0.812   5.932
 3858SOL     OW12472   3.532   1.249   5.207
 3858SOL    HW112473   3.618   1.258   5.257
 3858SOL    HW212474   3.551   1.246   5.109
 3859SOL     OW12475   5.237   6.935   0.917
 3859SOL    HW112476   5.246   7.013   0.979
 3859SOL    HW212477   5.312   6.871   0.933
 3860SOL     OW12478   1.776   0.944   4.674
 3860SOL    HW112479   1.745   1.034   4.645
 3860SOL    HW212480   1.700   0.879   4.668
 3861SOL     OW12481   4.391   5.543   2.038
 3861SOL    HW112482   4.381   5.485   2.118
 3861SOL    HW212483   4.451   5.620   2.059
 3862SOL     OW12484   0.792   6.456   4.042
 3862SOL    HW112485   0.711   6.408   4.077
 3862SOL    HW212486   0.763   6.533   3.985
 3863SOL     OW12487   4.338   0.820   0.682
 3863SOL    HW112488   4.239   0.831   0.699
 3863SOL    HW212489   4.357   0.726   0.655
 3864SOL     OW12490   2.133   0.961   4.587
 3864SOL    HW112491   2.093   0.930   4.673
 3864SOL    HW212492   2.227   0.993   4.604
 3865SOL     OW12493   4.461   0.467   0.062
 3865SOL    HW112494   4.458   0.412   0.145
 3865SOL    HW212495   4.506   0.555   0.083
 3866SOL     OW12496   2.805   2.691   6.653
 3866SOL    HW112497   2.898   2.660   6.637
 3866SOL    HW212498   2.799   2.790   6.634
 3867SOL     OW12499   1.125   4.576   2.633
 3867SOL    HW112500   1.031   4.582   2.597
 3867SOL    HW212501   1.122   4.574   2.733
 3868SOL     OW12502   3.305   1.327   0.217
 3868SOL    HW112503   3.386   1.273   0.238
 3868SOL    HW212504   3.223   1.271   0.230
 3869SOL     OW12505   6.267   3.234   3.200
 3869SOL    HW112506   6.286   3.159   3.137
 3869SOL    HW212507   6.270   3.321   3.151
 3870SOL     OW12508   6.592   0.329   3.318
 3870SOL    HW112509   6.588   0.371   3.408
 3870SOL    HW212510   6.686   0.305   3.296
 3871SOL     OW12511   3.199   6.088   3.903
 3871SOL    HW112512   3.120   6.055   3.956
 3871SOL    HW212513   3.200   6.042   3.814
 3872SOL     OW12514   3.562   2.887   4.301
 3872SOL    HW112515   3.611   2.859   4.219
 3872SOL    HW212516   3.466   2.861   4.294
 3873SOL     OW12517   5.144   2.708   0.455
 3873SOL    HW112518   5.140   2.774   0.379
 3873SOL    HW212519   5.052   2.693   0.491
 3874SOL     OW12520   4.236   6.870   1.002
 3874SOL    HW112521   4.196   6.813   0.930
 3874SOL    HW212522   4.283   6.949   0.961
 3875SOL     OW12523   2.044   1.915   4.732
 3875SOL    HW112524   2.138   1.925   4.766
 3875SOL    HW212525   2.040   1.839   4.667
 3876SOL     OW12526   4.578   6.143   0.704
 3876SOL    HW112527   4.601   6.237   0.677
 3876SOL    HW212528   4.647   6.081   0.668
 3877SOL     OW12529   6.857   1.832   0.823
 3877SOL    HW112530   6.905   1.770   0.761
 3877SOL    HW212531   6.852   1.923   0.782
 3878SOL     OW12532   4.643   0.281   4.634
 3878SOL    HW112533   4.629   0.370   4.676
 3878SOL    HW212534   4.694   0.222   4.697
 3879SOL     OW12535   5.400   4.440   6.637
 3879SOL    HW112536   5.390   4.340   6.640
 3879SOL    HW212537   5.431   4.467   6.546
 3880SOL     OW12538   5.424   4.489   4.777
 3880SOL    HW112539   5.415   4.432   4.858
 3880SOL    HW212540   5.353   4.560   4.777
 3881SOL     OW12541   1.388   3.514   0.831
 3881SOL    HW112542   1.362   3.418   0.821
 3881SOL    HW212543   1.354   3.566   0.753
 3882SOL     OW12544   1.020   1.046   0.219
 3882SOL    HW112545   1.112   1.052   0.257
 3882SOL    HW212546   1.020   1.082   0.126
 3883SOL     OW12547   4.447   0.314   2.675
 3883SOL    HW112548   4.387   0.264   2.738
 3883SOL    HW212549   4.500   0.382   2.726
 3884SOL     OW12550   0.555   6.020   3.350
 3884SOL    HW112551   0.567   5.923   3.368
 3884SOL    HW212552   0.509   6.064   3.426
 3885SOL     OW12553   5.630   6.901   2.829
 3885SOL    HW112554   5.582   6.820   2.862
 3885SOL    HW212555   5.703   6.874   2.767
 3886SOL     OW12556   4.337   6.623   5.702
 3886SOL    HW112557   4.256   6.677   5.723
 3886SOL    HW212558   4.358   6.630   5.604
 3887SOL     OW12559   1.124   6.259   0.695
 3887SOL    HW112560   1.115   6.355   0.669
 3887SOL    HW212561   1.033   6.218   0.705
 3888SOL     OW12562   5.663   6.202   4.631
 3888SOL    HW112563   5.652   6.216   4.729
 3888SOL    HW212564   5.641   6.107   4.608
 3889SOL     OW12565   5.957   2.367   6.784
 3889SOL    HW112566   6.051   2.348   6.754
 3889SOL    HW212567   5.923   2.450   6.739
 3890SOL     OW12568   5.552   4.300   4.275
 3890SOL    HW112569   5.557   4.209   4.235
 3890SOL    HW212570   5.544   4.293   4.375
 3891SOL     OW12571   5.303   4.322   4.109
 3891SOL    HW112572   5.223   4.379   4.127
 3891SOL    HW212573   5.369   4.332   4.184
 3892SOL     OW12574   0.065   2.707   1.148
 3892SOL    HW112575   0.041   2.678   1.240
 3892SOL    HW212576   0.021   2.647   1.081
 3893SOL     OW12577   4.519   3.578   1.304
 3893SOL    HW112578   4.584   3.516   1.349
 3893SOL    HW212579   4.544   3.673   1.323
 3894SOL     OW12580   5.100   0.707   6.472
 3894SOL    HW112581   5.051   0.650   6.538
 3894SOL    HW212582   5.035   0.744   6.405
 3895SOL     OW12583   1.264   0.603   4.916
 3895SOL    HW112584   1.172   0.588   4.952
 3895SOL    HW212585   1.331   0.569   4.983
 3896SOL     OW12586   0.666   0.783   6.582
 3896SOL    HW112587   0.755   0.766   6.623
 3896SOL    HW212588   0.605   0.705   6.601
 3897SOL     OW12589   4.743   5.978   2.176
 3897SOL    HW112590   4.796   5.908   2.128
 3897SOL    HW212591   4.804   6.035   2.230
 3898SOL     OW12592   4.189   2.902   0.117
 3898SOL    HW112593   4.092   2.893   0.139
 3898SOL    HW212594   4.203   2.985   0.063
 3899SOL     OW12595   4.674   6.884   6.221
 3899SOL    HW112596   4.706   6.919   6.133
 3899SOL    HW212597   4.647   6.788   6.211
 3900SOL     OW12598   5.325   3.216   4.081
 3900SOL    HW112599   5.234   3.199   4.045
 3900SOL    HW212600   5.322   3.219   4.180
 3901SOL     OW12601   3.158   0.200   5.809
 3901SOL    HW112602   3.117   0.283   5.847
 3901SOL    HW212603   3.236   0.173   5.865
 3902SOL     OW12604   5.798   3.318   2.354
 3902SOL    HW112605   5.715   3.269   2.329
 3902SOL    HW212606   5.870   3.299   2.288
 3903SOL     OW12607   4.089   6.779   0.522
 3903SOL    HW112608   4.009   6.815   0.475
 3903SOL    HW212609   4.084   6.679   0.525
 3904SOL     OW12610   1.288   0.406   6.487
 3904SOL    HW112611   1.375   0.429   6.445
 3904SOL    HW212612   1.214   0.456   6.441
 3905SOL     OW12613   6.672   0.042   6.530
 3905SOL    HW112614   6.642   6.970   6.538
 3905SOL    HW212615   6.771   0.047   6.542
 3906SOL     OW12616   5.318   6.264   6.206
 3906SOL    HW112617   5.368   6.347   6.232
 3906SOL    HW212618   5.381   6.200   6.162
 3907SOL     OW12619   5.430   1.221   4.109
 3907SOL    HW112620   5.434   1.320   4.123
 3907SOL    HW212621   5.447   1.200   4.012
 3908SOL     OW12622   1.011   2.380   0.079
 3908SOL    HW112623   0.962   2.296   0.105
 3908SOL    HW212624   0.956   2.460   0.103
 3909SOL     OW12625   5.370   5.881   4.850
 3909SOL    HW112626   5.450   5.828   4.880
 3909SOL    HW212627   5.367   5.884   4.751
 3910SOL     OW12628   3.926   3.933   2.818
 3910SOL    HW112629   3.964   3.940   2.910
 3910SOL    HW212630   3.983   3.873   2.763
 3911SOL     OW12631   6.114   1.727   5.109
 3911SOL    HW112632   6.047   1.708   5.037
 3911SOL    HW212633   6.187   1.659   5.105
 3912SOL     OW12634   5.230   1.902   5.017
 3912SOL    HW112635   5.309   1.963   5.022
 3912SOL    HW212636   5.243   1.826   5.081
 3913SOL     OW12637   1.541   6.998   6.639
 3913SOL    HW112638   1.492   6.929   6.586
 3913SOL    HW212639   1.487   0.001   6.719
 3914SOL     OW12640   2.988   0.361   0.652
 3914SOL    HW112641   2.982   0.352   0.751
 3914SOL    HW212642   2.931   0.291   0.609
 3915SOL     OW12643   5.562   5.876   1.083
 3915SOL    HW112644   5.465   5.887   1.063
 3915SOL    HW212645   5.609   5.841   1.002
 3916SOL     OW12646   0.870   0.136   2.925
 3916SOL    HW112647   0.840   0.216   2.873
 3916SOL    HW212648   0.846   0.147   3.021
 3917SOL     OW12649   0.992   6.520   6.854
 3917SOL    HW112650   1.013   6.618   6.853
 3917SOL    HW212651   0.916   6.502   6.915
 3918SOL     OW12652   5.620   5.727   1.846
 3918SOL    HW112653   5.569   5.643   1.831
 3918SOL    HW212654   5.708   5.722   1.798
 3919SOL     OW12655   4.595   6.884   0.381
 3919SOL    HW112656   4.502   6.899   0.416
 3919SOL    HW212657   4.638   6.810   0.432
 3920SOL     OW12658   2.515   3.744   0.417
 3920SOL    HW112659   2.510   3.759   0.318
 3920SOL    HW212660   2.609   3.722   0.443
 3921SOL     OW12661   0.253   4.086   1.467
 3921SOL    HW112662   0.259   4.167   1.525
 3921SOL    HW212663   0.162   4.081   1.424
 3922SOL     OW12664   6.759   3.978   2.181
 3922SOL    HW112665   6.725   4.039   2.109
 3922SOL    HW212666   6.812   3.904   2.139
 3923SOL     OW12667   6.956   0.912   0.439
 3923SOL    HW112668   6.943   0.905   0.340
 3923SOL    HW212669   6.870   0.940   0.481
 3924SOL     OW12670   6.210   4.926   3.980
 3924SOL    HW112671   6.220   4.831   3.950
 3924SOL    HW212672   6.114   4.953   3.969
 3925SOL     OW12673   1.682   4.586   1.549
 3925SOL    HW112674   1.739   4.661   1.515
 3925SOL    HW212675   1.587   4.616   1.553
 3926SOL     OW12676   4.735   4.893   2.333
 3926SOL    HW112677   4.794   4.832   2.281
 3926SOL    HW212678   4.773   4.905   2.425
 3927SOL     OW12679   6.290   2.697   5.238
 3927SOL    HW112680   6.369   2.645   5.205
 3927SOL    HW212681   6.320   2.782   5.280
 3928SOL     OW12682   4.705   6.520   6.680
 3928SOL    HW112683   4.731   6.549   6.773
 3928SOL    HW212684   4.682   6.601   6.626
 3929SOL     OW12685   1.017   0.545   5.028
 3929SOL    HW112686   0.984   0.541   5.122
 3929SOL    HW212687   0.970   0.476   4.973
 3930SOL     OW12688   2.915   2.188   4.720
 3930SOL    HW112689   2.961   2.229   4.642
 3930SOL    HW212690   2.983   2.150   4.783
 3931SOL     OW12691   1.419   1.576   1.528
 3931SOL    HW112692   1.407   1.477   1.532
 3931SOL    HW212693   1.362   1.619   1.597
 3932SOL     OW12694   0.950   3.780   3.348
 3932SOL    HW112695   1.038   3.796   3.303
 3932SOL    HW212696   0.947   3.830   3.435
 3933SOL     OW12697   2.164   6.928   6.128
 3933SOL    HW112698   2.211   6.986   6.195
 3933SOL    HW212699   2.120   6.985   6.060
 3934SOL     OW12700   6.000   0.173   6.511
 3934SOL    HW112701   6.077   0.123   6.549
 3934SOL    HW212702   5.984   0.144   6.417
 3935SOL     OW12703   3.323   0.401   6.971
 3935SOL    HW112704   3.280   0.312   6.959
 3935SOL    HW212705   3.267   0.471   6.927
 3936SOL     OW12706   6.486   4.999   4.921
 3936SOL    HW112707   6.423   5.029   4.992
 3936SOL    HW212708   6.554   5.070   4.905
 3937SOL     OW12709   0.253   1.913   2.726
 3937SOL    HW112710   0.193   1.835   2.744
 3937SOL    HW212711   0.277   1.915   2.629
 3938SOL     OW12712   1.180   1.667   3.578
 3938SOL    HW112713   1.246   1.671   3.652
 3938SOL    HW212714   1.210   1.725   3.503
 3939SOL     OW12715   2.550   2.514   2.910
 3939SOL    HW112716   2.614   2.454   2.958
 3939SOL    HW212717   2.566   2.508   2.812
 3940SOL     OW12718   4.421   4.152   1.120
 3940SOL    HW112719   4.510   4.121   1.154
 3940SOL    HW212720   4.400   4.104   1.034
 3941SOL     OW12721   5.407   4.616   5.704
 3941SOL    HW112722   5.398   4.587   5.799
 3941SOL    HW212723   5.500   4.649   5.687
 3942SOL     OW12724   7.007   6.202   6.825
 3942SOL    HW112725   7.017   6.129   6.892
 3942SOL    HW212726   0.019   6.171   6.736
 3943SOL     OW12727   0.813   2.655   4.040
 3943SOL    HW112728   0.741   2.663   4.109
 3943SOL    HW212729   0.836   2.558   4.027
 3944SOL     OW12730   4.676   2.866   5.110
 3944SOL    HW112731   4.775   2.857   5.109
 3944SOL    HW212732   4.639   2.844   5.020
 3945SOL     OW12733   0.534   1.859   0.514
 3945SOL    HW112734   0.449   1.808   0.500
 3945SOL    HW212735   0.598   1.839   0.440
 3946SOL     OW12736   5.096   4.533   4.015
 3946SOL    HW112737   5.037   4.479   3.955
 3946SOL    HW212738   5.045   4.612   4.049
 3947SOL     OW12739   4.479   6.380   6.782
 3947SOL    HW112740   4.496   6.314   6.855
 3947SOL    HW212741   4.566   6.407   6.741
 3948SOL     OW12742   0.015   4.730   1.991
 3948SOL    HW112743   0.053   4.733   2.084
 3948SOL    HW212744   0.085   4.701   1.927
 3949SOL     OW12745   5.333   5.922   3.191
 3949SOL    HW112746   5.410   5.938   3.129
 3949SOL    HW212747   5.291   6.010   3.215
 3950SOL     OW12748   1.200   4.795   0.266
 3950SOL    HW112749   1.204   4.884   0.310
 3950SOL    HW212750   1.189   4.723   0.335
 3951SOL     OW12751   4.607   0.014   1.821
 3951SOL    HW112752   4.620   0.106   1.859
 3951SOL    HW212753   4.560   6.979   1.889
 3952SOL     OW12754   6.906   2.677   1.530
 3952SOL    HW112755   6.826   2.658   1.586
 3952SOL    HW212756   6.975   2.726   1.584
 3953SOL     OW12757   4.268   4.353   1.437
 3953SOL    HW112758   4.253   4.421   1.365
 3953SOL    HW212759   4.303   4.399   1.519
 3954SOL     OW12760   3.974   5.860   5.982
 3954SOL    HW112761   4.002   5.834   6.074
 3954SOL    HW212762   4.044   5.830   5.916
 3955SOL     OW12763   2.786   0.970   6.368
 3955SOL    HW112764   2.697   0.929   6.348
 3955SOL    HW212765   2.831   0.994   6.282
 3956SOL     OW12766   1.326   0.791   2.329
 3956SOL    HW112767   1.384   0.785   2.410
 3956SOL    HW212768   1.233   0.813   2.355
 3957SOL     OW12769   3.883   0.201   4.425
 3957SOL    HW112770   3.885   0.103   4.445
 3957SOL    HW212771   3.884   0.214   4.326
 3958SOL     OW12772   6.129   1.666   3.970
 3958SOL    HW112773   6.176   1.712   4.046
 3958SOL    HW212774   6.158   1.708   3.883
 3959SOL     OW12775   5.469   5.416   0.438
 3959SOL    HW112776   5.376   5.381   0.437
 3959SOL    HW212777   5.501   5.430   0.344
 3960SOL     OW12778   5.041   1.010   5.771
 3960SOL    HW112779   5.081   0.939   5.713
 3960SOL    HW212780   5.035   1.096   5.720
 3961SOL     OW12781   4.408   0.692   2.975
 3961SOL    HW112782   4.370   0.679   2.884
 3961SOL    HW212783   4.369   0.623   3.037
 3962SOL     OW12784   1.410   4.976   6.130
 3962SOL    HW112785   1.446   4.884   6.118
 3962SOL    HW212786   1.467   5.041   6.078
 3963SOL     OW12787   4.203   5.422   2.436
 3963SOL    HW112788   4.224   5.371   2.520
 3963SOL    HW212789   4.120   5.476   2.450
 3964SOL     OW12790   4.932   4.767   3.771
 3964SOL    HW112791   5.018   4.812   3.746
 3964SOL    HW212792   4.902   4.709   3.695
 3965SOL     OW12793   4.870   3.421   4.207
 3965SOL    HW112794   4.900   3.363   4.283
 3965SOL    HW212795   4.858   3.515   4.240
 3966SOL     OW12796   3.623   6.344   6.537
 3966SOL    HW112797   3.605   6.422   6.478
 3966SOL    HW212798   3.610   6.371   6.633
 3967SOL     OW12799   2.049   4.125   1.870
 3967SOL    HW112800   2.123   4.059   1.858
 3967SOL    HW212801   1.976   4.106   1.805
 3968SOL     OW12802   4.377   0.486   1.173
 3968SOL    HW112803   4.442   0.476   1.098
 3968SOL    HW212804   4.284   0.478   1.137
 3969SOL     OW12805   1.371   4.873   1.981
 3969SOL    HW112806   1.453   4.842   1.933
 3969SOL    HW212807   1.384   4.861   2.079
 3970SOL     OW12808   4.962   6.008   2.989
 3970SOL    HW112809   4.946   6.066   2.909
 3970SOL    HW212810   4.876   5.987   3.034
 3971SOL     OW12811   2.581   5.345   4.231
 3971SOL    HW112812   2.595   5.308   4.139
 3971SOL    HW212813   2.492   5.316   4.266
 3972SOL     OW12814   1.444   4.386   6.669
 3972SOL    HW112815   1.377   4.313   6.677
 3972SOL    HW212816   1.510   4.380   6.744
 3973SOL     OW12817   1.159   5.638   0.532
 3973SOL    HW112818   1.138   5.566   0.465
 3973SOL    HW212819   1.101   5.717   0.515
 3974SOL     OW12820   1.615   0.087   5.866
 3974SOL    HW112821   1.580   0.160   5.926
 3974SOL    HW212822   1.571   0.094   5.777
 3975SOL     OW12823   4.980   1.089   6.397
 3975SOL    HW112824   4.946   1.027   6.327
 3975SOL    HW212825   5.034   1.162   6.355
 3976SOL     OW12826   2.293   6.311   3.276
 3976SOL    HW112827   2.366   6.279   3.215
 3976SOL    HW212828   2.318   6.294   3.371
 3977SOL     OW12829   1.017   3.105   6.286
 3977SOL    HW112830   0.998   3.183   6.346
 3977SOL    HW212831   1.089   3.049   6.327
 3978SOL     OW12832   5.926   5.002   3.505
 3978SOL    HW112833   5.830   5.016   3.481
 3978SOL    HW212834   5.977   4.969   3.425
 3979SOL     OW12835   3.770   1.220   6.463
 3979SOL    HW112836   3.804   1.128   6.447
 3979SOL    HW212837   3.739   1.228   6.558
 3980SOL     OW12838   5.408   6.513   6.303
 3980SOL    HW112839   5.505   6.519   6.327
 3980SOL    HW212840   5.371   6.606   6.293
 3981SOL     OW12841   4.434   5.980   0.852
 3981SOL    HW112842   4.337   5.968   0.829
 3981SOL    HW212843   4.476   6.044   0.787
 3982SOL     OW12844   2.462   6.777   2.854
 3982SOL    HW112845   2.362   6.777   2.855
 3982SOL    HW212846   2.495   6.866   2.823
 3983SOL     OW12847   5.325   5.094   3.975
 3983SOL    HW112848   5.327   5.187   4.011
 3983SOL    HW212849   5.257   5.040   4.025
 3984SOL     OW12850   6.395   1.123   2.095
 3984SOL    HW112851   6.387   1.165   2.185
 3984SOL    HW212852   6.310   1.078   2.071
 3985SOL     OW12853   3.493   5.272   6.691
 3985SOL    HW112854   3.461   5.222   6.610
 3985SOL    HW212855   3.453   5.231   6.773
 3986SOL     OW12856   4.884   1.749   3.065
 3986SOL    HW112857   4.807   1.685   3.074
 3986SOL    HW212858   4.848   1.842   3.058
 3987SOL     OW12859   3.435   5.162   4.166
 3987SOL    HW112860   3.511   5.100   4.147
 3987SOL    HW212861   3.470   5.251   4.196
 3988SOL     OW12862   3.872   5.036   6.922
 3988SOL    HW112863   3.951   4.995   6.968
 3988SOL    HW212864   3.858   5.129   6.956
 3989SOL     OW12865   0.108   1.998   0.097
 3989SOL    HW112866   0.032   2.038   0.046
 3989SOL    HW212867   0.114   2.041   0.187
 3990SOL     OW12868   5.279   2.477   2.056
 3990SOL    HW112869   5.295   2.556   1.997
 3990SOL    HW212870   5.356   2.413   2.049
 3991SOL     OW12871   0.156   1.505   1.669
 3991SOL    HW112872   0.113   1.593   1.687
 3991SOL    HW212873   0.094   1.448   1.614
 3992SOL     OW12874   2.821   2.483   0.669
 3992SOL    HW112875   2.743   2.446   0.720
 3992SOL    HW212876   2.904   2.434   0.696
 3993SOL     OW12877   1.620   2.656   2.456
 3993SOL    HW112878   1.713   2.632   2.485
 3993SOL    HW212879   1.571   2.573   2.428
 3994SOL     OW12880   2.725   0.271   5.878
 3994SOL    HW112881   2.718   0.173   5.864
 3994SOL    HW212882   2.820   0.300   5.868
 3995SOL     OW12883   1.870   3.666   5.539
 3995SOL    HW112884   1.827   3.584   5.499
 3995SOL    HW212885   1.950   3.691   5.486
 3996SOL     OW12886   0.168   6.563   5.573
 3996SOL    HW112887   0.108   6.550   5.494
 3996SOL    HW212888   0.256   6.519   5.556
 3997SOL     OW12889   5.420   1.246   3.827
 3997SOL    HW112890   5.379   1.176   3.769
 3997SOL    HW212891   5.507   1.277   3.787
 3998SOL     OW12892   3.435   1.117   4.184
 3998SOL    HW112893   3.508   1.182   4.202
 3998SOL    HW212894   3.361   1.162   4.134
 3999SOL     OW12895   5.958   2.580   4.515
 3999SOL    HW112896   6.008   2.658   4.477
 3999SOL    HW212897   5.938   2.515   4.442
 4000SOL     OW12898   2.941   6.797   4.159
 4000SOL    HW112899   2.957   6.698   4.162
 4000SOL    HW212900   2.876   6.817   4.086
 4001SOL     OW12901   2.609   1.651   4.040
 4001SOL    HW112902   2.632   1.554   4.045
 4001SOL    HW212903   2.510   1.662   4.031
 4002SOL     OW12904   2.657   3.701   1.682
 4002SOL    HW112905   2.582   3.733   1.740
 4002SOL    HW212906   2.659   3.754   1.598
 4003SOL     OW12907   3.130   0.493   4.274
 4003SOL    HW112908   3.039   0.493   4.233
 4003SOL    HW212909   3.156   0.586   4.299
 4004SOL     OW12910   6.704   2.410   4.280
 4004SOL    HW112911   6.659   2.375   4.198
 4004SOL    HW212912   6.640   2.409   4.356
 4005SOL     OW12913   4.601   5.650   6.177
 4005SOL    HW112914   4.615   5.664   6.275
 4005SOL    HW212915   4.636   5.560   6.151
 4006SOL     OW12916   3.764   5.089   2.276
 4006SOL    HW112917   3.710   5.064   2.196
 4006SOL    HW212918   3.738   5.181   2.307
 4007SOL     OW12919   0.076   2.714   6.898
 4007SOL    HW112920   0.069   2.615   6.896
 4007SOL    HW212921   0.150   2.741   6.960
 4008SOL     OW12922   2.791   2.329   4.904
 4008SOL    HW112923   2.849   2.307   4.826
 4008SOL    HW212924   2.705   2.368   4.873
 4009SOL     OW12925   3.994   3.163   2.696
 4009SOL    HW112926   3.897   3.184   2.704
 4009SOL    HW212927   4.012   3.119   2.609
 4010SOL     OW12928   2.420   2.672   1.790
 4010SOL    HW112929   2.471   2.612   1.851
 4010SOL    HW212930   2.376   2.744   1.844
 4011SOL     OW12931   0.664   2.108   2.130
 4011SOL    HW112932   0.735   2.066   2.187
 4011SOL    HW212933   0.653   2.054   2.046
 4012SOL     OW12934   6.866   4.334   2.280
 4012SOL    HW112935   6.772   4.302   2.292
 4012SOL    HW212936   6.870   4.398   2.203
 4013SOL     OW12937   4.085   2.032   4.508
 4013SOL    HW112938   4.048   2.121   4.534
 4013SOL    HW212939   4.073   2.017   4.410
 4014SOL     OW12940   5.985   6.393   2.552
 4014SOL    HW112941   5.993   6.313   2.493
 4014SOL    HW212942   6.073   6.413   2.594
 4015SOL     OW12943   4.340   4.140   6.341
 4015SOL    HW112944   4.297   4.122   6.253
 4015SOL    HW212945   4.274   4.122   6.415
 4016SOL     OW12946   2.743   5.998   5.571
 4016SOL    HW112947   2.740   6.026   5.667
 4016SOL    HW212948   2.786   5.908   5.565
 4017SOL     OW12949   7.001   5.985   7.002
 4017SOL    HW112950   0.039   6.028   0.046
 4017SOL    HW212951   6.965   5.900   0.017
 4018SOL     OW12952   4.165   5.907   1.846
 4018SOL    HW112953   4.241   5.842   1.850
 4018SOL    HW212954   4.174   5.964   1.764
 4019SOL     OW12955   5.274   4.289   2.380
 4019SOL    HW112956   5.273   4.252   2.473
 4019SOL    HW212957   5.200   4.355   2.369
 4020SOL     OW12958   4.804   2.538   5.100
 4020SOL    HW112959   4.753   2.619   5.071
 4020SOL    HW212960   4.875   2.566   5.165
 4021SOL     OW12961   2.875   5.030   5.695
 4021SOL    HW112962   2.814   5.078   5.758
 4021SOL    HW212963   2.892   5.087   5.615
 4022SOL     OW12964   5.261   1.143   0.309
 4022SOL    HW112965   5.199   1.221   0.300
 4022SOL    HW212966   5.353   1.175   0.331
 4023SOL     OW12967   6.352   1.947   4.881
 4023SOL    HW112968   6.335   2.038   4.845
 4023SOL    HW212969   6.331   1.944   4.978
 4024SOL     OW12970   4.144   5.087   4.054
 4024SOL    HW112971   4.171   5.010   3.996
 4024SOL    HW212972   4.121   5.054   4.145
 4025SOL     OW12973   0.889   4.095   3.535
 4025SOL    HW112974   0.813   4.031   3.549
 4025SOL    HW212975   0.867   4.157   3.460
 4026SOL     OW12976   5.468   6.218   3.869
 4026SOL    HW112977   5.489   6.149   3.938
 4026SOL    HW212978   5.395   6.185   3.810
 4027SOL     OW12979   4.250   4.687   1.823
 4027SOL    HW112980   4.301   4.766   1.787
 4027SOL    HW212981   4.302   4.644   1.896
 4028SOL     OW12982   2.397   1.286   3.483
 4028SOL    HW112983   2.436   1.213   3.426
 4028SOL    HW212984   2.414   1.374   3.439
 4029SOL     OW12985   1.544   4.778   5.663
 4029SOL    HW112986   1.582   4.697   5.708
 4029SOL    HW212987   1.472   4.750   5.600
 4030SOL     OW12988   0.933   1.974   5.817
 4030SOL    HW112989   1.006   1.906   5.806
 4030SOL    HW212990   0.920   2.023   5.731
 4031SOL     OW12991   4.240   5.684   4.106
 4031SOL    HW112992   4.302   5.656   4.033
 4031SOL    HW212993   4.287   5.752   4.163
 4032SOL     OW12994   5.682   0.355   3.921
 4032SOL    HW112995   5.653   0.447   3.893
 4032SOL    HW212996   5.780   0.345   3.906
 4033SOL     OW12997   3.021   3.703   5.236
 4033SOL    HW112998   2.941   3.749   5.274
 4033SOL    HW212999   3.028   3.611   5.276
 4034SOL     OW13000   0.009   2.284   3.620
 4034SOL    HW113001   0.057   2.333   3.693
 4034SOL    HW213002   6.945   2.329   3.600
 4035SOL     OW13003   0.573   4.692   6.923
 4035SOL    HW113004   0.632   4.656   6.995
 4035SOL    HW213005   0.478   4.670   6.943
 4036SOL     OW13006   6.418   6.782   2.944
 4036SOL    HW113007   6.401   6.864   2.890
 4036SOL    HW213008   6.458   6.807   3.032
 4037SOL     OW13009   0.252   3.655   6.867
 4037SOL    HW113010   0.274   3.753   6.862
 4037SOL    HW213011   0.153   3.643   6.867
 4038SOL     OW13012   5.920   4.433   3.825
 4038SOL    HW113013   5.848   4.501   3.839
 4038SOL    HW213014   5.987   4.441   3.899
 4039SOL     OW13015   5.032   6.076   0.289
 4039SOL    HW113016   5.130   6.091   0.296
 4039SOL    HW213017   4.987   6.108   0.373
 4040SOL     OW13018   2.914   6.503   1.539
 4040SOL    HW113019   2.950   6.417   1.504
 4040SOL    HW213020   2.878   6.489   1.631
 4041SOL     OW13021   1.423   6.587   3.345
 4041SOL    HW113022   1.402   6.679   3.313
 4041SOL    HW213023   1.433   6.588   3.444
 4042SOL     OW13024   6.104   4.956   1.816
 4042SOL    HW113025   6.173   4.910   1.872
 4042SOL    HW213026   6.104   5.054   1.835
 4043SOL     OW13027   6.201   1.529   1.010
 4043SOL    HW113028   6.300   1.536   1.018
 4043SOL    HW213029   6.173   1.556   0.918
 4044SOL     OW13030   5.585   6.913   3.410
 4044SOL    HW113031   5.655   6.843   3.420
 4044SOL    HW213032   5.558   6.947   3.500
 4045SOL     OW13033   2.605   5.891   6.110
 4045SOL    HW113034   2.625   5.989   6.121
 4045SOL    HW213035   2.506   5.876   6.122
 4046SOL     OW13036   0.996   3.342   1.435
 4046SOL    HW113037   1.069   3.388   1.384
 4046SOL    HW213038   0.913   3.338   1.379
 4047SOL     OW13039   2.919   3.653   1.779
 4047SOL    HW113040   2.827   3.683   1.753
 4047SOL    HW213041   2.950   3.582   1.716
 4048SOL     OW13042   5.357   0.476   0.896
 4048SOL    HW113043   5.410   0.402   0.937
 4048SOL    HW213044   5.419   0.543   0.855
 4049SOL     OW13045   5.280   6.878   5.005
 4049SOL    HW113046   5.287   6.779   4.996
 4049SOL    HW213047   5.191   6.901   5.045
 4050SOL     OW13048   2.498   0.676   0.855
 4050SOL    HW113049   2.470   0.581   0.865
 4050SOL    HW213050   2.430   0.725   0.800
 4051SOL     OW13051   3.360   4.184   1.512
 4051SOL    HW113052   3.451   4.210   1.479
 4051SOL    HW213053   3.328   4.251   1.579
 4052SOL     OW13054   0.798   0.236   0.924
 4052SOL    HW113055   0.878   0.233   0.864
 4052SOL    HW213056   0.732   0.301   0.888
 4053SOL     OW13057   3.618   4.968   3.828
 4053SOL    HW113058   3.662   5.056   3.840
 4053SOL    HW213059   3.682   4.904   3.785
 4054SOL     OW13060   4.392   2.564   0.788
 4054SOL    HW113061   4.442   2.603   0.865
 4054SOL    HW213062   4.442   2.583   0.703
 4055SOL     OW13063   3.760   1.898   6.677
 4055SOL    HW113064   3.821   1.942   6.610
 4055SOL    HW213065   3.762   1.950   6.762
 4056SOL     OW13066   4.235   3.814   0.516
 4056SOL    HW113067   4.191   3.742   0.462
 4056SOL    HW213068   4.180   3.833   0.597
 4057SOL     OW13069   5.051   3.021   6.671
 4057SOL    HW113070   5.105   3.100   6.640
 4057SOL    HW213071   5.107   2.939   6.667
 4058SOL     OW13072   1.440   0.906   5.169
 4058SOL    HW113073   1.466   0.874   5.260
 4058SOL    HW213074   1.514   0.960   5.130
 4059SOL     OW13075   0.361   1.734   4.247
 4059SOL    HW113076   0.444   1.787   4.267
 4059SOL    HW213077   0.369   1.644   4.289
 4060SOL     OW13078   4.571   5.438   4.567
 4060SOL    HW113079   4.611   5.357   4.524
 4060SOL    HW213080   4.516   5.487   4.499
 4061SOL     OW13081   3.116   3.019   1.507
 4061SOL    HW113082   3.165   2.933   1.521
 4061SOL    HW213083   3.090   3.056   1.596
 4062SOL     OW13084   2.483   0.255   3.387
 4062SOL    HW113085   2.535   0.252   3.302
 4062SOL    HW213086   2.506   0.175   3.443
 4063SOL     OW13087   3.064   5.318   6.252
 4063SOL    HW113088   3.106   5.401   6.288
 4063SOL    HW213089   3.058   5.250   6.326
 4064SOL     OW13090   0.268   0.295   3.838
 4064SOL    HW113091   0.266   0.322   3.934
 4064SOL    HW213092   0.361   0.306   3.802
 4065SOL     OW13093   5.519   5.420   6.781
 4065SOL    HW113094   5.513   5.365   6.864
 4065SOL    HW213095   5.550   5.363   6.705
 4066SOL     OW13096   6.056   4.463   1.460
 4066SOL    HW113097   5.994   4.539   1.437
 4066SOL    HW213098   6.019   4.413   1.538
 4067SOL     OW13099   5.719   0.615   2.006
 4067SOL    HW113100   5.620   0.613   2.016
 4067SOL    HW213101   5.757   0.687   2.064
 4068SOL     OW13102   6.314   0.438   3.666
 4068SOL    HW113103   6.229   0.400   3.627
 4068SOL    HW213104   6.350   0.374   3.733
 4069SOL     OW13105   6.748   5.540   1.253
 4069SOL    HW113106   6.667   5.597   1.264
 4069SOL    HW213107   6.809   5.583   1.186
 4070SOL     OW13108   1.511   3.123   3.039
 4070SOL    HW113109   1.511   3.119   3.139
 4070SOL    HW213110   1.494   3.217   3.009
 4071SOL     OW13111   1.688   6.468   3.966
 4071SOL    HW113112   1.666   6.480   4.063
 4071SOL    HW213113   1.737   6.381   3.954
 4072SOL     OW13114   0.967   0.767   4.173
 4072SOL    HW113115   0.890   0.715   4.211
 4072SOL    HW213116   1.044   0.762   4.235
 4073SOL     OW13117   1.862   5.375   6.109
 4073SOL    HW113118   1.959   5.350   6.103
 4073SOL    HW213119   1.854   5.470   6.140
 4074SOL     OW13120   2.090   2.939   0.675
 4074SOL    HW113121   2.026   2.951   0.751
 4074SOL    HW213122   2.039   2.920   0.591
 4075SOL     OW13123   4.896   1.264   3.522
 4075SOL    HW113124   4.979   1.313   3.496
 4075SOL    HW213125   4.816   1.319   3.500
 4076SOL     OW13126   1.983   2.926   3.978
 4076SOL    HW113127   1.966   2.912   4.075
 4076SOL    HW213128   2.025   3.016   3.964
 4077SOL     OW13129   2.767   1.612   0.349
 4077SOL    HW113130   2.789   1.515   0.339
 4077SOL    HW213131   2.849   1.663   0.375
 4078SOL     OW13132   5.590   3.900   1.758
 4078SOL    HW113133   5.550   3.864   1.842
 4078SOL    HW213134   5.577   3.834   1.684
 4079SOL     OW13135   0.361   1.249   3.744
 4079SOL    HW113136   0.402   1.200   3.821
 4079SOL    HW213137   0.433   1.287   3.687
 4080SOL     OW13138   3.642   3.265   1.702
 4080SOL    HW113139   3.584   3.229   1.775
 4080SOL    HW213140   3.590   3.270   1.617
 4081SOL     OW13141   2.536   2.340   5.918
 4081SOL    HW113142   2.445   2.369   5.950
 4081SOL    HW213143   2.601   2.350   5.993
 4082SOL     OW13144   1.322   2.417   4.707
 4082SOL    HW113145   1.302   2.476   4.785
 4082SOL    HW213146   1.416   2.383   4.714
 4083SOL     OW13147   5.412   5.497   2.989
 4083SOL    HW113148   5.393   5.528   3.082
 4083SOL    HW213149   5.504   5.456   2.986
 4084SOL     OW13150   4.956   0.824   3.705
 4084SOL    HW113151   4.876   0.766   3.691
 4084SOL    HW213152   5.039   0.775   3.678
 4085SOL     OW13153   4.015   4.765   2.362
 4085SOL    HW113154   4.058   4.812   2.440
 4085SOL    HW213155   3.917   4.755   2.379
 4086SOL     OW13156   6.351   4.972   6.067
 4086SOL    HW113157   6.436   4.927   6.095
 4086SOL    HW213158   6.368   5.070   6.056
 4087SOL     OW13159   2.295   6.975   2.061
 4087SOL    HW113160   2.263   6.968   1.966
 4087SOL    HW213161   2.217   6.976   2.123
 4088SOL     OW13162   0.342   1.974   4.901
 4088SOL    HW113163   0.427   2.023   4.877
 4088SOL    HW213164   0.274   1.989   4.829
 4089SOL     OW13165   1.147   0.657   2.930
 4089SOL    HW113166   1.209   0.688   2.858
 4089SOL    HW213167   1.083   0.589   2.892
 4090SOL     OW13168   2.859   1.257   6.102
 4090SOL    HW113169   2.814   1.171   6.080
 4090SOL    HW213170   2.791   1.324   6.130
 4091SOL     OW13171   3.003   6.274   1.424
 4091SOL    HW113172   3.043   6.196   1.473
 4091SOL    HW213173   2.959   6.242   1.340
 4092SOL     OW13174   5.711   2.804   4.173
 4092SOL    HW113175   5.694   2.901   4.191
 4092SOL    HW213176   5.754   2.794   4.083
 4093SOL     OW13177   5.173   4.872   3.674
 4093SOL    HW113178   5.247   4.814   3.709
 4093SOL    HW213179   5.193   4.968   3.694
 4094SOL     OW13180   6.900   5.481   0.247
 4094SOL    HW113181   6.995   5.495   0.219
 4094SOL    HW213182   6.853   5.426   0.178
 4095SOL     OW13183   0.593   5.021   6.806
 4095SOL    HW113184   0.691   5.003   6.811
 4095SOL    HW213185   0.550   4.957   6.742
 4096SOL     OW13186   0.797   1.426   6.776
 4096SOL    HW113187   0.798   1.358   6.850
 4096SOL    HW213188   0.708   1.423   6.730
 4097SOL     OW13189   6.918   4.699   5.294
 4097SOL    HW113190   6.858   4.645   5.234
 4097SOL    HW213191   6.891   4.684   5.389
 4098SOL     OW13192   1.713   4.252   3.552
 4098SOL    HW113193   1.756   4.174   3.597
 4098SOL    HW213194   1.614   4.247   3.564
 4099SOL     OW13195   4.611   4.337   6.043
 4099SOL    HW113196   4.593   4.240   6.054
 4099SOL    HW213197   4.568   4.388   6.117
 4100SOL     OW13198   1.715   0.149   3.941
 4100SOL    HW113199   1.690   0.223   3.879
 4100SOL    HW213200   1.806   0.167   3.979
 4101SOL     OW13201   6.120   6.108   0.243
 4101SOL    HW113202   6.024   6.083   0.227
 4101SOL    HW213203   6.177   6.071   0.169
 4102SOL     OW13204   1.236   0.895   0.532
 4102SOL    HW113205   1.194   0.981   0.505
 4102SOL    HW213206   1.264   0.900   0.628
 4103SOL     OW13207   1.699   6.666   3.225
 4103SOL    HW113208   1.634   6.700   3.157
 4103SOL    HW213209   1.649   6.616   3.296
 4104SOL     OW13210   1.586   5.965   4.397
 4104SOL    HW113211   1.656   5.894   4.399
 4104SOL    HW213212   1.522   5.947   4.323
 4105SOL     OW13213   4.684   1.072   1.063
 4105SOL    HW113214   4.757   1.125   1.019
 4105SOL    HW213215   4.632   1.023   0.993
 4106SOL     OW13216   0.998   1.272   3.428
 4106SOL    HW113217   0.921   1.318   3.385
 4106SOL    HW213218   0.969   1.233   3.515
 4107SOL     OW13219   0.528   6.640   0.120
 4107SOL    HW113220   0.473   6.569   0.164
 4107SOL    HW213221   0.480   6.675   0.039
 4108SOL     OW13222   7.003   5.889   4.933
 4108SOL    HW113223   0.066   5.927   4.967
 4108SOL    HW213224   6.968   5.821   4.997
 4109SOL     OW13225   6.139   6.668   3.253
 4109SOL    HW113226   6.151   6.669   3.153
 4109SOL    HW213227   6.107   6.577   3.281
 4110SOL     OW13228   5.134   2.891   0.244
 4110SOL    HW113229   5.161   2.976   0.198
 4110SOL    HW213230   5.190   2.816   0.209
 4111SOL     OW13231   6.630   3.890   4.058
 4111SOL    HW113232   6.630   3.983   4.093
 4111SOL    HW213233   6.575   3.831   4.118
 4112SOL     OW13234   4.912   6.585   5.392
 4112SOL    HW113235   4.931   6.675   5.430
 4112SOL    HW213236   4.908   6.517   5.465
 4113SOL     OW13237   4.285   5.253   5.002
 4113SOL    HW113238   4.339   5.280   4.922
 4113SOL    HW213239   4.205   5.201   4.972
 4114SOL     OW13240   0.305   1.493   1.412
 4114SOL    HW113241   0.295   1.571   1.473
 4114SOL    HW213242   0.382   1.437   1.441
 4115SOL     OW13243   4.895   6.193   4.005
 4115SOL    HW113244   4.899   6.098   4.033
 4115SOL    HW213245   4.892   6.198   3.905
 4116SOL     OW13246   5.222   3.344   3.219
 4116SOL    HW113247   5.212   3.245   3.208
 4116SOL    HW213248   5.149   3.391   3.169
 4117SOL     OW13249   1.559   1.670   3.477
 4117SOL    HW113250   1.550   1.578   3.517
 4117SOL    HW213251   1.514   1.672   3.388
 4118SOL     OW13252   0.348   6.182   6.584
 4118SOL    HW113253   0.370   6.093   6.623
 4118SOL    HW213254   0.402   6.195   6.500
 4119SOL     OW13255   0.620   0.745   4.038
 4119SOL    HW113256   0.684   0.680   4.079
 4119SOL    HW213257   0.561   0.697   3.973
 4120SOL     OW13258   1.772   0.744   6.161
 4120SOL    HW113259   1.688   0.761   6.110
 4120SOL    HW213260   1.837   0.696   6.102
 4121SOL     OW13261   6.415   0.260   2.074
 4121SOL    HW113262   6.448   0.217   1.990
 4121SOL    HW213263   6.476   0.239   2.149
 4122SOL     OW13264   6.752   4.415   3.032
 4122SOL    HW113265   6.659   4.387   3.055
 4122SOL    HW213266   6.785   4.360   2.955
 4123SOL     OW13267   4.654   4.711   1.897
 4123SOL    HW113268   4.627   4.640   1.832
 4123SOL    HW213269   4.641   4.677   1.990
 4124SOL     OW13270   6.161   5.395   0.071
 4124SOL    HW113271   6.214   5.470   0.112
 4124SOL    HW213272   6.064   5.411   0.087
 4125SOL     OW13273   6.126   1.735   1.180
 4125SOL    HW113274   6.181   1.658   1.149
 4125SOL    HW213275   6.069   1.707   1.257
 4126SOL     OW13276   1.637   2.941   2.545
 4126SOL    HW113277   1.560   2.884   2.518
 4126SOL    HW213278   1.703   2.886   2.597
 4127SOL     OW13279   4.349   1.859   4.495
 4127SOL    HW113280   4.414   1.888   4.424
 4127SOL    HW213281   4.284   1.933   4.513
 4128SOL     OW13282   0.973   3.509   0.025
 4128SOL    HW113283   1.041   3.440   0.049
 4128SOL    HW213284   0.886   3.464   0.005
 4129SOL     OW13285   2.341   2.968   1.048
 4129SOL    HW113286   2.404   2.915   1.104
 4129SOL    HW213287   2.247   2.955   1.081
 4130SOL     OW13288   6.115   3.354   0.868
 4130SOL    HW113289   6.128   3.445   0.829
 4130SOL    HW213290   6.194   3.331   0.926
 4131SOL     OW13291   4.966   0.019   3.256
 4131SOL    HW113292   5.004   6.956   3.288
 4131SOL    HW213293   5.033   0.093   3.270
 4132SOL     OW13294   1.028   5.010   4.280
 4132SOL    HW113295   1.092   4.985   4.353
 4132SOL    HW213296   0.941   5.037   4.319
 4133SOL     OW13297   5.514   0.679   2.736
 4133SOL    HW113298   5.607   0.646   2.755
 4133SOL    HW213299   5.455   0.601   2.717
 4134SOL     OW13300   1.490   3.711   1.461
 4134SOL    HW113301   1.489   3.805   1.494
 4134SOL    HW213302   1.396   3.675   1.461
 4135SOL     OW13303   0.007   1.715   1.781
 4135SOL    HW113304   6.952   1.703   1.842
 4135SOL    HW213305   0.056   1.799   1.806
 4136SOL     OW13306   1.543   4.666   1.274
 4136SOL    HW113307   1.493   4.624   1.198
 4136SOL    HW213308   1.613   4.727   1.237
 4137SOL     OW13309   1.270   2.664   0.566
 4137SOL    HW113310   1.362   2.670   0.528
 4137SOL    HW213311   1.274   2.623   0.657
 4138SOL     OW13312   5.456   0.856   0.584
 4138SOL    HW113313   5.427   0.889   0.674
 4138SOL    HW213314   5.467   0.934   0.523
 4139SOL     OW13315   2.111   3.361   2.660
 4139SOL    HW113316   2.030   3.304   2.673
 4139SOL    HW213317   2.148   3.386   2.750
 4140SOL     OW13318   1.894   0.998   6.301
 4140SOL    HW113319   1.858   0.906   6.305
 4140SOL    HW213320   1.819   1.063   6.286
 4141SOL     OW13321   4.571   0.429   6.238
 4141SOL    HW113322   4.574   0.485   6.155
 4141SOL    HW213323   4.595   0.486   6.317
 4142SOL     OW13324   0.872   4.486   2.599
 4142SOL    HW113325   0.874   4.446   2.507
 4142SOL    HW213326   0.822   4.425   2.660
 4143SOL     OW13327   5.224   2.984   0.566
 4143SOL    HW113328   5.216   2.894   0.524
 4143SOL    HW213329   5.312   3.025   0.541
 4144SOL     OW13330   6.197   1.207   0.666
 4144SOL    HW113331   6.268   1.178   0.729
 4144SOL    HW213332   6.201   1.150   0.583
 4145SOL     OW13333   0.119   6.648   1.658
 4145SOL    HW113334   0.211   6.611   1.647
 4145SOL    HW213335   0.052   6.580   1.627
 4146SOL     OW13336   4.442   5.877   3.197
 4146SOL    HW113337   4.435   5.906   3.293
 4146SOL    HW213338   4.359   5.904   3.148
 4147SOL     OW13339   4.480   4.260   5.811
 4147SOL    HW113340   4.526   4.319   5.878
 4147SOL    HW213341   4.451   4.315   5.733
 4148SOL     OW13342   2.477   1.568   5.979
 4148SOL    HW113343   2.574   1.590   5.970
 4148SOL    HW213344   2.427   1.603   5.899
 4149SOL     OW13345   2.432   3.262   6.270
 4149SOL    HW113346   2.339   3.226   6.267
 4149SOL    HW213347   2.452   3.311   6.185
 4150SOL     OW13348   5.533   1.955   5.660
 4150SOL    HW113349   5.482   1.913   5.584
 4150SOL    HW213350   5.503   2.049   5.671
 4151SOL     OW13351   2.698   6.381   4.231
 4151SOL    HW113352   2.772   6.315   4.221
 4151SOL    HW213353   2.697   6.443   4.152
 4152SOL     OW13354   2.833   4.603   0.981
 4152SOL    HW113355   2.914   4.559   1.020
 4152SOL    HW213356   2.759   4.536   0.975
 4153SOL     OW13357   6.910   5.752   1.404
 4153SOL    HW113358   6.834   5.708   1.454
 4153SOL    HW213359   6.941   5.691   1.331
 4154SOL     OW13360   0.993   6.423   3.227
 4154SOL    HW113361   0.955   6.418   3.134
 4154SOL    HW213362   1.089   6.397   3.225
 4155SOL     OW13363   0.362   1.051   0.994
 4155SOL    HW113364   0.389   1.109   1.071
 4155SOL    HW213365   0.272   1.079   0.960
 4156SOL     OW13366   6.995   5.381   6.013
 4156SOL    HW113367   6.977   5.479   6.021
 4156SOL    HW213368   0.071   5.366   6.002
 4157SOL     OW13369   6.657   6.428   1.777
 4157SOL    HW113370   6.716   6.373   1.718
 4157SOL    HW213371   6.658   6.523   1.747
 4158SOL     OW13372   1.149   3.084   1.989
 4158SOL    HW113373   1.051   3.098   1.982
 4158SOL    HW213374   1.194   3.172   2.007
 4159SOL     OW13375   3.712   1.272   3.958
 4159SOL    HW113376   3.776   1.292   3.884
 4159SOL    HW213377   3.634   1.220   3.922
 4160SOL     OW13378   6.365   6.340   6.583
 4160SOL    HW113379   6.309   6.317   6.503
 4160SOL    HW213380   6.402   6.257   6.623
 4161SOL     OW13381   4.010   3.082   1.455
 4161SOL    HW113382   3.996   3.113   1.549
 4161SOL    HW213383   3.980   2.988   1.446
 4162SOL     OW13384   4.813   5.705   1.575
 4162SOL    HW113385   4.753   5.698   1.655
 4162SOL    HW213386   4.903   5.739   1.603
 4163SOL     OW13387   3.703   6.885   1.072
 4163SOL    HW113388   3.715   6.895   1.170
 4163SOL    HW213389   3.780   6.835   1.033
 4164SOL     OW13390   6.532   0.378   5.555
 4164SOL    HW113391   6.535   0.397   5.457
 4164SOL    HW213392   6.443   0.340   5.579
 4165SOL     OW13393   3.796   1.236   5.277
 4165SOL    HW113394   3.780   1.137   5.277
 4165SOL    HW213395   3.895   1.254   5.278
 4166SOL     OW13396   5.373   1.156   1.571
 4166SOL    HW113397   5.460   1.133   1.527
 4166SOL    HW213398   5.370   1.254   1.590
 4167SOL     OW13399   4.051   5.045   5.030
 4167SOL    HW113400   4.026   5.095   5.112
 4167SOL    HW213401   4.000   5.081   4.952
 4168SOL     OW13402   4.390   4.142   6.851
 4168SOL    HW113403   4.413   4.184   6.939
 4168SOL    HW213404   4.411   4.045   6.853
 4169SOL     OW13405   4.981   3.581   4.840
 4169SOL    HW113406   5.067   3.571   4.890
 4169SOL    HW213407   4.906   3.596   4.904
 4170SOL     OW13408   0.081   3.325   3.555
 4170SOL    HW113409   0.133   3.291   3.477
 4170SOL    HW213410   0.065   3.250   3.619
 4171SOL     OW13411   0.710   2.863   0.950
 4171SOL    HW113412   0.658   2.805   0.887
 4171SOL    HW213413   0.781   2.912   0.899
 4172SOL     OW13414   2.865   4.749   0.727
 4172SOL    HW113415   2.863   4.678   0.798
 4172SOL    HW213416   2.955   4.748   0.683
 4173SOL     OW13417   4.942   2.862   5.082
 4173SOL    HW113418   4.993   2.927   5.027
 4173SOL    HW213419   5.004   2.791   5.116
 4174SOL     OW13420   3.386   0.555   4.971
 4174SOL    HW113421   3.351   0.616   4.899
 4174SOL    HW213422   3.452   0.605   5.027
 4175SOL     OW13423   1.272   4.655   6.735
 4175SOL    HW113424   1.303   4.703   6.817
 4175SOL    HW213425   1.310   4.562   6.735
 4176SOL     OW13426   4.883   0.261   6.063
 4176SOL    HW113427   4.930   0.346   6.086
 4176SOL    HW213428   4.849   0.218   6.146
 4177SOL     OW13429   4.551   4.621   3.399
 4177SOL    HW113430   4.462   4.593   3.361
 4177SOL    HW213431   4.624   4.588   3.339
 4178SOL     OW13432   4.135   5.508   1.666
 4178SOL    HW113433   4.158   5.449   1.744
 4178SOL    HW213434   4.219   5.541   1.624
 4179SOL     OW13435   5.300   2.979   4.939
 4179SOL    HW113436   5.262   3.072   4.944
 4179SOL    HW213437   5.282   2.941   4.848
 4180SOL     OW13438   4.519   4.380   0.260
 4180SOL    HW113439   4.573   4.405   0.180
 4180SOL    HW213440   4.451   4.450   0.278
 4181SOL     OW13441   4.282   0.526   5.384
 4181SOL    HW113442   4.229   0.485   5.458
 4181SOL    HW213443   4.352   0.461   5.354
 4182SOL     OW13444   0.008   6.837   4.318
 4182SOL    HW113445   0.049   6.903   4.256
 4182SOL    HW213446   6.974   6.773   4.266
 4183SOL     OW13447   3.443   2.214   1.448
 4183SOL    HW113448   3.429   2.252   1.540
 4183SOL    HW213449   3.443   2.114   1.453
 4184SOL     OW13450   3.462   5.159   3.628
 4184SOL    HW113451   3.476   5.062   3.651
 4184SOL    HW213452   3.366   5.174   3.605
 4185SOL     OW13453   6.213   3.678   2.834
 4185SOL    HW113454   6.114   3.690   2.823
 4185SOL    HW213455   6.231   3.594   2.885
 4186SOL     OW13456   1.554   6.086   0.425
 4186SOL    HW113457   1.510   6.010   0.376
 4186SOL    HW213458   1.635   6.115   0.375
 4187SOL     OW13459   1.535   4.058   6.544
 4187SOL    HW113460   1.470   4.006   6.599
 4187SOL    HW213461   1.512   4.050   6.447
 4188SOL     OW13462   4.998   6.957   0.023
 4188SOL    HW113463   4.971   6.960   0.119
 4188SOL    HW213464   5.055   6.876   0.007
 4189SOL     OW13465   5.026   5.155   3.469
 4189SOL    HW113466   5.045   5.151   3.567
 4189SOL    HW213467   5.017   5.062   3.433
 4190SOL     OW13468   6.782   6.276   0.803
 4190SOL    HW113469   6.825   6.219   0.874
 4190SOL    HW213470   6.850   6.337   0.764
 4191SOL     OW13471   4.344   4.535   5.980
 4191SOL    HW113472   4.285   4.505   6.055
 4191SOL    HW213473   4.298   4.608   5.929
 4192SOL     OW13474   1.142   3.176   1.680
 4192SOL    HW113475   1.130   3.077   1.670
 4192SOL    HW213476   1.150   3.218   1.590
 4193SOL     OW13477   6.994   6.820   0.615
 4193SOL    HW113478   6.968   6.762   0.538
 4193SOL    HW213479   0.001   6.909   0.581
 4194SOL     OW13480   4.380   1.114   5.051
 4194SOL    HW113481   4.337   1.031   5.087
 4194SOL    HW213482   4.457   1.140   5.109
 4195SOL     OW13483   3.959   5.764   1.269
 4195SOL    HW113484   3.861   5.774   1.256
 4195SOL    HW213485   3.983   5.788   1.363
 4196SOL     OW13486   6.506   2.233   2.769
 4196SOL    HW113487   6.555   2.293   2.706
 4196SOL    HW213488   6.443   2.287   2.824
 4197SOL     OW13489   3.426   6.776   6.033
 4197SOL    HW113490   3.466   6.684   6.027
 4197SOL    HW213491   3.326   6.768   6.039
 4198SOL     OW13492   6.004   1.368   2.853
 4198SOL    HW113493   6.065   1.289   2.849
 4198SOL    HW213494   6.052   1.449   2.819
 4199SOL     OW13495   0.528   3.742   6.338
 4199SOL    HW113496   0.518   3.669   6.269
 4199SOL    HW213497   0.531   3.701   6.429
 4200SOL     OW13498   4.542   1.227   3.776
 4200SOL    HW113499   4.581   1.277   3.853
 4200SOL    HW213500   4.447   1.204   3.796
 4201SOL     OW13501   5.445   0.069   3.057
 4201SOL    HW113502   5.470   0.165   3.048
 4201SOL    HW213503   5.522   0.012   3.026
 4202SOL     OW13504   4.721   4.767   0.892
 4202SOL    HW113505   4.708   4.737   0.986
 4202SOL    HW213506   4.778   4.700   0.843
 4203SOL     OW13507   6.131   5.306   6.811
 4203SOL    HW113508   6.175   5.326   6.898
 4203SOL    HW213509   6.186   5.342   6.736
 4204SOL     OW13510   2.957   3.544   5.904
 4204SOL    HW113511   3.055   3.523   5.904
 4204SOL    HW213512   2.914   3.498   5.981
 4205SOL     OW13513   3.850   5.736   4.985
 4205SOL    HW113514   3.849   5.636   4.986
 4205SOL    HW213515   3.939   5.768   4.953
 4206SOL     OW13516   1.574   2.233   4.818
 4206SOL    HW113517   1.663   2.274   4.799
 4206SOL    HW213518   1.551   2.248   4.914
 4207SOL     OW13519   1.423   3.144   1.721
 4207SOL    HW113520   1.417   3.192   1.633
 4207SOL    HW213521   1.335   3.102   1.742
 4208SOL     OW13522   2.160   3.425   5.160
 4208SOL    HW113523   2.172   3.500   5.224
 4208SOL    HW213524   2.098   3.453   5.086
 4209SOL     OW13525   0.344   5.689   3.115
 4209SOL    HW113526   0.402   5.730   3.044
 4209SOL    HW213527   0.301   5.762   3.169
 4210SOL     OW13528   4.060   3.236   4.871
 4210SOL    HW113529   4.059   3.272   4.965
 4210SOL    HW213530   4.132   3.167   4.863
 4211SOL     OW13531   4.109   2.314   5.371
 4211SOL    HW113532   4.118   2.414   5.365
 4211SOL    HW213533   4.082   2.289   5.464
 4212SOL     OW13534   6.789   1.760   3.369
 4212SOL    HW113535   6.838   1.844   3.345
 4212SOL    HW213536   6.708   1.783   3.423
 4213SOL     OW13537   3.514   1.253   3.028
 4213SOL    HW113538   3.447   1.226   2.959
 4213SOL    HW213539   3.487   1.215   3.117
 4214SOL     OW13540   0.799   5.082   4.420
 4214SOL    HW113541   0.716   5.133   4.443
 4214SOL    HW213542   0.780   4.984   4.423
 4215SOL     OW13543   4.748   6.658   5.146
 4215SOL    HW113544   4.771   6.584   5.082
 4215SOL    HW213545   4.797   6.643   5.232
 4216SOL     OW13546   2.549   6.242   2.602
 4216SOL    HW113547   2.485   6.216   2.529
 4216SOL    HW213548   2.556   6.167   2.668
 4217SOL     OW13549   0.594   0.781   2.071
 4217SOL    HW113550   0.669   0.718   2.092
 4217SOL    HW213551   0.632   0.867   2.036
 4218SOL     OW13552   2.778   1.135   1.438
 4218SOL    HW113553   2.739   1.126   1.529
 4218SOL    HW213554   2.710   1.108   1.370
 4219SOL     OW13555   4.123   6.306   3.714
 4219SOL    HW113556   4.123   6.208   3.693
 4219SOL    HW213557   4.068   6.355   3.646
 4220SOL     OW13558   4.460   2.258   1.738
 4220SOL    HW113559   4.475   2.206   1.821
 4220SOL    HW213560   4.410   2.202   1.672
 4221SOL     OW13561   0.442   5.978   6.753
 4221SOL    HW113562   0.481   5.907   6.694
 4221SOL    HW213563   0.355   5.946   6.790
 4222SOL     OW13564   4.818   2.436   3.346
 4222SOL    HW113565   4.760   2.462   3.424
 4222SOL    HW213566   4.816   2.337   3.335
 4223SOL     OW13567   4.148   3.331   2.388
 4223SOL    HW113568   4.118   3.401   2.322
 4223SOL    HW213569   4.246   3.317   2.379
 4224SOL     OW13570   5.149   3.766   4.732
 4224SOL    HW113571   5.075   3.700   4.749
 4224SOL    HW213572   5.131   3.849   4.784
 4225SOL     OW13573   0.113   2.982   5.589
 4225SOL    HW113574   0.113   2.934   5.676
 4225SOL    HW213575   0.032   2.956   5.536
 4226SOL     OW13576   1.145   5.408   4.723
 4226SOL    HW113577   1.102   5.455   4.799
 4226SOL    HW213578   1.087   5.332   4.694
 4227SOL     OW13579   5.399   5.746   2.024
 4227SOL    HW113580   5.339   5.825   2.034
 4227SOL    HW213581   5.491   5.776   1.997
 4228SOL     OW13582   1.119   5.449   3.787
 4228SOL    HW113583   1.037   5.499   3.818
 4228SOL    HW213584   1.178   5.432   3.865
 4229SOL     OW13585   6.129   5.003   5.719
 4229SOL    HW113586   6.086   5.065   5.784
 4229SOL    HW213587   6.068   4.988   5.641
 4230SOL     OW13588   0.760   1.058   1.929
 4230SOL    HW113589   0.773   1.131   1.861
 4230SOL    HW213590   0.846   1.009   1.941
 4231SOL     OW13591   5.386   1.268   5.922
 4231SOL    HW113592   5.464   1.222   5.964
 4231SOL    HW213593   5.418   1.337   5.857
 4232SOL     OW13594   2.052   5.415   4.256
 4232SOL    HW113595   2.079   5.376   4.168
 4232SOL    HW213596   2.033   5.342   4.321
 4233SOL     OW13597   5.370   6.406   4.266
 4233SOL    HW113598   5.371   6.322   4.211
 4233SOL    HW213599   5.381   6.382   4.362
 4234SOL     OW13600   2.430   5.589   5.777
 4234SOL    HW113601   2.421   5.653   5.853
 4234SOL    HW213602   2.419   5.638   5.690
 4235SOL     OW13603   6.694   4.941   6.034
 4235SOL    HW113604   6.694   5.026   5.980
 4235SOL    HW213605   6.685   4.863   5.973
 4236SOL     OW13606   0.862   5.429   1.829
 4236SOL    HW113607   0.783   5.489   1.845
 4236SOL    HW213608   0.891   5.437   1.734
 4237SOL     OW13609   6.330   3.951   3.291
 4237SOL    HW113610   6.250   4.000   3.324
 4237SOL    HW213611   6.413   3.997   3.323
 4238SOL     OW13612   2.875   0.464   3.282
 4238SOL    HW113613   2.793   0.414   3.252
 4238SOL    HW213614   2.903   0.528   3.211
 4239SOL     OW13615   4.007   0.810   2.882
 4239SOL    HW113616   4.079   0.875   2.906
 4239SOL    HW213617   4.040   0.717   2.893
 4240SOL     OW13618   0.742   5.897   0.700
 4240SOL    HW113619   0.715   5.883   0.605
 4240SOL    HW213620   0.684   5.968   0.741
 4241SOL     OW13621   6.394   2.148   6.880
 4241SOL    HW113622   6.414   2.095   6.798
 4241SOL    HW213623   6.320   2.212   6.862
 4242SOL     OW13624   2.307   2.377   3.904
 4242SOL    HW113625   2.237   2.428   3.854
 4242SOL    HW213626   2.357   2.439   3.965
 4243SOL     OW13627   5.420   1.165   3.142
 4243SOL    HW113628   5.403   1.128   3.233
 4243SOL    HW213629   5.401   1.263   3.141
 4244SOL     OW13630   3.657   3.356   2.350
 4244SOL    HW113631   3.725   3.369   2.279
 4244SOL    HW213632   3.695   3.384   2.438
 4245SOL     OW13633   5.802   2.277   5.885
 4245SOL    HW113634   5.709   2.248   5.908
 4245SOL    HW213635   5.799   2.366   5.839
 4246SOL     OW13636   0.032   4.106   2.125
 4246SOL    HW113637   0.024   4.062   2.036
 4246SOL    HW213638   6.964   4.114   2.166
 4247SOL     OW13639   6.941   5.608   5.280
 4247SOL    HW113640   7.019   5.649   5.232
 4247SOL    HW213641   6.952   5.509   5.283
 4248SOL     OW13642   1.280   2.750   5.260
 4248SOL    HW113643   1.248   2.660   5.290
 4248SOL    HW213644   1.202   2.803   5.226
 4249SOL     OW13645   5.809   3.042   5.804
 4249SOL    HW113646   5.820   3.120   5.866
 4249SOL    HW213647   5.724   2.994   5.827
 4250SOL     OW13648   6.496   5.142   3.494
 4250SOL    HW113649   6.431   5.112   3.563
 4250SOL    HW213650   6.543   5.062   3.455
 4251SOL     OW13651   5.615   4.359   0.581
 4251SOL    HW113652   5.692   4.395   0.528
 4251SOL    HW213653   5.541   4.332   0.520
 4252SOL     OW13654   0.437   5.303   5.580
 4252SOL    HW113655   0.535   5.309   5.563
 4252SOL    HW213656   0.408   5.208   5.577
 4253SOL     OW13657   4.396   1.017   1.763
 4253SOL    HW113658   4.447   1.013   1.850
 4253SOL    HW213659   4.412   0.933   1.712
 4254SOL     OW13660   2.018   3.734   1.432
 4254SOL    HW113661   2.077   3.701   1.358
 4254SOL    HW213662   2.061   3.813   1.476
 4255SOL     OW13663   6.326   3.229   4.240
 4255SOL    HW113664   6.418   3.234   4.200
 4255SOL    HW213665   6.258   3.222   4.167
 4256SOL     OW13666   1.813   6.981   1.394
 4256SOL    HW113667   1.829   6.907   1.460
 4256SOL    HW213668   1.781   6.942   1.308
 4257SOL     OW13669   3.305   1.932   5.040
 4257SOL    HW113670   3.311   1.842   4.996
 4257SOL    HW213671   3.394   1.977   5.037
 4258SOL     OW13672   5.781   6.631   2.211
 4258SOL    HW113673   5.851   6.633   2.283
 4258SOL    HW213674   5.729   6.546   2.218
 4259SOL     OW13675   2.565   2.273   0.026
 4259SOL    HW113676   2.568   2.275   0.126
 4259SOL    HW213677   2.475   2.305   7.018
 4260SOL     OW13678   4.811   5.580   3.404
 4260SOL    HW113679   4.796   5.653   3.338
 4260SOL    HW213680   4.909   5.561   3.411
 4261SOL     OW13681   2.255   6.386   1.697
 4261SOL    HW113682   2.164   6.373   1.658
 4261SOL    HW213683   2.286   6.300   1.738
 4262SOL     OW13684   1.410   5.055   6.408
 4262SOL    HW113685   1.403   4.990   6.333
 4262SOL    HW213686   1.422   5.006   6.494
 4263SOL     OW13687   2.344   4.458   5.591
 4263SOL    HW113688   2.416   4.489   5.653
 4263SOL    HW213689   2.366   4.485   5.497
 4264SOL     OW13690   0.345   1.329   0.142
 4264SOL    HW113691   0.251   1.308   0.115
 4264SOL    HW213692   0.346   1.413   0.197
 4265SOL     OW13693   0.013   1.664   0.683
 4265SOL    HW113694   0.044   1.577   0.723
 4265SOL    HW213695   0.031   1.662   0.585
 4266SOL     OW13696   2.582   5.192   0.034
 4266SOL    HW113697   2.658   5.168   6.996
 4266SOL    HW213698   2.562   5.289   0.026
 4267SOL     OW13699   1.900   3.431   5.011
 4267SOL    HW113700   1.847   3.368   5.069
 4267SOL    HW213701   1.839   3.502   4.976
 4268SOL     OW13702   2.041   1.087   0.633
 4268SOL    HW113703   2.051   1.021   0.558
 4268SOL    HW213704   1.944   1.108   0.646
 4269SOL     OW13705   3.264   3.112   0.453
 4269SOL    HW113706   3.198   3.128   0.379
 4269SOL    HW213707   3.258   3.016   0.482
 4270SOL     OW13708   3.391   3.101   4.957
 4270SOL    HW113709   3.379   3.170   5.028
 4270SOL    HW213710   3.414   3.013   4.999
 4271SOL     OW13711   0.633   6.950   5.812
 4271SOL    HW113712   0.712   6.903   5.851
 4271SOL    HW213713   0.663   7.012   5.740
 4272SOL     OW13714   6.583   4.846   5.299
 4272SOL    HW113715   6.573   4.752   5.267
 4272SOL    HW213716   6.494   4.891   5.300
 4273SOL     OW13717   5.172   6.911   5.256
 4273SOL    HW113718   5.259   6.961   5.262
 4273SOL    HW213719   5.139   6.892   5.348
 4274SOL     OW13720   1.691   6.665   3.757
 4274SOL    HW113721   1.654   6.631   3.843
 4274SOL    HW213722   1.770   6.723   3.775
 4275SOL     OW13723   0.220   0.540   5.666
 4275SOL    HW113724   0.278   0.621   5.665
 4275SOL    HW213725   0.137   0.559   5.718
 4276SOL     OW13726   2.218   4.463   2.940
 4276SOL    HW113727   2.225   4.368   2.911
 4276SOL    HW213728   2.281   4.480   3.016
 4277SOL     OW13729   0.032   4.992   3.804
 4277SOL    HW113730   0.073   5.080   3.824
 4277SOL    HW213731   6.970   5.006   3.751
 4278SOL     OW13732   6.632   6.004   4.794
 4278SOL    HW113733   6.631   6.103   4.785
 4278SOL    HW213734   6.592   5.963   4.712
 4279SOL     OW13735   2.920   6.394   4.965
 4279SOL    HW113736   2.988   6.359   5.029
 4279SOL    HW213737   2.960   6.467   4.910
 4280SOL     OW13738   6.280   2.089   5.377
 4280SOL    HW113739   6.204   2.149   5.402
 4280SOL    HW213740   6.361   2.114   5.430
 4281SOL     OW13741   1.760   4.632   5.135
 4281SOL    HW113742   1.732   4.540   5.107
 4281SOL    HW213743   1.838   4.625   5.198
 4282SOL     OW13744   2.199   2.650   0.971
 4282SOL    HW113745   2.298   2.661   0.971
 4282SOL    HW213746   2.165   2.654   0.877
 4283SOL     OW13747   1.739   0.351   4.159
 4283SOL    HW113748   1.702   0.262   4.188
 4283SOL    HW213749   1.790   0.392   4.234
 4284SOL     OW13750   5.495   1.574   2.081
 4284SOL    HW113751   5.485   1.579   2.180
 4284SOL    HW213752   5.503   1.478   2.053
 4285SOL     OW13753   0.967   0.292   5.424
 4285SOL    HW113754   0.917   0.369   5.463
 4285SOL    HW213755   1.033   0.258   5.491
 4286SOL     OW13756   4.869   5.671   0.157
 4286SOL    HW113757   4.929   5.594   0.180
 4286SOL    HW213758   4.819   5.699   0.239
 4287SOL     OW13759   5.812   0.148   4.835
 4287SOL    HW113760   5.896   0.109   4.799
 4287SOL    HW213761   5.831   0.237   4.877
 4288SOL     OW13762   1.281   0.112   3.135
 4288SOL    HW113763   1.195   0.083   3.092
 4288SOL    HW213764   1.348   0.134   3.065
 4289SOL     OW13765   5.673   2.380   1.254
 4289SOL    HW113766   5.687   2.438   1.174
 4289SOL    HW213767   5.659   2.285   1.225
 4290SOL     OW13768   2.567   0.452   2.505
 4290SOL    HW113769   2.554   0.521   2.576
 4290SOL    HW213770   2.478   0.419   2.473
 4291SOL     OW13771   5.869   2.757   0.290
 4291SOL    HW113772   5.787   2.713   0.256
 4291SOL    HW213773   5.859   2.776   0.388
 4292SOL     OW13774   6.124   3.906   5.470
 4292SOL    HW113775   6.038   3.934   5.427
 4292SOL    HW213776   6.109   3.821   5.522
 4293SOL     OW13777   6.226   3.387   6.446
 4293SOL    HW113778   6.309   3.441   6.433
 4293SOL    HW213779   6.233   3.339   6.534
 4294SOL     OW13780   4.464   2.311   5.931
 4294SOL    HW113781   4.420   2.359   5.855
 4294SOL    HW213782   4.432   2.348   6.018
 4295SOL     OW13783   3.547   6.949   4.421
 4295SOL    HW113784   3.559   6.961   4.520
 4295SOL    HW213785   3.462   6.901   4.404
 4296SOL     OW13786   2.346   1.872   1.019
 4296SOL    HW113787   2.384   1.928   1.093
 4296SOL    HW213788   2.271   1.921   0.974
 4297SOL     OW13789   5.391   0.097   4.962
 4297SOL    HW113790   5.439   0.140   5.038
 4297SOL    HW213791   5.365   0.003   4.987
 4298SOL     OW13792   2.628   5.827   1.298
 4298SOL    HW113793   2.632   5.727   1.286
 4298SOL    HW213794   2.533   5.855   1.309
 4299SOL     OW13795   0.677   3.489   6.047
 4299SOL    HW113796   0.760   3.510   6.099
 4299SOL    HW213797   0.689   3.516   5.952
 4300SOL     OW13798   3.514   1.283   6.949
 4300SOL    HW113799   3.532   1.365   7.004
 4300SOL    HW213800   3.439   1.302   6.885
 4301SOL     OW13801   2.162   2.004   0.884
 4301SOL    HW113802   2.181   1.957   0.798
 4301SOL    HW213803   2.115   2.091   0.864
 4302SOL     OW13804   1.032   6.318   6.680
 4302SOL    HW113805   1.012   6.402   6.729
 4302SOL    HW213806   1.054   6.246   6.745
 4303SOL     OW13807   6.704   3.912   2.715
 4303SOL    HW113808   6.699   3.960   2.627
 4303SOL    HW213809   6.619   3.863   2.731
 4304SOL     OW13810   3.264   3.429   4.277
 4304SOL    HW113811   3.173   3.423   4.236
 4304SOL    HW213812   3.289   3.341   4.316
 4305SOL     OW13813   6.568   0.925   3.744
 4305SOL    HW113814   6.668   0.919   3.752
 4305SOL    HW213815   6.540   0.899   3.652
 4306SOL     OW13816   6.672   4.342   6.188
 4306SOL    HW113817   6.716   4.263   6.144
 4306SOL    HW213818   6.600   4.310   6.249
 4307SOL     OW13819   4.671   3.747   5.863
 4307SOL    HW113820   4.652   3.833   5.815
 4307SOL    HW213821   4.623   3.673   5.818
 4308SOL     OW13822   5.250   5.519   4.750
 4308SOL    HW113823   5.214   5.533   4.842
 4308SOL    HW213824   5.325   5.453   4.753
 4309SOL     OW13825   1.351   1.060   0.779
 4309SOL    HW113826   1.364   1.100   0.688
 4309SOL    HW213827   1.428   1.084   0.837
 4310SOL     OW13828   1.513   2.120   2.711
 4310SOL    HW113829   1.578   2.173   2.657
 4310SOL    HW213830   1.561   2.051   2.764
 4311SOL     OW13831   0.890   5.881   3.594
 4311SOL    HW113832   0.910   5.797   3.543
 4311SOL    HW213833   0.792   5.898   3.593
 4312SOL     OW13834   2.410   5.829   2.103
 4312SOL    HW113835   2.484   5.764   2.117
 4312SOL    HW213836   2.357   5.803   2.022
 4313SOL     OW13837   4.783   1.225   1.353
 4313SOL    HW113838   4.707   1.244   1.416
 4313SOL    HW213839   4.785   1.294   1.281
 4314SOL     OW13840   5.061   2.664   2.992
 4314SOL    HW113841   5.072   2.759   2.964
 4314SOL    HW213842   5.049   2.660   3.091
 4315SOL     OW13843   2.585   0.556   2.027
 4315SOL    HW113844   2.523   0.612   1.971
 4315SOL    HW213845   2.569   0.576   2.124
 4316SOL     OW13846   5.417   0.424   1.399
 4316SOL    HW113847   5.399   0.328   1.422
 4316SOL    HW213848   5.338   0.463   1.352
 4317SOL     OW13849   3.227   1.285   4.063
 4317SOL    HW113850   3.216   1.264   3.966
 4317SOL    HW213851   3.251   1.381   4.074
 4318SOL     OW13852   0.858   3.712   3.099
 4318SOL    HW113853   0.937   3.658   3.069
 4318SOL    HW213854   0.865   3.728   3.197
 4319SOL     OW13855   2.763   3.429   6.718
 4319SOL    HW113856   2.686   3.367   6.704
 4319SOL    HW213857   2.744   3.487   6.798
 4320SOL     OW13858   1.015   6.698   2.645
 4320SOL    HW113859   1.098   6.686   2.590
 4320SOL    HW213860   0.976   6.789   2.629
 4321SOL     OW13861   6.529   0.477   5.286
 4321SOL    HW113862   6.619   0.514   5.263
 4321SOL    HW213863   6.484   0.539   5.351
 4322SOL     OW13864   6.200   0.998   6.552
 4322SOL    HW113865   6.225   0.993   6.455
 4322SOL    HW213866   6.284   1.002   6.607
 4323SOL     OW13867   5.637   2.849   2.689
 4323SOL    HW113868   5.583   2.927   2.658
 4323SOL    HW213869   5.577   2.775   2.717
 4324SOL     OW13870   5.962   3.960   6.646
 4324SOL    HW113871   6.026   4.003   6.582
 4324SOL    HW213872   5.980   3.992   6.738
 4325SOL     OW13873   2.114   1.231   6.708
 4325SOL    HW113874   2.150   1.307   6.654
 4325SOL    HW213875   2.174   1.151   6.697
 4326SOL     OW13876   6.254   3.341   5.278
 4326SOL    HW113877   6.345   3.384   5.284
 4326SOL    HW213878   6.238   3.310   5.184
 4327SOL     OW13879   5.556   5.540   2.315
 4327SOL    HW113880   5.605   5.556   2.400
 4327SOL    HW213881   5.597   5.596   2.242
 4328SOL     OW13882   4.887   4.654   6.343
 4328SOL    HW113883   4.926   4.736   6.301
 4328SOL    HW213884   4.870   4.585   6.272
 4329SOL     OW13885   3.748   1.742   5.215
 4329SOL    HW113886   3.785   1.702   5.299
 4329SOL    HW213887   3.820   1.745   5.146
 4330SOL     OW13888   1.629   0.420   5.749
 4330SOL    HW113889   1.699   0.490   5.766
 4330SOL    HW213890   1.664   0.353   5.684
 4331SOL     OW13891   5.649   2.693   6.753
 4331SOL    HW113892   5.646   2.624   6.681
 4331SOL    HW213893   5.727   2.675   6.813
 4332SOL     OW13894   4.842   3.076   2.215
 4332SOL    HW113895   4.895   3.155   2.182
 4332SOL    HW213896   4.763   3.062   2.156
 4333SOL     OW13897   5.672   1.651   4.902
 4333SOL    HW113898   5.598   1.593   4.936
 4333SOL    HW213899   5.633   1.733   4.860
 4334SOL     OW13900   3.239   2.081   2.067
 4334SOL    HW113901   3.165   2.057   2.005
 4334SOL    HW213902   3.314   2.015   2.058
 4335SOL     OW13903   3.286   4.103   4.500
 4335SOL    HW113904   3.359   4.103   4.432
 4335SOL    HW213905   3.293   4.184   4.557
 4336SOL     OW13906   1.776   6.783   4.801
 4336SOL    HW113907   1.746   6.775   4.705
 4336SOL    HW213908   1.773   6.693   4.844
 4337SOL     OW13909   0.498   4.943   0.043
 4337SOL    HW113910   0.521   5.009   6.994
 4337SOL    HW213911   0.511   4.850   0.008
 4338SOL     OW13912   6.022   6.062   4.577
 4338SOL    HW113913   6.037   5.963   4.587
 4338SOL    HW213914   5.924   6.080   4.568
 4339SOL     OW13915   6.668   2.155   5.255
 4339SOL    HW113916   6.626   2.141   5.344
 4339SOL    HW213917   6.596   2.169   5.186
 4340SOL     OW13918   5.388   3.523   1.635
 4340SOL    HW113919   5.336   3.480   1.561
 4340SOL    HW213920   5.418   3.453   1.700
 4341SOL     OW13921   1.774   3.962   2.087
 4341SOL    HW113922   1.778   3.894   2.014
 4341SOL    HW213923   1.861   4.011   2.093
 4342SOL     OW13924   0.370   2.621   2.515
 4342SOL    HW113925   0.316   2.609   2.598
 4342SOL    HW213926   0.466   2.635   2.540
 4343SOL     OW13927   3.033   1.293   0.676
 4343SOL    HW113928   3.132   1.305   0.687
 4343SOL    HW213929   2.999   1.233   0.749
 4344SOL     OW13930   1.608   4.020   3.285
 4344SOL    HW113931   1.535   4.088   3.294
 4344SOL    HW213932   1.628   4.007   3.188
 4345SOL     OW13933   1.967   2.479   5.425
 4345SOL    HW113934   2.002   2.508   5.336
 4345SOL    HW213935   1.958   2.379   5.426
 4346SOL     OW13936   1.845   3.321   1.958
 4346SOL    HW113937   1.935   3.315   2.002
 4346SOL    HW213938   1.802   3.231   1.959
 4347SOL     OW13939   6.401   7.017   2.235
 4347SOL    HW113940   6.496   6.987   2.227
 4347SOL    HW213941   6.398   0.090   2.264
 4348SOL     OW13942   1.182   3.705   0.883
 4348SOL    HW113943   1.146   3.696   0.790
 4348SOL    HW213944   1.255   3.638   0.896
 4349SOL     OW13945   0.173   1.347   3.948
 4349SOL    HW113946   0.232   1.289   3.892
 4349SOL    HW213947   0.129   1.291   4.018
 4350SOL     OW13948   5.461   2.674   4.208
 4350SOL    HW113949   5.380   2.712   4.164
 4350SOL    HW213950   5.542   2.722   4.177
 4351SOL     OW13951   3.230   5.563   2.631
 4351SOL    HW113952   3.236   5.465   2.609
 4351SOL    HW213953   3.168   5.576   2.708
 4352SOL     OW13954   0.195   1.972   2.014
 4352SOL    HW113955   0.180   1.984   2.112
 4352SOL    HW213956   0.159   2.052   1.965
 4353SOL     OW13957   2.143   5.834   6.488
 4353SOL    HW113958   2.168   5.739   6.508
 4353SOL    HW213959   2.121   5.881   6.573
 4354SOL     OW13960   2.278   6.866   6.922
 4354SOL    HW113961   2.302   6.771   6.942
 4354SOL    HW213962   2.361   6.919   6.903
 4355SOL     OW13963   4.066   0.814   0.755
 4355SOL    HW113964   4.040   0.910   0.739
 4355SOL    HW213965   4.062   0.794   0.853
 4356SOL     OW13966   4.312   4.051   0.846
 4356SOL    HW113967   4.277   4.075   0.756
 4356SOL    HW213968   4.345   3.956   0.845
 4357SOL     OW13969   6.279   0.132   0.183
 4357SOL    HW113970   6.329   0.117   0.268
 4357SOL    HW213971   6.261   0.044   0.139
 4358SOL     OW13972   1.225   6.262   1.524
 4358SOL    HW113973   1.146   6.201   1.517
 4358SOL    HW213974   1.307   6.207   1.542
 4359SOL     OW13975   0.858   2.110   4.069
 4359SOL    HW113976   0.945   2.148   4.099
 4359SOL    HW213977   0.785   2.146   4.127
 4360SOL     OW13978   0.754   3.336   1.319
 4360SOL    HW113979   0.699   3.325   1.402
 4360SOL    HW213980   0.704   3.300   1.241
 4361SOL     OW13981   4.860   2.249   2.033
 4361SOL    HW113982   4.796   2.318   1.999
 4361SOL    HW213983   4.929   2.292   2.090
 4362SOL     OW13984   6.134   4.213   5.119
 4362SOL    HW113985   6.172   4.300   5.090
 4362SOL    HW213986   6.183   4.138   5.075
 4363SOL     OW13987   5.075   2.794   5.531
 4363SOL    HW113988   5.126   2.858   5.474
 4363SOL    HW213989   5.004   2.750   5.477
 4364SOL     OW13990   3.518   4.104   4.330
 4364SOL    HW113991   3.513   4.005   4.320
 4364SOL    HW213992   3.493   4.148   4.244
 4365SOL     OW13993   4.210   2.294   2.688
 4365SOL    HW113994   4.153   2.269   2.610
 4365SOL    HW213995   4.306   2.294   2.661
 4366SOL     OW13996   6.144   5.933   1.346
 4366SOL    HW113997   6.122   5.924   1.249
 4366SOL    HW213998   6.231   5.887   1.365
 4367SOL     OW13999   1.254   5.804   5.666
 4367SOL    HW114000   1.245   5.858   5.750
 4367SOL    HW214001   1.327   5.843   5.610
 4368SOL     OW14002   5.248   4.538   1.938
 4368SOL    HW114003   5.337   4.536   1.893
 4368SOL    HW214004   5.222   4.445   1.963
 4369SOL     OW14005   4.530   5.040   2.214
 4369SOL    HW114006   4.602   4.986   2.258
 4369SOL    HW214007   4.442   4.995   2.227
 4370SOL     OW14008   5.729   4.607   3.938
 4370SOL    HW114009   5.698   4.702   3.931
 4370SOL    HW214010   5.721   4.576   4.032
 4371SOL     OW14011   6.158   0.938   2.057
 4371SOL    HW114012   6.148   0.871   2.131
 4371SOL    HW214013   6.172   0.890   1.971
 4372SOL     OW14014   4.734   1.919   3.527
 4372SOL    HW114015   4.670   1.907   3.604
 4372SOL    HW214016   4.820   1.873   3.548
 4373SOL     OW14017   6.553   1.681   6.545
 4373SOL    HW114018   6.608   1.618   6.491
 4373SOL    HW214019   6.501   1.741   6.485
 4374SOL     OW14020   1.384   1.841   2.296
 4374SOL    HW114021   1.448   1.882   2.360
 4374SOL    HW214022   1.360   1.906   2.224
 4375SOL     OW14023   2.724   6.235   4.571
 4375SOL    HW114024   2.748   6.159   4.511
 4375SOL    HW214025   2.629   6.224   4.602
 4376SOL     OW14026   6.672   0.427   2.789
 4376SOL    HW114027   6.696   0.369   2.868
 4376SOL    HW214028   6.625   0.371   2.720
 4377SOL     OW14029   5.992   4.343   6.948
 4377SOL    HW114030   6.027   4.249   6.941
 4377SOL    HW214031   5.973   4.364   0.021
 4378SOL     OW14032   2.168   0.299   3.664
 4378SOL    HW114033   2.152   0.304   3.566
 4378SOL    HW214034   2.123   0.218   3.701
 4379SOL     OW14035   2.874   1.231   4.697
 4379SOL    HW114036   2.958   1.203   4.650
 4379SOL    HW214037   2.895   1.253   4.792
 4380SOL     OW14038   1.155   1.464   1.592
 4380SOL    HW114039   1.235   1.405   1.580
 4380SOL    HW214040   1.134   1.472   1.689
 4381SOL     OW14041   1.849   5.958   5.472
 4381SOL    HW114042   1.937   5.941   5.517
 4381SOL    HW214043   1.815   5.872   5.434
 4382SOL     OW14044   6.932   3.512   4.773
 4382SOL    HW114045   6.956   3.542   4.681
 4382SOL    HW214046   6.833   3.502   4.781
 4383SOL     OW14047   5.292   2.452   6.181
 4383SOL    HW114048   5.259   2.470   6.089
 4383SOL    HW214049   5.229   2.391   6.229
 4384SOL     OW14050   6.965   6.405   3.148
 4384SOL    HW114051   6.953   6.476   3.217
 4384SOL    HW214052   0.026   6.424   3.096
 4385SOL     OW14053   5.893   1.910   4.618
 4385SOL    HW114054   5.942   1.992   4.649
 4385SOL    HW214055   5.947   1.829   4.640
 4386SOL     OW14056   1.236   3.223   5.264
 4386SOL    HW114057   1.192   3.165   5.196
 4386SOL    HW214058   1.311   3.273   5.221
 4387SOL     OW14059   0.288   2.663   0.566
 4387SOL    HW114060   0.387   2.661   0.579
 4387SOL    HW214061   0.261   2.598   0.495
 4388SOL     OW14062   4.809   2.069   6.434
 4388SOL    HW114063   4.821   2.101   6.528
 4388SOL    HW214064   4.898   2.060   6.390
 4389SOL     OW14065   6.972   3.687   1.541
 4389SOL    HW114066   6.908   3.763   1.527
 4389SOL    HW214067   6.937   3.605   1.498
 4390SOL     OW14068   5.697   0.786   1.244
 4390SOL    HW114069   5.797   0.792   1.242
 4390SOL    HW214070   5.670   0.690   1.239
 4391SOL     OW14071   1.823   5.837   5.897
 4391SOL    HW114072   1.847   5.857   5.992
 4391SOL    HW214073   1.776   5.915   5.857
 4392SOL     OW14074   1.175   1.784   4.349
 4392SOL    HW114075   1.178   1.842   4.267
 4392SOL    HW214076   1.244   1.712   4.340
 4393SOL     OW14077   5.117   6.645   1.852
 4393SOL    HW114078   5.161   6.735   1.843
 4393SOL    HW214079   5.155   6.583   1.784
 4394SOL     OW14080   1.890   0.170   1.034
 4394SOL    HW114081   1.972   0.113   1.025
 4394SOL    HW214082   1.859   0.169   1.129
 4395SOL     OW14083   2.568   5.994   1.072
 4395SOL    HW114084   2.574   5.915   1.011
 4395SOL    HW214085   2.594   5.966   1.165
 4396SOL     OW14086   2.106   0.788   3.495
 4396SOL    HW114087   2.092   0.689   3.492
 4396SOL    HW214088   2.018   0.835   3.492
 4397SOL     OW14089   3.011   1.893   4.056
 4397SOL    HW114090   2.948   1.815   4.060
 4397SOL    HW214091   3.100   1.867   4.093
 4398SOL     OW14092   1.954   3.085   6.011
 4398SOL    HW114093   2.053   3.077   5.996
 4398SOL    HW214094   1.911   3.125   5.930
 4399SOL     OW14095   2.900   6.300   2.345
 4399SOL    HW114096   2.969   6.369   2.322
 4399SOL    HW214097   2.909   6.222   2.284
 4400SOL     OW14098   1.542   6.251   4.460
 4400SOL    HW114099   1.540   6.180   4.530
 4400SOL    HW214100   1.537   6.210   4.369
 4401SOL     OW14101   3.102   6.549   5.496
 4401SOL    HW114102   3.090   6.453   5.520
 4401SOL    HW214103   3.017   6.586   5.458
 4402SOL     OW14104   1.100   0.284   3.255
 4402SOL    HW114105   1.045   0.224   3.314
 4402SOL    HW214106   1.167   0.228   3.205
 4403SOL     OW14107   1.510   5.236   1.051
 4403SOL    HW114108   1.596   5.211   1.006
 4403SOL    HW214109   1.528   5.305   1.121
 4404SOL     OW14110   1.134   5.611   6.132
 4404SOL    HW114111   1.168   5.607   6.226
 4404SOL    HW214112   1.211   5.625   6.070
 4405SOL     OW14113   1.937   4.413   3.606
 4405SOL    HW114114   1.977   4.365   3.684
 4405SOL    HW214115   1.846   4.377   3.587
 4406SOL     OW14116   6.021   3.571   2.243
 4406SOL    HW114117   6.073   3.653   2.268
 4406SOL    HW214118   5.955   3.551   2.315
 4407SOL     OW14119   0.302   6.386   2.374
 4407SOL    HW114120   0.289   6.359   2.279
 4407SOL    HW214121   0.360   6.318   2.420
 4408SOL     OW14122   4.146   0.361   0.949
 4408SOL    HW114123   4.170   0.279   0.897
 4408SOL    HW214124   4.208   0.435   0.925
 4409SOL     OW14125   3.954   0.842   2.311
 4409SOL    HW114126   4.040   0.808   2.348
 4409SOL    HW214127   3.917   0.913   2.372
 4410SOL     OW14128   1.156   5.910   1.015
 4410SOL    HW114129   1.183   5.964   1.095
 4410SOL    HW214130   1.227   5.841   0.996
 4411SOL     OW14131   3.191   4.456   5.581
 4411SOL    HW114132   3.285   4.435   5.606
 4411SOL    HW214133   3.129   4.394   5.630
 4412SOL     OW14134   4.356   6.447   3.358
 4412SOL    HW114135   4.369   6.509   3.280
 4412SOL    HW214136   4.443   6.402   3.379
 4413SOL     OW14137   3.612   0.061   4.174
 4413SOL    HW114138   3.597   0.022   4.265
 4413SOL    HW214139   3.538   0.125   4.153
 4414SOL     OW14140   4.809   4.200   1.943
 4414SOL    HW114141   4.713   4.196   1.971
 4414SOL    HW214142   4.826   4.130   1.874
 4415SOL     OW14143   3.094   3.181   1.741
 4415SOL    HW114144   3.167   3.168   1.808
 4415SOL    HW214145   3.005   3.167   1.785
 4416SOL     OW14146   4.062   2.201   3.694
 4416SOL    HW114147   4.069   2.251   3.781
 4416SOL    HW214148   3.986   2.136   3.699
 4417SOL     OW14149   0.426   3.701   3.403
 4417SOL    HW114150   0.463   3.670   3.490
 4417SOL    HW214151   0.333   3.736   3.417
 4418SOL     OW14152   6.358   0.163   0.686
 4418SOL    HW114153   6.289   0.138   0.755
 4418SOL    HW214154   6.390   0.256   0.703
 4419SOL     OW14155   6.284   5.719   6.590
 4419SOL    HW114156   6.281   5.619   6.586
 4419SOL    HW214157   6.296   5.755   6.497
 4420SOL     OW14158   3.716   2.245   0.868
 4420SOL    HW114159   3.656   2.267   0.945
 4420SOL    HW214160   3.675   2.279   0.783
 4421SOL     OW14161   1.751   2.348   4.627
 4421SOL    HW114162   1.764   2.295   4.544
 4421SOL    HW214163   1.683   2.419   4.611
 4422SOL     OW14164   0.139   4.799   0.112
 4422SOL    HW114165   0.048   4.810   0.153
 4422SOL    HW214166   0.131   4.740   0.031
 4423SOL     OW14167   5.478   3.912   5.711
 4423SOL    HW114168   5.440   3.852   5.782
 4423SOL    HW214169   5.548   3.972   5.752
 4424SOL     OW14170   5.153   6.024   4.392
 4424SOL    HW114171   5.094   6.060   4.319
 4424SOL    HW214172   5.110   5.943   4.432
 4425SOL     OW14173   2.003   5.605   1.575
 4425SOL    HW114174   2.101   5.600   1.556
 4425SOL    HW214175   1.952   5.567   1.498
 4426SOL     OW14176   1.241   0.140   3.983
 4426SOL    HW114177   1.149   0.146   4.023
 4426SOL    HW214178   1.300   0.209   4.025
 4427SOL     OW14179   3.668   5.863   3.202
 4427SOL    HW114180   3.621   5.936   3.153
 4427SOL    HW214181   3.632   5.857   3.295
 4428SOL     OW14182   5.612   0.748   3.573
 4428SOL    HW114183   5.704   0.776   3.546
 4428SOL    HW214184   5.555   0.736   3.491
 4429SOL     OW14185   3.004   5.807   3.678
 4429SOL    HW114186   2.989   5.713   3.707
 4429SOL    HW214187   3.090   5.813   3.626
 4430SOL     OW14188   5.245   4.676   4.799
 4430SOL    HW114189   5.247   4.654   4.897
 4430SOL    HW214190   5.259   4.774   4.787
 4431SOL     OW14191   3.321   0.670   3.896
 4431SOL    HW114192   3.281   0.670   3.804
 4431SOL    HW214193   3.373   0.586   3.909
 4432SOL     OW14194   1.313   3.666   6.072
 4432SOL    HW114195   1.351   3.751   6.034
 4432SOL    HW214196   1.307   3.597   6.001
 4433SOL     OW14197   1.123   1.284   5.257
 4433SOL    HW114198   1.211   1.330   5.267
 4433SOL    HW214199   1.056   1.348   5.219
 4434SOL     OW14200   6.809   0.911   1.694
 4434SOL    HW114201   6.771   0.983   1.752
 4434SOL    HW214202   6.806   0.824   1.741
 4435SOL     OW14203   2.872   4.143   0.540
 4435SOL    HW114204   2.785   4.129   0.586
 4435SOL    HW214205   2.856   4.155   0.442
 4436SOL     OW14206   4.389   1.800   1.471
 4436SOL    HW114207   4.455   1.846   1.411
 4436SOL    HW214208   4.308   1.775   1.418
 4437SOL     OW14209   0.084   4.086   1.790
 4437SOL    HW114210   7.009   4.063   1.801
 4437SOL    HW214211   0.134   4.005   1.762
 4438SOL     OW14212   3.830   0.149   6.237
 4438SOL    HW114213   3.780   0.066   6.214
 4438SOL    HW214214   3.874   0.185   6.154
 4439SOL     OW14215   2.442   6.539   2.173
 4439SOL    HW114216   2.433   6.620   2.230
 4439SOL    HW214217   2.381   6.547   2.094
 4440SOL     OW14218   2.147   4.854   0.286
 4440SOL    HW114219   2.175   4.943   0.252
 4440SOL    HW214220   2.140   4.857   0.386
 4441SOL     OW14221   0.520   1.240   6.964
 4441SOL    HW114222   0.448   1.187   6.918
 4441SOL    HW214223   0.483   1.281   0.025
 4442SOL     OW14224   1.695   4.535   6.638
 4442SOL    HW114225   1.683   4.633   6.623
 4442SOL    HW214226   1.605   4.491   6.647
 4443SOL     OW14227   0.566   5.171   6.376
 4443SOL    HW114228   0.581   5.073   6.390
 4443SOL    HW214229   0.647   5.221   6.408
 4444SOL     OW14230   5.537   4.000   0.031
 4444SOL    HW114231   5.541   4.090   7.009
 4444SOL    HW214232   5.442   3.973   0.044
 4445SOL     OW14233   0.420   6.014   0.133
 4445SOL    HW114234   0.333   6.045   0.097
 4445SOL    HW214235   0.409   5.923   0.172
 4446SOL     OW14236   5.365   0.956   0.828
 4446SOL    HW114237   5.274   0.986   0.858
 4446SOL    HW214238   5.424   0.942   0.908
 4447SOL     OW14239   4.771   5.321   5.690
 4447SOL    HW114240   4.848   5.302   5.629
 4447SOL    HW214241   4.779   5.414   5.726
 4448SOL     OW14242   3.471   7.008   1.628
 4448SOL    HW114243   3.407   0.036   1.571
 4448SOL    HW214244   3.549   0.045   1.651
 4449SOL     OW14245   3.717   1.541   6.208
 4449SOL    HW114246   3.809   1.506   6.229
 4449SOL    HW214247   3.671   1.567   6.293
 4450SOL     OW14248   3.518   0.510   0.470
 4450SOL    HW114249   3.599   0.454   0.484
 4450SOL    HW214250   3.446   0.456   0.426
 4451SOL     OW14251   4.829   4.208   3.619
 4451SOL    HW114252   4.905   4.261   3.581
 4451SOL    HW214253   4.743   4.256   3.602
 4452SOL     OW14254   5.051   6.225   4.739
 4452SOL    HW114255   5.011   6.253   4.652
 4452SOL    HW214256   4.979   6.189   4.799
 4453SOL     OW14257   0.399   3.520   1.185
 4453SOL    HW114258   0.314   3.553   1.144
 4453SOL    HW214259   0.411   3.561   1.275
 4454SOL     OW14260   0.976   2.200   0.641
 4454SOL    HW114261   0.979   2.291   0.601
 4454SOL    HW214262   0.909   2.144   0.593
 4455SOL     OW14263   6.859   6.106   5.039
 4455SOL    HW114264   6.841   6.018   4.997
 4455SOL    HW214265   6.938   6.099   5.101
 4456SOL     OW14266   1.982   6.910   4.231
 4456SOL    HW114267   1.956   6.969   4.309
 4456SOL    HW214268   1.927   6.826   4.234
 4457SOL     OW14269   0.771   2.069   4.945
 4457SOL    HW114270   0.789   2.095   5.040
 4457SOL    HW214271   0.783   1.971   4.934
 4458SOL     OW14272   2.062   3.808   0.715
 4458SOL    HW114273   2.064   3.903   0.685
 4458SOL    HW214274   2.093   3.749   0.640
 4459SOL     OW14275   1.313   2.598   3.719
 4459SOL    HW114276   1.262   2.650   3.651
 4459SOL    HW214277   1.401   2.568   3.680
 4460SOL     OW14278   0.125   3.451   4.477
 4460SOL    HW114279   0.059   3.460   4.403
 4460SOL    HW214280   0.159   3.541   4.503
 4461SOL     OW14281   2.437   0.809   1.263
 4461SOL    HW114282   2.498   0.767   1.196
 4461SOL    HW214283   2.352   0.836   1.219
 4462SOL     OW14284   5.907   4.593   1.964
 4462SOL    HW114285   5.889   4.690   1.980
 4462SOL    HW214286   5.834   4.555   1.908
 4463SOL     OW14287   5.960   2.341   0.760
 4463SOL    HW114288   6.002   2.386   0.840
 4463SOL    HW214289   5.899   2.268   0.791
 4464SOL     OW14290   0.826   5.881   0.072
 4464SOL    HW114291   0.899   5.900   0.006
 4464SOL    HW214292   0.864   5.828   0.148
 4465SOL     OW14293   1.833   5.859   0.749
 4465SOL    HW114294   1.821   5.912   0.665
 4465SOL    HW214295   1.878   5.916   0.818
 4466SOL     OW14296   1.933   2.074   3.445
 4466SOL    HW114297   2.002   2.122   3.391
 4466SOL    HW214298   1.866   2.140   3.480
 4467SOL     OW14299   3.318   5.812   3.135
 4467SOL    HW114300   3.358   5.743   3.075
 4467SOL    HW214301   3.386   5.842   3.202
 4468SOL     OW14302   1.063   3.632   1.682
 4468SOL    HW114303   1.021   3.547   1.711
 4468SOL    HW214304   1.153   3.642   1.725
 4469SOL     OW14305   3.075   6.494   1.020
 4469SOL    HW114306   3.038   6.582   1.049
 4469SOL    HW214307   3.007   6.446   0.965
 4470SOL     OW14308   1.171   0.393   2.243
 4470SOL    HW114309   1.175   0.320   2.175
 4470SOL    HW214310   1.230   0.469   2.213
 4471SOL     OW14311   1.737   1.418   6.078
 4471SOL    HW114312   1.751   1.515   6.058
 4471SOL    HW214313   1.643   1.393   6.055
 4472SOL     OW14314   1.777   3.083   1.181
 4472SOL    HW114315   1.871   3.085   1.146
 4472SOL    HW214316   1.779   3.074   1.281
 4473SOL     OW14317   0.651   3.352   4.607
 4473SOL    HW114318   0.677   3.337   4.703
 4473SOL    HW214319   0.664   3.268   4.555
 4474SOL     OW14320   3.068   0.187   1.346
 4474SOL    HW114321   3.059   0.272   1.294
 4474SOL    HW214322   2.983   0.168   1.395
 4475SOL     OW14323   0.781   3.816   1.322
 4475SOL    HW114324   0.860   3.811   1.383
 4475SOL    HW214325   0.713   3.749   1.350
 4476SOL     OW14326   4.694   1.346   3.986
 4476SOL    HW114327   4.775   1.370   3.933
 4476SOL    HW214328   4.718   1.278   4.055
 4477SOL     OW14329   2.024   0.425   5.725
 4477SOL    HW114330   2.015   0.505   5.665
 4477SOL    HW214331   2.027   0.342   5.669
 4478SOL     OW14332   1.543   0.530   0.026
 4478SOL    HW114333   1.552   0.455   6.984
 4478SOL    HW214334   1.479   0.504   0.098
 4479SOL     OW14335   1.381   3.048   0.634
 4479SOL    HW114336   1.431   2.975   0.587
 4479SOL    HW214337   1.412   3.053   0.729
 4480SOL     OW14338   0.584   6.128   4.153
 4480SOL    HW114339   0.656   6.105   4.088
 4480SOL    HW214340   0.618   6.196   4.218
 4481SOL     OW14341   2.380   4.232   6.355
 4481SOL    HW114342   2.395   4.156   6.292
 4481SOL    HW214343   2.467   4.264   6.390
 4482SOL     OW14344   2.875   5.558   6.674
 4482SOL    HW114345   2.973   5.576   6.690
 4482SOL    HW214346   2.859   5.459   6.671
 4483SOL     OW14347   0.656   3.296   1.558
 4483SOL    HW114348   0.606   3.214   1.530
 4483SOL    HW214349   0.659   3.301   1.658
 4484SOL     OW14350   2.768   2.738   6.951
 4484SOL    HW114351   2.847   2.777   6.999
 4484SOL    HW214352   2.787   2.734   6.853
 4485SOL     OW14353   5.613   2.755   4.877
 4485SOL    HW114354   5.531   2.778   4.930
 4485SOL    HW214355   5.589   2.745   4.781
 4486SOL     OW14356   4.423   5.025   5.407
 4486SOL    HW114357   4.463   5.091   5.469
 4486SOL    HW214358   4.327   5.049   5.388
 4487SOL     OW14359   1.127   2.924   0.465
 4487SOL    HW114360   1.180   2.849   0.504
 4487SOL    HW214361   1.189   2.995   0.431
 4488SOL     OW14362   0.196   3.757   3.877
 4488SOL    HW114363   0.263   3.777   3.950
 4488SOL    HW214364   0.123   3.825   3.880
 4489SOL     OW14365   3.999   5.513   5.715
 4489SOL    HW114366   3.967   5.456   5.639
 4489SOL    HW214367   4.087   5.479   5.748
 4490SOL     OW14368   5.063   1.804   0.739
 4490SOL    HW114369   5.009   1.830   0.659
 4490SOL    HW214370   5.035   1.859   0.818
 4491SOL     OW14371   1.150   2.928   2.993
 4491SOL    HW114372   1.236   2.925   2.942
 4491SOL    HW214373   1.079   2.880   2.943
 4492SOL     OW14374   5.460   0.664   1.534
 4492SOL    HW114375   5.539   0.644   1.591
 4492SOL    HW214376   5.443   0.586   1.473
 4493SOL     OW14377   4.707   1.025   4.959
 4493SOL    HW114378   4.715   0.988   4.867
 4493SOL    HW214379   4.713   1.125   4.955
 4494SOL     OW14380   0.274   0.785   0.766
 4494SOL    HW114381   0.361   0.833   0.751
 4494SOL    HW214382   0.259   0.720   0.692
 4495SOL     OW14383   4.641   5.745   1.791
 4495SOL    HW114384   4.668   5.827   1.841
 4495SOL    HW214385   4.545   5.752   1.764
 4496SOL     OW14386   3.463   6.109   6.534
 4496SOL    HW114387   3.490   6.205   6.524
 4496SOL    HW214388   3.393   6.087   6.466
 4497SOL     OW14389   3.992   1.822   6.306
 4497SOL    HW114390   4.085   1.851   6.281
 4497SOL    HW214391   3.996   1.729   6.342
 4498SOL     OW14392   0.907   5.815   5.525
 4498SOL    HW114393   0.846   5.857   5.592
 4498SOL    HW214394   0.929   5.722   5.555
 4499SOL     OW14395   5.713   1.955   2.154
 4499SOL    HW114396   5.648   1.926   2.084
 4499SOL    HW214397   5.807   1.945   2.119
 4500SOL     OW14398   3.499   5.935   6.980
 4500SOL    HW114399   3.438   5.955   0.034
 4500SOL    HW214400   3.501   6.012   6.917
 4501SOL     OW14401   5.350   0.874   2.614
 4501SOL    HW114402   5.306   0.911   2.696
 4501SOL    HW214403   5.432   0.824   2.641
 4502SOL     OW14404   0.514   3.527   6.859
 4502SOL    HW114405   0.424   3.567   6.842
 4502SOL    HW214406   0.577   3.554   6.786
 4503SOL     OW14407   3.310   6.846   2.590
 4503SOL    HW114408   3.297   6.885   2.499
 4503SOL    HW214409   3.234   6.785   2.613
 4504SOL     OW14410   0.450   1.984   3.057
 4504SOL    HW114411   0.454   2.018   2.963
 4504SOL    HW214412   0.361   1.940   3.072
 4505SOL     OW14413   6.226   4.080   2.957
 4505SOL    HW114414   6.197   4.015   2.887
 4505SOL    HW214415   6.161   4.079   3.033
 4506SOL     OW14416   4.838   3.118   4.831
 4506SOL    HW114417   4.768   3.141   4.898
 4506SOL    HW214418   4.923   3.096   4.879
 4507SOL     OW14419   6.248   2.935   3.455
 4507SOL    HW114420   6.289   3.023   3.431
 4507SOL    HW214421   6.212   2.939   3.548
 4508SOL     OW14422   0.330   5.356   0.767
 4508SOL    HW114423   0.388   5.404   0.701
 4508SOL    HW214424   0.236   5.388   0.757
 4509SOL     OW14425   4.666   2.784   2.458
 4509SOL    HW114426   4.611   2.707   2.492
 4509SOL    HW214427   4.715   2.755   2.376
 4510SOL     OW14428   4.337   1.209   4.548
 4510SOL    HW114429   4.427   1.248   4.527
 4510SOL    HW214430   4.287   1.271   4.608
 4511SOL     OW14431   0.435   4.165   0.747
 4511SOL    HW114432   0.377   4.094   0.787
 4511SOL    HW214433   0.524   4.164   0.792
 4512SOL     OW14434   3.077   2.569   6.118
 4512SOL    HW114435   3.045   2.490   6.169
 4512SOL    HW214436   3.102   2.642   6.182
 4513SOL     OW14437   1.438   6.534   0.468
 4513SOL    HW114438   1.430   6.435   0.477
 4513SOL    HW214439   1.350   6.577   0.488
 4514SOL     OW14440   3.012   3.527   6.951
 4514SOL    HW114441   3.008   3.577   6.864
 4514SOL    HW214442   2.950   3.570   7.016
 4515SOL     OW14443   4.079   0.150   6.361
 4515SOL    HW114444   3.983   0.153   6.330
 4515SOL    HW214445   4.093   0.219   6.431
 4516SOL     OW14446   3.600   1.559   5.026
 4516SOL    HW114447   3.667   1.509   4.972
 4516SOL    HW214448   3.647   1.617   5.093
 4517SOL     OW14449   3.700   0.436   5.833
 4517SOL    HW114450   3.657   0.409   5.919
 4517SOL    HW214451   3.630   0.451   5.763
 4518SOL     OW14452   1.643   0.432   1.110
 4518SOL    HW114453   1.733   0.455   1.074
 4518SOL    HW214454   1.645   0.435   1.210
 4519SOL     OW14455   5.315   6.430   6.537
 4519SOL    HW114456   5.379   6.442   6.613
 4519SOL    HW214457   5.362   6.445   6.450
 4520SOL     OW14458   4.639   6.911   5.047
 4520SOL    HW114459   4.544   6.881   5.049
 4520SOL    HW214460   4.696   6.842   5.092
 4521SOL     OW14461   4.578   2.467   4.601
 4521SOL    HW114462   4.480   2.448   4.593
 4521SOL    HW214463   4.618   2.407   4.670
 4522SOL     OW14464   5.067   4.378   3.593
 4522SOL    HW114465   5.125   4.447   3.549
 4522SOL    HW214466   5.123   4.299   3.618
 4523SOL     OW14467   0.104   3.128   6.241
 4523SOL    HW114468   0.173   3.057   6.257
 4523SOL    HW214469   0.123   3.207   6.300
 4524SOL     OW14470   0.854   3.067   2.812
 4524SOL    HW114471   0.909   3.147   2.786
 4524SOL    HW214472   0.760   3.079   2.780
 4525SOL     OW14473   2.997   1.744   5.628
 4525SOL    HW114474   2.900   1.740   5.605
 4525SOL    HW214475   3.050   1.769   5.547
 4526SOL     OW14476   0.203   6.824   5.700
 4526SOL    HW114477   0.276   6.840   5.633
 4526SOL    HW214478   0.176   6.727   5.698
 4527SOL     OW14479   6.427   0.487   2.939
 4527SOL    HW114480   6.418   0.525   3.031
 4527SOL    HW214481   6.524   0.487   2.913
 4528SOL     OW14482   4.005   0.771   5.349
 4528SOL    HW114483   3.918   0.785   5.396
 4528SOL    HW214484   4.010   0.678   5.313
 4529SOL     OW14485   2.512   1.182   5.352
 4529SOL    HW114486   2.567   1.177   5.269
 4529SOL    HW214487   2.473   1.274   5.361
 4530SOL     OW14488   3.153   5.604   5.279
 4530SOL    HW114489   3.229   5.663   5.251
 4530SOL    HW214490   3.186   5.536   5.345
 4531SOL     OW14491   0.818   4.879   5.933
 4531SOL    HW114492   0.894   4.908   5.991
 4531SOL    HW214493   0.810   4.941   5.855
 4532SOL     OW14494   5.748   0.558   2.855
 4532SOL    HW114495   5.733   0.460   2.842
 4532SOL    HW214496   5.819   0.571   2.925
 4533SOL     OW14497   2.825   0.570   2.412
 4533SOL    HW114498   2.779   0.659   2.410
 4533SOL    HW214499   2.765   0.502   2.455
 4534SOL     OW14500   4.716   1.704   4.261
 4534SOL    HW114501   4.622   1.737   4.268
 4534SOL    HW214502   4.778   1.772   4.301
 4535SOL     OW14503   2.564   1.760   0.911
 4535SOL    HW114504   2.480   1.785   0.960
 4535SOL    HW214505   2.572   1.660   0.907
 4536SOL     OW14506   2.612   1.249   5.755
 4536SOL    HW114507   2.607   1.181   5.681
 4536SOL    HW214508   2.708   1.263   5.780
 4537SOL     OW14509   3.453   2.868   3.770
 4537SOL    HW114510   3.358   2.883   3.741
 4537SOL    HW214511   3.456   2.860   3.870
 4538SOL     OW14512   0.259   2.398   0.371
 4538SOL    HW114513   0.185   2.331   0.370
 4538SOL    HW214514   0.339   2.360   0.418
 4539SOL     OW14515   1.298   5.975   5.195
 4539SOL    HW114516   1.262   5.900   5.252
 4539SOL    HW214517   1.376   5.942   5.143
 4540SOL     OW14518   0.572   0.685   0.015
 4540SOL    HW114519   0.498   0.703   6.972
 4540SOL    HW214520   0.658   0.716   6.999
 4541SOL     OW14521   4.488   2.854   5.864
 4541SOL    HW114522   4.466   2.773   5.810
 4541SOL    HW214523   4.585   2.876   5.853
 4542SOL     OW14524   6.720   2.394   1.422
 4542SOL    HW114525   6.733   2.441   1.509
 4542SOL    HW214526   6.806   2.354   1.392
 4543SOL     OW14527   3.648   2.294   0.032
 4543SOL    HW114528   3.646   2.344   0.119
 4543SOL    HW214529   3.651   2.196   0.051
 4544SOL     OW14530   5.670   5.748   0.881
 4544SOL    HW114531   5.631   5.779   0.794
 4544SOL    HW214532   5.743   5.682   0.863
 4545SOL     OW14533   1.939   3.070   5.296
 4545SOL    HW114534   1.981   2.998   5.351
 4545SOL    HW214535   2.005   3.101   5.227
 4546SOL     OW14536   3.501   1.561   6.746
 4546SOL    HW114537   3.442   1.492   6.789
 4546SOL    HW214538   3.543   1.523   6.664
 4547SOL     OW14539   6.701   0.181   0.065
 4547SOL    HW114540   6.724   0.084   0.073
 4547SOL    HW214541   6.757   0.233   0.129
 4548SOL     OW14542   2.278   2.674   2.763
 4548SOL    HW114543   2.263   2.655   2.666
 4548SOL    HW214544   2.335   2.603   2.802
 4549SOL     OW14545   5.878   3.621   3.929
 4549SOL    HW114546   5.919   3.703   3.889
 4549SOL    HW214547   5.782   3.614   3.903
 4550SOL     OW14548   1.146   4.184   3.044
 4550SOL    HW114549   1.072   4.239   3.004
 4550SOL    HW214550   1.118   4.151   3.134
 4551SOL     OW14551   1.176   3.563   4.533
 4551SOL    HW114552   1.117   3.485   4.556
 4551SOL    HW214553   1.268   3.545   4.567
 4552SOL     OW14554   5.675   1.234   1.527
 4552SOL    HW114555   5.754   1.173   1.517
 4552SOL    HW214556   5.696   1.306   1.593
 4553SOL     OW14557   6.101   5.241   6.345
 4553SOL    HW114558   6.100   5.193   6.433
 4553SOL    HW214559   6.081   5.175   6.272
 4554SOL     OW14560   0.250   6.117   2.856
 4554SOL    HW114561   0.294   6.195   2.812
 4554SOL    HW214562   0.255   6.127   2.955
 4555SOL     OW14563   1.372   1.076   6.360
 4555SOL    HW114564   1.438   1.049   6.290
 4555SOL    HW214565   1.333   1.165   6.337
 4556SOL     OW14566   5.715   4.066   6.058
 4556SOL    HW114567   5.748   4.094   5.968
 4556SOL    HW214568   5.792   4.059   6.121
 4557SOL     OW14569   6.360   5.163   2.876
 4557SOL    HW114570   6.288   5.144   2.810
 4557SOL    HW214571   6.381   5.080   2.927
 4558SOL     OW14572   6.740   3.543   5.451
 4558SOL    HW114573   6.839   3.551   5.438
 4558SOL    HW214574   6.714   3.589   5.535
 4559SOL     OW14575   6.876   2.530   2.545
 4559SOL    HW114576   6.940   2.548   2.470
 4559SOL    HW214577   6.897   2.590   2.622
 4560SOL     OW14578   5.767   4.986   2.800
 4560SOL    HW114579   5.772   5.054   2.727
 4560SOL    HW214580   5.671   4.969   2.823
 4561SOL     OW14581   3.716   2.077   4.564
 4561SOL    HW114582   3.685   2.105   4.655
 4561SOL    HW214583   3.651   2.011   4.526
 4562SOL     OW14584   2.553   1.352   1.112
 4562SOL    HW114585   2.622   1.346   1.184
 4562SOL    HW214586   2.598   1.377   1.026
 4563SOL     OW14587   0.450   3.887   1.482
 4563SOL    HW114588   0.507   3.946   1.539
 4563SOL    HW214589   0.374   3.941   1.445
 4564SOL     OW14590   0.496   3.840   2.064
 4564SOL    HW114591   0.483   3.938   2.077
 4564SOL    HW214592   0.577   3.810   2.114
 4565SOL     OW14593   1.694   6.116   5.639
 4565SOL    HW114594   1.745   6.112   5.724
 4565SOL    HW214595   1.748   6.076   5.565
 4566SOL     OW14596   5.988   4.287   1.652
 4566SOL    HW114597   5.896   4.313   1.681
 4566SOL    HW214598   6.041   4.255   1.731
 4567SOL     OW14599   0.367   0.739   6.488
 4567SOL    HW114600   0.351   0.655   6.540
 4567SOL    HW214601   0.452   0.730   6.435
 4568SOL     OW14602   0.842   5.419   3.283
 4568SOL    HW114603   0.824   5.322   3.303
 4568SOL    HW214604   0.825   5.437   3.186
 4569SOL     OW14605   2.228   0.892   3.246
 4569SOL    HW114606   2.192   0.901   3.339
 4569SOL    HW214607   2.161   0.930   3.181
 4570SOL     OW14608   5.867   5.901   1.946
 4570SOL    HW114609   5.768   5.920   1.951
 4570SOL    HW214610   5.904   5.939   1.862
 4571SOL     OW14611   2.964   3.612   6.287
 4571SOL    HW114612   3.036   3.546   6.266
 4571SOL    HW214613   3.003   3.702   6.303
 4572SOL     OW14614   2.674   2.934   1.638
 4572SOL    HW114615   2.701   2.995   1.563
 4572SOL    HW214616   2.698   2.840   1.615
 4573SOL     OW14617   2.018   5.937   1.394
 4573SOL    HW114618   2.021   5.942   1.494
 4573SOL    HW214619   2.015   6.030   1.356
 4574SOL     OW14620   6.155   1.640   0.762
 4574SOL    HW114621   6.191   1.716   0.708
 4574SOL    HW214622   6.126   1.566   0.701
 4575SOL     OW14623   6.725   6.567   4.799
 4575SOL    HW114624   6.631   6.535   4.794
 4575SOL    HW214625   6.772   6.523   4.875
 4576SOL     OW14626   2.776   5.261   5.002
 4576SOL    HW114627   2.682   5.238   4.977
 4576SOL    HW214628   2.839   5.195   4.960
 4577SOL     OW14629   2.214   1.320   2.839
 4577SOL    HW114630   2.262   1.398   2.800
 4577SOL    HW214631   2.225   1.321   2.938
 4578SOL     OW14632   1.055   0.938   1.981
 4578SOL    HW114633   1.120   0.937   1.905
 4578SOL    HW214634   1.029   0.844   2.004
 4579SOL     OW14635   3.521   1.674   2.198
 4579SOL    HW114636   3.426   1.703   2.202
 4579SOL    HW214637   3.563   1.708   2.114
 4580SOL     OW14638   0.013   2.712   0.262
 4580SOL    HW114639   0.044   2.793   0.313
 4580SOL    HW214640   6.977   2.741   0.187
 4581SOL     OW14641   3.535   0.425   1.651
 4581SOL    HW114642   3.492   0.513   1.632
 4581SOL    HW214643   3.493   0.383   1.731
 4582SOL     OW14644   5.972   1.154   3.468
 4582SOL    HW114645   6.017   1.117   3.387
 4582SOL    HW214646   6.022   1.127   3.550
 4583SOL     OW14647   1.499   6.690   6.707
 4583SOL    HW114648   1.487   6.736   6.619
 4583SOL    HW214649   1.594   6.659   6.716
 4584SOL     OW14650   1.613   0.645   5.487
 4584SOL    HW114651   1.651   0.558   5.454
 4584SOL    HW214652   1.514   0.636   5.496
 4585SOL     OW14653   1.424   3.557   3.205
 4585SOL    HW114654   1.510   3.599   3.175
 4585SOL    HW214655   1.438   3.458   3.215
 4586SOL     OW14656   5.566   4.609   6.464
 4586SOL    HW114657   5.658   4.602   6.503
 4586SOL    HW214658   5.555   4.699   6.421
 4587SOL     OW14659   3.220   3.635   4.556
 4587SOL    HW114660   3.203   3.563   4.489
 4587SOL    HW214661   3.135   3.656   4.605
 4588SOL     OW14662   2.950   4.053   5.914
 4588SOL    HW114663   2.866   4.103   5.895
 4588SOL    HW214664   2.975   3.998   5.834
 4589SOL     OW14665   5.381   6.927   2.412
 4589SOL    HW114666   5.293   6.962   2.443
 4589SOL    HW214667   5.440   7.004   2.387
 4590SOL     OW14668   3.301   5.272   1.786
 4590SOL    HW114669   3.325   5.272   1.689
 4590SOL    HW214670   3.243   5.193   1.806
 4591SOL     OW14671   1.985   0.190   5.575
 4591SOL    HW114672   1.941   0.106   5.607
 4591SOL    HW214673   1.976   0.197   5.476
 4592SOL     OW14674   2.039   1.484   3.905
 4592SOL    HW114675   2.127   1.439   3.916
 4592SOL    HW214676   2.032   1.559   3.972
 4593SOL     OW14677   1.220   6.383   4.374
 4593SOL    HW114678   1.134   6.427   4.348
 4593SOL    HW214679   1.265   6.346   4.293
 4594SOL     OW14680   1.763   0.464   2.835
 4594SOL    HW114681   1.816   0.439   2.754
 4594SOL    HW214682   1.824   0.475   2.914
 4595SOL     OW14683   5.276   1.685   6.110
 4595SOL    HW114684   5.179   1.677   6.090
 4595SOL    HW214685   5.308   1.776   6.083
 4596SOL     OW14686   0.537   0.991   2.449
 4596SOL    HW114687   0.475   1.062   2.483
 4596SOL    HW214688   0.619   1.034   2.411
 4597SOL     OW14689   2.445   6.164   6.769
 4597SOL    HW114690   2.442   6.071   6.731
 4597SOL    HW214691   2.514   6.169   6.841
 4598SOL     OW14692   2.274   5.523   6.946
 4598SOL    HW114693   2.320   5.593   7.001
 4598SOL    HW214694   2.184   5.504   6.985
 4599SOL     OW14695   2.450   5.145   3.424
 4599SOL    HW114696   2.403   5.129   3.511
 4599SOL    HW214697   2.388   5.193   3.362
 4600SOL     OW14698   6.946   6.020   6.348
 4600SOL    HW114699   6.909   6.109   6.322
 4600SOL    HW214700   6.889   5.947   6.311
 4601SOL     OW14701   1.450   1.348   5.015
 4601SOL    HW114702   1.378   1.281   5.029
 4601SOL    HW214703   1.514   1.315   4.945
 4602SOL     OW14704   2.802   2.389   6.923
 4602SOL    HW114705   2.874   2.333   6.966
 4602SOL    HW214706   2.714   2.366   6.964
 4603SOL     OW14707   4.960   6.523   1.095
 4603SOL    HW114708   4.913   6.566   1.173
 4603SOL    HW214709   4.906   6.537   1.012
 4604SOL     OW14710   5.055   0.101   5.751
 4604SOL    HW114711   5.076   0.174   5.684
 4604SOL    HW214712   4.961   0.069   5.736
 4605SOL     OW14713   3.466   0.059   2.223
 4605SOL    HW114714   3.377   0.034   2.186
 4605SOL    HW214715   3.496   7.011   2.288
 4606SOL     OW14716   6.672   6.604   4.095
 4606SOL    HW114717   6.630   6.531   4.150
 4606SOL    HW214718   6.645   6.693   4.131
 4607SOL     OW14719   1.903   2.964   2.056
 4607SOL    HW114720   1.879   2.868   2.067
 4607SOL    HW214721   1.823   3.021   2.073
 4608SOL     OW14722   0.352   3.237   4.400
 4608SOL    HW114723   0.275   3.290   4.436
 4608SOL    HW214724   0.425   3.234   4.469
 4609SOL     OW14725   4.496   6.284   0.024
 4609SOL    HW114726   4.569   6.352   0.013
 4609SOL    HW214727   4.417   6.328   0.068
 4610SOL     OW14728   5.446   2.628   0.386
 4610SOL    HW114729   5.536   2.588   0.368
 4610SOL    HW214730   5.439   2.651   0.484
 4611SOL     OW14731   1.260   0.387   6.110
 4611SOL    HW114732   1.195   0.416   6.040
 4611SOL    HW214733   1.246   0.441   6.193
 4612SOL     OW14734   2.064   0.040   1.541
 4612SOL    HW114735   2.014   6.983   1.505
 4612SOL    HW214736   2.128   0.073   1.471
 4613SOL     OW14737   1.636   4.810   1.895
 4613SOL    HW114738   1.652   4.840   1.801
 4613SOL    HW214739   1.700   4.737   1.918
 4614SOL     OW14740   6.729   3.693   4.331
 4614SOL    HW114741   6.691   3.785   4.316
 4614SOL    HW214742   6.654   3.630   4.352
 4615SOL     OW14743   0.658   2.215   0.692
 4615SOL    HW114744   0.636   2.194   0.788
 4615SOL    HW214745   0.693   2.133   0.648
 4616SOL     OW14746   6.297   2.808   4.922
 4616SOL    HW114747   6.334   2.775   5.009
 4616SOL    HW214748   6.221   2.870   4.939
 4617SOL     OW14749   0.413   2.359   2.725
 4617SOL    HW114750   0.362   2.305   2.658
 4617SOL    HW214751   0.381   2.337   2.817
 4618SOL     OW14752   2.059   4.656   5.899
 4618SOL    HW114753   2.109   4.741   5.886
 4618SOL    HW214754   2.050   4.609   5.811
 4619SOL     OW14755   3.652   6.569   5.279
 4619SOL    HW114756   3.612   6.478   5.270
 4619SOL    HW214757   3.695   6.579   5.369
 4620SOL     OW14758   1.533   5.506   2.745
 4620SOL    HW114759   1.561   5.536   2.836
 4620SOL    HW214760   1.595   5.435   2.713
 4621SOL     OW14761   4.761   0.648   2.046
 4621SOL    HW114762   4.847   0.698   2.031
 4621SOL    HW214763   4.687   0.713   2.062
 4622SOL     OW14764   4.703   5.553   1.359
 4622SOL    HW114765   4.778   5.607   1.398
 4622SOL    HW214766   4.645   5.517   1.432
 4623SOL     OW14767   2.801   4.933   1.264
 4623SOL    HW114768   2.779   4.948   1.360
 4623SOL    HW214769   2.766   4.843   1.235
 4624SOL     OW14770   4.249   1.577   2.160
 4624SOL    HW114771   4.172   1.535   2.208
 4624SOL    HW214772   4.334   1.556   2.207
 4625SOL     OW14773   1.874   5.542   1.342
 4625SOL    HW114774   1.812   5.469   1.371
 4625SOL    HW214775   1.914   5.518   1.253
 4626SOL     OW14776   4.083   3.830   2.146
 4626SOL    HW114777   4.156   3.897   2.133
 4626SOL    HW214778   3.995   3.870   2.122
 4627SOL     OW14779   5.716   6.488   5.020
 4627SOL    HW114780   5.807   6.530   5.016
 4627SOL    HW214781   5.646   6.559   5.018
 4628SOL     OW14782   5.797   5.122   3.822
 4628SOL    HW114783   5.735   5.069   3.764
 4628SOL    HW214784   5.768   5.218   3.823
 4629SOL     OW14785   2.235   6.296   6.570
 4629SOL    HW114786   2.178   6.230   6.521
 4629SOL    HW214787   2.204   6.302   6.665
 4630SOL     OW14788   1.538   3.469   2.181
 4630SOL    HW114789   1.528   3.370   2.184
 4630SOL    HW214790   1.586   3.495   2.098
 4631SOL     OW14791   0.644   0.243   3.398
 4631SOL    HW114792   0.691   0.205   3.319
 4631SOL    HW214793   0.579   0.313   3.367
 4632SOL     OW14794   3.318   4.924   2.669
 4632SOL    HW114795   3.234   4.890   2.627
 4632SOL    HW214796   3.397   4.895   2.615
 4633SOL     OW14797   4.857   0.951   4.318
 4633SOL    HW114798   4.904   0.897   4.249
 4633SOL    HW214799   4.924   0.993   4.379
 4634SOL     OW14800   2.941   3.758   4.775
 4634SOL    HW114801   2.938   3.660   4.796
 4634SOL    HW214802   2.946   3.809   4.861
 4635SOL     OW14803   5.156   6.049   0.765
 4635SOL    HW114804   5.142   5.985   0.690
 4635SOL    HW214805   5.207   6.129   0.732
 4636SOL     OW14806   1.996   5.610   0.717
 4636SOL    HW114807   1.940   5.693   0.718
 4636SOL    HW214808   2.084   5.630   0.674
 4637SOL     OW14809   2.474   0.658   2.284
 4637SOL    HW114810   2.550   0.694   2.338
 4637SOL    HW214811   2.433   0.581   2.332
 4638SOL     OW14812   3.086   4.972   6.884
 4638SOL    HW114813   3.071   5.062   6.925
 4638SOL    HW214814   3.184   4.957   6.871
 4639SOL     OW14815   2.131   2.302   1.366
 4639SOL    HW114816   2.094   2.209   1.363
 4639SOL    HW214817   2.104   2.346   1.451
 4640SOL     OW14818   6.429   2.853   6.098
 4640SOL    HW114819   6.503   2.918   6.079
 4640SOL    HW214820   6.343   2.889   6.062
 4641SOL     OW14821   0.593   5.560   4.356
 4641SOL    HW114822   0.673   5.557   4.416
 4641SOL    HW214823   0.511   5.579   4.409
 4642SOL     OW14824   0.626   1.671   3.294
 4642SOL    HW114825   0.567   1.606   3.341
 4642SOL    HW214826   0.711   1.683   3.345
 4643SOL     OW14827   0.146   1.717   0.123
 4643SOL    HW114828   0.126   1.813   0.141
 4643SOL    HW214829   0.245   1.701   0.134
 4644SOL     OW14830   1.053   1.103   0.552
 4644SOL    HW114831   1.082   1.148   0.637
 4644SOL    HW214832   1.050   1.169   0.478
 4645SOL     OW14833   1.218   1.662   3.906
 4645SOL    HW114834   1.294   1.603   3.878
 4645SOL    HW214835   1.254   1.751   3.935
 4646SOL     OW14836   1.924   4.925   3.575
 4646SOL    HW114837   2.014   4.890   3.600
 4646SOL    HW214838   1.898   4.888   3.486
 4647SOL     OW14839   1.386   6.727   2.731
 4647SOL    HW114840   1.354   6.687   2.645
 4647SOL    HW214841   1.405   6.654   2.797
 4648SOL     OW14842   2.560   1.323   4.576
 4648SOL    HW114843   2.615   1.365   4.648
 4648SOL    HW214844   2.607   1.330   4.488
 4649SOL     OW14845   5.863   0.327   0.536
 4649SOL    HW114846   5.896   0.353   0.446
 4649SOL    HW214847   5.838   0.409   0.588
 4650SOL     OW14848   5.411   6.076   1.303
 4650SOL    HW114849   5.326   6.030   1.326
 4650SOL    HW214850   5.421   6.082   1.204
 4651SOL     OW14851   6.076   3.314   6.228
 4651SOL    HW114852   6.126   3.332   6.312
 4651SOL    HW214853   5.979   3.300   6.249
 4652SOL     OW14854   0.301   6.259   4.157
 4652SOL    HW114855   0.251   6.190   4.209
 4652SOL    HW214856   0.394   6.226   4.139
 4653SOL     OW14857   5.395   5.616   0.603
 4653SOL    HW114858   5.425   5.553   0.531
 4653SOL    HW214859   5.319   5.575   0.653
 4654SOL     OW14860   0.258   6.635   5.119
 4654SOL    HW114861   0.167   6.670   5.099
 4654SOL    HW214862   0.326   6.698   5.083
 4655SOL     OW14863   4.526   2.693   0.971
 4655SOL    HW114864   4.580   2.683   1.054
 4655SOL    HW214865   4.555   2.775   0.922
 4656SOL     OW14866   1.125   1.239   1.228
 4656SOL    HW114867   1.088   1.332   1.225
 4656SOL    HW214868   1.050   1.173   1.218
 4657SOL     OW14869   5.709   6.867   1.892
 4657SOL    HW114870   5.655   6.843   1.973
 4657SOL    HW214871   5.648   6.900   1.820
 4658SOL     OW14872   2.550   2.621   6.031
 4658SOL    HW114873   2.570   2.699   6.090
 4658SOL    HW214874   2.613   2.546   6.054
 4659SOL     OW14875   3.384   4.914   0.494
 4659SOL    HW114876   3.346   4.909   0.401
 4659SOL    HW214877   3.310   4.932   0.559
 4660SOL     OW14878   1.342   6.610   3.938
 4660SOL    HW114879   1.370   6.706   3.935
 4660SOL    HW214880   1.421   6.552   3.954
 4661SOL     OW14881   0.887   2.869   5.225
 4661SOL    HW114882   0.864   2.773   5.205
 4661SOL    HW214883   0.897   2.881   5.324
 4662SOL     OW14884   2.492   6.178   4.685
 4662SOL    HW114885   2.499   6.092   4.735
 4662SOL    HW214886   2.447   6.247   4.742
 4663SOL     OW14887   1.646   7.002   0.574
 4663SOL    HW114888   1.727   0.015   0.621
 4663SOL    HW214889   1.565   7.018   0.631
 4664SOL     OW14890   6.262   6.046   6.849
 4664SOL    HW114891   6.206   5.964   6.860
 4664SOL    HW214892   6.326   6.033   6.773
 4665SOL     OW14893   2.152   0.433   4.548
 4665SOL    HW114894   2.170   0.516   4.601
 4665SOL    HW214895   2.055   0.431   4.522
 4666SOL     OW14896   1.985   1.814   5.771
 4666SOL    HW114897   2.022   1.903   5.797
 4666SOL    HW214898   2.052   1.742   5.791
 4667SOL     OW14899   6.527   3.659   1.294
 4667SOL    HW114900   6.464   3.582   1.294
 4667SOL    HW214901   6.488   3.734   1.347
 4668SOL     OW14902   4.315   2.403   4.485
 4668SOL    HW114903   4.383   2.449   4.427
 4668SOL    HW214904   4.252   2.352   4.428
 4669SOL     OW14905   5.351   6.702   6.867
 4669SOL    HW114906   5.373   6.605   6.876
 4669SOL    HW214907   5.430   6.757   6.896
 4670SOL     OW14908   0.799   3.368   0.726
 4670SOL    HW114909   0.874   3.308   0.700
 4670SOL    HW214910   0.789   3.368   0.826
 4671SOL     OW14911   0.146   3.822   0.140
 4671SOL    HW114912   0.190   3.901   0.182
 4671SOL    HW214913   0.182   3.809   0.048
 4672SOL     OW14914   3.107   4.150   6.144
 4672SOL    HW114915   3.106   4.064   6.195
 4672SOL    HW214916   3.078   4.134   6.050
 4673SOL     OW14917   5.814   0.278   6.706
 4673SOL    HW114918   5.889   0.236   6.655
 4673SOL    HW214919   5.831   0.377   6.715
 4674SOL     OW14920   1.097   2.022   0.813
 4674SOL    HW114921   1.011   1.975   0.793
 4674SOL    HW214922   1.108   2.100   0.752
 4675SOL     OW14923   2.604   6.455   0.176
 4675SOL    HW114924   2.700   6.430   0.164
 4675SOL    HW214925   2.577   6.439   0.271
 4676SOL     OW14926   0.597   6.155   3.786
 4676SOL    HW114927   0.601   6.066   3.740
 4676SOL    HW214928   0.503   6.189   3.786
 4677SOL     OW14929   4.445   0.606   6.653
 4677SOL    HW114930   4.396   0.693   6.647
 4677SOL    HW214931   4.544   0.624   6.654
 4678SOL     OW14932   2.326   4.783   0.082
 4678SOL    HW114933   2.272   4.807   0.163
 4678SOL    HW214934   2.375   4.698   0.098
 4679SOL     OW14935   3.183   0.884   6.357
 4679SOL    HW114936   3.166   0.955   6.425
 4679SOL    HW214937   3.271   0.901   6.313
 4680SOL     OW14938   2.081   4.871   0.547
 4680SOL    HW114939   1.987   4.904   0.543
 4680SOL    HW214940   2.136   4.930   0.606
 4681SOL     OW14941   6.963   5.359   5.449
 4681SOL    HW114942   6.865   5.353   5.431
 4681SOL    HW214943   6.978   5.369   5.548
 4682SOL     OW14944   4.252   6.474   0.798
 4682SOL    HW114945   4.314   6.533   0.745
 4682SOL    HW214946   4.279   6.476   0.894
 4683SOL     OW14947   6.006   4.506   2.775
 4683SOL    HW114948   6.104   4.495   2.794
 4683SOL    HW214949   5.973   4.590   2.819
 4684SOL     OW14950   1.732   1.832   4.764
 4684SOL    HW114951   1.780   1.745   4.757
 4684SOL    HW214952   1.677   1.833   4.848
 4685SOL     OW14953   5.274   5.175   4.898
 4685SOL    HW114954   5.177   5.196   4.887
 4685SOL    HW214955   5.301   5.190   4.993
 4686SOL     OW14956   4.541   5.976   6.529
 4686SOL    HW114957   4.624   5.967   6.584
 4686SOL    HW214958   4.521   6.073   6.514
 4687SOL     OW14959   6.538   5.453   4.515
 4687SOL    HW114960   6.525   5.521   4.587
 4687SOL    HW214961   6.498   5.366   4.544
 4688SOL     OW14962   0.209   2.946   6.777
 4688SOL    HW114963   0.308   2.939   6.793
 4688SOL    HW214964   0.162   2.878   6.833
 4689SOL     OW14965   0.296   6.189   5.202
 4689SOL    HW114966   0.378   6.133   5.192
 4689SOL    HW214967   0.322   6.284   5.222
 4690SOL     OW14968   1.625   1.778   7.008
 4690SOL    HW114969   1.561   1.702   7.014
 4690SOL    HW214970   1.576   1.861   6.980
 4691SOL     OW14971   2.423   5.142   0.963
 4691SOL    HW114972   2.367   5.222   0.987
 4691SOL    HW214973   2.461   5.103   1.047
 4692SOL     OW14974   0.258   5.166   3.521
 4692SOL    HW114975   0.168   5.175   3.564
 4692SOL    HW214976   0.247   5.168   3.421
 4693SOL     OW14977   0.395   1.135   4.033
 4693SOL    HW114978   0.423   1.222   4.073
 4693SOL    HW214979   0.365   1.073   4.105
 4694SOL     OW14980   1.890   1.853   6.975
 4694SOL    HW114981   1.802   1.807   6.982
 4694SOL    HW214982   1.963   1.788   6.991
 4695SOL     OW14983   3.718   3.040   2.169
 4695SOL    HW114984   3.813   3.011   2.155
 4695SOL    HW214985   3.713   3.098   2.250
 4696SOL     OW14986   6.784   2.848   6.170
 4696SOL    HW114987   6.761   2.762   6.214
 4696SOL    HW214988   6.826   2.910   6.237
 4697SOL     OW14989   0.951   4.957   0.237
 4697SOL    HW114990   1.046   4.925   0.237
 4697SOL    HW214991   0.890   4.880   0.251
 4698SOL     OW14992   5.713   3.537   0.961
 4698SOL    HW114993   5.703   3.455   1.016
 4698SOL    HW214994   5.672   3.522   0.871
 4699SOL     OW14995   6.943   0.401   2.647
 4699SOL    HW114996   6.863   0.363   2.692
 4699SOL    HW214997   6.948   0.366   2.553
 4700SOL     OW14998   5.075   1.461   0.954
 4700SOL    HW114999   5.118   1.492   0.869
 4700SOL    HW215000   5.025   1.376   0.936
 4701SOL     OW15001   0.595   0.913   0.604
 4701SOL    HW115002   0.512   0.958   0.636
 4701SOL    HW215003   0.675   0.956   0.647
 4702SOL     OW15004   3.595   3.648   0.481
 4702SOL    HW115005   3.570   3.559   0.444
 4702SOL    HW215006   3.674   3.638   0.542
 4703SOL     OW15007   2.157   0.710   2.457
 4703SOL    HW115008   2.170   0.695   2.555
 4703SOL    HW215009   2.210   0.789   2.428
 4704SOL     OW15010   5.919   6.759   1.074
 4704SOL    HW115011   5.989   6.746   1.004
 4704SOL    HW215012   5.873   6.847   1.059
 4705SOL     OW15013   3.424   3.731   3.911
 4705SOL    HW115014   3.522   3.747   3.925
 4705SOL    HW215015   3.372   3.800   3.962
 4706SOL     OW15016   4.281   5.737   6.973
 4706SOL    HW115017   4.381   5.727   6.970
 4706SOL    HW215018   4.241   5.698   6.890
 4707SOL     OW15019   2.850   5.386   0.602
 4707SOL    HW115020   2.772   5.434   0.641
 4707SOL    HW215021   2.840   5.381   0.503
 4708SOL     OW15022   2.458   2.297   1.786
 4708SOL    HW115023   2.522   2.374   1.785
 4708SOL    HW215024   2.506   2.213   1.764
 4709SOL     OW15025   4.259   4.887   5.610
 4709SOL    HW115026   4.310   4.908   5.527
 4709SOL    HW215027   4.183   4.951   5.620
 4710SOL     OW15028   4.329   1.271   0.117
 4710SOL    HW115029   4.308   1.275   0.215
 4710SOL    HW215030   4.417   1.224   0.104
 4711SOL     OW15031   3.153   0.549   2.405
 4711SOL    HW115032   3.070   0.518   2.359
 4711SOL    HW215033   3.208   0.469   2.432
 4712SOL     OW15034   2.129   4.576   0.376
 4712SOL    HW115035   2.147   4.573   0.475
 4712SOL    HW215036   2.154   4.666   0.341
 4713SOL     OW15037   1.590   5.411   0.676
 4713SOL    HW115038   1.659   5.395   0.746
 4713SOL    HW215039   1.589   5.507   0.651
 4714SOL     OW15040   2.757   2.147   1.331
 4714SOL    HW115041   2.688   2.107   1.270
 4714SOL    HW215042   2.822   2.201   1.277
 4715SOL     OW15043   6.998   2.870   3.574
 4715SOL    HW115044   0.033   2.822   3.641
 4715SOL    HW215045   6.926   2.809   3.542
 4716SOL     OW15046   3.370   5.821   0.331
 4716SOL    HW115047   3.437   5.761   0.287
 4716SOL    HW215048   3.282   5.774   0.337
 4717SOL     OW15049   1.238   6.118   3.385
 4717SOL    HW115050   1.317   6.075   3.342
 4717SOL    HW215051   1.154   6.077   3.350
 4718SOL     OW15052   6.043   0.867   6.165
 4718SOL    HW115053   6.060   0.885   6.068
 4718SOL    HW215054   5.960   0.914   6.194
 4719SOL     OW15055   4.245   3.460   1.233
 4719SOL    HW115056   4.330   3.472   1.285
 4719SOL    HW215057   4.169   3.502   1.283
 4720SOL     OW15058   2.204   0.613   5.582
 4720SOL    HW115059   2.247   0.703   5.590
 4720SOL    HW215060   2.268   0.542   5.610
 4721SOL     OW15061   1.668   2.129   1.742
 4721SOL    HW115062   1.591   2.084   1.699
 4721SOL    HW215063   1.751   2.112   1.689
 4722SOL     OW15064   2.206   0.147   0.736
 4722SOL    HW115065   2.182   0.135   0.640
 4722SOL    HW215066   2.167   0.234   0.769
 4723SOL     OW15067   2.567   6.978   0.151
 4723SOL    HW115068   2.535   0.029   0.091
 4723SOL    HW215069   2.641   6.928   0.105
 4724SOL     OW15070   3.918   6.869   1.975
 4724SOL    HW115071   3.827   6.907   1.958
 4724SOL    HW215072   3.963   6.921   2.046
 4725SOL     OW15073   4.991   6.444   3.542
 4725SOL    HW115074   4.991   6.507   3.619
 4725SOL    HW215075   4.910   6.385   3.546
 4726SOL     OW15076   0.244   4.590   6.408
 4726SOL    HW115077   0.240   4.623   6.503
 4726SOL    HW215078   0.335   4.551   6.391
 4727SOL     OW15079   6.906   5.757   0.139
 4727SOL    HW115080   6.807   5.748   0.139
 4727SOL    HW215081   6.946   5.683   0.194
 4728SOL     OW15082   0.336   0.933   6.670
 4728SOL    HW115083   0.236   0.943   6.672
 4728SOL    HW215084   0.363   0.892   6.583
 4729SOL     OW15085   3.297   0.573   1.876
 4729SOL    HW115086   3.204   0.592   1.845
 4729SOL    HW215087   3.362   0.625   1.821
 4730SOL     OW15088   2.043   6.792   5.302
 4730SOL    HW115089   2.119   6.854   5.283
 4730SOL    HW215090   1.966   6.844   5.338
 4731SOL     OW15091   5.526   1.471   5.010
 4731SOL    HW115092   5.533   1.460   5.109
 4731SOL    HW215093   5.546   1.383   4.966
 4732SOL     OW15094   0.207   2.915   0.072
 4732SOL    HW115095   0.300   2.933   0.040
 4732SOL    HW215096   0.194   2.957   0.162
 4733SOL     OW15097   6.803   3.957   3.124
 4733SOL    HW115098   6.867   3.995   3.057
 4733SOL    HW215099   6.715   3.939   3.079
 4734SOL     OW15100   4.168   4.168   6.623
 4734SOL    HW115101   4.143   4.154   6.719
 4734SOL    HW215102   4.087   4.194   6.571
 4735SOL     OW15103   1.436   4.689   3.948
 4735SOL    HW115104   1.416   4.749   4.025
 4735SOL    HW215105   1.364   4.700   3.879
 4736SOL     OW15106   0.945   0.748   0.134
 4736SOL    HW115107   0.968   0.833   0.181
 4736SOL    HW215108   0.971   0.670   0.191
 4737SOL     OW15109   2.216   5.296   1.638
 4737SOL    HW115110   2.258   5.375   1.594
 4737SOL    HW215111   2.286   5.244   1.688
 4738SOL     OW15112   0.318   6.376   2.760
 4738SOL    HW115113   0.310   6.438   2.683
 4738SOL    HW215114   0.413   6.349   2.772
 4739SOL     OW15115   4.555   0.983   1.344
 4739SOL    HW115116   4.539   0.885   1.354
 4739SOL    HW215117   4.616   1.000   1.266
 4740SOL     OW15118   1.297   1.415   2.727
 4740SOL    HW115119   1.222   1.463   2.773
 4740SOL    HW215120   1.299   1.320   2.758
 4741SOL     OW15121   4.093   3.720   1.317
 4741SOL    HW115122   4.070   3.647   1.381
 4741SOL    HW215123   4.015   3.739   1.258
 4742SOL     OW15124   3.268   0.098   0.660
 4742SOL    HW115125   3.316   0.097   0.572
 4742SOL    HW215126   3.175   0.065   0.648
 4743SOL     OW15127   2.586   4.751   1.557
 4743SOL    HW115128   2.515   4.692   1.594
 4743SOL    HW215129   2.647   4.780   1.630
 4744SOL     OW15130   2.453   6.243   0.807
 4744SOL    HW115131   2.386   6.276   0.740
 4744SOL    HW215132   2.406   6.196   0.881
 4745SOL     OW15133   1.184   4.596   0.464
 4745SOL    HW115134   1.171   4.497   0.450
 4745SOL    HW215135   1.273   4.612   0.506
 4746SOL     OW15136   4.969   5.779   4.701
 4746SOL    HW115137   4.903   5.852   4.715
 4746SOL    HW215138   4.922   5.691   4.697
 4747SOL     OW15139   1.519   2.222   1.493
 4747SOL    HW115140   1.521   2.287   1.569
 4747SOL    HW215141   1.613   2.198   1.468
 4748SOL     OW15142   1.465   6.942   3.278
 4748SOL    HW115143   1.435   6.934   3.373
 4748SOL    HW215144   1.401   6.999   3.227
 4749SOL     OW15145   1.822   0.571   6.979
 4749SOL    HW115146   1.862   0.549   6.890
 4749SOL    HW215147   1.740   0.626   6.966
 4750SOL     OW15148   5.494   3.278   5.618
 4750SOL    HW115149   5.526   3.362   5.574
 4750SOL    HW215150   5.552   3.202   5.592
 4751SOL     OW15151   4.465   0.467   3.367
 4751SOL    HW115152   4.412   0.409   3.428
 4751SOL    HW215153   4.545   0.416   3.334
 4752SOL     OW15154   4.584   1.966   0.028
 4752SOL    HW115155   4.552   1.917   6.969
 4752SOL    HW215156   4.677   1.998   0.013
 4753SOL     OW15157   3.479   5.645   5.128
 4753SOL    HW115158   3.424   5.715   5.083
 4753SOL    HW215159   3.503   5.676   5.220
 4754SOL     OW15160   4.908   4.625   5.935
 4754SOL    HW115161   4.824   4.660   5.976
 4754SOL    HW215162   4.899   4.527   5.917
 4755SOL     OW15163   1.631   0.935   1.903
 4755SOL    HW115164   1.533   0.919   1.900
 4755SOL    HW215165   1.650   1.014   1.961
 4756SOL     OW15166   6.122   4.098   6.472
 4756SOL    HW115167   6.216   4.064   6.482
 4756SOL    HW215168   6.123   4.184   6.421
 4757SOL     OW15169   1.971   3.827   1.732
 4757SOL    HW115170   2.028   3.863   1.806
 4757SOL    HW215171   1.975   3.889   1.654
 4758SOL     OW15172   2.469   6.543   3.301
 4758SOL    HW115173   2.385   6.497   3.272
 4758SOL    HW215174   2.520   6.574   3.221
 4759SOL     OW15175   0.977   5.169   1.147
 4759SOL    HW115176   0.938   5.093   1.097
 4759SOL    HW215177   1.075   5.176   1.127
 4760SOL     OW15178   2.216   6.028   0.853
 4760SOL    HW115179   2.117   6.013   0.857
 4760SOL    HW215180   2.246   6.079   0.933
 4761SOL     OW15181   6.632   6.352   1.262
 4761SOL    HW115182   6.600   6.259   1.245
 4761SOL    HW215183   6.731   6.356   1.250
 4762SOL     OW15184   2.241   6.821   1.750
 4762SOL    HW115185   2.190   6.852   1.670
 4762SOL    HW215186   2.331   6.864   1.752
 4763SOL     OW15187   5.240   5.003   1.768
 4763SOL    HW115188   5.232   4.912   1.811
 4763SOL    HW215189   5.337   5.023   1.751
 4764SOL     OW15190   4.129   3.491   6.424
 4764SOL    HW115191   4.212   3.505   6.478
 4764SOL    HW215192   4.065   3.435   6.476
 4765SOL     OW15193   3.170   1.475   4.496
 4765SOL    HW115194   3.169   1.375   4.489
 4765SOL    HW215195   3.076   1.509   4.488
 4766SOL     OW15196   0.628   0.125   4.299
 4766SOL    HW115197   0.713   0.133   4.351
 4766SOL    HW215198   0.598   0.030   4.297
 4767SOL     OW15199   1.727   4.004   4.575
 4767SOL    HW115200   1.748   3.907   4.577
 4767SOL    HW215201   1.812   4.057   4.567
 4768SOL     OW15202   3.909   2.671   6.656
 4768SOL    HW115203   3.966   2.589   6.663
 4768SOL    HW215204   3.960   2.750   6.691
 4769SOL     OW15205   2.847   5.257   1.340
 4769SOL    HW115206   2.904   5.199   1.281
 4769SOL    HW215207   2.861   5.231   1.435
 4770SOL     OW15208   0.191   1.199   5.881
 4770SOL    HW115209   0.151   1.290   5.882
 4770SOL    HW215210   0.285   1.204   5.916
 4771SOL     OW15211   2.017   6.638   5.084
 4771SOL    HW115212   2.047   6.672   5.174
 4771SOL    HW215213   2.037   6.707   5.014
 4772SOL     OW15214   2.809   5.870   2.323
 4772SOL    HW115215   2.822   5.824   2.411
 4772SOL    HW215216   2.833   5.809   2.248
 4773SOL     OW15217   2.313   4.979   4.932
 4773SOL    HW115218   2.398   5.003   4.979
 4773SOL    HW215219   2.285   4.887   4.960
 4774SOL     OW15220   1.869   3.859   6.814
 4774SOL    HW115221   1.772   3.878   6.828
 4774SOL    HW215222   1.884   3.760   6.815
 4775SOL     OW15223   6.104   6.446   5.255
 4775SOL    HW115224   6.116   6.543   5.233
 4775SOL    HW215225   6.132   6.390   5.177
 4776SOL     OW15226   0.457   0.857   6.002
 4776SOL    HW115227   0.434   0.907   6.085
 4776SOL    HW215228   0.410   0.899   5.924
 4777SOL     OW15229   0.914   6.841   1.627
 4777SOL    HW115230   0.814   6.840   1.640
 4777SOL    HW215231   0.943   6.932   1.599
 4778SOL     OW15232   1.649   2.543   5.690
 4778SOL    HW115233   1.715   2.619   5.688
 4778SOL    HW215234   1.630   2.515   5.596
 4779SOL     OW15235   5.044   1.052   3.430
 4779SOL    HW115236   5.010   0.979   3.370
 4779SOL    HW215237   4.967   1.109   3.459
 4780SOL     OW15238   6.778   3.046   4.761
 4780SOL    HW115239   6.765   3.089   4.850
 4780SOL    HW215240   6.820   3.111   4.698
 4781SOL     OW15241   2.397   6.371   2.838
 4781SOL    HW115242   2.345   6.456   2.844
 4781SOL    HW215243   2.445   6.368   2.749
 4782SOL     OW15244   6.840   6.173   4.399
 4782SOL    HW115245   6.779   6.106   4.354
 4782SOL    HW215246   6.933   6.160   4.366
 4783SOL     OW15247   6.425   3.415   1.096
 4783SOL    HW115248   6.472   3.495   1.059
 4783SOL    HW215249   6.435   3.338   1.033
 4784SOL     OW15250   5.430   2.873   6.749
 4784SOL    HW115251   5.473   2.964   6.752
 4784SOL    HW215252   5.499   2.803   6.736
 4785SOL     OW15253   0.848   5.567   3.773
 4785SOL    HW115254   0.821   5.630   3.846
 4785SOL    HW215255   0.844   5.613   3.685
 4786SOL     OW15256   1.887   6.332   6.997
 4786SOL    HW115257   1.841   6.261   6.942
 4786SOL    HW215258   1.978   6.300   0.001
 4787SOL     OW15259   3.439   0.854   4.183
 4787SOL    HW115260   3.445   0.954   4.182
 4787SOL    HW215261   3.348   0.826   4.154
 4788SOL     OW15262   5.523   6.459   6.698
 4788SOL    HW115263   5.550   6.365   6.677
 4788SOL    HW215264   5.601   6.520   6.683
 4789SOL     OW15265   5.282   0.972   2.908
 4789SOL    HW115266   5.337   1.051   2.879
 4789SOL    HW215267   5.198   1.004   2.952
 4790SOL     OW15268   6.634   2.144   4.761
 4790SOL    HW115269   6.553   2.133   4.819
 4790SOL    HW215270   6.617   2.101   4.672
 4791SOL     OW15271   6.953   1.444   0.211
 4791SOL    HW115272   6.950   1.431   0.112
 4791SOL    HW215273   0.006   1.389   0.249
 4792SOL     OW15274   2.284   2.391   2.911
 4792SOL    HW115275   2.248   2.420   2.999
 4792SOL    HW215276   2.384   2.384   2.916
 4793SOL     OW15277   0.775   4.192   5.599
 4793SOL    HW115278   0.720   4.268   5.634
 4793SOL    HW215279   0.751   4.174   5.504
 4794SOL     OW15280   3.711   1.042   4.517
 4794SOL    HW115281   3.626   1.093   4.512
 4794SOL    HW215282   3.724   0.989   4.433
 4795SOL     OW15283   0.348   0.784   5.579
 4795SOL    HW115284   0.366   0.848   5.504
 4795SOL    HW215285   0.365   0.830   5.667
 4796SOL     OW15286   3.759   1.377   4.842
 4796SOL    HW115287   3.805   1.288   4.849
 4796SOL    HW215288   3.728   1.391   4.748
 4797SOL     OW15289   1.315   6.120   4.733
 4797SOL    HW115290   1.261   6.071   4.802
 4797SOL    HW215291   1.410   6.089   4.736
 4798SOL     OW15292   4.579   4.555   6.244
 4798SOL    HW115293   4.564   4.484   6.313
 4798SOL    HW215294   4.521   4.634   6.264
 4799SOL     OW15295   3.512   2.992   6.521
 4799SOL    HW115296   3.466   3.011   6.434
 4799SOL    HW215297   3.460   2.923   6.572
 4800SOL     OW15298   0.967   5.349   0.369
 4800SOL    HW115299   1.031   5.336   0.445
 4800SOL    HW215300   0.912   5.266   0.358
 4801SOL     OW15301   4.983   2.732   1.726
 4801SOL    HW115302   4.893   2.769   1.704
 4801SOL    HW215303   4.981   2.632   1.718
 4802SOL     OW15304   6.896   7.015   3.775
 4802SOL    HW115305   6.834   0.065   3.744
 4802SOL    HW215306   6.986   0.006   3.734
 4803SOL     OW15307   5.136   3.813   5.974
 4803SOL    HW115308   5.137   3.894   6.032
 4803SOL    HW215309   5.103   3.735   6.027
 4804SOL     OW15310   4.901   1.852   0.510
 4804SOL    HW115311   4.836   1.777   0.498
 4804SOL    HW215312   4.852   1.938   0.519
 4805SOL     OW15313   6.212   1.194   0.959
 4805SOL    HW115314   6.124   1.242   0.958
 4805SOL    HW215315   6.199   1.102   0.998
 4806SOL     OW15316   0.995   1.060   2.821
 4806SOL    HW115317   1.019   1.144   2.870
 4806SOL    HW215318   1.032   1.063   2.728
 4807SOL     OW15319   1.098   3.186   6.017
 4807SOL    HW115320   1.112   3.128   6.098
 4807SOL    HW215321   1.083   3.280   6.046
 4808SOL     OW15322   4.245   5.534   0.137
 4808SOL    HW115323   4.272   5.622   0.098
 4808SOL    HW215324   4.319   5.498   0.194
 4809SOL     OW15325   3.656   4.702   1.474
 4809SOL    HW115326   3.588   4.772   1.457
 4809SOL    HW215327   3.648   4.630   1.406
 4810SOL     OW15328   0.567   4.176   3.631
 4810SOL    HW115329   0.641   4.234   3.665
 4810SOL    HW215330   0.600   4.082   3.620
 4811SOL     OW15331   3.490   4.163   4.049
 4811SOL    HW115332   3.582   4.134   4.075
 4811SOL    HW215333   3.474   4.143   3.953
 4812SOL     OW15334   0.535   0.269   2.472
 4812SOL    HW115335   0.600   0.230   2.538
 4812SOL    HW215336   0.528   0.209   2.393
 4813SOL     OW15337   6.122   1.126   5.780
 4813SOL    HW115338   6.029   1.095   5.802
 4813SOL    HW215339   6.177   1.048   5.751
 4814SOL     OW15340   6.566   4.253   1.757
 4814SOL    HW115341   6.584   4.321   1.829
 4814SOL    HW215342   6.592   4.291   1.668
 4815SOL     OW15343   5.190   4.941   2.800
 4815SOL    HW115344   5.192   5.033   2.839
 4815SOL    HW215345   5.225   4.943   2.707
 4816SOL     OW15346   1.274   0.632   2.096
 4816SOL    HW115347   1.178   0.630   2.069
 4816SOL    HW215348   1.284   0.686   2.179
 4817SOL     OW15349   4.070   1.818   0.773
 4817SOL    HW115350   4.141   1.849   0.835
 4817SOL    HW215351   4.095   1.840   0.679
 4818SOL     OW15352   3.251   0.330   5.112
 4818SOL    HW115353   3.284   0.413   5.068
 4818SOL    HW215354   3.321   0.295   5.175
 4819SOL     OW15355   2.360   0.401   0.571
 4819SOL    HW115356   2.443   0.407   0.628
 4819SOL    HW215357   2.337   0.305   0.556
 4820SOL     OW15358   6.011   3.956   1.975
 4820SOL    HW115359   6.003   4.055   1.976
 4820SOL    HW215360   5.920   3.915   1.964
 4821SOL     OW15361   0.089   4.296   1.611
 4821SOL    HW115362   0.089   4.235   1.690
 4821SOL    HW215363   0.048   4.249   1.533
 4822SOL     OW15364   2.051   3.977   3.070
 4822SOL    HW115365   2.068   3.944   3.163
 4822SOL    HW215366   1.969   3.933   3.033
 4823SOL     OW15367   0.837   0.973   4.433
 4823SOL    HW115368   0.915   1.014   4.481
 4823SOL    HW215369   0.845   0.992   4.335
 4824SOL     OW15370   5.504   2.965   2.229
 4824SOL    HW115371   5.471   2.900   2.297
 4824SOL    HW215372   5.473   2.939   2.138
 4825SOL     OW15373   0.878   3.540   2.809
 4825SOL    HW115374   0.897   3.453   2.764
 4825SOL    HW215375   0.960   3.571   2.857
 4826SOL     OW15376   6.245   6.213   0.447
 4826SOL    HW115377   6.205   6.167   0.368
 4826SOL    HW215378   6.226   6.311   0.441
 4827SOL     OW15379   4.954   0.878   1.119
 4827SOL    HW115380   4.906   0.900   1.204
 4827SOL    HW215381   5.019   0.804   1.135
 4828SOL     OW15382   5.334   3.759   0.836
 4828SOL    HW115383   5.368   3.824   0.905
 4828SOL    HW215384   5.244   3.726   0.864
 4829SOL     OW15385   3.211   0.480   6.462
 4829SOL    HW115386   3.246   0.544   6.531
 4829SOL    HW215387   3.123   0.512   6.428
 4830SOL     OW15388   4.464   6.932   4.706
 4830SOL    HW115389   4.448   0.002   4.742
 4830SOL    HW215390   4.554   6.929   4.662
 4831SOL     OW15391   5.952   3.865   5.928
 4831SOL    HW115392   5.915   3.858   6.021
 4831SOL    HW215393   5.964   3.773   5.891
 4832SOL     OW15394   2.601   3.729   6.127
 4832SOL    HW115395   2.636   3.653   6.182
 4832SOL    HW215396   2.674   3.768   6.073
 4833SOL     OW15397   4.393   1.163   2.336
 4833SOL    HW115398   4.482   1.119   2.341
 4833SOL    HW215399   4.388   1.238   2.403
 4834SOL     OW15400   4.660   1.802   2.055
 4834SOL    HW115401   4.561   1.808   2.040
 4834SOL    HW215402   4.688   1.706   2.055
 4835SOL     OW15403   1.843   0.234   6.824
 4835SOL    HW115404   1.874   0.328   6.813
 4835SOL    HW215405   1.922   0.173   6.825
 4836SOL     OW15406   5.508   1.838   4.309
 4836SOL    HW115407   5.545   1.801   4.224
 4836SOL    HW215408   5.577   1.894   4.354
 4837SOL     OW15409   1.983   3.558   0.016
 4837SOL    HW115410   2.082   3.543   0.021
 4837SOL    HW215411   1.957   3.577   6.945
 4838SOL     OW15412   3.718   5.409   2.391
 4838SOL    HW115413   3.666   5.340   2.440
 4838SOL    HW215414   3.656   5.479   2.355
 4839SOL     OW15415   0.483   5.531   6.038
 4839SOL    HW115416   0.442   5.552   6.127
 4839SOL    HW215417   0.512   5.435   6.037
 4840SOL     OW15418   6.821   6.472   0.276
 4840SOL    HW115419   6.772   6.395   0.317
 4840SOL    HW215420   6.755   6.543   0.252
 4841SOL     OW15421   2.895   5.095   2.344
 4841SOL    HW115422   2.985   5.066   2.377
 4841SOL    HW215423   2.829   5.022   2.357
 4842SOL     OW15424   5.036   6.092   1.004
 4842SOL    HW115425   5.081   6.074   0.917
 4842SOL    HW215426   4.991   6.008   1.036
 4843SOL     OW15427   6.736   3.495   0.199
 4843SOL    HW115428   6.790   3.577   0.218
 4843SOL    HW215429   6.686   3.506   0.113
 4844SOL     OW15430   5.893   1.912   6.169
 4844SOL    HW115431   5.843   1.827   6.187
 4844SOL    HW215432   5.845   1.989   6.212
 4845SOL     OW15433   6.124   5.937   3.486
 4845SOL    HW115434   6.215   5.911   3.518
 4845SOL    HW215435   6.059   5.863   3.504
 4846SOL     OW15436   1.754   3.616   0.616
 4846SOL    HW115437   1.780   3.667   0.534
 4846SOL    HW215438   1.719   3.680   0.685
 4847SOL     OW15439   3.580   1.765   4.833
 4847SOL    HW115440   3.545   1.695   4.895
 4847SOL    HW215441   3.516   1.777   4.757
 4848SOL     OW15442   2.260   2.277   2.257
 4848SOL    HW115443   2.206   2.253   2.177
 4848SOL    HW215444   2.356   2.288   2.232
 4849SOL     OW15445   0.855   6.772   0.708
 4849SOL    HW115446   0.874   6.837   0.782
 4849SOL    HW215447   0.822   6.686   0.748
 4850SOL     OW15448   4.337   0.841   2.026
 4850SOL    HW115449   4.418   0.897   2.043
 4850SOL    HW215450   4.357   0.746   2.052
 4851SOL     OW15451   4.870   6.272   5.164
 4851SOL    HW115452   4.842   6.297   5.071
 4851SOL    HW215453   4.959   6.313   5.184
 4852SOL     OW15454   1.790   0.982   6.852
 4852SOL    HW115455   1.747   0.892   6.863
 4852SOL    HW215456   1.779   1.013   6.758
 4853SOL     OW15457   3.186   1.534   2.294
 4853SOL    HW115458   3.182   1.511   2.197
 4853SOL    HW215459   3.188   1.633   2.305
 4854SOL     OW15460   5.431   0.042   2.040
 4854SOL    HW115461   5.500   6.993   2.053
 4854SOL    HW215462   5.424   0.097   2.122
 4855SOL     OW15463   6.307   1.837   2.725
 4855SOL    HW115464   6.322   1.926   2.682
 4855SOL    HW215465   6.314   1.765   2.656
 4856SOL     OW15466   2.931   5.033   3.617
 4856SOL    HW115467   2.877   5.111   3.647
 4856SOL    HW215468   2.907   4.953   3.671
 4857SOL     OW15469   0.256   2.031   5.704
 4857SOL    HW115470   0.157   2.042   5.698
 4857SOL    HW215471   0.301   2.110   5.663
 4858SOL     OW15472   1.676   2.058   4.637
 4858SOL    HW115473   1.618   2.112   4.698
 4858SOL    HW215474   1.701   1.972   4.682
 4859SOL     OW15475   1.955   5.842   4.622
 4859SOL    HW115476   2.007   5.785   4.558
 4859SOL    HW215477   1.861   5.853   4.589
 4860SOL     OW15478   4.728   4.712   1.428
 4860SOL    HW115479   4.807   4.653   1.444
 4860SOL    HW215480   4.659   4.697   1.499
 4861SOL     OW15481   4.786   4.260   5.233
 4861SOL    HW115482   4.770   4.350   5.194
 4861SOL    HW215483   4.815   4.270   5.329
 4862SOL     OW15484   1.925   6.474   2.408
 4862SOL    HW115485   1.909   6.573   2.411
 4862SOL    HW215486   2.009   6.452   2.458
 4863SOL     OW15487   5.838   4.128   0.346
 4863SOL    HW115488   5.799   4.183   0.272
 4863SOL    HW215489   5.921   4.173   0.381
 4864SOL     OW15490   3.006   1.026   3.482
 4864SOL    HW115491   3.039   1.118   3.463
 4864SOL    HW215492   3.019   0.969   3.401
 4865SOL     OW15493   2.845   6.026   4.425
 4865SOL    HW115494   2.936   6.060   4.402
 4865SOL    HW215495   2.842   5.926   4.411
 4866SOL     OW15496   6.732   4.010   1.048
 4866SOL    HW115497   6.660   4.071   1.083
 4866SOL    HW215498   6.697   3.917   1.043
 4867SOL     OW15499   4.719   6.643   3.122
 4867SOL    HW115500   4.734   6.716   3.055
 4867SOL    HW215501   4.807   6.619   3.165
 4868SOL     OW15502   6.385   4.407   1.558
 4868SOL    HW115503   6.448   4.354   1.502
 4868SOL    HW215504   6.310   4.442   1.500
 4869SOL     OW15505   0.349   1.287   6.202
 4869SOL    HW115506   0.401   1.368   6.226
 4869SOL    HW215507   0.365   1.265   6.105
 4870SOL     OW15508   0.924   6.165   1.970
 4870SOL    HW115509   0.844   6.169   2.030
 4870SOL    HW215510   0.940   6.071   1.942
 4871SOL     OW15511   1.231   1.074   4.229
 4871SOL    HW115512   1.138   1.039   4.219
 4871SOL    HW215513   1.241   1.159   4.177
 4872SOL     OW15514   6.142   6.946   3.573
 4872SOL    HW115515   6.181   6.995   3.652
 4872SOL    HW215516   6.168   6.849   3.578
 4873SOL     OW15517   6.429   6.029   5.222
 4873SOL    HW115518   6.404   6.063   5.312
 4873SOL    HW215519   6.518   6.066   5.195
 4874SOL     OW15520   4.848   2.877   3.296
 4874SOL    HW115521   4.816   2.891   3.202
 4874SOL    HW215522   4.913   2.801   3.299
 4875SOL     OW15523   5.508   6.065   6.125
 4875SOL    HW115524   5.593   6.084   6.173
 4875SOL    HW215525   5.447   6.012   6.185
 4876SOL     OW15526   1.517   1.421   3.038
 4876SOL    HW115527   1.557   1.330   3.030
 4876SOL    HW215528   1.424   1.414   3.075
 4877SOL     OW15529   0.636   1.574   4.301
 4877SOL    HW115530   0.647   1.641   4.227
 4877SOL    HW215531   0.703   1.501   4.290
 4878SOL     OW15532   6.879   1.668   3.107
 4878SOL    HW115533   6.854   1.697   3.200
 4878SOL    HW215534   6.951   1.728   3.073
 4879SOL     OW15535   4.497   1.757   3.078
 4879SOL    HW115536   4.441   1.752   3.160
 4879SOL    HW215537   4.489   1.848   3.037
 4880SOL     OW15538   6.158   2.436   6.284
 4880SOL    HW115539   6.249   2.407   6.312
 4880SOL    HW215540   6.156   2.536   6.274
 4881SOL     OW15541   1.377   2.958   2.091
 4881SOL    HW115542   1.335   2.968   2.001
 4881SOL    HW215543   1.342   3.029   2.153
 4882SOL     OW15544   4.479   2.618   5.089
 4882SOL    HW115545   4.474   2.698   5.149
 4882SOL    HW215546   4.388   2.576   5.083
 4883SOL     OW15547   5.794   3.791   1.345
 4883SOL    HW115548   5.724   3.750   1.287
 4883SOL    HW215549   5.769   3.781   1.441
 4884SOL     OW15550   2.015   6.252   1.612
 4884SOL    HW115551   1.953   6.293   1.680
 4884SOL    HW215552   1.989   6.282   1.521
 4885SOL     OW15553   1.912   4.956   0.881
 4885SOL    HW115554   1.825   4.909   0.895
 4885SOL    HW215555   1.947   4.937   0.789
 4886SOL     OW15556   3.068   1.254   2.137
 4886SOL    HW115557   3.029   1.242   2.046
 4886SOL    HW215558   3.161   1.216   2.138
 4887SOL     OW15559   0.858   6.814   2.107
 4887SOL    HW115560   0.892   6.891   2.052
 4887SOL    HW215561   0.934   6.752   2.126
 4888SOL     OW15562   3.356   6.776   2.881
 4888SOL    HW115563   3.392   6.841   2.814
 4888SOL    HW215564   3.306   6.825   2.951
 4889SOL     OW15565   6.573   2.291   3.707
 4889SOL    HW115566   6.546   2.379   3.747
 4889SOL    HW215567   6.612   2.233   3.778
 4890SOL     OW15568   0.528   1.087   4.895
 4890SOL    HW115569   0.518   1.183   4.922
 4890SOL    HW215570   0.599   1.079   4.826
 4891SOL     OW15571   2.645   5.387   6.105
 4891SOL    HW115572   2.743   5.375   6.118
 4891SOL    HW215573   2.623   5.384   6.007
 4892SOL     OW15574   5.491   6.681   2.935
 4892SOL    HW115575   5.574   6.679   2.990
 4892SOL    HW215576   5.485   6.598   2.879
 4893SOL     OW15577   0.263   3.666   1.924
 4893SOL    HW115578   0.282   3.699   2.016
 4893SOL    HW215579   0.186   3.603   1.926
 4894SOL     OW15580   4.455   6.254   2.221
 4894SOL    HW115581   4.468   6.209   2.133
 4894SOL    HW215582   4.502   6.202   2.292
 4895SOL     OW15583   6.934   4.541   3.573
 4895SOL    HW115584   6.979   4.522   3.486
 4895SOL    HW215585   6.899   4.456   3.612
 4896SOL     OW15586   1.850   4.789   3.846
 4896SOL    HW115587   1.793   4.737   3.782
 4896SOL    HW215588   1.842   4.886   3.827
 4897SOL     OW15589   1.775   6.557   4.949
 4897SOL    HW115590   1.727   6.470   4.959
 4897SOL    HW215591   1.853   6.560   5.013
 4898SOL     OW15592   3.770   1.842   4.358
 4898SOL    HW115593   3.717   1.763   4.327
 4898SOL    HW215594   3.832   1.814   4.430
 4899SOL     OW15595   0.473   5.409   1.684
 4899SOL    HW115596   0.468   5.508   1.675
 4899SOL    HW215597   0.559   5.383   1.728
 4900SOL     OW15598   4.112   6.184   5.673
 4900SOL    HW115599   4.037   6.233   5.719
 4900SOL    HW215600   4.151   6.117   5.736
 4901SOL     OW15601   0.927   1.387   6.146
 4901SOL    HW115602   0.906   1.378   6.049
 4901SOL    HW215603   0.855   1.439   6.192
 4902SOL     OW15604   2.226   0.118   6.278
 4902SOL    HW115605   2.141   0.120   6.331
 4902SOL    HW215606   2.221   0.184   6.203
 4903SOL     OW15607   5.714   5.278   1.357
 4903SOL    HW115608   5.759   5.233   1.434
 4903SOL    HW215609   5.685   5.370   1.384
 4904SOL     OW15610   1.229   0.439   0.493
 4904SOL    HW115611   1.300   0.376   0.522
 4904SOL    HW215612   1.271   0.527   0.468
 4905SOL     OW15613   3.335   6.398   3.225
 4905SOL    HW115614   3.240   6.428   3.215
 4905SOL    HW215615   3.360   6.340   3.147
 4906SOL     OW15616   5.839   3.137   4.890
 4906SOL    HW115617   5.881   3.049   4.867
 4906SOL    HW215618   5.780   3.166   4.815
 4907SOL     OW15619   4.470   1.494   6.794
 4907SOL    HW115620   4.429   1.466   6.707
 4907SOL    HW215621   4.405   1.553   6.843
 4908SOL     OW15622   4.821   0.272   0.227
 4908SOL    HW115623   4.733   0.309   0.257
 4908SOL    HW215624   4.808   0.178   0.196
 4909SOL     OW15625   5.755   3.993   3.679
 4909SOL    HW115626   5.754   4.091   3.657
 4909SOL    HW215627   5.664   3.965   3.710
 4910SOL     OW15628   4.861   0.772   5.990
 4910SOL    HW115629   4.890   0.868   5.990
 4910SOL    HW215630   4.930   0.716   5.944
 4911SOL     OW15631   0.594   2.496   1.981
 4911SOL    HW115632   0.511   2.504   1.926
 4911SOL    HW215633   0.628   2.587   2.003
 4912SOL     OW15634   6.370   2.399   5.022
 4912SOL    HW115635   6.281   2.443   5.039
 4912SOL    HW215636   6.442   2.469   5.021
 4913SOL     OW15637   6.782   3.223   5.069
 4913SOL    HW115638   6.880   3.231   5.054
 4913SOL    HW215639   6.760   3.128   5.095
 4914SOL     OW15640   4.394   0.800   4.179
 4914SOL    HW115641   4.448   0.853   4.114
 4914SOL    HW215642   4.445   0.718   4.206
 4915SOL     OW15643   3.753   5.926   5.531
 4915SOL    HW115644   3.838   5.978   5.521
 4915SOL    HW215645   3.726   5.889   5.442
 4916SOL     OW15646   6.071   1.196   3.755
 4916SOL    HW115647   6.088   1.274   3.816
 4916SOL    HW215648   6.148   1.132   3.761
 4917SOL     OW15649   4.397   6.651   0.623
 4917SOL    HW115650   4.363   6.641   0.530
 4917SOL    HW215651   4.349   6.727   0.668
 4918SOL     OW15652   6.658   5.447   1.965
 4918SOL    HW115653   6.624   5.459   2.058
 4918SOL    HW215654   6.664   5.536   1.920
 4919SOL     OW15655   4.083   3.584   2.283
 4919SOL    HW115656   4.081   3.666   2.225
 4919SOL    HW215657   4.081   3.612   2.379
 4920SOL     OW15658   5.800   0.800   4.724
 4920SOL    HW115659   5.844   0.718   4.690
 4920SOL    HW215660   5.855   0.880   4.700
 4921SOL     OW15661   0.218   6.858   2.105
 4921SOL    HW115662   0.165   6.787   2.058
 4921SOL    HW215663   0.287   6.815   2.163
 4922SOL     OW15664   3.669   2.210   5.928
 4922SOL    HW115665   3.648   2.218   5.831
 4922SOL    HW215666   3.717   2.293   5.959
 4923SOL     OW15667   3.732   1.834   2.923
 4923SOL    HW115668   3.792   1.874   2.993
 4923SOL    HW215669   3.781   1.831   2.836
 4924SOL     OW15670   2.272   1.278   5.673
 4924SOL    HW115671   2.335   1.348   5.704
 4924SOL    HW215672   2.247   1.218   5.749
 4925SOL     OW15673   4.678   6.406   3.406
 4925SOL    HW115674   4.618   6.372   3.479
 4925SOL    HW215675   4.685   6.505   3.412
 4926SOL     OW15676   5.020   2.261   1.256
 4926SOL    HW115677   5.086   2.186   1.256
 4926SOL    HW215678   5.040   2.324   1.331
 4927SOL     OW15679   3.823   1.636   6.641
 4927SOL    HW115680   3.779   1.589   6.564
 4927SOL    HW215681   3.778   1.724   6.656
 4928SOL     OW15682   0.837   2.345   1.150
 4928SOL    HW115683   0.923   2.299   1.173
 4928SOL    HW215684   0.839   2.374   1.055
 4929SOL     OW15685   0.036   6.533   4.524
 4929SOL    HW115686   6.975   6.490   4.557
 4929SOL    HW215687   0.016   6.585   4.441
 4930SOL     OW15688   5.594   6.566   1.944
 4930SOL    HW115689   5.603   6.616   2.030
 4930SOL    HW215690   5.537   6.619   1.881
 4931SOL     OW15691   6.231   6.207   1.800
 4931SOL    HW115692   6.224   6.291   1.747
 4931SOL    HW215693   6.328   6.184   1.813
 4932SOL     OW15694   2.932   3.462   2.127
 4932SOL    HW115695   2.944   3.558   2.104
 4932SOL    HW215696   2.851   3.426   2.082
 4933SOL     OW15697   3.261   5.855   5.071
 4933SOL    HW115698   3.246   5.849   4.973
 4933SOL    HW215699   3.179   5.891   5.116
 4934SOL     OW15700   3.876   5.173   3.528
 4934SOL    HW115701   3.822   5.140   3.451
 4934SOL    HW215702   3.894   5.271   3.518
 4935SOL     OW15703   1.027   2.077   6.039
 4935SOL    HW115704   1.013   2.057   5.942
 4935SOL    HW215705   0.939   2.094   6.083
 4936SOL     OW15706   2.686   3.541   1.038
 4936SOL    HW115707   2.775   3.571   1.004
 4936SOL    HW215708   2.688   3.442   1.054
 4937SOL     OW15709   5.075   3.189   4.987
 4937SOL    HW115710   5.108   3.224   4.899
 4937SOL    HW215711   5.009   3.254   5.025
 4938SOL     OW15712   3.711   5.820   6.434
 4938SOL    HW115713   3.661   5.814   6.521
 4938SOL    HW215714   3.659   5.775   6.362
 4939SOL     OW15715   4.463   3.298   5.766
 4939SOL    HW115716   4.522   3.369   5.803
 4939SOL    HW215717   4.434   3.236   5.839
 4940SOL     OW15718   2.436   6.080   4.428
 4940SOL    HW115719   2.460   6.135   4.508
 4940SOL    HW215720   2.458   6.131   4.345
 4941SOL     OW15721   5.053   1.256   0.602
 4941SOL    HW115722   5.089   1.349   0.607
 4941SOL    HW215723   5.012   1.231   0.690
 4942SOL     OW15724   4.939   3.570   5.286
 4942SOL    HW115725   5.032   3.582   5.253
 4942SOL    HW215726   4.874   3.593   5.213
 4943SOL     OW15727   4.118   2.713   1.035
 4943SOL    HW115728   4.130   2.649   0.960
 4943SOL    HW215729   4.045   2.680   1.096
 4944SOL     OW15730   2.535   4.595   2.230
 4944SOL    HW115731   2.551   4.576   2.133
 4944SOL    HW215732   2.472   4.526   2.266
 4945SOL     OW15733   0.140   6.446   4.106
 4945SOL    HW115734   0.104   6.413   4.018
 4945SOL    HW215735   0.220   6.391   4.131
 4946SOL     OW15736   1.119   3.563   2.363
 4946SOL    HW115737   1.108   3.613   2.449
 4946SOL    HW215738   1.208   3.585   2.323
 4947SOL     OW15739   0.847   6.518   0.803
 4947SOL    HW115740   0.917   6.529   0.873
 4947SOL    HW215741   0.888   6.485   0.718
 4948SOL     OW15742   2.350   0.773   2.065
 4948SOL    HW115743   2.382   0.728   2.149
 4948SOL    HW215744   2.392   0.863   2.058
 4949SOL     OW15745   5.224   1.755   4.767
 4949SOL    HW115746   5.185   1.814   4.837
 4949SOL    HW215747   5.236   1.663   4.803
 4950SOL     OW15748   3.123   5.635   4.582
 4950SOL    HW115749   3.089   5.546   4.610
 4950SOL    HW215750   3.161   5.683   4.661
 4951SOL     OW15751   4.440   2.226   4.195
 4951SOL    HW115752   4.431   2.257   4.101
 4951SOL    HW215753   4.357   2.249   4.246
 4952SOL     OW15754   0.133   6.048   5.764
 4952SOL    HW115755   0.147   6.081   5.858
 4952SOL    HW215756   0.199   6.092   5.703
 4953SOL     OW15757   2.218   5.468   1.898
 4953SOL    HW115758   2.178   5.412   1.970
 4953SOL    HW215759   2.224   5.415   1.814
 4954SOL     OW15760   5.484   5.586   6.478
 4954SOL    HW115761   5.574   5.543   6.481
 4954SOL    HW215762   5.433   5.551   6.400
 4955SOL     OW15763   1.761   6.752   1.538
 4955SOL    HW115764   1.763   6.750   1.638
 4955SOL    HW215765   1.697   6.683   1.505
 4956SOL     OW15766   4.645   6.616   4.641
 4956SOL    HW115767   4.581   6.571   4.578
 4956SOL    HW215768   4.674   6.703   4.602
 4957SOL     OW15769   0.842   0.288   3.562
 4957SOL    HW115770   0.766   0.271   3.500
 4957SOL    HW215771   0.895   0.366   3.528
 4958SOL     OW15772   0.614   5.755   6.982
 4958SOL    HW115773   0.699   5.796   7.015
 4958SOL    HW215774   0.545   5.826   6.969
 4959SOL     OW15775   0.783   0.804   1.207
 4959SOL    HW115776   0.709   0.868   1.229
 4959SOL    HW215777   0.773   0.773   1.113
 4960SOL     OW15778   4.158   6.841   4.873
 4960SOL    HW115779   4.258   6.845   4.879
 4960SOL    HW215780   4.126   6.754   4.909
 4961SOL     OW15781   4.737   0.856   4.720
 4961SOL    HW115782   4.757   0.763   4.752
 4961SOL    HW215783   4.639   0.873   4.724
 4962SOL     OW15784   0.066   1.956   0.542
 4962SOL    HW115785   0.063   1.868   0.496
 4962SOL    HW215786   0.132   1.953   0.617
 4963SOL     OW15787   0.497   4.915   1.821
 4963SOL    HW115788   0.430   4.935   1.893
 4963SOL    HW215789   0.454   4.931   1.731
 4964SOL     OW15790   3.061   6.742   3.352
 4964SOL    HW115791   3.066   6.694   3.440
 4964SOL    HW215792   3.070   6.675   3.277
 4965SOL     OW15793   6.415   0.532   4.381
 4965SOL    HW115794   6.441   0.626   4.402
 4965SOL    HW215795   6.491   0.471   4.398
 4966SOL     OW15796   3.163   5.124   4.134
 4966SOL    HW115797   3.261   5.143   4.146
 4966SOL    HW215798   3.143   5.113   4.037
 4967SOL     OW15799   3.898   2.537   5.631
 4967SOL    HW115800   3.905   2.524   5.532
 4967SOL    HW215801   3.861   2.454   5.673
 4968SOL     OW15802   6.239   3.178   5.056
 4968SOL    HW115803   6.180   3.106   5.019
 4968SOL    HW215804   6.308   3.203   4.987
 4969SOL     OW15805   1.089   1.452   1.870
 4969SOL    HW115806   1.042   1.453   1.959
 4969SOL    HW215807   1.176   1.404   1.879
 4970SOL     OW15808   0.952   2.539   5.440
 4970SOL    HW115809   0.898   2.565   5.360
 4970SOL    HW215810   0.923   2.593   5.519
 4971SOL     OW15811   5.327   6.197   3.329
 4971SOL    HW115812   5.331   6.265   3.402
 4971SOL    HW215813   5.252   6.219   3.267
 4972SOL     OW15814   1.544   3.221   6.659
 4972SOL    HW115815   1.494   3.233   6.573
 4972SOL    HW215816   1.481   3.188   6.730
 4973SOL     OW15817   5.128   6.388   2.705
 4973SOL    HW115818   5.099   6.472   2.750
 4973SOL    HW215819   5.203   6.408   2.641
 4974SOL     OW15820   5.679   6.544   2.580
 4974SOL    HW115821   5.666   6.513   2.674
 4974SOL    HW215822   5.592   6.576   2.543
 4975SOL     OW15823   5.892   5.869   0.676
 4975SOL    HW115824   5.910   5.773   0.654
 4975SOL    HW215825   5.822   5.905   0.614
 4976SOL     OW15826   3.854   0.508   5.588
 4976SOL    HW115827   3.780   0.488   5.653
 4976SOL    HW215828   3.858   0.436   5.519
 4977SOL     OW15829   3.195   3.516   1.078
 4977SOL    HW115830   3.141   3.432   1.082
 4977SOL    HW215831   3.250   3.517   0.994
 4978SOL     OW15832   5.421   3.178   6.148
 4978SOL    HW115833   5.471   3.091   6.147
 4978SOL    HW215834   5.456   3.236   6.221
 4979SOL     OW15835   1.360   0.686   5.578
 4979SOL    HW115836   1.374   0.623   5.654
 4979SOL    HW215837   1.264   0.684   5.551
 4980SOL     OW15838   2.858   5.065   2.043
 4980SOL    HW115839   2.852   5.095   2.139
 4980SOL    HW215840   2.897   5.138   1.988
 4981SOL     OW15841   4.070   6.577   5.462
 4981SOL    HW115842   3.979   6.560   5.500
 4981SOL    HW215843   4.122   6.492   5.462
 4982SOL     OW15844   2.136   3.263   0.675
 4982SOL    HW115845   2.124   3.163   0.672
 4982SOL    HW215846   2.092   3.299   0.757
 4983SOL     OW15847   5.251   2.851   4.167
 4983SOL    HW115848   5.164   2.846   4.216
 4983SOL    HW215849   5.234   2.868   4.070
 4984SOL     OW15850   4.759   4.173   3.148
 4984SOL    HW115851   4.837   4.223   3.184
 4984SOL    HW215852   4.685   4.237   3.124
 4985SOL     OW15853   5.323   4.939   2.582
 4985SOL    HW115854   5.356   4.889   2.502
 4985SOL    HW215855   5.376   5.024   2.593
 4986SOL     OW15856   4.830   4.860   2.598
 4986SOL    HW115857   4.855   4.877   2.694
 4986SOL    HW215858   4.877   4.777   2.566
 4987SOL     OW15859   6.848   3.517   1.343
 4987SOL    HW115860   6.867   3.602   1.294
 4987SOL    HW215861   6.789   3.458   1.287
 4988SOL     OW15862   0.342   1.518   4.396
 4988SOL    HW115863   0.419   1.464   4.363
 4988SOL    HW215864   0.284   1.461   4.454
 4989SOL     OW15865   0.265   0.958   0.369
 4989SOL    HW115866   0.350   1.000   0.339
 4989SOL    HW215867   0.242   0.990   0.461
 4990SOL     OW15868   1.669   2.064   5.559
 4990SOL    HW115869   1.646   1.995   5.489
 4990SOL    HW215870   1.717   2.140   5.516
 4991SOL     OW15871   1.002   2.851   4.038
 4991SOL    HW115872   0.929   2.783   4.035
 4991SOL    HW215873   1.089   2.808   4.012
 4992SOL     OW15874   3.482   0.546   5.739
 4992SOL    HW115875   3.451   0.500   5.823
 4992SOL    HW215876   3.430   0.631   5.728
 4993SOL     OW15877   2.994   5.998   4.059
 4993SOL    HW115878   2.930   5.974   3.986
 4993SOL    HW215879   2.966   6.085   4.100
 4994SOL     OW15880   0.101   0.212   2.824
 4994SOL    HW115881   0.156   0.149   2.879
 4994SOL    HW215882   0.033   0.160   2.772
 4995SOL     OW15883   5.783   2.140   6.280
 4995SOL    HW115884   5.825   2.230   6.274
 4995SOL    HW215885   5.691   2.143   6.241
 4996SOL     OW15886   1.196   1.452   3.395
 4996SOL    HW115887   1.192   1.520   3.468
 4996SOL    HW215888   1.110   1.400   3.393
 4997SOL     OW15889   0.479   2.706   3.188
 4997SOL    HW115890   0.490   2.782   3.252
 4997SOL    HW215891   0.518   2.623   3.227
 4998SOL     OW15892   1.628   5.751   4.688
 4998SOL    HW115893   1.687   5.670   4.694
 4998SOL    HW215894   1.568   5.755   4.768
 4999SOL     OW15895   6.249   5.365   1.085
 4999SOL    HW115896   6.191   5.348   1.165
 4999SOL    HW215897   6.191   5.377   1.004
 5000SOL     OW15898   0.270   6.271   4.589
 5000SOL    HW115899   0.197   6.270   4.658
 5000SOL    HW215900   0.239   6.222   4.507
 5001SOL     OW15901   3.775   4.566   5.919
 5001SOL    HW115902   3.792   4.533   6.012
 5001SOL    HW215903   3.832   4.515   5.854
 5002SOL     OW15904   2.277   0.919   2.377
 5002SOL    HW115905   2.222   0.984   2.326
 5002SOL    HW215906   2.353   0.888   2.319
 5003SOL     OW15907   6.458   5.845   3.172
 5003SOL    HW115908   6.393   5.776   3.139
 5003SOL    HW215909   6.413   5.935   3.172
 5004SOL     OW15910   3.363   6.069   0.187
 5004SOL    HW115911   3.371   5.990   0.248
 5004SOL    HW215912   3.269   6.102   0.186
 5005SOL     OW15913   4.995   2.830   6.901
 5005SOL    HW115914   5.066   2.900   6.907
 5005SOL    HW215915   4.938   2.834   6.983
 5006SOL     OW15916   5.380   5.868   4.587
 5006SOL    HW115917   5.467   5.819   4.590
 5006SOL    HW215918   5.394   5.958   4.546
 5007SOL     OW15919   3.898   1.196   5.533
 5007SOL    HW115920   3.906   1.281   5.584
 5007SOL    HW215921   3.837   1.210   5.455
 5008SOL     OW15922   6.402   1.380   3.585
 5008SOL    HW115923   6.496   1.388   3.617
 5008SOL    HW215924   6.382   1.285   3.563
 5009SOL     OW15925   1.447   6.556   2.940
 5009SOL    HW115926   1.514   6.482   2.949
 5009SOL    HW215927   1.467   6.627   3.007
 5010SOL     OW15928   4.177   3.338   4.360
 5010SOL    HW115929   4.267   3.383   4.355
 5010SOL    HW215930   4.142   3.346   4.454
 5011SOL     OW15931   1.079   2.772   2.656
 5011SOL    HW115932   1.018   2.757   2.734
 5011SOL    HW215933   1.040   2.843   2.598
 5012SOL     OW15934   6.601   2.127   6.610
 5012SOL    HW115935   6.610   2.122   6.510
 5012SOL    HW215936   6.554   2.045   6.643
 5013SOL     OW15937   4.036   1.591   6.444
 5013SOL    HW115938   3.982   1.596   6.528
 5013SOL    HW215939   4.120   1.539   6.462
 5014SOL     OW15940   5.978   6.343   0.265
 5014SOL    HW115941   6.028   6.256   0.263
 5014SOL    HW215942   5.908   6.343   0.193
 5015SOL     OW15943   4.427   2.293   3.870
 5015SOL    HW115944   4.522   2.269   3.893
 5015SOL    HW215945   4.395   2.235   3.796
 5016SOL     OW15946   2.435   6.873   3.177
 5016SOL    HW115947   2.499   6.799   3.158
 5016SOL    HW215948   2.361   6.840   3.235
 5017SOL     OW15949   2.339   2.886   1.465
 5017SOL    HW115950   2.298   2.796   1.481
 5017SOL    HW215951   2.365   2.927   1.552
 5018SOL     OW15952   6.314   5.389   3.764
 5018SOL    HW115953   6.271   5.337   3.838
 5018SOL    HW215954   6.410   5.406   3.787
 5019SOL     OW15955   1.685   4.803   6.616
 5019SOL    HW115956   1.624   4.812   6.537
 5019SOL    HW215957   1.653   4.864   6.689
 5020SOL     OW15958   5.605   5.012   6.472
 5020SOL    HW115959   5.653   5.060   6.545
 5020SOL    HW215960   5.511   5.046   6.465
 5021SOL     OW15961   1.373   4.371   6.180
 5021SOL    HW115962   1.428   4.327   6.109
 5021SOL    HW215963   1.424   4.371   6.266
 5022SOL     OW15964   1.389   5.413   0.224
 5022SOL    HW115965   1.478   5.422   0.179
 5022SOL    HW215966   1.402   5.377   0.316
 5023SOL     OW15967   6.354   3.115   2.367
 5023SOL    HW115968   6.278   3.061   2.403
 5023SOL    HW215969   6.433   3.107   2.429
 5024SOL     OW15970   6.436   4.007   4.606
 5024SOL    HW115971   6.370   4.082   4.605
 5024SOL    HW215972   6.392   3.925   4.644
 5025SOL     OW15973   5.115   1.405   3.171
 5025SOL    HW115974   5.024   1.387   3.134
 5025SOL    HW215975   5.184   1.376   3.105
 5026SOL     OW15976   0.296   6.671   4.175
 5026SOL    HW115977   0.286   6.661   4.274
 5026SOL    HW215978   0.241   6.601   4.129
 5027SOL     OW15979   1.118   6.933   3.673
 5027SOL    HW115980   1.038   6.901   3.724
 5027SOL    HW215981   1.143   6.865   3.604
 5028SOL     OW15982   0.287   0.605   3.016
 5028SOL    HW115983   0.267   0.511   2.992
 5028SOL    HW215984   0.229   0.667   2.962
 5029SOL     OW15985   0.082   1.376   1.327
 5029SOL    HW115986   0.000   1.433   1.335
 5029SOL    HW215987   0.160   1.423   1.369
 5030SOL     OW15988   1.159   6.190   0.086
 5030SOL    HW115989   1.180   6.286   0.067
 5030SOL    HW215990   1.239   6.146   0.127
 5031SOL     OW15991   5.350   0.518   4.471
 5031SOL    HW115992   5.406   0.601   4.461
 5031SOL    HW215993   5.312   0.515   4.563
 5032SOL     OW15994   2.145   5.609   0.947
 5032SOL    HW115995   2.221   5.662   0.910
 5032SOL    HW215996   2.070   5.607   0.881
 5033SOL     OW15997   1.966   4.238   5.497
 5033SOL    HW115998   1.933   4.181   5.571
 5033SOL    HW215999   2.018   4.315   5.534
 5034SOL     OW16000   6.729   3.047   1.010
 5034SOL    HW116001   6.719   3.135   1.056
 5034SOL    HW216002   6.777   3.060   0.923
 5035SOL     OW16003   5.227   4.417   0.511
 5035SOL    HW116004   5.310   4.361   0.507
 5035SOL    HW216005   5.186   4.421   0.420
 5036SOL     OW16006   1.364   0.255   1.968
 5036SOL    HW116007   1.451   0.269   2.016
 5036SOL    HW216008   1.345   0.335   1.910
 5037SOL     OW16009   4.185   2.249   4.026
 5037SOL    HW116010   4.214   2.156   4.048
 5037SOL    HW216011   4.252   2.291   3.965
 5038SOL     OW16012   1.809   6.483   5.282
 5038SOL    HW116013   1.906   6.507   5.282
 5038SOL    HW216014   1.800   6.384   5.289
 5039SOL     OW16015   2.105   1.761   5.316
 5039SOL    HW116016   2.076   1.791   5.225
 5039SOL    HW216017   2.180   1.819   5.347
 5040SOL     OW16018   3.188   3.802   5.819
 5040SOL    HW116019   3.204   3.704   5.832
 5040SOL    HW216020   3.125   3.815   5.742
 5041SOL     OW16021   1.412   4.582   0.623
 5041SOL    HW116022   1.508   4.558   0.605
 5041SOL    HW216023   1.367   4.508   0.672
 5042SOL     OW16024   5.059   2.358   6.506
 5042SOL    HW116025   5.077   2.456   6.505
 5042SOL    HW216026   5.030   2.328   6.415
 5043SOL     OW16027   3.923   0.717   3.491
 5043SOL    HW116028   3.899   0.800   3.542
 5043SOL    HW216029   3.914   0.637   3.550
 5044SOL     OW16030   6.628   4.908   3.340
 5044SOL    HW116031   6.586   4.833   3.289
 5044SOL    HW216032   6.697   4.872   3.402
 5045SOL     OW16033   5.961   2.115   6.711
 5045SOL    HW116034   5.945   2.203   6.756
 5045SOL    HW216035   6.040   2.122   6.650
 5046SOL     OW16036   3.470   2.876   5.092
 5046SOL    HW116037   3.413   2.794   5.090
 5046SOL    HW216038   3.559   2.856   5.052
 5047SOL     OW16039   0.804   0.827   2.369
 5047SOL    HW116040   0.729   0.792   2.425
 5047SOL    HW216041   0.814   0.926   2.384
 5048SOL     OW16042   5.920   2.800   1.669
 5048SOL    HW116043   5.917   2.720   1.610
 5048SOL    HW216044   5.998   2.858   1.645
 5049SOL     OW16045   0.879   2.526   2.302
 5049SOL    HW116046   0.917   2.477   2.224
 5049SOL    HW216047   0.916   2.619   2.304
 5050SOL     OW16048   0.895   3.138   1.866
 5050SOL    HW116049   0.890   3.229   1.825
 5050SOL    HW216050   0.812   3.120   1.918
 5051SOL     OW16051   3.041   5.635   0.609
 5051SOL    HW116052   3.102   5.560   0.583
 5051SOL    HW216053   2.947   5.601   0.614
 5052SOL     OW16054   5.610   4.928   0.756
 5052SOL    HW116055   5.624   4.830   0.771
 5052SOL    HW216056   5.565   4.968   0.836
 5053SOL     OW16057   2.729   4.477   0.681
 5053SOL    HW116058   2.719   4.400   0.744
 5053SOL    HW216059   2.669   4.551   0.709
 5054SOL     OW16060   3.952   5.978   4.796
 5054SOL    HW116061   3.891   5.901   4.777
 5054SOL    HW216062   3.896   6.060   4.814
 5055SOL     OW16063   1.036   1.937   5.170
 5055SOL    HW116064   0.936   1.933   5.174
 5055SOL    HW216065   1.065   2.016   5.117
 5056SOL     OW16066   0.770   2.626   5.249
 5056SOL    HW116067   0.722   2.553   5.199
 5056SOL    HW216068   0.703   2.689   5.288
 5057SOL     OW16069   0.145   4.900   2.521
 5057SOL    HW116070   0.145   4.803   2.543
 5057SOL    HW216071   0.214   4.919   2.451
 5058SOL     OW16072   3.974   4.359   6.514
 5058SOL    HW116073   4.055   4.399   6.473
 5058SOL    HW216074   3.892   4.401   6.475
 5059SOL     OW16075   3.758   1.863   3.754
 5059SOL    HW116076   3.685   1.930   3.764
 5059SOL    HW216077   3.793   1.864   3.660
 5060SOL     OW16078   0.380   3.219   5.546
 5060SOL    HW116079   0.439   3.228   5.626
 5060SOL    HW216080   0.437   3.208   5.464
 5061SOL     OW16081   3.660   2.861   5.469
 5061SOL    HW116082   3.654   2.789   5.399
 5061SOL    HW216083   3.699   2.823   5.553
 5062SOL     OW16084   5.133   1.447   2.781
 5062SOL    HW116085   5.067   1.518   2.755
 5062SOL    HW216086   5.090   1.384   2.845
 5063SOL     OW16087   0.971   0.564   2.754
 5063SOL    HW116088   0.924   0.633   2.699
 5063SOL    HW216089   0.935   0.474   2.731
 5064SOL     OW16090   4.498   5.593   0.965
 5064SOL    HW116091   4.443   5.529   1.019
 5064SOL    HW216092   4.488   5.685   1.002
 5065SOL     OW16093   2.460   6.975   2.549
 5065SOL    HW116094   2.518   6.895   2.538
 5065SOL    HW216095   2.513   0.028   2.588
 5066SOL     OW16096   2.557   4.573   1.957
 5066SOL    HW116097   2.525   4.629   1.881
 5066SOL    HW216098   2.653   4.592   1.975
 5067SOL     OW16099   4.445   2.952   1.121
 5067SOL    HW116100   4.528   2.990   1.081
 5067SOL    HW216101   4.377   2.935   1.049
 5068SOL     OW16102   2.910   6.050   0.370
 5068SOL    HW116103   2.927   5.997   0.454
 5068SOL    HW216104   2.915   6.147   0.391
 5069SOL     OW16105   3.337   5.391   5.605
 5069SOL    HW116106   3.360   5.371   5.700
 5069SOL    HW216107   3.319   5.306   5.556
 5070SOL     OW16108   6.219   3.068   3.896
 5070SOL    HW116109   6.317   3.087   3.885
 5070SOL    HW216110   6.176   3.145   3.943
 5071SOL     OW16111   2.687   0.474   4.413
 5071SOL    HW116112   2.588   0.486   4.416
 5071SOL    HW216113   2.729   0.525   4.488
 5072SOL     OW16114   1.049   1.524   0.225
 5072SOL    HW116115   1.057   1.507   0.323
 5072SOL    HW216116   1.095   1.611   0.202
 5073SOL     OW16117   2.285   0.470   2.375
 5073SOL    HW116118   2.218   0.529   2.419
 5073SOL    HW216119   2.239   0.406   2.313
 5074SOL     OW16120   3.401   2.283   1.693
 5074SOL    HW116121   3.348   2.210   1.734
 5074SOL    HW216122   3.467   2.318   1.759
 5075SOL     OW16123   1.094   3.305   0.171
 5075SOL    HW116124   1.009   3.295   0.223
 5075SOL    HW216125   1.142   3.217   0.169
 5076SOL     OW16126   5.392   6.723   6.545
 5076SOL    HW116127   5.369   6.751   6.451
 5076SOL    HW216128   5.335   6.646   6.571
 5077SOL     OW16129   1.047   4.371   3.977
 5077SOL    HW116130   1.099   4.310   4.037
 5077SOL    HW216131   1.059   4.343   3.882
 5078SOL     OW16132   0.760   1.631   4.057
 5078SOL    HW116133   0.854   1.597   4.049
 5078SOL    HW216134   0.701   1.581   3.993
 5079SOL     OW16135   1.724   2.969   5.814
 5079SOL    HW116136   1.672   2.926   5.741
 5079SOL    HW216137   1.668   3.039   5.858
 5080SOL     OW16138   5.660   5.227   6.622
 5080SOL    HW116139   5.747   5.207   6.667
 5080SOL    HW216140   5.676   5.288   6.544
 5081SOL     OW16141   3.141   5.247   5.276
 5081SOL    HW116142   3.208   5.239   5.350
 5081SOL    HW216143   3.190   5.261   5.189
 5082SOL     OW16144   5.959   6.234   1.856
 5082SOL    HW116145   6.017   6.166   1.810
 5082SOL    HW216146   6.000   6.257   1.944
 5083SOL     OW16147   2.155   6.821   3.269
 5083SOL    HW116148   2.110   6.732   3.266
 5083SOL    HW216149   2.153   6.856   3.363
 5084SOL     OW16150   1.528   4.916   5.109
 5084SOL    HW116151   1.531   4.859   5.191
 5084SOL    HW216152   1.620   4.922   5.069
 5085SOL     OW16153   0.264   3.869   6.325
 5085SOL    HW116154   0.238   3.865   6.229
 5085SOL    HW216155   0.344   3.812   6.341
 5086SOL     OW16156   2.677   4.938   2.336
 5086SOL    HW116157   2.594   4.932   2.281
 5086SOL    HW216158   2.733   4.856   2.322
 5087SOL     OW16159   7.016   4.994   2.159
 5087SOL    HW116160   0.019   4.974   2.065
 5087SOL    HW216161   0.004   4.911   2.215
 5088SOL     OW16162   5.084   6.175   2.215
 5088SOL    HW116163   5.115   6.092   2.169
 5088SOL    HW216164   4.991   6.162   2.249
 5089SOL     OW16165   5.607   5.110   4.980
 5089SOL    HW116166   5.611   5.194   4.925
 5089SOL    HW216167   5.648   5.035   4.928
 5090SOL     OW16168   3.012   0.271   4.980
 5090SOL    HW116169   3.016   0.173   5.001
 5090SOL    HW216170   3.092   0.316   5.020
 5091SOL     OW16171   6.246   6.905   0.042
 5091SOL    HW116172   6.297   6.835   0.091
 5091SOL    HW216173   6.197   6.864   6.988
 5092SOL     OW16174   2.872   3.519   4.337
 5092SOL    HW116175   2.924   3.594   4.377
 5092SOL    HW216176   2.784   3.553   4.304
 5093SOL     OW16177   1.917   1.644   2.619
 5093SOL    HW116178   1.820   1.668   2.626
 5093SOL    HW216179   1.973   1.726   2.634
 5094SOL     OW16180   2.775   5.802   5.915
 5094SOL    HW116181   2.771   5.888   5.864
 5094SOL    HW216182   2.706   5.802   5.987
 5095SOL     OW16183   6.420   1.140   3.108
 5095SOL    HW116184   6.359   1.216   3.128
 5095SOL    HW216185   6.414   1.117   3.011
 5096SOL     OW16186   5.597   2.789   5.513
 5096SOL    HW116187   5.652   2.708   5.493
 5096SOL    HW216188   5.581   2.840   5.428
 5097SOL     OW16189   1.187   6.696   6.584
 5097SOL    HW116190   1.223   6.623   6.526
 5097SOL    HW216191   1.179   6.662   6.678
 5098SOL     OW16192   3.770   2.279   1.604
 5098SOL    HW116193   3.818   2.350   1.553
 5098SOL    HW216194   3.732   2.318   1.688
 5099SOL     OW16195   0.853   0.174   1.895
 5099SOL    HW116196   0.759   0.188   1.926
 5099SOL    HW216197   0.867   0.223   1.809
 5100SOL     OW16198   5.515   4.323   2.614
 5100SOL    HW116199   5.483   4.414   2.639
 5100SOL    HW216200   5.612   4.328   2.588
 5101SOL     OW16201   3.664   6.986   6.359
 5101SOL    HW116202   3.646   6.963   6.455
 5101SOL    HW216203   3.586   6.958   6.303
 5102SOL     OW16204   5.018   4.559   4.591
 5102SOL    HW116205   5.101   4.565   4.648
 5102SOL    HW216206   4.937   4.565   4.650
 5103SOL     OW16207   1.292   0.730   5.891
 5103SOL    HW116208   1.327   0.651   5.842
 5103SOL    HW216209   1.200   0.711   5.925
 5104SOL     OW16210   3.662   4.393   1.594
 5104SOL    HW116211   3.748   4.443   1.592
 5104SOL    HW216212   3.599   4.438   1.657
 5105SOL     OW16213   3.695   3.476   6.416
 5105SOL    HW116214   3.727   3.567   6.393
 5105SOL    HW216215   3.770   3.422   6.453
 5106SOL     OW16216   4.619   2.966   0.863
 5106SOL    HW116217   4.695   2.983   0.800
 5106SOL    HW216218   4.535   3.005   0.825
 5107SOL     OW16219   5.368   3.216   0.748
 5107SOL    HW116220   5.280   3.233   0.791
 5107SOL    HW216221   5.371   3.262   0.659
 5108SOL     OW16222   4.453   4.519   6.915
 5108SOL    HW116223   4.506   4.454   6.970
 5108SOL    HW216224   4.496   4.609   6.921
 5109SOL     OW16225   1.787   2.790   1.094
 5109SOL    HW116226   1.708   2.763   1.040
 5109SOL    HW216227   1.769   2.878   1.138
 5110SOL     OW16228   4.987   0.496   6.235
 5110SOL    HW116229   5.000   0.444   6.319
 5110SOL    HW216230   4.982   0.594   6.257
 5111SOL     OW16231   0.569   6.565   5.379
 5111SOL    HW116232   0.610   6.631   5.316
 5111SOL    HW216233   0.641   6.507   5.417
 5112SOL     OW16234   0.261   0.440   2.762
 5112SOL    HW116235   0.287   0.445   2.665
 5112SOL    HW216236   0.200   0.362   2.776
 5113SOL     OW16237   2.289   4.416   0.066
 5113SOL    HW116238   2.266   4.365   7.005
 5113SOL    HW216239   2.374   4.380   0.105
 5114SOL     OW16240   4.195   5.748   0.722
 5114SOL    HW116241   4.174   5.668   0.777
 5114SOL    HW216242   4.182   5.727   0.625
 5115SOL     OW16243   1.565   4.008   1.238
 5115SOL    HW116244   1.524   4.068   1.170
 5115SOL    HW216245   1.580   3.917   1.198
 5116SOL     OW16246   1.783   6.839   6.530
 5116SOL    HW116247   1.788   6.767   6.600
 5116SOL    HW216248   1.709   6.903   6.554
 5117SOL     OW16249   1.496   2.256   3.753
 5117SOL    HW116250   1.417   2.199   3.731
 5117SOL    HW216251   1.553   2.209   3.821
 5118SOL     OW16252   5.372   5.912   6.288
 5118SOL    HW116253   5.276   5.905   6.315
 5118SOL    HW216254   5.430   5.904   6.370
 5119SOL     OW16255   5.141   1.914   0.352
 5119SOL    HW116256   5.101   2.005   0.339
 5119SOL    HW216257   5.078   1.858   0.405
 5120SOL     OW16258   5.362   0.043   5.444
 5120SOL    HW116259   5.377   0.140   5.465
 5120SOL    HW216260   5.282   0.011   5.495
 5121SOL     OW16261   1.668   4.045   6.811
 5121SOL    HW116262   1.587   4.067   6.757
 5121SOL    HW216263   1.750   4.053   6.754
 5122SOL     OW16264   5.127   5.166   3.768
 5122SOL    HW116265   5.185   5.134   3.843
 5122SOL    HW216266   5.051   5.220   3.805
 5123SOL     OW16267   5.037   2.411   2.193
 5123SOL    HW116268   5.119   2.425   2.137
 5123SOL    HW216269   4.998   2.499   2.217
 5124SOL     OW16270   2.068   6.432   3.586
 5124SOL    HW116271   2.122   6.496   3.640
 5124SOL    HW216272   1.986   6.405   3.637
 5125SOL     OW16273   0.369   1.875   3.804
 5125SOL    HW116274   0.306   1.892   3.880
 5125SOL    HW216275   0.365   1.950   3.739
 5126SOL     OW16276   2.362   6.786   0.486
 5126SOL    HW116277   2.288   6.849   0.462
 5126SOL    HW216278   2.447   6.837   0.497
 5127SOL     OW16279   2.054   5.337   6.952
 5127SOL    HW116280   2.078   5.268   7.020
 5127SOL    HW216281   2.036   5.292   6.864
 5128SOL     OW16282   6.510   6.171   1.797
 5128SOL    HW116283   6.553   6.261   1.796
 5128SOL    HW216284   6.546   6.117   1.873
 5129SOL     OW16285   5.492   6.859   1.210
 5129SOL    HW116286   5.543   6.787   1.258
 5129SOL    HW216287   5.508   6.851   1.111
 5130SOL     OW16288   6.306   4.919   3.130
 5130SOL    HW116289   6.302   4.947   3.226
 5130SOL    HW216290   6.291   4.821   3.124
 5131SOL     OW16291   2.347   2.405   3.527
 5131SOL    HW116292   2.293   2.412   3.611
 5131SOL    HW216293   2.304   2.459   3.455
 5132SOL     OW16294   2.631   5.113   5.429
 5132SOL    HW116295   2.543   5.147   5.464
 5132SOL    HW216296   2.704   5.173   5.460
 5133SOL     OW16297   3.553   6.577   6.368
 5133SOL    HW116298   3.519   6.642   6.436
 5133SOL    HW216299   3.518   6.601   6.278
 5134SOL     OW16300   0.360   3.917   0.870
 5134SOL    HW116301   0.423   3.863   0.926
 5134SOL    HW216302   0.272   3.924   0.917
 5135SOL     OW16303   6.767   1.637   5.153
 5135SOL    HW116304   6.784   1.734   5.133
 5135SOL    HW216305   6.720   1.595   5.074
 5136SOL     OW16306   4.411   1.424   4.311
 5136SOL    HW116307   4.399   1.478   4.227
 5136SOL    HW216308   4.345   1.349   4.312
 5137SOL     OW16309   4.136   4.442   6.148
 5137SOL    HW116310   4.163   4.346   6.148
 5137SOL    HW216311   4.047   4.452   6.104
 5138SOL     OW16312   2.739   3.859   5.712
 5138SOL    HW116313   2.684   3.794   5.660
 5138SOL    HW216314   2.750   3.826   5.806
 5139SOL     OW16315   1.075   6.610   3.962
 5139SOL    HW116316   1.173   6.591   3.959
 5139SOL    HW216317   1.032   6.574   3.879
 5140SOL     OW16318   3.570   2.919   1.222
 5140SOL    HW116319   3.561   2.823   1.248
 5140SOL    HW216320   3.515   2.975   1.283
 5141SOL     OW16321   5.911   3.068   6.679
 5141SOL    HW116322   6.000   3.028   6.654
 5141SOL    HW216323   5.922   3.122   6.762
 5142SOL     OW16324   5.470   3.946   4.395
 5142SOL    HW116325   5.446   3.876   4.463
 5142SOL    HW216326   5.393   4.008   4.383
 5143SOL     OW16327   6.932   5.184   4.019
 5143SOL    HW116328   7.019   5.212   3.978
 5143SOL    HW216329   6.878   5.135   3.952
 5144SOL     OW16330   1.688   1.346   5.757
 5144SOL    HW116331   1.617   1.340   5.827
 5144SOL    HW216332   1.644   1.350   5.667
 5145SOL     OW16333   2.399   5.352   5.978
 5145SOL    HW116334   2.403   5.271   5.919
 5145SOL    HW216335   2.453   5.426   5.937
 5146SOL     OW16336   3.073   4.562   6.860
 5146SOL    HW116337   3.166   4.599   6.853
 5146SOL    HW216338   3.028   4.601   6.940
 5147SOL     OW16339   6.213   4.400   6.410
 5147SOL    HW116340   6.235   4.405   6.507
 5147SOL    HW216341   6.113   4.398   6.398
 5148SOL     OW16342   0.554   6.002   1.328
 5148SOL    HW116343   0.621   5.988   1.255
 5148SOL    HW216344   0.483   5.933   1.322
 5149SOL     OW16345   6.354   1.298   4.108
 5149SOL    HW116346   6.348   1.212   4.058
 5149SOL    HW216347   6.340   1.281   4.206
 5150SOL     OW16348   1.605   5.318   4.115
 5150SOL    HW116349   1.641   5.232   4.151
 5150SOL    HW216350   1.550   5.299   4.034
 5151SOL     OW16351   4.264   1.219   6.660
 5151SOL    HW116352   4.352   1.210   6.707
 5151SOL    HW216353   4.243   1.134   6.611
 5152SOL     OW16354   1.008   4.749   6.958
 5152SOL    HW116355   1.004   4.658   6.918
 5152SOL    HW216356   1.066   4.808   6.901
 5153SOL     OW16357   1.335   1.901   0.832
 5153SOL    HW116358   1.378   1.907   0.741
 5153SOL    HW216359   1.248   1.950   0.831
 5154SOL     OW16360   1.659   2.599   5.180
 5154SOL    HW116361   1.719   2.520   5.177
 5154SOL    HW216362   1.664   2.642   5.271
 5155SOL     OW16363   3.604   6.826   2.293
 5155SOL    HW116364   3.566   6.821   2.201
 5155SOL    HW216365   3.565   6.753   2.350
 5156SOL     OW16366   5.871   2.695   5.283
 5156SOL    HW116367   5.970   2.680   5.281
 5156SOL    HW216368   5.850   2.788   5.253
 5157SOL     OW16369   5.314   2.755   3.439
 5157SOL    HW116370   5.363   2.837   3.470
 5157SOL    HW216371   5.323   2.683   3.508
 5158SOL     OW16372   3.751   1.790   1.265
 5158SOL    HW116373   3.666   1.814   1.313
 5158SOL    HW216374   3.729   1.732   1.186
 5159SOL     OW16375   1.550   3.070   4.133
 5159SOL    HW116376   1.579   3.133   4.205
 5159SOL    HW216377   1.554   3.117   4.045
 5160SOL     OW16378   1.887   3.477   4.570
 5160SOL    HW116379   1.934   3.490   4.483
 5160SOL    HW216380   1.951   3.493   4.645
 5161SOL     OW16381   0.667   3.023   5.150
 5161SOL    HW116382   0.716   3.110   5.153
 5161SOL    HW216383   0.718   2.955   5.204
 5162SOL     OW16384   6.574   6.326   4.195
 5162SOL    HW116385   6.568   6.227   4.208
 5162SOL    HW216386   6.488   6.369   4.225
 5163SOL     OW16387   5.164   4.214   1.160
 5163SOL    HW116388   5.244   4.191   1.215
 5163SOL    HW216389   5.182   4.194   1.064
 5164SOL     OW16390   5.862   3.958   5.669
 5164SOL    HW116391   5.917   3.948   5.752
 5164SOL    HW216392   5.781   4.012   5.690
 5165SOL     OW16393   6.173   4.206   3.857
 5165SOL    HW116394   6.215   4.116   3.848
 5165SOL    HW216395   6.183   4.257   3.771
 5166SOL     OW16396   1.988   5.781   2.220
 5166SOL    HW116397   1.924   5.809   2.291
 5166SOL    HW216398   2.068   5.841   2.222
 5167SOL     OW16399   0.276   6.369   5.866
 5167SOL    HW116400   0.314   6.336   5.953
 5167SOL    HW216401   0.248   6.465   5.876
 5168SOL     OW16402   4.264   2.304   2.965
 5168SOL    HW116403   4.248   2.296   2.867
 5168SOL    HW216404   4.359   2.333   2.980
 5169SOL     OW16405   3.809   3.712   6.353
 5169SOL    HW116406   3.820   3.745   6.259
 5169SOL    HW216407   3.898   3.692   6.392
 5170SOL     OW16408   5.540   4.269   4.895
 5170SOL    HW116409   5.635   4.265   4.927
 5170SOL    HW216410   5.521   4.189   4.837
 5171SOL     OW16411   2.311   5.502   4.777
 5171SOL    HW116412   2.295   5.600   4.768
 5171SOL    HW216413   2.228   5.451   4.753
 5172SOL     OW16414   1.228   4.875   2.330
 5172SOL    HW116415   1.200   4.794   2.382
 5172SOL    HW216416   1.189   4.870   2.238
 5173SOL     OW16417   5.777   2.875   6.544
 5173SOL    HW116418   5.740   2.822   6.620
 5173SOL    HW216419   5.844   2.940   6.580
 5174SOL     OW16420   1.202   4.596   6.155
 5174SOL    HW116421   1.271   4.525   6.169
 5174SOL    HW216422   1.152   4.576   6.071
 5175SOL     OW16423   0.920   4.572   0.144
 5175SOL    HW116424   0.963   4.643   0.088
 5175SOL    HW216425   0.852   4.614   0.204
 5176SOL     OW16426   4.866   3.493   0.468
 5176SOL    HW116427   4.947   3.533   0.511
 5176SOL    HW216428   4.881   3.485   0.370
 5177SOL     OW16429   5.171   0.219   6.269
 5177SOL    HW116430   5.158   0.153   6.195
 5177SOL    HW216431   5.213   0.173   6.348
 5178SOL     OW16432   2.524   2.521   2.028
 5178SOL    HW116433   2.555   2.440   2.078
 5178SOL    HW216434   2.483   2.586   2.092
 5179SOL     OW16435   3.349   6.315   5.740
 5179SOL    HW116436   3.428   6.256   5.763
 5179SOL    HW216437   3.269   6.258   5.722
 5180SOL     OW16438   2.866   2.045   1.574
 5180SOL    HW116439   2.842   2.064   1.479
 5180SOL    HW216440   2.899   2.128   1.618
 5181SOL     OW16441   4.214   6.549   2.891
 5181SOL    HW116442   4.157   6.516   2.966
 5181SOL    HW216443   4.226   6.648   2.899
 5182SOL     OW16444   5.362   4.441   1.224
 5182SOL    HW116445   5.316   4.506   1.285
 5182SOL    HW216446   5.295   4.399   1.163
 5183SOL     OW16447   4.470   0.316   1.830
 5183SOL    HW116448   4.420   0.244   1.878
 5183SOL    HW216449   4.404   0.382   1.793
 5184SOL     OW16450   0.951   0.830   2.987
 5184SOL    HW116451   0.934   0.877   2.901
 5184SOL    HW216452   0.999   0.744   2.969
 5185SOL     OW16453   3.836   0.214   2.124
 5185SOL    HW116454   3.930   0.238   2.099
 5185SOL    HW216455   3.795   0.159   2.051
 5186SOL     OW16456   6.327   4.157   0.519
 5186SOL    HW116457   6.383   4.180   0.599
 5186SOL    HW216458   6.380   4.100   0.457
 5187SOL     OW16459   5.626   1.771   4.078
 5187SOL    HW116460   5.708   1.827   4.064
 5187SOL    HW216461   5.586   1.747   3.990
 5188SOL     OW16462   0.831   4.035   5.969
 5188SOL    HW116463   0.745   3.989   5.945
 5188SOL    HW216464   0.825   4.132   5.946
 5189SOL     OW16465   4.430   5.255   6.609
 5189SOL    HW116466   4.335   5.228   6.625
 5189SOL    HW216467   4.475   5.272   6.697
 5190SOL     OW16468   1.585   2.507   3.684
 5190SOL    HW116469   1.555   2.419   3.721
 5190SOL    HW216470   1.638   2.491   3.601
 5191SOL     OW16471   3.535   0.827   1.220
 5191SOL    HW116472   3.570   0.919   1.235
 5191SOL    HW216473   3.607   0.760   1.239
 5192SOL     OW16474   6.259   5.849   2.907
 5192SOL    HW116475   6.176   5.901   2.886
 5192SOL    HW216476   6.245   5.798   2.992
 5193SOL     OW16477   4.821   3.986   3.348
 5193SOL    HW116478   4.776   4.028   3.269
 5193SOL    HW216479   4.807   4.044   3.429
 5194SOL     OW16480   5.591   0.514   5.433
 5194SOL    HW116481   5.610   0.540   5.527
 5194SOL    HW216482   5.629   0.582   5.371
 5195SOL     OW16483   6.291   6.322   5.766
 5195SOL    HW116484   6.337   6.234   5.780
 5195SOL    HW216485   6.220   6.333   5.836
 5196SOL     OW16486   0.312   4.234   1.845
 5196SOL    HW116487   0.220   4.198   1.828
 5196SOL    HW216488   0.367   4.227   1.762
 5197SOL     OW16489   2.938   5.695   4.860
 5197SOL    HW116490   2.890   5.609   4.845
 5197SOL    HW216491   2.887   5.770   4.817
 5198SOL     OW16492   4.097   6.785   5.271
 5198SOL    HW116493   4.056   6.722   5.338
 5198SOL    HW216494   4.024   6.832   5.222
 5199SOL     OW16495   1.836   5.087   1.327
 5199SOL    HW116496   1.867   5.001   1.286
 5199SOL    HW216497   1.878   5.098   1.417
 5200SOL     OW16498   6.976   1.284   5.267
 5200SOL    HW116499   6.927   1.371   5.269
 5200SOL    HW216500   7.008   1.266   5.174
 5201SOL     OW16501   6.436   5.084   3.943
 5201SOL    HW116502   6.363   5.053   4.004
 5201SOL    HW216503   6.426   5.040   3.854
 5202SOL     OW16504   3.617   2.557   5.887
 5202SOL    HW116505   3.689   2.518   5.945
 5202SOL    HW216506   3.529   2.545   5.932
 5203SOL     OW16507   1.686   0.250   0.685
 5203SOL    HW116508   1.630   0.228   0.765
 5203SOL    HW216509   1.633   0.305   0.621
 5204SOL     OW16510   3.272   0.860   0.444
 5204SOL    HW116511   3.278   0.947   0.492
 5204SOL    HW216512   3.188   0.813   0.471
 5205SOL     OW16513   0.270   5.778   0.580
 5205SOL    HW116514   0.227   5.710   0.640
 5205SOL    HW216515   0.341   5.733   0.525
 5206SOL     OW16516   1.172   4.098   4.643
 5206SOL    HW116517   1.080   4.104   4.605
 5206SOL    HW216518   1.184   4.169   4.713
 5207SOL     OW16519   0.214   0.559   3.895
 5207SOL    HW116520   0.157   0.625   3.847
 5207SOL    HW216521   0.233   0.594   3.987
 5208SOL     OW16522   4.860   2.005   0.051
 5208SOL    HW116523   4.947   2.028   0.009
 5208SOL    HW216524   4.862   1.910   0.083
 5209SOL     OW16525   5.223   5.706   2.597
 5209SOL    HW116526   5.192   5.796   2.624
 5209SOL    HW216527   5.228   5.646   2.677
 5210SOL     OW16528   5.198   4.114   0.262
 5210SOL    HW116529   5.119   4.130   0.321
 5210SOL    HW216530   5.212   4.193   0.202
 5211SOL     OW16531   4.931   3.297   4.454
 5211SOL    HW116532   4.943   3.381   4.508
 5211SOL    HW216533   4.882   3.229   4.509
 5212SOL     OW16534   1.243   3.625   0.596
 5212SOL    HW116535   1.168   3.561   0.578
 5212SOL    HW216536   1.308   3.623   0.520
 5213SOL     OW16537   4.129   3.287   2.896
 5213SOL    HW116538   4.208   3.251   2.945
 5213SOL    HW216539   4.081   3.212   2.850
 5214SOL     OW16540   5.287   3.622   5.672
 5214SOL    HW116541   5.322   3.661   5.758
 5214SOL    HW216542   5.264   3.697   5.610
 5215SOL     OW16543   6.931   3.762   4.504
 5215SOL    HW116544   6.932   3.861   4.489
 5215SOL    HW216545   6.871   3.719   4.438
 5216SOL     OW16546   4.820   5.406   1.164
 5216SOL    HW116547   4.759   5.459   1.223
 5216SOL    HW216548   4.893   5.465   1.131
 5217SOL     OW16549   4.339   6.114   4.097
 5217SOL    HW116550   4.385   6.203   4.092
 5217SOL    HW216551   4.240   6.129   4.095
 5218SOL     OW16552   0.211   6.770   0.717
 5218SOL    HW116553   0.116   6.786   0.690
 5218SOL    HW216554   0.273   6.803   0.646
 5219SOL     OW16555   3.267   1.537   4.809
 5219SOL    HW116556   3.224   1.463   4.758
 5219SOL    HW216557   3.308   1.603   4.746
 5220SOL     OW16558   2.129   4.460   4.232
 5220SOL    HW116559   2.147   4.362   4.222
 5220SOL    HW216560   2.030   4.476   4.237
 5221SOL     OW16561   6.386   5.968   0.975
 5221SOL    HW116562   6.363   5.998   0.883
 5221SOL    HW216563   6.310   5.915   1.013
 5222SOL     OW16564   5.209   4.067   0.623
 5222SOL    HW116565   5.242   4.109   0.708
 5222SOL    HW216566   5.109   4.059   0.626
 5223SOL     OW16567   0.255   3.146   1.166
 5223SOL    HW116568   0.345   3.183   1.143
 5223SOL    HW216569   0.220   3.192   1.247
 5224SOL     OW16570   0.497   2.548   5.362
 5224SOL    HW116571   0.527   2.514   5.273
 5224SOL    HW216572   0.536   2.639   5.378
 5225SOL     OW16573   0.204   1.483   5.157
 5225SOL    HW116574   0.221   1.420   5.081
 5225SOL    HW216575   0.153   1.563   5.123
 5226SOL     OW16576   0.959   6.521   3.705
 5226SOL    HW116577   0.910   6.437   3.682
 5226SOL    HW216578   1.044   6.525   3.652
 5227SOL     OW16579   6.913   2.648   5.375
 5227SOL    HW116580   6.967   2.569   5.346
 5227SOL    HW216581   6.910   2.652   5.475
 5228SOL     OW16582   1.548   2.295   5.765
 5228SOL    HW116583   1.595   2.381   5.784
 5228SOL    HW216584   1.615   2.225   5.740
 5229SOL     OW16585   3.478   0.878   6.181
 5229SOL    HW116586   3.475   0.972   6.149
 5229SOL    HW216587   3.570   0.857   6.215
 5230SOL     OW16588   6.584   6.573   1.997
 5230SOL    HW116589   6.590   6.671   1.981
 5230SOL    HW216590   6.611   6.523   1.915
 5231SOL     OW16591   6.682   2.199   2.159
 5231SOL    HW116592   6.767   2.252   2.159
 5231SOL    HW216593   6.669   2.156   2.070
 5232SOL     OW16594   1.591   2.997   5.559
 5232SOL    HW116595   1.527   3.024   5.488
 5232SOL    HW216596   1.678   3.045   5.546
 5233SOL     OW16597   3.072   6.834   2.769
 5233SOL    HW116598   3.152   6.843   2.827
 5233SOL    HW216599   3.035   6.742   2.777
 5234SOL     OW16600   2.354   2.016   0.136
 5234SOL    HW116601   2.420   1.957   0.090
 5234SOL    HW216602   2.266   1.968   0.144
 5235SOL     OW16603   2.107   2.001   1.303
 5235SOL    HW116604   2.162   1.930   1.347
 5235SOL    HW216605   2.062   1.963   1.223
 5236SOL     OW16606   3.933   5.785   1.806
 5236SOL    HW116607   3.865   5.799   1.878
 5236SOL    HW216608   4.023   5.816   1.839
 5237SOL     OW16609   2.276   1.977   3.255
 5237SOL    HW116610   2.320   1.945   3.339
 5237SOL    HW216611   2.213   2.051   3.276
 5238SOL     OW16612   1.078   6.771   2.933
 5238SOL    HW116613   1.016   6.797   2.859
 5238SOL    HW216614   1.129   6.689   2.907
 5239SOL     OW16615   2.419   3.948   1.257
 5239SOL    HW116616   2.508   3.974   1.294
 5239SOL    HW216617   2.420   3.851   1.231
 5240SOL     OW16618   2.299   3.580   5.738
 5240SOL    HW116619   2.317   3.581   5.836
 5240SOL    HW216620   2.280   3.673   5.706
 5241SOL     OW16621   1.088   5.694   2.352
 5241SOL    HW116622   0.994   5.707   2.321
 5241SOL    HW216623   1.095   5.717   2.449
 5242SOL     OW16624   5.014   0.355   6.461
 5242SOL    HW116625   4.994   0.323   6.554
 5242SOL    HW216626   5.040   0.277   6.404
 5243SOL     OW16627   2.631   6.754   2.514
 5243SOL    HW116628   2.670   6.691   2.580
 5243SOL    HW216629   2.694   6.765   2.437
 5244SOL     OW16630   4.763   3.098   0.660
 5244SOL    HW116631   4.758   3.121   0.563
 5244SOL    HW216632   4.858   3.076   0.684
 5245SOL     OW16633   4.108   3.630   1.945
 5245SOL    HW116634   4.107   3.693   2.023
 5245SOL    HW216635   4.088   3.681   1.861
 5246SOL     OW16636   6.026   3.216   1.226
 5246SOL    HW116637   5.970   3.133   1.228
 5246SOL    HW216638   6.123   3.191   1.227
 5247SOL     OW16639   3.630   2.058   6.140
 5247SOL    HW116640   3.656   2.109   6.059
 5247SOL    HW216641   3.666   1.965   6.134
 5248SOL     OW16642   6.863   1.040   3.786
 5248SOL    HW116643   6.888   1.025   3.882
 5248SOL    HW216644   6.908   1.122   3.752
 5249SOL     OW16645   0.471   4.837   6.630
 5249SOL    HW116646   0.420   4.761   6.671
 5249SOL    HW216647   0.539   4.801   6.566
 5250SOL     OW16648   2.119   5.741   1.206
 5250SOL    HW116649   2.124   5.752   1.107
 5250SOL    HW216650   2.035   5.785   1.240
 5251SOL     OW16651   0.673   5.022   0.617
 5251SOL    HW116652   0.600   5.062   0.562
 5251SOL    HW216653   0.709   5.091   0.680
 5252SOL     OW16654   3.825   6.975   2.308
 5252SOL    HW116655   3.806   0.051   2.302
 5252SOL    HW216656   3.742   6.924   2.287
 5253SOL     OW16657   6.613   5.817   4.301
 5253SOL    HW116658   6.574   5.729   4.274
 5253SOL    HW216659   6.690   5.801   4.363
 5254SOL     OW16660   6.114   0.377   3.500
 5254SOL    HW116661   6.060   0.293   3.488
 5254SOL    HW216662   6.172   0.391   3.420
 5255SOL     OW16663   6.355   1.508   5.503
 5255SOL    HW116664   6.311   1.524   5.414
 5255SOL    HW216665   6.343   1.413   5.529
 5256SOL     OW16666   6.824   1.609   2.681
 5256SOL    HW116667   6.751   1.636   2.744
 5256SOL    HW216668   6.788   1.542   2.616
 5257SOL     OW16669   3.940   0.993   6.404
 5257SOL    HW116670   3.944   1.022   6.308
 5257SOL    HW216671   3.922   0.895   6.409
 5258SOL     OW16672   4.088   1.270   3.140
 5258SOL    HW116673   4.123   1.355   3.101
 5258SOL    HW216674   4.155   1.197   3.126
 5259SOL     OW16675   6.311   5.567   3.355
 5259SOL    HW116676   6.238   5.515   3.398
 5259SOL    HW216677   6.391   5.569   3.415
 5260SOL     OW16678   2.217   1.032   0.866
 5260SOL    HW116679   2.214   1.111   0.928
 5260SOL    HW216680   2.138   1.035   0.804
 5261SOL     OW16681   5.903   4.450   0.181
 5261SOL    HW116682   5.822   4.411   0.225
 5261SOL    HW216683   5.953   4.506   0.247
 5262SOL     OW16684   1.989   0.823   2.971
 5262SOL    HW116685   1.958   0.893   3.036
 5262SOL    HW216686   1.978   0.858   2.878
 5263SOL     OW16687   1.808   0.003   2.671
 5263SOL    HW116688   1.895   6.977   2.674
 5263SOL    HW216689   1.816   0.091   2.718
 5264SOL     OW16690   6.494   1.830   1.888
 5264SOL    HW116691   6.439   1.748   1.901
 5264SOL    HW216692   6.437   1.903   1.851
 5265SOL     OW16693   6.592   4.528   4.228
 5265SOL    HW116694   6.640   4.616   4.237
 5265SOL    HW216695   6.577   4.489   4.319
 5266SOL     OW16696   2.177   0.546   0.460
 5266SOL    HW116697   2.260   0.500   0.492
 5266SOL    HW216698   2.097   0.493   0.488
 5267SOL     OW16699   5.455   2.937   4.325
 5267SOL    HW116700   5.383   2.921   4.258
 5267SOL    HW216701   5.477   2.851   4.371
 5268SOL     OW16702   5.383   0.639   5.854
 5268SOL    HW116703   5.326   0.578   5.799
 5268SOL    HW216704   5.393   0.601   5.946
 5269SOL     OW16705   0.362   6.108   3.551
 5269SOL    HW116706   0.348   6.164   3.633
 5269SOL    HW216707   0.322   6.017   3.566
 5270SOL     OW16708   0.799   2.468   5.979
 5270SOL    HW116709   0.847   2.460   5.892
 5270SOL    HW216710   0.864   2.462   6.054
 5271SOL     OW16711   0.015   5.056   3.330
 5271SOL    HW116712   0.093   5.104   3.291
 5271SOL    HW216713   0.034   4.958   3.336
 5272SOL     OW16714   4.580   1.120   0.554
 5272SOL    HW116715   4.510   1.067   0.506
 5272SOL    HW216716   4.601   1.202   0.501
 5273SOL     OW16717   0.988   2.519   3.035
 5273SOL    HW116718   1.043   2.442   3.066
 5273SOL    HW216719   1.026   2.556   2.950
 5274SOL     OW16720   4.724   5.464   1.809
 5274SOL    HW116721   4.714   5.561   1.829
 5274SOL    HW216722   4.821   5.441   1.802
 5275SOL     OW16723   4.398   2.032   6.477
 5275SOL    HW116724   4.417   2.047   6.574
 5275SOL    HW216725   4.469   1.974   6.438
 5276SOL     OW16726   4.446   6.197   3.041
 5276SOL    HW116727   4.533   6.243   3.030
 5276SOL    HW216728   4.399   6.232   3.122
 5277SOL     OW16729   2.116   2.221   1.727
 5277SOL    HW116730   2.193   2.181   1.678
 5277SOL    HW216731   2.146   2.253   1.817
 5278SOL     OW16732   4.634   4.674   1.157
 5278SOL    HW116733   4.537   4.652   1.167
 5278SOL    HW216734   4.675   4.692   1.247
 5279SOL     OW16735   2.859   5.628   2.187
 5279SOL    HW116736   2.774   5.597   2.230
 5279SOL    HW216737   2.922   5.550   2.179
 5280SOL     OW16738   5.001   6.362   4.518
 5280SOL    HW116739   4.910   6.342   4.481
 5280SOL    HW216740   5.047   6.429   4.459
 5281SOL     OW16741   0.531   1.863   1.166
 5281SOL    HW116742   0.491   1.823   1.248
 5281SOL    HW216743   0.619   1.905   1.189
 5282SOL     OW16744   4.368   1.729   2.750
 5282SOL    HW116745   4.272   1.755   2.760
 5282SOL    HW216746   4.423   1.809   2.726
 5283SOL     OW16747   4.835   4.360   5.875
 5283SOL    HW116748   4.747   4.364   5.922
 5283SOL    HW216749   4.829   4.407   5.787
 5284SOL     OW16750   5.394   2.947   3.646
 5284SOL    HW116751   5.295   2.949   3.630
 5284SOL    HW216752   5.412   2.955   3.744
 5285SOL     OW16753   3.227   5.690   3.558
 5285SOL    HW116754   3.212   5.613   3.621
 5285SOL    HW216755   3.247   5.655   3.467
 5286SOL     OW16756   2.407   4.597   1.682
 5286SOL    HW116757   2.321   4.546   1.685
 5286SOL    HW216758   2.483   4.533   1.671
 5287SOL     OW16759   1.253   1.721   1.345
 5287SOL    HW116760   1.291   1.764   1.264
 5287SOL    HW216761   1.326   1.707   1.413
 5288SOL     OW16762   3.783   0.486   1.057
 5288SOL    HW116763   3.738   0.397   1.062
 5288SOL    HW216764   3.821   0.510   1.146
 5289SOL     OW16765   2.267   5.378   1.037
 5289SOL    HW116766   2.273   5.383   1.137
 5289SOL    HW216767   2.240   5.468   1.001
 5290SOL     OW16768   4.764   5.769   0.400
 5290SOL    HW116769   4.796   5.845   0.456
 5290SOL    HW216770   4.664   5.768   0.399
 5291SOL     OW16771   1.533   5.103   5.900
 5291SOL    HW116772   1.625   5.064   5.890
 5291SOL    HW216773   1.478   5.080   5.820
 5292SOL     OW16774   4.655   2.806   5.504
 5292SOL    HW116775   4.609   2.731   5.551
 5292SOL    HW216776   4.612   2.821   5.415
 5293SOL     OW16777   0.450   0.358   4.412
 5293SOL    HW116778   0.509   0.318   4.343
 5293SOL    HW216779   0.370   0.299   4.425
 5294SOL     OW16780   5.427   1.790   5.470
 5294SOL    HW116781   5.347   1.804   5.411
 5294SOL    HW216782   5.503   1.755   5.415
 5295SOL     OW16783   6.279   1.302   1.855
 5295SOL    HW116784   6.324   1.276   1.941
 5295SOL    HW216785   6.198   1.357   1.876
 5296SOL     OW16786   0.859   4.182   0.391
 5296SOL    HW116787   0.947   4.181   0.344
 5296SOL    HW216788   0.866   4.234   0.476
 5297SOL     OW16789   1.796   3.113   1.439
 5297SOL    HW116790   1.887   3.109   1.480
 5297SOL    HW216791   1.731   3.063   1.496
 5298SOL     OW16792   1.204   5.247   1.418
 5298SOL    HW116793   1.255   5.281   1.338
 5298SOL    HW216794   1.108   5.276   1.411
 5299SOL     OW16795   3.049   0.208   2.155
 5299SOL    HW116796   2.968   0.157   2.181
 5299SOL    HW216797   3.023   0.302   2.131
 5300SOL     OW16798   6.929   5.265   3.116
 5300SOL    HW116799   7.016   5.271   3.067
 5300SOL    HW216800   6.943   5.295   3.211
 5301SOL     OW16801   4.069   1.658   0.325
 5301SOL    HW116802   4.157   1.638   0.368
 5301SOL    HW216803   4.060   1.757   0.313
 5302SOL     OW16804   6.529   4.709   2.997
 5302SOL    HW116805   6.552   4.807   2.997
 5302SOL    HW216806   6.591   4.660   3.058
 5303SOL     OW16807   0.776   4.804   3.832
 5303SOL    HW116808   0.829   4.851   3.903
 5303SOL    HW216809   0.699   4.757   3.874
 5304SOL     OW16810   5.358   2.207   5.678
 5304SOL    HW116811   5.396   2.219   5.587
 5304SOL    HW216812   5.264   2.175   5.671
 5305SOL     OW16813   2.687   1.166   3.071
 5305SOL    HW116814   2.616   1.235   3.085
 5305SOL    HW216815   2.736   1.150   3.157
 5306SOL     OW16816   2.429   0.151   5.560
 5306SOL    HW116817   2.387   0.063   5.536
 5306SOL    HW216818   2.371   0.199   5.626
 5307SOL     OW16819   5.036   6.959   6.643
 5307SOL    HW116820   5.055   6.867   6.677
 5307SOL    HW216821   4.996   6.953   6.551
 5308SOL     OW16822   0.059   0.850   3.214
 5308SOL    HW116823   6.990   0.892   3.211
 5308SOL    HW216824   0.104   0.862   3.126
 5309SOL     OW16825   3.666   3.812   3.976
 5309SOL    HW116826   3.693   3.872   3.901
 5309SOL    HW216827   3.694   3.852   4.063
 5310SOL     OW16828   4.785   2.067   0.651
 5310SOL    HW116829   4.857   2.112   0.704
 5310SOL    HW216830   4.710   2.132   0.635
 5311SOL     OW16831   1.405   6.043   0.072
 5311SOL    HW116832   1.420   6.142   0.068
 5311SOL    HW216833   1.414   6.004   7.003
 5312SOL     OW16834   0.512   3.294   2.290
 5312SOL    HW116835   0.533   3.352   2.211
 5312SOL    HW216836   0.417   3.263   2.284
 5313SOL     OW16837   1.678   5.729   0.238
 5313SOL    HW116838   1.640   5.652   0.186
 5313SOL    HW216839   1.606   5.795   0.258
 5314SOL     OW16840   3.597   5.106   0.619
 5314SOL    HW116841   3.601   5.009   0.599
 5314SOL    HW216842   3.533   5.150   0.556
 5315SOL     OW16843   5.014   2.692   2.301
 5315SOL    HW116844   4.915   2.703   2.294
 5315SOL    HW216845   5.059   2.780   2.286
 5316SOL     OW16846   6.426   5.077   4.320
 5316SOL    HW116847   6.380   5.165   4.324
 5316SOL    HW216848   6.525   5.091   4.322
 5317SOL     OW16849   5.654   5.939   2.649
 5317SOL    HW116850   5.578   5.892   2.694
 5317SOL    HW216851   5.738   5.886   2.662
 5318SOL     OW16852   0.116   2.701   4.953
 5318SOL    HW116853   0.202   2.669   4.992
 5318SOL    HW216854   0.062   2.747   5.024
 5319SOL     OW16855   4.240   0.066   1.245
 5319SOL    HW116856   4.235   7.014   1.311
 5319SOL    HW216857   4.335   0.096   1.235
 5320SOL     OW16858   5.352   3.534   6.194
 5320SOL    HW116859   5.389   3.455   6.143
 5320SOL    HW216860   5.268   3.565   6.150
 5321SOL     OW16861   1.485   5.358   5.763
 5321SOL    HW116862   1.511   5.360   5.666
 5321SOL    HW216863   1.554   5.307   5.814
 5322SOL     OW16864   3.358   6.222   0.470
 5322SOL    HW116865   3.455   6.239   0.482
 5322SOL    HW216866   3.336   6.130   0.504
 5323SOL     OW16867   5.865   3.132   0.365
 5323SOL    HW116868   5.834   3.186   0.443
 5323SOL    HW216869   5.871   3.190   0.284
 5324SOL     OW16870   3.932   3.275   1.707
 5324SOL    HW116871   3.969   3.220   1.782
 5324SOL    HW216872   3.834   3.292   1.723
 5325SOL     OW16873   4.925   6.043   3.364
 5325SOL    HW116874   4.945   6.123   3.308
 5325SOL    HW216875   4.935   5.960   3.309
 5326SOL     OW16876   6.637   6.910   2.193
 5326SOL    HW116877   6.720   6.965   2.203
 5326SOL    HW216878   6.632   6.875   2.099
 5327SOL     OW16879   6.734   0.418   4.559
 5327SOL    HW116880   6.781   0.458   4.638
 5327SOL    HW216881   6.785   0.439   4.476
 5328SOL     OW16882   3.720   5.050   1.109
 5328SOL    HW116883   3.656   5.062   1.034
 5328SOL    HW216884   3.762   4.959   1.103
 5329SOL     OW16885   6.777   4.901   0.135
 5329SOL    HW116886   6.680   4.915   0.115
 5329SOL    HW216887   6.815   4.982   0.179
 5330SOL     OW16888   4.566   4.798   6.984
 5330SOL    HW116889   4.659   4.763   6.976
 5330SOL    HW216890   4.553   4.873   6.918
 5331SOL     OW16891   4.760   3.038   6.612
 5331SOL    HW116892   4.846   2.989   6.626
 5331SOL    HW216893   4.770   3.102   6.536
 5332SOL     OW16894   6.191   2.575   0.038
 5332SOL    HW116895   6.195   2.476   0.027
 5332SOL    HW216896   6.236   2.601   0.124
 5333SOL     OW16897   1.797   1.782   3.885
 5333SOL    HW116898   1.752   1.697   3.859
 5333SOL    HW216899   1.841   1.823   3.805
 5334SOL     OW16900   3.446   5.709   1.765
 5334SOL    HW116901   3.364   5.751   1.804
 5334SOL    HW216902   3.505   5.677   1.840
 5335SOL     OW16903   6.982   4.377   1.186
 5335SOL    HW116904   7.019   4.409   1.273
 5335SOL    HW216905   7.013   4.436   1.112
 5336SOL     OW16906   1.926   2.967   4.574
 5336SOL    HW116907   1.886   3.052   4.609
 5336SOL    HW216908   1.927   2.898   4.646
 5337SOL     OW16909   5.894   5.587   0.646
 5337SOL    HW116910   5.828   5.525   0.605
 5337SOL    HW216911   5.985   5.570   0.608
 5338SOL     OW16912   6.431   3.180   0.931
 5338SOL    HW116913   6.453   3.164   0.835
 5338SOL    HW216914   6.450   3.098   0.985
 5339SOL     OW16915   5.465   3.950   2.988
 5339SOL    HW116916   5.517   4.035   2.991
 5339SOL    HW216917   5.411   3.947   2.904
 5340SOL     OW16918   5.391   3.213   2.896
 5340SOL    HW116919   5.409   3.129   2.946
 5340SOL    HW216920   5.440   3.289   2.940
 5341SOL     OW16921   4.044   4.842   3.821
 5341SOL    HW116922   4.129   4.818   3.774
 5341SOL    HW216923   3.966   4.822   3.761
 5342SOL     OW16924   6.101   6.250   5.011
 5342SOL    HW116925   6.041   6.300   4.949
 5342SOL    HW216926   6.098   6.153   4.990
 5343SOL     OW16927   3.380   3.139   0.002
 5343SOL    HW116928   3.322   3.219   7.011
 5343SOL    HW216929   3.453   3.139   6.956
 5344SOL     OW16930   1.237   2.154   6.492
 5344SOL    HW116931   1.153   2.184   6.448
 5344SOL    HW216932   1.230   2.057   6.515
 5345SOL     OW16933   4.460   1.201   6.840
 5345SOL    HW116934   4.395   1.214   6.915
 5345SOL    HW216935   4.520   1.280   6.834
 5346SOL     OW16936   2.966   6.333   3.625
 5346SOL    HW116937   3.039   6.270   3.600
 5346SOL    HW216938   2.959   6.340   3.724
 5347SOL     OW16939   6.125   1.999   4.155
 5347SOL    HW116940   6.100   1.903   4.169
 5347SOL    HW216941   6.183   2.008   4.074
 5348SOL     OW16942   5.153   2.942   3.325
 5348SOL    HW116943   5.192   2.862   3.369
 5348SOL    HW216944   5.066   2.966   3.367
 5349SOL     OW16945   0.898   3.412   1.669
 5349SOL    HW116946   0.800   3.414   1.648
 5349SOL    HW216947   0.948   3.374   1.591
 5350SOL     OW16948   1.082   6.494   0.259
 5350SOL    HW116949   1.114   6.507   0.165
 5350SOL    HW216950   1.158   6.509   0.323
 5351SOL     OW16951   6.637   6.613   3.338
 5351SOL    HW116952   6.719   6.597   3.283
 5351SOL    HW216953   6.565   6.652   3.280
 5352SOL     OW16954   1.219   3.052   5.476
 5352SOL    HW116955   1.199   3.137   5.428
 5352SOL    HW216956   1.236   2.979   5.410
 5353SOL     OW16957   3.708   5.253   3.274
 5353SOL    HW116958   3.652   5.275   3.353
 5353SOL    HW216959   3.755   5.336   3.242
 5354SOL     OW16960   4.345   6.192   0.426
 5354SOL    HW116961   4.299   6.138   0.496
 5354SOL    HW216962   4.424   6.239   0.466
 5355SOL     OW16963   5.358   4.251   5.099
 5355SOL    HW116964   5.270   4.225   5.060
 5355SOL    HW216965   5.420   4.280   5.025
 5356SOL     OW16966   0.213   5.729   0.999
 5356SOL    HW116967   0.254   5.799   0.941
 5356SOL    HW216968   0.284   5.669   1.035
 5357SOL     OW16969   5.635   3.694   2.748
 5357SOL    HW116970   5.600   3.721   2.659
 5357SOL    HW216971   5.652   3.595   2.749
 5358SOL     OW16972   4.263   1.632   6.924
 5358SOL    HW116973   4.288   1.697   6.996
 5358SOL    HW216974   4.173   1.592   6.945
 5359SOL     OW16975   3.725   2.479   6.874
 5359SOL    HW116976   3.701   2.415   6.946
 5359SOL    HW216977   3.801   2.442   6.820
 5360SOL     OW16978   5.601   4.859   4.014
 5360SOL    HW116979   5.517   4.845   4.068
 5360SOL    HW216980   5.579   4.913   3.932
 5361SOL     OW16981   2.219   5.618   2.749
 5361SOL    HW116982   2.164   5.679   2.691
 5361SOL    HW216983   2.316   5.640   2.737
 5362SOL     OW16984   5.704   0.906   2.565
 5362SOL    HW116985   5.702   0.827   2.504
 5362SOL    HW216986   5.670   0.987   2.517
 5363SOL     OW16987   5.736   5.661   3.552
 5363SOL    HW116988   5.661   5.622   3.499
 5363SOL    HW216989   5.710   5.751   3.586
 5364SOL     OW16990   4.742   1.218   2.702
 5364SOL    HW116991   4.809   1.268   2.757
 5364SOL    HW216992   4.788   1.174   2.625
 5365SOL     OW16993   3.082   3.127   4.224
 5365SOL    HW116994   3.065   3.221   4.194
 5365SOL    HW216995   3.063   3.119   4.322
 5366SOL     OW16996   6.464   6.078   2.857
 5366SOL    HW116997   6.371   6.093   2.890
 5366SOL    HW216998   6.521   6.047   2.933
 5367SOL     OW16999   6.055   5.697   1.690
 5367SOL    HW117000   5.959   5.673   1.676
 5367SOL    HW217001   6.114   5.632   1.642
 5368SOL     OW17002   6.604   6.080   4.202
 5368SOL    HW117003   6.613   5.989   4.242
 5368SOL    HW217004   6.550   6.074   4.118
 5369SOL     OW17005   3.068   5.412   3.252
 5369SOL    HW117006   3.158   5.391   3.213
 5369SOL    HW217007   3.013   5.329   3.257
 5370SOL     OW17008   1.676   3.349   0.574
 5370SOL    HW117009   1.764   3.326   0.532
 5370SOL    HW217010   1.682   3.441   0.614
 5371SOL     OW17011   5.797   4.865   4.434
 5371SOL    HW117012   5.827   4.923   4.509
 5371SOL    HW217013   5.713   4.817   4.459
 5372SOL     OW17014   1.502   6.965   2.883
 5372SOL    HW117015   1.479   0.038   2.866
 5372SOL    HW217016   1.497   6.913   2.798
 5373SOL     OW17017   3.125   1.765   6.909
 5373SOL    HW117018   3.036   1.721   6.928
 5373SOL    HW217019   3.150   1.824   6.986
 5374SOL     OW17020   1.853   4.178   2.381
 5374SOL    HW117021   1.866   4.110   2.308
 5374SOL    HW217022   1.937   4.232   2.391
 5375SOL     OW17023   2.223   4.453   4.905
 5375SOL    HW117024   2.319   4.460   4.933
 5375SOL    HW217025   2.207   4.510   4.824
 5376SOL     OW17026   0.503   0.419   6.191
 5376SOL    HW117027   0.494   0.353   6.265
 5376SOL    HW217028   0.545   0.375   6.112
 5377SOL     OW17029   1.922   0.963   3.229
 5377SOL    HW117030   1.966   1.047   3.263
 5377SOL    HW217031   1.836   0.949   3.278
 5378SOL     OW17032   4.619   0.947   2.049
 5378SOL    HW117033   4.625   0.976   2.144
 5378SOL    HW217034   4.699   0.981   1.999
 5379SOL     OW17035   1.783   2.221   5.348
 5379SOL    HW117036   1.876   2.226   5.311
 5379SOL    HW217037   1.719   2.201   5.274
 5380SOL     OW17038   4.485   6.384   1.692
 5380SOL    HW117039   4.576   6.389   1.649
 5380SOL    HW217040   4.473   6.461   1.754
 5381SOL     OW17041   3.961   0.525   4.251
 5381SOL    HW117042   3.889   0.591   4.272
 5381SOL    HW217043   3.979   0.526   4.152
 5382SOL     OW17044   4.625   1.512   1.414
 5382SOL    HW117045   4.622   1.530   1.512
 5382SOL    HW217046   4.693   1.572   1.371
 5383SOL     OW17047   2.449   2.600   4.603
 5383SOL    HW117048   2.445   2.626   4.506
 5383SOL    HW217049   2.414   2.674   4.659
 5384SOL     OW17050   5.770   5.092   4.578
 5384SOL    HW117051   5.674   5.069   4.591
 5384SOL    HW217052   5.778   5.187   4.549
 5385SOL     OW17053   3.808   3.348   6.023
 5385SOL    HW117054   3.895   3.358   6.072
 5385SOL    HW217055   3.733   3.341   6.090
 5386SOL     OW17056   5.086   4.413   4.353
 5386SOL    HW117057   5.011   4.371   4.302
 5386SOL    HW217058   5.049   4.475   4.423
 5387SOL     OW17059   0.970   1.926   3.907
 5387SOL    HW117060   1.050   1.981   3.883
 5387SOL    HW217061   0.904   1.982   3.956
 5388SOL     OW17062   0.722   6.790   2.578
 5388SOL    HW117063   0.766   6.700   2.579
 5388SOL    HW217064   0.757   6.845   2.654
 5389SOL     OW17065   4.387   1.601   3.907
 5389SOL    HW117066   4.483   1.605   3.934
 5389SOL    HW217067   4.378   1.553   3.820
 5390SOL     OW17068   0.370   2.618   2.944
 5390SOL    HW117069   0.353   2.520   2.935
 5390SOL    HW217070   0.443   2.634   3.010
 5391SOL     OW17071   2.901   2.980   0.667
 5391SOL    HW117072   2.962   2.912   0.708
 5391SOL    HW217073   2.818   2.987   0.721
 5392SOL     OW17074   5.929   0.925   3.774
 5392SOL    HW117075   5.959   0.859   3.704
 5392SOL    HW217076   5.844   0.968   3.744
 5393SOL     OW17077   4.740   2.392   4.844
 5393SOL    HW117078   4.821   2.383   4.786
 5393SOL    HW217079   4.760   2.454   4.920
 5394SOL     OW17080   1.058   1.884   1.631
 5394SOL    HW117081   1.002   1.906   1.551
 5394SOL    HW217082   1.026   1.936   1.710
 5395SOL     OW17083   6.446   1.534   0.643
 5395SOL    HW117084   6.473   1.630   0.636
 5395SOL    HW217085   6.414   1.502   0.554
 5396SOL     OW17086   4.677   3.885   0.439
 5396SOL    HW117087   4.740   3.850   0.508
 5396SOL    HW217088   4.668   3.984   0.450
 5397SOL     OW17089   0.329   1.173   2.508
 5397SOL    HW117090   0.248   1.216   2.468
 5397SOL    HW217091   0.362   1.228   2.584
 5398SOL     OW17092   6.247   2.323   2.547
 5398SOL    HW117093   6.262   2.228   2.574
 5398SOL    HW217094   6.248   2.382   2.628
 5399SOL     OW17095   1.705   1.919   0.213
 5399SOL    HW117096   1.716   1.871   0.125
 5399SOL    HW217097   1.789   1.909   0.266
 5400SOL     OW17098   4.717   3.143   1.606
 5400SOL    HW117099   4.698   3.137   1.704
 5400SOL    HW217100   4.743   3.053   1.572
 5401SOL     OW17101   5.838   2.565   1.512
 5401SOL    HW117102   5.930   2.528   1.523
 5401SOL    HW217103   5.834   2.618   1.427
 5402SOL     OW17104   1.611   6.742   2.239
 5402SOL    HW117105   1.590   6.815   2.304
 5402SOL    HW217106   1.612   6.654   2.288
 5403SOL     OW17107   4.897   3.049   0.183
 5403SOL    HW117108   4.967   2.986   0.217
 5403SOL    HW217109   4.936   3.104   0.108
 5404SOL     OW17110   5.749   0.446   0.040
 5404SOL    HW117111   5.760   0.540   0.072
 5404SOL    HW217112   5.657   0.413   0.064
 5405SOL     OW17113   0.770   4.783   0.323
 5405SOL    HW117114   0.776   4.779   0.423
 5405SOL    HW217115   0.683   4.824   0.297
 5406SOL     OW17116   2.559   0.835   6.305
 5406SOL    HW117117   2.520   0.827   6.213
 5406SOL    HW217118   2.486   0.845   6.372
 5407SOL     OW17119   1.766   6.957   2.989
 5407SOL    HW117120   1.766   6.969   3.088
 5407SOL    HW217121   1.674   6.976   2.954
 5408SOL     OW17122   2.621   1.388   3.969
 5408SOL    HW117123   2.625   1.299   4.014
 5408SOL    HW217124   2.569   1.380   3.884
 5409SOL     OW17125   0.661   3.062   2.014
 5409SOL    HW117126   0.654   3.010   2.099
 5409SOL    HW217127   0.589   3.033   1.951
 5410SOL     OW17128   0.517   2.508   0.953
 5410SOL    HW117129   0.612   2.516   0.923
 5410SOL    HW217130   0.498   2.413   0.981
 5411SOL     OW17131   3.366   5.163   6.920
 5411SOL    HW117132   3.380   5.100   6.996
 5411SOL    HW217133   3.268   5.180   6.908
 5412SOL     OW17134   0.267   2.189   5.951
 5412SOL    HW117135   0.183   2.179   6.005
 5412SOL    HW217136   0.282   2.106   5.897
 5413SOL     OW17137   0.538   5.976   4.809
 5413SOL    HW117138   0.628   5.951   4.844
 5413SOL    HW217139   0.539   6.072   4.781
 5414SOL     OW17140   5.419   4.721   5.322
 5414SOL    HW117141   5.395   4.805   5.371
 5414SOL    HW217142   5.504   4.684   5.360
 5415SOL     OW17143   4.132   0.648   0.211
 5415SOL    HW117144   4.046   0.648   0.261
 5415SOL    HW217145   4.119   0.606   0.122
 5416SOL     OW17146   3.562   5.821   6.720
 5416SOL    HW117147   3.553   5.889   6.792
 5416SOL    HW217148   3.471   5.794   6.688
 5417SOL     OW17149   4.202   0.211   4.321
 5417SOL    HW117150   4.145   0.145   4.370
 5417SOL    HW217151   4.190   0.198   4.222
 5418SOL     OW17152   0.323   3.371   5.144
 5418SOL    HW117153   0.261   3.433   5.193
 5418SOL    HW217154   0.296   3.368   5.047
 5419SOL     OW17155   4.530   0.429   5.610
 5419SOL    HW117156   4.609   0.464   5.559
 5419SOL    HW217157   4.508   0.337   5.578
 5420SOL     OW17158   0.875   1.794   2.203
 5420SOL    HW117159   0.868   1.801   2.302
 5420SOL    HW217160   0.926   1.711   2.179
 5421SOL     OW17161   3.621   5.022   2.067
 5421SOL    HW117162   3.612   4.922   2.061
 5421SOL    HW217163   3.533   5.065   2.044
 5422SOL     OW17164   2.688   5.175   3.688
 5422SOL    HW117165   2.618   5.233   3.648
 5422SOL    HW217166   2.661   5.149   3.781
 5423SOL     OW17167   4.907   6.454   2.437
 5423SOL    HW117168   4.999   6.478   2.470
 5423SOL    HW217169   4.840   6.515   2.478
 5424SOL     OW17170   4.454   3.920   5.535
 5424SOL    HW117171   4.428   3.836   5.488
 5424SOL    HW217172   4.427   4.000   5.481
 5425SOL     OW17173   1.346   3.972   5.592
 5425SOL    HW117174   1.320   4.066   5.615
 5425SOL    HW217175   1.276   3.909   5.625
 5426SOL     OW17176   6.399   5.838   1.351
 5426SOL    HW117177   6.459   5.886   1.415
 5426SOL    HW217178   6.399   5.740   1.373
 5427SOL     OW17179   4.181   2.990   6.480
 5427SOL    HW117180   4.204   3.019   6.573
 5427SOL    HW217181   4.239   2.912   6.455
 5428SOL     OW17182   5.727   5.601   2.507
 5428SOL    HW117183   5.704   5.579   2.602
 5428SOL    HW217184   5.776   5.688   2.504
 5429SOL     OW17185   3.290   0.720   4.767
 5429SOL    HW117186   3.296   0.674   4.679
 5429SOL    HW217187   3.238   0.805   4.758
 5430SOL     OW17188   2.954   4.002   5.349
 5430SOL    HW117189   2.858   4.007   5.377
 5430SOL    HW217190   2.987   4.094   5.327
 5431SOL     OW17191   3.848   4.415   0.355
 5431SOL    HW117192   3.898   4.378   0.432
 5431SOL    HW217193   3.749   4.406   0.372
 5432SOL     OW17194   0.368   5.493   6.677
 5432SOL    HW117195   0.300   5.486   6.604
 5432SOL    HW217196   0.406   5.402   6.696
 5433SOL     OW17197   2.470   0.798   1.525
 5433SOL    HW117198   2.473   0.807   1.425
 5433SOL    HW217199   2.561   0.777   1.559
 5434SOL     OW17200   5.070   0.777   4.884
 5434SOL    HW117201   5.067   0.691   4.832
 5434SOL    HW217202   5.070   0.854   4.820
 5435SOL     OW17203   6.593   4.564   1.172
 5435SOL    HW117204   6.628   4.487   1.119
 5435SOL    HW217205   6.517   4.533   1.229
 5436SOL     OW17206   1.230   4.025   2.844
 5436SOL    HW117207   1.328   4.034   2.827
 5436SOL    HW217208   1.205   4.079   2.925
 5437SOL     OW17209   3.680   5.803   1.323
 5437SOL    HW117210   3.598   5.844   1.284
 5437SOL    HW217211   3.658   5.712   1.358
 5438SOL     OW17212   4.988   5.745   2.307
 5438SOL    HW117213   4.950   5.777   2.393
 5438SOL    HW217214   5.072   5.795   2.286
 5439SOL     OW17215   1.071   4.522   1.696
 5439SOL    HW117216   1.027   4.523   1.785
 5439SOL    HW217217   1.156   4.470   1.701
 5440SOL     OW17218   6.214   0.043   3.849
 5440SOL    HW117219   6.306   0.017   3.879
 5440SOL    HW217220   6.205   0.142   3.852
 5441SOL     OW17221   5.745   2.981   4.529
 5441SOL    HW117222   5.682   2.905   4.544
 5441SOL    HW217223   5.769   2.985   4.432
 5442SOL     OW17224   3.394   6.983   6.189
 5442SOL    HW117225   3.309   6.967   6.239
 5442SOL    HW217226   3.412   6.906   6.128
 5443SOL     OW17227   4.562   0.903   3.580
 5443SOL    HW117228   4.547   0.897   3.679
 5443SOL    HW217229   4.659   0.921   3.563
 5444SOL     OW17230   5.880   1.120   5.316
 5444SOL    HW117231   5.860   1.211   5.354
 5444SOL    HW217232   5.970   1.090   5.347
 5445SOL     OW17233   5.678   5.930   5.210
 5445SOL    HW117234   5.608   5.974   5.267
 5445SOL    HW217235   5.680   5.832   5.230
 5446SOL     OW17236   6.920   4.216   6.475
 5446SOL    HW117237   6.939   4.309   6.441
 5446SOL    HW217238   6.971   4.150   6.421
 5447SOL     OW17239   0.253   2.017   1.118
 5447SOL    HW117240   0.162   1.988   1.088
 5447SOL    HW217241   0.314   1.938   1.121
 5448SOL     OW17242   4.523   4.781   3.047
 5448SOL    HW117243   4.449   4.813   3.107
 5448SOL    HW217244   4.490   4.779   2.953
 5449SOL     OW17245   2.781   0.876   1.956
 5449SOL    HW117246   2.815   0.859   1.864
 5449SOL    HW217247   2.684   0.901   1.952
 5450SOL     OW17248   4.374   5.701   1.815
 5450SOL    HW117249   4.355   5.649   1.731
 5450SOL    HW217250   4.364   5.640   1.894
 5451SOL     OW17251   6.413   0.052   2.994
 5451SOL    HW117252   6.509   0.057   2.966
 5451SOL    HW217253   6.405   0.069   3.092
 5452SOL     OW17254   2.331   4.225   2.288
 5452SOL    HW117255   2.333   4.255   2.193
 5452SOL    HW217256   2.413   4.257   2.335
 5453SOL     OW17257   5.760   4.234   3.496
 5453SOL    HW117258   5.765   4.192   3.405
 5453SOL    HW217259   5.682   4.297   3.500
 5454SOL     OW17260   6.231   4.627   2.568
 5454SOL    HW117261   6.213   4.533   2.539
 5454SOL    HW217262   6.273   4.626   2.659
 5455SOL     OW17263   2.166   1.747   3.761
 5455SOL    HW117264   2.234   1.735   3.689
 5455SOL    HW217265   2.077   1.716   3.729
 5456SOL     OW17266   5.415   1.991   1.133
 5456SOL    HW117267   5.383   2.048   1.208
 5456SOL    HW217268   5.429   1.897   1.166
 5457SOL     OW17269   5.644   1.277   6.557
 5457SOL    HW117270   5.559   1.329   6.546
 5457SOL    HW217271   5.628   1.200   6.619
 5458SOL     OW17272   5.997   2.958   0.544
 5458SOL    HW117273   5.936   3.010   0.484
 5458SOL    HW217274   6.064   2.908   0.489
 5459SOL     OW17275   1.775   3.200   5.504
 5459SOL    HW117276   1.832   3.177   5.424
 5459SOL    HW217277   1.723   3.283   5.485
 5460SOL     OW17278   0.725   0.915   1.534
 5460SOL    HW117279   0.780   0.838   1.566
 5460SOL    HW217280   0.628   0.891   1.538
 5461SOL     OW17281   6.355   1.149   5.224
 5461SOL    HW117282   6.442   1.173   5.267
 5461SOL    HW217283   6.300   1.232   5.213
 5462SOL     OW17284   4.722   4.168   6.405
 5462SOL    HW117285   4.813   4.208   6.414
 5462SOL    HW217286   4.653   4.239   6.421
 5463SOL     OW17287   0.830   2.787   6.569
 5463SOL    HW117288   0.756   2.834   6.618
 5463SOL    HW217289   0.802   2.769   6.475
 5464SOL     OW17290   1.184   6.124   5.558
 5464SOL    HW117291   1.206   6.049   5.621
 5464SOL    HW217292   1.236   6.113   5.473
 5465SOL     OW17293   0.149   6.891   4.564
 5465SOL    HW117294   0.076   6.949   4.601
 5465SOL    HW217295   0.111   6.829   4.495
 5466SOL     OW17296   6.104   2.529   5.174
 5466SOL    HW117297   6.170   2.589   5.219
 5466SOL    HW217298   6.085   2.564   5.082
 5467SOL     OW17299   4.863   2.988   4.595
 5467SOL    HW117300   4.777   2.943   4.569
 5467SOL    HW217301   4.845   3.056   4.666
 5468SOL     OW17302   0.158   1.327   1.028
 5468SOL    HW117303   0.141   1.356   1.122
 5468SOL    HW217304   0.100   1.248   1.006
 5469SOL     OW17305   3.058   0.035   4.761
 5469SOL    HW117306   3.047   6.960   4.742
 5469SOL    HW217307   3.138   0.048   4.821
 5470SOL     OW17308   3.588   5.355   3.490
 5470SOL    HW117309   3.660   5.408   3.536
 5470SOL    HW217310   3.555   5.284   3.552
 5471SOL     OW17311   4.508   0.626   3.792
 5471SOL    HW117312   4.504   0.602   3.889
 5471SOL    HW217313   4.442   0.699   3.773
 5472SOL     OW17314   2.520   2.604   0.001
 5472SOL    HW117315   2.482   2.618   0.092
 5472SOL    HW217316   2.618   2.619   0.003
 5473SOL     OW17317   2.662   4.454   1.667
 5473SOL    HW117318   2.735   4.482   1.729
 5473SOL    HW217319   2.687   4.476   1.573
 5474SOL     OW17320   0.651   5.064   2.805
 5474SOL    HW117321   0.712   4.988   2.829
 5474SOL    HW217322   0.701   5.130   2.749
 5475SOL     OW17323   0.388   1.605   5.298
 5475SOL    HW117324   0.376   1.582   5.395
 5475SOL    HW217325   0.317   1.560   5.245
 5476SOL     OW17326   2.441   6.797   5.256
 5476SOL    HW117327   2.517   6.857   5.280
 5476SOL    HW217328   2.442   6.779   5.158
 5477SOL     OW17329   1.517   4.176   4.518
 5477SOL    HW117330   1.461   4.156   4.437
 5477SOL    HW217331   1.582   4.102   4.532
 5478SOL     OW17332   5.651   4.687   5.625
 5478SOL    HW117333   5.712   4.763   5.602
 5478SOL    HW217334   5.641   4.628   5.545
 5479SOL     OW17335   4.440   1.575   4.945
 5479SOL    HW117336   4.395   1.492   4.914
 5479SOL    HW217337   4.428   1.647   4.877
 5480SOL     OW17338   0.190   3.569   3.581
 5480SOL    HW117339   0.158   3.474   3.574
 5480SOL    HW217340   0.270   3.573   3.642
 5481SOL     OW17341   4.189   1.006   6.513
 5481SOL    HW117342   4.094   0.998   6.483
 5481SOL    HW217343   4.247   1.028   6.435
 5482SOL     OW17344   4.792   2.638   1.466
 5482SOL    HW117345   4.816   2.733   1.450
 5482SOL    HW217346   4.804   2.616   1.563
 5483SOL     OW17347   6.977   2.839   5.927
 5483SOL    HW117348   0.044   2.884   5.931
 5483SOL    HW217349   6.922   2.867   6.006
 5484SOL     OW17350   6.481   6.860   4.556
 5484SOL    HW117351   6.475   6.950   4.515
 5484SOL    HW217352   6.541   6.802   4.501
 5485SOL     OW17353   3.014   0.065   5.339
 5485SOL    HW117354   2.993   7.013   5.403
 5485SOL    HW217355   2.957   0.144   5.360
 5486SOL     OW17356   0.506   0.894   3.642
 5486SOL    HW117357   0.563   0.891   3.560
 5486SOL    HW217358   0.556   0.937   3.716
 5487SOL     OW17359   4.681   5.403   0.920
 5487SOL    HW117360   4.617   5.480   0.921
 5487SOL    HW217361   4.716   5.388   1.013
 5488SOL     OW17362   5.309   1.238   6.810
 5488SOL    HW117363   5.240   1.167   6.797
 5488SOL    HW217364   5.267   1.319   6.851
 5489SOL     OW17365   1.561   3.783   2.892
 5489SOL    HW117366   1.481   3.769   2.950
 5489SOL    HW217367   1.537   3.764   2.796
 5490SOL     OW17368   2.076   1.752   0.432
 5490SOL    HW117369   2.149   1.792   0.487
 5490SOL    HW217370   2.115   1.686   0.368
 5491SOL     OW17371   0.757   5.211   0.824
 5491SOL    HW117372   0.717   5.250   0.907
 5491SOL    HW217373   0.758   5.281   0.753
 5492SOL     OW17374   1.265   1.521   5.945
 5492SOL    HW117375   1.193   1.455   5.965
 5492SOL    HW217376   1.253   1.602   6.003
 5493SOL     OW17377   3.042   2.937   6.953
 5493SOL    HW117378   3.044   2.885   6.868
 5493SOL    HW217379   3.026   3.034   6.932
 5494SOL     OW17380   5.984   3.595   1.972
 5494SOL    HW117381   5.981   3.506   1.926
 5494SOL    HW217382   6.017   3.584   2.065
 5495SOL     OW17383   3.301   3.337   2.307
 5495SOL    HW117384   3.336   3.273   2.375
 5495SOL    HW217385   3.202   3.346   2.316
 5496SOL     OW17386   4.030   5.885   1.564
 5496SOL    HW117387   4.090   5.961   1.590
 5496SOL    HW217388   4.002   5.835   1.645
 5497SOL     OW17389   6.592   6.841   1.934
 5497SOL    HW117390   6.680   6.872   1.899
 5497SOL    HW217391   6.518   6.891   1.889
 5498SOL     OW17392   4.089   1.028   5.440
 5498SOL    HW117393   4.020   1.090   5.478
 5498SOL    HW217394   4.046   0.940   5.419
 5499SOL     OW17395   0.024   1.283   3.202
 5499SOL    HW117396   6.984   1.362   3.204
 5499SOL    HW217397   7.016   1.218   3.132
 5500SOL     OW17398   2.279   5.731   1.872
 5500SOL    HW117399   2.321   5.751   1.783
 5500SOL    HW217400   2.270   5.632   1.882
 5501SOL     OW17401   2.579   6.323   2.275
 5501SOL    HW117402   2.672   6.355   2.261
 5501SOL    HW217403   2.515   6.400   2.268
 5502SOL     OW17404   4.951   4.099   6.109
 5502SOL    HW117405   4.902   4.014   6.087
 5502SOL    HW217406   4.884   4.173   6.122
 5503SOL     OW17407   1.311   5.491   3.533
 5503SOL    HW117408   1.285   5.451   3.445
 5503SOL    HW217409   1.234   5.484   3.596
 5504SOL     OW17410   3.543   2.082   5.105
 5504SOL    HW117411   3.493   2.159   5.143
 5504SOL    HW217412   3.641   2.101   5.106
 5505SOL     OW17413   2.422   5.124   5.811
 5505SOL    HW117414   2.521   5.137   5.824
 5505SOL    HW217415   2.395   5.035   5.848
 5506SOL     OW17416   6.239   0.278   5.843
 5506SOL    HW117417   6.247   0.284   5.743
 5506SOL    HW217418   6.285   0.195   5.875
 5507SOL     OW17419   2.313   6.137   4.120
 5507SOL    HW117420   2.355   6.046   4.112
 5507SOL    HW217421   2.356   6.199   4.054
 5508SOL     OW17422   3.101   1.043   6.999
 5508SOL    HW117423   3.095   1.137   6.965
 5508SOL    HW217424   3.166   0.992   6.944
 5509SOL     OW17425   5.772   6.562   6.693
 5509SOL    HW117426   5.801   6.580   6.786
 5509SOL    HW217427   5.840   6.504   6.648
 5510SOL     OW17428   5.248   1.076   5.422
 5510SOL    HW117429   5.340   1.066   5.458
 5510SOL    HW217430   5.189   1.117   5.491
 5511SOL     OW17431   0.218   0.924   2.539
 5511SOL    HW117432   0.244   1.021   2.533
 5511SOL    HW217433   0.216   0.884   2.448
 5512SOL     OW17434   0.990   0.228   0.736
 5512SOL    HW117435   0.964   0.200   0.643
 5512SOL    HW217436   1.088   0.247   0.739
 5513SOL     OW17437   4.337   4.638   4.539
 5513SOL    HW117438   4.388   4.555   4.518
 5513SOL    HW217439   4.289   4.670   4.458
 5514SOL     OW17440   5.512   4.941   2.845
 5514SOL    HW117441   5.455   4.901   2.773
 5514SOL    HW217442   5.463   4.937   2.932
 5515SOL     OW17443   6.715   3.121   1.403
 5515SOL    HW117444   6.797   3.149   1.453
 5515SOL    HW217445   6.737   3.042   1.346
 5516SOL     OW17446   1.325   3.482   6.298
 5516SOL    HW117447   1.343   3.527   6.211
 5516SOL    HW217448   1.337   3.547   6.373
 5517SOL     OW17449   2.738   1.927   2.072
 5517SOL    HW117450   2.728   2.017   2.029
 5517SOL    HW217451   2.798   1.935   2.152
 5518SOL     OW17452   5.904   4.466   4.995
 5518SOL    HW117453   5.818   4.516   4.989
 5518SOL    HW217454   5.978   4.520   4.954
 5519SOL     OW17455   5.593   4.022   4.178
 5519SOL    HW117456   5.558   3.973   4.259
 5519SOL    HW217457   5.557   3.979   4.095
 5520SOL     OW17458   1.753   3.789   1.874
 5520SOL    HW117459   1.695   3.708   1.864
 5520SOL    HW217460   1.835   3.778   1.818
 5521SOL     OW17461   5.825   5.106   1.552
 5521SOL    HW117462   5.874   5.170   1.611
 5521SOL    HW217463   5.847   5.012   1.580
 5522SOL     OW17464   2.241   3.611   1.654
 5522SOL    HW117465   2.285   3.569   1.733
 5522SOL    HW217466   2.304   3.608   1.576
 5523SOL     OW17467   2.802   0.110   2.303
 5523SOL    HW117468   2.767   0.151   2.387
 5523SOL    HW217469   2.779   0.012   2.302
 5524SOL     OW17470   0.313   5.297   6.370
 5524SOL    HW117471   0.246   5.237   6.414
 5524SOL    HW217472   0.402   5.252   6.369
 5525SOL     OW17473   6.651   5.473   4.920
 5525SOL    HW117474   6.595   5.541   4.967
 5525SOL    HW217475   6.712   5.519   4.856
 5526SOL     OW17476   6.381   3.047   4.448
 5526SOL    HW117477   6.320   3.020   4.522
 5526SOL    HW217478   6.332   3.108   4.385
 5527SOL     OW17479   1.767   3.673   1.571
 5527SOL    HW117480   1.823   3.709   1.496
 5527SOL    HW217481   1.680   3.640   1.534
 5528SOL     OW17482   0.617   3.300   3.425
 5528SOL    HW117483   0.683   3.331   3.357
 5528SOL    HW217484   0.589   3.378   3.481
 5529SOL     OW17485   2.344   1.394   5.002
 5529SOL    HW117486   2.305   1.303   4.988
 5529SOL    HW217487   2.441   1.385   5.024
 5530SOL     OW17488   0.956   2.672   0.723
 5530SOL    HW117489   1.022   2.702   0.792
 5530SOL    HW217490   0.900   2.750   0.694
 5531SOL     OW17491   3.714   2.965   5.844
 5531SOL    HW117492   3.640   3.023   5.808
 5531SOL    HW217493   3.718   2.880   5.792
 5532SOL     OW17494   2.501   1.705   1.245
 5532SOL    HW117495   2.421   1.650   1.221
 5532SOL    HW217496   2.494   1.794   1.201
 5533SOL     OW17497   3.967   1.144   1.203
 5533SOL    HW117498   3.952   1.240   1.227
 5533SOL    HW217499   4.060   1.117   1.229
 5534SOL     OW17500   0.032   4.228   6.720
 5534SOL    HW117501   7.016   4.213   6.629
 5534SOL    HW217502   0.053   4.141   6.763
 5535SOL     OW17503   5.871   3.446   2.795
 5535SOL    HW117504   5.847   3.438   2.892
 5535SOL    HW217505   5.908   3.537   2.778
 5536SOL     OW17506   2.448   0.327   3.752
 5536SOL    HW117507   2.512   0.302   3.681
 5536SOL    HW217508   2.475   0.284   3.839
 5537SOL     OW17509   4.263   0.674   5.124
 5537SOL    HW117510   4.355   0.683   5.086
 5537SOL    HW217511   4.267   0.621   5.209
 5538SOL     OW17512   4.743   1.609   6.837
 5538SOL    HW117513   4.683   1.544   6.884
 5538SOL    HW217514   4.687   1.679   6.792
 5539SOL     OW17515   3.047   6.994   0.535
 5539SOL    HW117516   3.049   6.909   0.587
 5539SOL    HW217517   3.052   6.974   0.437
 5540SOL     OW17518   5.592   1.011   0.080
 5540SOL    HW117519   5.670   1.033   0.139
 5540SOL    HW217520   5.511   0.995   0.137
 5541SOL     OW17521   4.612   3.939   6.493
 5541SOL    HW117522   4.641   4.027   6.455
 5541SOL    HW217523   4.682   3.905   6.555
 5542SOL     OW17524   4.776   4.677   6.905
 5542SOL    HW117525   4.778   4.578   6.891
 5542SOL    HW217526   4.815   4.722   6.825
 5543SOL     OW17527   1.421   0.539   0.997
 5543SOL    HW117528   1.439   0.637   0.990
 5543SOL    HW217529   1.506   0.490   1.014
 5544SOL     OW17530   4.229   5.871   6.226
 5544SOL    HW117531   4.270   5.958   6.199
 5544SOL    HW217532   4.137   5.887   6.262
 5545SOL     OW17533   4.303   0.541   3.159
 5545SOL    HW117534   4.365   0.551   3.237
 5545SOL    HW217535   4.210   0.562   3.188
 5546SOL     OW17536   0.132   5.777   5.788
 5546SOL    HW117537   0.111   5.874   5.777
 5546SOL    HW217538   0.174   5.742   5.704
 5547SOL     OW17539   5.700   2.014   4.896
 5547SOL    HW117540   5.635   1.975   4.830
 5547SOL    HW217541   5.794   1.996   4.865
 5548SOL     OW17542   0.217   4.065   4.962
 5548SOL    HW117543   0.195   4.147   5.016
 5548SOL    HW217544   0.141   4.046   4.899
 5549SOL     OW17545   3.670   3.336   1.320
 5549SOL    HW117546   3.570   3.333   1.317
 5549SOL    HW217547   3.706   3.245   1.298
 5550SOL     OW17548   1.309   3.794   2.986
 5550SOL    HW117549   1.300   3.820   3.082
 5550SOL    HW217550   1.279   3.870   2.928
 5551SOL     OW17551   2.261   5.017   3.710
 5551SOL    HW117552   2.348   5.009   3.757
 5551SOL    HW217553   2.256   4.949   3.637
 5552SOL     OW17554   0.289   6.670   6.368
 5552SOL    HW117555   0.211   6.626   6.322
 5552SOL    HW217556   0.269   6.767   6.383
 5553SOL     OW17557   4.860   0.660   6.705
 5553SOL    HW117558   4.827   0.632   6.796
 5553SOL    HW217559   4.822   0.599   6.636
 5554SOL     OW17560   5.553   2.967   1.585
 5554SOL    HW117561   5.456   2.986   1.592
 5554SOL    HW217562   5.569   2.901   1.511
 5555SOL     OW17563   1.465   4.266   2.488
 5555SOL    HW117564   1.418   4.295   2.404
 5555SOL    HW217565   1.406   4.283   2.567
 5556SOL     OW17566   6.732   0.726   4.789
 5556SOL    HW117567   6.658   0.695   4.729
 5556SOL    HW217568   6.818   0.731   4.737
 5557SOL     OW17569   3.314   5.370   2.249
 5557SOL    HW117570   3.377   5.438   2.286
 5557SOL    HW217571   3.286   5.398   2.157
 5558SOL     OW17572   3.254   4.377   0.318
 5558SOL    HW117573   3.266   4.461   0.266
 5558SOL    HW217574   3.342   4.329   0.325
 5559SOL     OW17575   1.796   6.558   2.781
 5559SOL    HW117576   1.842   6.486   2.730
 5559SOL    HW217577   1.751   6.520   2.862
 5560SOL     OW17578   0.374   5.849   2.813
 5560SOL    HW117579   0.359   5.790   2.734
 5560SOL    HW217580   0.299   5.915   2.820
 5561SOL     OW17581   3.519   1.097   3.794
 5561SOL    HW117582   3.552   1.134   3.707
 5561SOL    HW217583   3.563   1.009   3.811
 5562SOL     OW17584   4.097   3.874   0.748
 5562SOL    HW117585   4.102   3.953   0.809
 5562SOL    HW217586   4.074   3.792   0.802
 5563SOL     OW17587   3.057   4.899   3.031
 5563SOL    HW117588   3.144   4.911   3.079
 5563SOL    HW217589   3.007   4.823   3.072
 5564SOL     OW17590   5.621   0.578   5.678
 5564SOL    HW117591   5.537   0.584   5.732
 5564SOL    HW217592   5.693   0.631   5.722
 5565SOL     OW17593   4.010   2.706   0.267
 5565SOL    HW117594   4.045   2.674   0.355
 5565SOL    HW217595   3.993   2.627   0.208
 5566SOL     OW17596   1.103   3.654   6.853
 5566SOL    HW117597   1.100   3.602   6.768
 5566SOL    HW217598   1.055   3.604   6.925
 5567SOL     OW17599   6.832   3.910   1.549
 5567SOL    HW117600   6.827   3.978   1.622
 5567SOL    HW217601   6.762   3.930   1.480
 5568SOL     OW17602   4.356   6.815   2.582
 5568SOL    HW117603   4.304   6.874   2.643
 5568SOL    HW217604   4.350   6.849   2.488
 5569SOL     OW17605   2.523   2.077   4.144
 5569SOL    HW117606   2.613   2.038   4.165
 5569SOL    HW217607   2.469   2.080   4.228
 5570SOL     OW17608   6.784   3.246   3.080
 5570SOL    HW117609   6.717   3.188   3.032
 5570SOL    HW217610   6.742   3.334   3.102
 5571SOL     OW17611   0.524   5.567   2.041
 5571SOL    HW117612   0.465   5.642   2.070
 5571SOL    HW217613   0.582   5.598   1.966
 5572SOL     OW17614   0.675   3.254   4.896
 5572SOL    HW117615   0.716   3.328   4.949
 5572SOL    HW217616   0.589   3.285   4.856
 5573SOL     OW17617   1.833   5.137   4.780
 5573SOL    HW117618   1.821   5.178   4.690
 5573SOL    HW217619   1.917   5.083   4.781
 5574SOL     OW17620   0.036   2.743   6.381
 5574SOL    HW117621   6.962   2.734   6.404
 5574SOL    HW217622   0.052   2.705   6.290
 5575SOL     OW17623   0.673   0.447   1.593
 5575SOL    HW117624   0.586   0.399   1.590
 5575SOL    HW217625   0.660   0.535   1.639
 5576SOL     OW17626   2.043   3.933   3.425
 5576SOL    HW117627   2.082   3.963   3.512
 5576SOL    HW217628   1.987   4.006   3.386
 5577SOL     OW17629   1.467   3.227   6.389
 5577SOL    HW117630   1.433   3.322   6.386
 5577SOL    HW217631   1.565   3.228   6.407
 5578SOL     OW17632   3.051   3.078   2.889
 5578SOL    HW117633   3.079   3.145   2.821
 5578SOL    HW217634   2.994   3.008   2.846
 5579SOL     OW17635   0.129   3.255   1.550
 5579SOL    HW117636   0.072   3.180   1.515
 5579SOL    HW217637   0.142   3.323   1.478
 5580SOL     OW17638   4.572   1.420   5.982
 5580SOL    HW117639   4.488   1.418   5.927
 5580SOL    HW217640   4.612   1.329   5.985
 5581SOL     OW17641   0.667   1.676   1.006
 5581SOL    HW117642   0.616   1.749   1.051
 5581SOL    HW217643   0.628   1.659   0.916
 5582SOL     OW17644   2.191   3.527   6.146
 5582SOL    HW117645   2.110   3.574   6.111
 5582SOL    HW217646   2.192   3.531   6.246
 5583SOL     OW17647   5.020   0.980   2.609
 5583SOL    HW117648   5.054   0.907   2.551
 5583SOL    HW217649   4.970   1.047   2.554
 5584SOL     OW17650   6.855   4.421   4.480
 5584SOL    HW117651   6.759   4.427   4.453
 5584SOL    HW217652   6.893   4.513   4.491
 5585SOL     OW17653   4.667   5.133   2.691
 5585SOL    HW117654   4.741   5.198   2.709
 5585SOL    HW217655   4.702   5.058   2.635
 5586SOL     OW17656   6.900   3.368   6.050
 5586SOL    HW117657   6.906   3.273   6.019
 5586SOL    HW217658   6.981   3.419   6.019
 5587SOL     OW17659   4.295   0.896   6.737
 5587SOL    HW117660   4.392   0.911   6.754
 5587SOL    HW217661   4.274   0.918   6.641
 5588SOL     OW17662   3.092   6.383   1.847
 5588SOL    HW117663   3.093   6.391   1.747
 5588SOL    HW217664   3.162   6.318   1.876
 5589SOL     OW17665   5.965   4.307   6.345
 5589SOL    HW117666   5.926   4.393   6.315
 5589SOL    HW217667   5.903   4.262   6.409
 5590SOL     OW17668   5.868   5.961   3.977
 5590SOL    HW117669   5.787   5.905   3.962
 5590SOL    HW217670   5.945   5.923   3.925
 5591SOL     OW17671   6.771   1.793   1.898
 5591SOL    HW117672   6.804   1.827   1.986
 5591SOL    HW217673   6.672   1.807   1.892
 5592SOL     OW17674   1.089   4.139   3.310
 5592SOL    HW117675   1.136   4.131   3.398
 5592SOL    HW217676   0.993   4.161   3.325
 5593SOL     OW17677   6.874   2.083   0.017
 5593SOL    HW117678   6.903   2.175   0.043
 5593SOL    HW217679   6.778   2.086   7.012
 5594SOL     OW17680   5.319   1.722   5.750
 5594SOL    HW117681   5.364   1.751   5.665
 5594SOL    HW217682   5.234   1.773   5.762
 5595SOL     OW17683   1.039   2.193   5.321
 5595SOL    HW117684   1.037   2.094   5.316
 5595SOL    HW217685   1.061   2.231   5.231
 5596SOL     OW17686   3.941   6.709   2.901
 5596SOL    HW117687   3.975   6.757   2.819
 5596SOL    HW217688   3.896   6.625   2.873
 5597SOL     OW17689   5.023   2.702   3.601
 5597SOL    HW117690   4.988   2.658   3.684
 5597SOL    HW217691   5.109   2.659   3.574
 5598SOL     OW17692   4.981   2.651   4.137
 5598SOL    HW117693   5.038   2.596   4.076
 5598SOL    HW217694   5.000   2.748   4.121
 5599SOL     OW17695   0.901   1.596   4.589
 5599SOL    HW117696   0.835   1.672   4.588
 5599SOL    HW217697   0.855   1.513   4.620
 5600SOL     OW17698   1.413   2.351   4.066
 5600SOL    HW117699   1.379   2.398   4.147
 5600SOL    HW217700   1.341   2.349   3.996
 5601SOL     OW17701   2.487   0.713   5.846
 5601SOL    HW117702   2.542   0.635   5.815
 5601SOL    HW217703   2.519   0.796   5.800
 5602SOL     OW17704   0.378   1.256   1.173
 5602SOL    HW117705   0.328   1.310   1.105
 5602SOL    HW217706   0.475   1.283   1.171
 5603SOL     OW17707   5.234   1.798   6.770
 5603SOL    HW117708   5.146   1.777   6.813
 5603SOL    HW217709   5.308   1.774   6.832
 5604SOL     OW17710   6.153   2.339   5.740
 5604SOL    HW117711   6.220   2.375   5.675
 5604SOL    HW217712   6.200   2.318   5.826
 5605SOL     OW17713   0.547   1.637   5.061
 5605SOL    HW117714   0.520   1.622   5.156
 5605SOL    HW217715   0.481   1.699   5.017
 5606SOL     OW17716   5.156   6.312   1.089
 5606SOL    HW117717   5.110   6.230   1.055
 5606SOL    HW217718   5.089   6.384   1.106
 5607SOL     OW17719   5.193   1.470   1.689
 5607SOL    HW117720   5.189   1.385   1.742
 5607SOL    HW217721   5.127   1.466   1.613
 5608SOL     OW17722   4.628   0.187   4.996
 5608SOL    HW117723   4.571   0.161   4.918
 5608SOL    HW217724   4.603   0.133   5.076
 5609SOL     OW17725   2.376   5.768   0.032
 5609SOL    HW117726   2.475   5.781   0.038
 5609SOL    HW217727   2.331   5.809   0.112
 5610SOL     OW17728   5.195   0.713   0.180
 5610SOL    HW117729   5.169   0.673   0.091
 5610SOL    HW217730   5.170   0.650   0.253
 5611SOL     OW17731   1.712   4.954   2.911
 5611SOL    HW117732   1.685   4.916   2.822
 5611SOL    HW217733   1.795   5.008   2.901
 5612SOL     OW17734   3.685   1.126   6.213
 5612SOL    HW117735   3.671   1.174   6.300
 5612SOL    HW217736   3.783   1.122   6.193
 5613SOL     OW17737   4.614   4.367   2.805
 5613SOL    HW117738   4.581   4.456   2.774
 5613SOL    HW217739   4.619   4.305   2.727
 5614SOL     OW17740   4.389   2.348   3.522
 5614SOL    HW117741   4.402   2.275   3.589
 5614SOL    HW217742   4.429   2.433   3.557
 5615SOL     OW17743   0.954   0.268   0.114
 5615SOL    HW117744   1.029   0.215   0.075
 5615SOL    HW217745   0.992   0.336   0.178
 5616SOL     OW17746   2.297   0.919   4.931
 5616SOL    HW117747   2.384   0.879   4.959
 5616SOL    HW217748   2.222   0.860   4.960
 5617SOL     OW17749   2.309   0.379   5.678
 5617SOL    HW117750   2.382   0.395   5.744
 5617SOL    HW217751   2.221   0.401   5.719
 5618SOL     OW17752   6.502   4.172   4.034
 5618SOL    HW117753   6.470   4.108   3.964
 5618SOL    HW217754   6.523   4.260   3.992
 5619SOL     OW17755   2.742   3.975   6.228
 5619SOL    HW117756   2.782   3.909   6.164
 5619SOL    HW217757   2.643   3.977   6.215
 5620SOL     OW17758   4.200   2.647   0.499
 5620SOL    HW117759   4.268   2.666   0.427
 5620SOL    HW217760   4.216   2.556   0.537
 5621SOL     OW17761   1.879   1.664   6.059
 5621SOL    HW117762   1.947   1.627   5.995
 5621SOL    HW217763   1.915   1.660   6.152
 5622SOL     OW17764   4.740   0.300   5.830
 5622SOL    HW117765   4.766   0.390   5.795
 5622SOL    HW217766   4.789   0.282   5.915
 5623SOL     OW17767   2.253   6.067   6.181
 5623SOL    HW117768   2.319   6.109   6.119
 5623SOL    HW217769   2.296   5.990   6.228
 5624SOL     OW17770   1.232   4.429   3.712
 5624SOL    HW117771   1.229   4.528   3.720
 5624SOL    HW217772   1.159   4.397   3.651
 5625SOL     OW17773   6.568   2.855   4.384
 5625SOL    HW117774   6.516   2.771   4.402
 5625SOL    HW217775   6.505   2.933   4.378
 5626SOL     OW17776   3.495   6.698   4.605
 5626SOL    HW117777   3.544   6.766   4.659
 5626SOL    HW217778   3.435   6.743   4.539
 5627SOL     OW17779   1.692   5.769   1.744
 5627SOL    HW117780   1.649   5.831   1.810
 5627SOL    HW217781   1.785   5.747   1.774
 5628SOL     OW17782   1.750   1.963   5.804
 5628SOL    HW117783   1.819   1.891   5.792
 5628SOL    HW217784   1.713   1.988   5.715
 5629SOL     OW17785   3.376   3.877   2.127
 5629SOL    HW117786   3.442   3.900   2.198
 5629SOL    HW217787   3.349   3.781   2.137
 5630SOL     OW17788   0.921   5.013   0.933
 5630SOL    HW117789   0.869   4.944   0.985
 5630SOL    HW217790   0.858   5.068   0.878
 5631SOL     OW17791   4.300   1.826   0.100
 5631SOL    HW117792   4.369   1.896   0.083
 5631SOL    HW217793   4.214   1.869   0.126
 5632SOL     OW17794   4.330   3.905   6.543
 5632SOL    HW117795   4.423   3.909   6.506
 5632SOL    HW217796   4.300   3.997   6.568
 5633SOL     OW17797   0.056   2.746   3.808
 5633SOL    HW117798   0.042   2.797   3.893
 5633SOL    HW217799   0.083   2.652   3.829
 5634SOL     OW17800   3.718   4.971   4.463
 5634SOL    HW117801   3.635   4.936   4.420
 5634SOL    HW217802   3.694   5.016   4.550
 5635SOL     OW17803   2.414   2.680   4.957
 5635SOL    HW117804   2.405   2.727   5.045
 5635SOL    HW217805   2.363   2.732   4.887
 5636SOL     OW17806   4.211   5.636   2.981
 5636SOL    HW117807   4.121   5.594   2.993
 5636SOL    HW217808   4.205   5.734   3.001
 5637SOL     OW17809   6.207   0.458   4.223
 5637SOL    HW117810   6.128   0.517   4.243
 5637SOL    HW217811   6.286   0.488   4.276
 5638SOL     OW17812   6.013   2.748   0.805
 5638SOL    HW117813   6.067   2.830   0.826
 5638SOL    HW217814   6.054   2.701   0.727
 5639SOL     OW17815   0.235   1.338   6.628
 5639SOL    HW117816   0.143   1.316   6.595
 5639SOL    HW217817   0.282   1.395   6.561
 5640SOL     OW17818   2.548   0.221   3.978
 5640SOL    HW117819   2.487   0.222   4.058
 5640SOL    HW217820   2.643   0.231   4.009
 5641SOL     OW17821   6.661   4.906   5.577
 5641SOL    HW117822   6.592   4.835   5.589
 5641SOL    HW217823   6.710   4.892   5.491
 5642SOL     OW17824   2.043   1.244   0.004
 5642SOL    HW117825   2.083   1.285   6.944
 5642SOL    HW217826   2.041   1.145   7.016
 5643SOL     OW17827   6.165   3.048   4.615
 5643SOL    HW117828   6.095   3.014   4.678
 5643SOL    HW217829   6.122   3.100   4.542
 5644SOL     OW17830   2.884   6.770   6.044
 5644SOL    HW117831   2.832   6.685   6.038
 5644SOL    HW217832   2.826   6.842   6.083
 5645SOL     OW17833   6.029   3.270   3.561
 5645SOL    HW117834   6.081   3.345   3.602
 5645SOL    HW217835   6.050   3.185   3.609
 5646SOL     OW17836   1.988   4.644   2.935
 5646SOL    HW117837   1.907   4.603   2.894
 5646SOL    HW217838   2.069   4.590   2.911
 5647SOL     OW17839   5.642   6.022   2.395
 5647SOL    HW117840   5.549   6.050   2.371
 5647SOL    HW217841   5.643   5.982   2.487
 5648SOL     OW17842   3.462   6.191   3.063
 5648SOL    HW117843   3.550   6.195   3.110
 5648SOL    HW217844   3.478   6.188   2.964
 5649SOL     OW17845   0.745   5.307   3.785
 5649SOL    HW117846   0.803   5.386   3.806
 5649SOL    HW217847   0.799   5.240   3.733
 5650SOL     OW17848   6.972   4.659   0.707
 5650SOL    HW117849   0.034   4.649   0.759
 5650SOL    HW217850   6.986   4.625   0.614
 5651SOL     OW17851   1.488   0.655   0.628
 5651SOL    HW117852   1.414   0.649   0.695
 5651SOL    HW217853   1.558   0.719   0.660
 5652SOL     OW17854   0.899   4.779   1.924
 5652SOL    HW117855   0.911   4.850   1.854
 5652SOL    HW217856   0.801   4.760   1.935
 5653SOL     OW17857   0.091   6.294   1.595
 5653SOL    HW117858   0.146   6.316   1.514
 5653SOL    HW217859   0.152   6.287   1.674
 5654SOL     OW17860   1.626   6.306   4.876
 5654SOL    HW117861   1.532   6.336   4.861
 5654SOL    HW217862   1.664   6.270   4.791
 5655SOL     OW17863   6.579   3.240   4.130
 5655SOL    HW117864   6.612   3.148   4.110
 5655SOL    HW217865   6.654   3.294   4.168
 5656SOL     OW17866   6.896   3.036   6.342
 5656SOL    HW117867   6.978   3.056   6.288
 5656SOL    HW217868   6.920   3.029   6.438
 5657SOL     OW17869   4.446   5.295   4.784
 5657SOL    HW117870   4.372   5.355   4.754
 5657SOL    HW217871   4.523   5.304   4.721
 5658SOL     OW17872   2.022   2.235   5.557
 5658SOL    HW117873   1.970   2.163   5.511
 5658SOL    HW217874   2.114   2.240   5.518
 5659SOL     OW17875   3.116   3.912   6.258
 5659SOL    HW117876   3.184   3.866   6.316
 5659SOL    HW217877   3.034   3.930   6.312
 5660SOL     OW17878   4.647   0.224   6.576
 5660SOL    HW117879   4.640   0.292   6.649
 5660SOL    HW217880   4.589   0.145   6.597
 5661SOL     OW17881   0.688   5.856   5.675
 5661SOL    HW117882   0.636   5.793   5.732
 5661SOL    HW217883   0.626   5.906   5.615
 5662SOL     OW17884   2.786   6.333   3.113
 5662SOL    HW117885   2.794   6.327   3.014
 5662SOL    HW217886   2.857   6.276   3.156
 5663SOL     OW17887   1.095   2.935   0.786
 5663SOL    HW117888   1.112   2.853   0.841
 5663SOL    HW217889   1.158   2.936   0.708
 5664SOL     OW17890   5.212   4.103   4.341
 5664SOL    HW117891   5.220   4.027   4.278
 5664SOL    HW217892   5.116   4.132   4.345
 5665SOL     OW17893   2.134   0.428   0.959
 5665SOL    HW117894   2.129   0.522   0.927
 5665SOL    HW217895   2.057   0.410   1.020
 5666SOL     OW17896   6.462   0.999   4.780
 5666SOL    HW117897   6.560   1.000   4.757
 5666SOL    HW217898   6.412   0.954   4.707
 5667SOL     OW17899   1.988   5.340   4.970
 5667SOL    HW117900   1.946   5.252   4.993
 5667SOL    HW217901   1.964   5.407   5.040
 5668SOL     OW17902   5.426   2.625   3.647
 5668SOL    HW117903   5.441   2.531   3.677
 5668SOL    HW217904   5.513   2.674   3.644
 5669SOL     OW17905   6.255   3.714   6.984
 5669SOL    HW117906   6.165   3.748   7.012
 5669SOL    HW217907   6.247   3.618   6.956
 5670SOL     OW17908   0.693   2.593   2.502
 5670SOL    HW117909   0.750   2.584   2.420
 5670SOL    HW217910   0.701   2.686   2.538
 5671SOL     OW17911   0.593   6.869   3.986
 5671SOL    HW117912   0.667   6.847   4.050
 5671SOL    HW217913   0.612   6.827   3.898
 5672SOL     OW17914   5.130   4.224   4.936
 5672SOL    HW117915   5.044   4.268   4.962
 5672SOL    HW217916   5.141   4.227   4.837
 5673SOL     OW17917   1.046   0.277   1.243
 5673SOL    HW117918   0.962   0.306   1.289
 5673SOL    HW217919   1.104   0.357   1.226
 5674SOL     OW17920   1.064   5.852   5.100
 5674SOL    HW117921   1.125   5.929   5.118
 5674SOL    HW217922   0.972   5.887   5.079
 5675SOL     OW17923   2.543   1.536   0.047
 5675SOL    HW117924   2.630   1.490   0.068
 5675SOL    HW217925   2.515   1.513   6.977
 5676SOL     OW17926   2.722   2.163   1.966
 5676SOL    HW117927   2.778   2.230   2.017
 5676SOL    HW217928   2.720   2.189   1.870
 5677SOL     OW17929   0.138   0.204   1.430
 5677SOL    HW117930   0.207   0.156   1.485
 5677SOL    HW217931   0.071   0.247   1.490
 5678SOL     OW17932   3.056   1.973   1.358
 5678SOL    HW117933   3.119   1.897   1.371
 5678SOL    HW217934   3.009   1.993   1.444
 5679SOL     OW17935   6.021   3.369   4.955
 5679SOL    HW117936   5.963   3.288   4.959
 5679SOL    HW217937   5.995   3.432   5.029
 5680SOL     OW17938   1.319   5.531   5.897
 5680SOL    HW117939   1.378   5.462   5.854
 5680SOL    HW217940   1.229   5.529   5.853
 5681SOL     OW17941   0.284   4.274   2.837
 5681SOL    HW117942   0.213   4.342   2.819
 5681SOL    HW217943   0.267   4.193   2.782
 5682SOL     OW17944   2.114   4.327   2.427
 5682SOL    HW117945   2.159   4.413   2.449
 5682SOL    HW217946   2.168   4.276   2.360
 5683SOL     OW17947   4.365   2.040   6.781
 5683SOL    HW117948   4.267   2.043   6.800
 5683SOL    HW217949   4.407   2.127   6.806
 5684SOL     OW17950   2.242   2.654   5.477
 5684SOL    HW117951   2.275   2.701   5.559
 5684SOL    HW217952   2.213   2.561   5.502
 5685SOL     OW17953   2.429   2.151   3.797
 5685SOL    HW117954   2.412   2.235   3.847
 5685SOL    HW217955   2.435   2.074   3.861
 5686SOL     OW17956   3.167   6.659   6.042
 5686SOL    HW117957   3.077   6.690   6.071
 5686SOL    HW217958   3.163   6.628   5.947
 5687SOL     OW17959   1.367   6.443   5.438
 5687SOL    HW117960   1.409   6.364   5.483
 5687SOL    HW217961   1.420   6.525   5.460
 5688SOL     OW17962   2.119   3.216   3.283
 5688SOL    HW117963   2.021   3.217   3.260
 5688SOL    HW217964   2.146   3.307   3.314
 5689SOL     OW17965   1.284   1.245   1.822
 5689SOL    HW117966   1.270   1.149   1.797
 5689SOL    HW217967   1.363   1.253   1.883
 5690SOL     OW17968   1.254   5.650   0.234
 5690SOL    HW117969   1.226   5.676   0.142
 5690SOL    HW217970   1.291   5.557   0.233
 5691SOL     OW17971   3.846   1.060   2.415
 5691SOL    HW117972   3.920   1.094   2.473
 5691SOL    HW217973   3.794   1.137   2.379
 5692SOL     OW17974   4.986   5.170   1.454
 5692SOL    HW117975   4.979   5.188   1.552
 5692SOL    HW217976   5.081   5.181   1.425
 5693SOL     OW17977   3.068   0.749   1.361
 5693SOL    HW117978   3.135   0.754   1.288
 5693SOL    HW217979   3.057   0.653   1.389
 5694SOL     OW17980   0.494   0.112   2.259
 5694SOL    HW117981   0.565   0.165   2.212
 5694SOL    HW217982   0.459   0.040   2.198
 5695SOL     OW17983   0.868   0.546   1.032
 5695SOL    HW117984   0.833   0.455   1.010
 5695SOL    HW217985   0.956   0.559   0.986
 5696SOL     OW17986   1.739   6.965   4.398
 5696SOL    HW117987   1.729   6.866   4.411
 5696SOL    HW217988   1.755   7.009   4.486
 5697SOL     OW17989   6.456   2.962   1.091
 5697SOL    HW117990   6.555   2.961   1.080
 5697SOL    HW217991   6.423   2.868   1.105
 5698SOL     OW17992   1.970   3.079   3.687
 5698SOL    HW117993   2.070   3.078   3.686
 5698SOL    HW217994   1.936   3.065   3.595
 5699SOL     OW17995   2.465   2.633   3.130
 5699SOL    HW117996   2.508   2.610   3.043
 5699SOL    HW217997   2.525   2.606   3.205
 5700SOL     OW17998   6.035   0.350   2.797
 5700SOL    HW117999   5.983   0.292   2.734
 5700SOL    HW218000   6.121   0.306   2.820
 5701SOL     OW18001   6.609   0.879   0.544
 5701SOL    HW118002   6.523   0.830   0.537
 5701SOL    HW218003   6.593   0.970   0.582
 5702SOL     OW18004   2.215   6.741   4.695
 5702SOL    HW118005   2.298   6.687   4.711
 5702SOL    HW218006   2.224   6.793   4.610
 5703SOL     OW18007   6.212   2.702   6.269
 5703SOL    HW118008   6.202   2.801   6.276
 5703SOL    HW218009   6.292   2.680   6.213
 5704SOL     OW18010   5.357   4.265   3.843
 5704SOL    HW118011   5.403   4.350   3.818
 5704SOL    HW218012   5.326   4.270   3.938
 5705SOL     OW18013   5.809   6.351   6.313
 5705SOL    HW118014   5.766   6.436   6.343
 5705SOL    HW218015   5.808   6.285   6.388
 5706SOL     OW18016   5.889   2.159   0.337
 5706SOL    HW118017   5.930   2.120   0.254
 5706SOL    HW218018   5.903   2.096   0.414
 5707SOL     OW18019   5.464   6.332   2.304
 5707SOL    HW118020   5.482   6.305   2.209
 5707SOL    HW218021   5.547   6.372   2.344
 5708SOL     OW18022   4.846   5.929   3.854
 5708SOL    HW118023   4.788   5.898   3.929
 5708SOL    HW218024   4.795   5.923   3.768
 5709SOL     OW18025   0.560   1.220   2.072
 5709SOL    HW118026   0.594   1.137   2.027
 5709SOL    HW218027   0.474   1.248   2.030
 5710SOL     OW18028   2.132   2.385   1.064
 5710SOL    HW118029   2.108   2.471   1.019
 5710SOL    HW218030   2.119   2.394   1.163
 5711SOL     OW18031   5.255   1.615   1.929
 5711SOL    HW118032   5.352   1.615   1.951
 5711SOL    HW218033   5.240   1.571   1.841
 5712SOL     OW18034   6.890   6.046   1.726
 5712SOL    HW118035   6.967   6.016   1.670
 5712SOL    HW218036   6.810   6.061   1.668
 5713SOL     OW18037   2.346   6.143   0.352
 5713SOL    HW118038   2.344   6.155   0.252
 5713SOL    HW218039   2.395   6.221   0.393
 5714SOL     OW18040   6.248   6.488   1.766
 5714SOL    HW118041   6.325   6.529   1.717
 5714SOL    HW218042   6.171   6.551   1.767
 5715SOL     OW18043   0.947   6.938   0.916
 5715SOL    HW118044   0.974   6.963   1.009
 5715SOL    HW218045   0.915   7.019   0.867
 5716SOL     OW18046   0.264   4.436   5.894
 5716SOL    HW118047   0.295   4.519   5.939
 5716SOL    HW218048   0.196   4.459   5.825
 5717SOL     OW18049   1.693   5.201   3.090
 5717SOL    HW118050   1.628   5.254   3.037
 5717SOL    HW218051   1.714   5.116   3.042
 5718SOL     OW18052   0.975   3.163   0.667
 5718SOL    HW118053   1.015   3.112   0.743
 5718SOL    HW218054   0.922   3.101   0.610
 5719SOL     OW18055   3.315   3.956   1.365
 5719SOL    HW118056   3.308   3.877   1.426
 5719SOL    HW218057   3.318   4.040   1.419
 5720SOL     OW18058   2.008   5.236   5.794
 5720SOL    HW118059   2.036   5.235   5.890
 5720SOL    HW218060   2.080   5.279   5.739
 5721SOL     OW18061   4.548   4.769   0.480
 5721SOL    HW118062   4.582   4.855   0.517
 5721SOL    HW218063   4.554   4.698   0.551
 5722SOL     OW18064   0.820   0.960   5.346
 5722SOL    HW118065   0.791   0.893   5.414
 5722SOL    HW218066   0.796   0.927   5.254
 5723SOL     OW18067   4.150   3.349   0.117
 5723SOL    HW118068   4.141   3.319   0.022
 5723SOL    HW218069   4.149   3.269   0.177
 5724SOL     OW18070   5.226   1.992   3.876
 5724SOL    HW118071   5.249   2.048   3.796
 5724SOL    HW218072   5.129   1.969   3.874
 5725SOL     OW18073   6.641   4.056   3.402
 5725SOL    HW118074   6.700   4.005   3.339
 5725SOL    HW218075   6.665   4.032   3.497
 5726SOL     OW18076   4.755   4.517   3.253
 5726SOL    HW118077   4.841   4.470   3.266
 5726SOL    HW218078   4.700   4.469   3.184
 5727SOL     OW18079   0.881   2.301   4.389
 5727SOL    HW118080   0.805   2.364   4.400
 5727SOL    HW218081   0.946   2.313   4.464
 5728SOL     OW18082   5.294   6.356   4.911
 5728SOL    HW118083   5.232   6.309   4.847
 5728SOL    HW218084   5.304   6.300   4.994
 5729SOL     OW18085   2.205   1.113   5.910
 5729SOL    HW118086   2.183   1.038   5.848
 5729SOL    HW218087   2.124   1.138   5.963
 5730SOL     OW18088   6.472   4.082   5.773
 5730SOL    HW118089   6.533   4.070   5.852
 5730SOL    HW218090   6.378   4.090   5.805
 5731SOL     OW18091   0.379   6.247   1.619
 5731SOL    HW118092   0.404   6.314   1.689
 5731SOL    HW218093   0.442   6.254   1.542
 5732SOL     OW18094   1.431   6.845   3.957
 5732SOL    HW118095   1.487   6.916   3.914
 5732SOL    HW218096   1.377   6.885   4.031
 5733SOL     OW18097   3.312   6.994   4.913
 5733SOL    HW118098   3.400   0.018   4.903
 5733SOL    HW218099   3.265   0.004   4.995
 5734SOL     OW18100   1.599   5.500   3.315
 5734SOL    HW118101   1.647   5.582   3.346
 5734SOL    HW218102   1.663   5.422   3.317
 5735SOL     OW18103   3.302   1.585   1.969
 5735SOL    HW118104   3.373   1.609   1.902
 5735SOL    HW218105   3.329   1.502   2.017
 5736SOL     OW18106   0.657   5.512   6.853
 5736SOL    HW118107   0.653   5.608   6.879
 5736SOL    HW218108   0.565   5.472   6.859
 5737SOL     OW18109   5.042   4.956   0.231
 5737SOL    HW118110   4.992   5.000   0.305
 5737SOL    HW218111   4.982   4.892   0.183
 5738SOL     OW18112   0.940   3.810   6.058
 5738SOL    HW118113   1.029   3.816   6.104
 5738SOL    HW218114   0.922   3.896   6.009
 5739SOL     OW18115   0.817   1.408   0.921
 5739SOL    HW118116   0.890   1.477   0.917
 5739SOL    HW218117   0.734   1.449   0.959
 5740SOL     OW18118   3.916   6.250   6.262
 5740SOL    HW118119   3.896   6.204   6.175
 5740SOL    HW218120   3.866   6.206   6.336
 5741SOL     OW18121   0.883   5.423   4.462
 5741SOL    HW118122   0.861   5.326   4.462
 5741SOL    HW218123   0.950   5.442   4.534
 5742SOL     OW18124   6.729   6.657   3.829
 5742SOL    HW118125   6.737   6.629   3.925
 5742SOL    HW218126   6.709   6.754   3.825
 5743SOL     OW18127   2.004   0.145   5.115
 5743SOL    HW118128   2.035   0.054   5.143
 5743SOL    HW218129   2.029   0.161   5.019
 5744SOL     OW18130   6.383   0.485   2.309
 5744SOL    HW118131   6.288   0.454   2.314
 5744SOL    HW218132   6.391   0.557   2.240
 5745SOL     OW18133   1.917   1.819   3.628
 5745SOL    HW118134   1.878   1.751   3.566
 5745SOL    HW218135   1.913   1.909   3.586
 5746SOL     OW18136   5.403   2.617   6.961
 5746SOL    HW118137   5.383   2.693   6.899
 5746SOL    HW218138   5.415   2.533   6.909
 5747SOL     OW18139   0.974   5.470   3.042
 5747SOL    HW118140   1.025   5.549   3.075
 5747SOL    HW218141   0.893   5.501   2.992
 5748SOL     OW18142   2.548   6.074   2.795
 5748SOL    HW118143   2.570   6.155   2.848
 5748SOL    HW218144   2.521   6.000   2.856
 5749SOL     OW18145   2.698   2.016   3.400
 5749SOL    HW118146   2.793   1.987   3.386
 5749SOL    HW218147   2.664   2.057   3.315
 5750SOL     OW18148   6.813   5.813   2.760
 5750SOL    HW118149   6.868   5.882   2.807
 5750SOL    HW218150   6.733   5.790   2.815
 5751SOL     OW18151   2.566   3.670   5.604
 5751SOL    HW118152   2.491   3.635   5.660
 5751SOL    HW218153   2.530   3.706   5.519
 5752SOL     OW18154   6.637   6.923   6.857
 5752SOL    HW118155   6.734   6.919   6.836
 5752SOL    HW218156   6.584   6.884   6.781
 5753SOL     OW18157   3.656   2.553   0.479
 5753SOL    HW118158   3.710   2.548   0.564
 5753SOL    HW218159   3.566   2.512   0.494
 5754SOL     OW18160   6.366   4.582   1.769
 5754SOL    HW118161   6.276   4.613   1.737
 5754SOL    HW218162   6.404   4.516   1.705
 5755SOL     OW18163   3.425   4.040   0.764
 5755SOL    HW118164   3.459   3.965   0.822
 5755SOL    HW218165   3.345   4.009   0.713
 5756SOL     OW18166   6.880   5.475   4.480
 5756SOL    HW118167   6.893   5.560   4.429
 5756SOL    HW218168   6.839   5.495   4.569
 5757SOL     OW18169   0.419   4.896   0.947
 5757SOL    HW118170   0.451   4.981   0.988
 5757SOL    HW218171   0.343   4.860   1.001
 5758SOL     OW18172   1.297   1.813   5.502
 5758SOL    HW118173   1.304   1.737   5.567
 5758SOL    HW218174   1.326   1.898   5.545
 5759SOL     OW18175   5.521   1.461   5.792
 5759SOL    HW118176   5.603   1.441   5.738
 5759SOL    HW218177   5.532   1.549   5.839
 5760SOL     OW18178   2.078   5.376   2.458
 5760SOL    HW118179   2.144   5.355   2.530
 5760SOL    HW218180   2.036   5.291   2.427
 5761SOL     OW18181   4.839   0.157   4.764
 5761SOL    HW118182   4.930   0.138   4.726
 5761SOL    HW218183   4.844   0.156   4.864
 5762SOL     OW18184   6.062   5.953   1.742
 5762SOL    HW118185   6.069   5.862   1.703
 5762SOL    HW218186   6.153   5.993   1.750
 5763SOL     OW18187   1.386   0.879   1.588
 5763SOL    HW118188   1.400   0.844   1.680
 5763SOL    HW218189   1.459   0.846   1.528
 5764SOL     OW18190   4.888   3.188   5.297
 5764SOL    HW118191   4.955   3.145   5.236
 5764SOL    HW218192   4.900   3.152   5.390
 5765SOL     OW18193   5.630   4.684   0.122
 5765SOL    HW118194   5.665   4.616   0.057
 5765SOL    HW218195   5.605   4.767   0.074
 5766SOL     OW18196   3.481   1.766   2.976
 5766SOL    HW118197   3.481   1.671   2.946
 5766SOL    HW218198   3.566   1.810   2.947
 5767SOL     OW18199   0.520   6.394   1.813
 5767SOL    HW118200   0.505   6.410   1.911
 5767SOL    HW218201   0.618   6.386   1.796
 5768SOL     OW18202   6.060   1.660   2.517
 5768SOL    HW118203   6.144   1.668   2.462
 5768SOL    HW218204   6.035   1.751   2.551
 5769SOL     OW18205   2.383   5.340   4.040
 5769SOL    HW118206   2.290   5.333   4.075
 5769SOL    HW218207   2.393   5.426   3.990
 5770SOL     OW18208   6.416   0.807   1.501
 5770SOL    HW118209   6.384   0.902   1.497
 5770SOL    HW218210   6.358   0.750   1.443
 5771SOL     OW18211   0.762   1.657   1.599
 5771SOL    HW118212   0.754   1.614   1.689
 5771SOL    HW218213   0.694   1.729   1.590
 5772SOL     OW18214   6.288   4.163   6.904
 5772SOL    HW118215   6.325   4.202   6.988
 5772SOL    HW218216   6.353   4.096   6.867
 5773SOL     OW18217   5.767   5.812   4.310
 5773SOL    HW118218   5.726   5.899   4.282
 5773SOL    HW218219   5.785   5.756   4.229
 5774SOL     OW18220   1.957   5.395   3.843
 5774SOL    HW118221   1.893   5.354   3.778
 5774SOL    HW218222   1.926   5.487   3.868
 5775SOL     OW18223   0.011   0.271   6.637
 5775SOL    HW118224   7.017   0.348   6.576
 5775SOL    HW218225   0.006   0.302   6.732
 5776SOL     OW18226   4.974   0.761   5.163
 5776SOL    HW118227   5.052   0.781   5.222
 5776SOL    HW218228   5.007   0.728   5.075
 5777SOL     OW18229   6.724   0.904   5.319
 5777SOL    HW118230   6.751   0.895   5.223
 5777SOL    HW218231   6.794   0.864   5.378
 5778SOL     OW18232   2.213   6.719   3.972
 5778SOL    HW118233   2.147   6.650   3.999
 5778SOL    HW218234   2.173   6.810   3.982
 5779SOL     OW18235   4.744   1.559   2.105
 5779SOL    HW118236   4.753   1.486   2.037
 5779SOL    HW218237   4.710   1.520   2.191
 5780SOL     OW18238   5.614   4.015   1.274
 5780SOL    HW118239   5.655   4.040   1.362
 5780SOL    HW218240   5.632   3.918   1.256
 5781SOL     OW18241   2.055   5.586   4.516
 5781SOL    HW118242   2.034   5.551   4.425
 5781SOL    HW218243   2.032   5.517   4.585
 5782SOL     OW18244   2.930   1.648   2.537
 5782SOL    HW118245   2.883   1.642   2.450
 5782SOL    HW218246   2.880   1.597   2.606
 5783SOL     OW18247   1.451   0.011   1.012
 5783SOL    HW118248   1.538   7.002   1.050
 5783SOL    HW218249   1.375   6.989   1.060
 5784SOL     OW18250   1.510   5.647   6.888
 5784SOL    HW118251   1.469   5.738   6.885
 5784SOL    HW218252   1.598   5.648   6.841
 5785SOL     OW18253   2.101   1.949   0.186
 5785SOL    HW118254   2.018   1.970   0.134
 5785SOL    HW218255   2.078   1.888   0.262
 5786SOL     OW18256   1.326   3.252   1.168
 5786SOL    HW118257   1.423   3.273   1.152
 5786SOL    HW218258   1.297   3.182   1.102
 5787SOL     OW18259   6.824   3.004   5.690
 5787SOL    HW118260   6.778   3.092   5.690
 5787SOL    HW218261   6.843   2.975   5.784
 5788SOL     OW18262   2.357   2.017   2.360
 5788SOL    HW118263   2.440   1.991   2.409
 5788SOL    HW218264   2.373   2.102   2.308
 5789SOL     OW18265   3.317   4.790   6.514
 5789SOL    HW118266   3.247   4.801   6.444
 5789SOL    HW218267   3.339   4.693   6.524
 5790SOL     OW18268   5.933   6.207   4.115
 5790SOL    HW118269   5.908   6.114   4.088
 5790SOL    HW218270   5.851   6.255   4.146
 5791SOL     OW18271   3.980   1.500   1.966
 5791SOL    HW118272   4.026   1.585   1.993
 5791SOL    HW218273   3.957   1.448   2.048
 5792SOL     OW18274   5.239   3.051   3.079
 5792SOL    HW118275   5.188   3.012   3.156
 5792SOL    HW218276   5.304   2.983   3.044
 5793SOL     OW18277   4.343   2.480   5.754
 5793SOL    HW118278   4.253   2.519   5.774
 5793SOL    HW218279   4.336   2.419   5.675
 5794SOL     OW18280   4.249   6.777   0.088
 5794SOL    HW118281   4.193   6.834   0.148
 5794SOL    HW218282   4.223   6.681   0.098
 5795SOL     OW18283   2.421   5.749   1.644
 5795SOL    HW118284   2.390   5.774   1.552
 5795SOL    HW218285   2.513   5.786   1.659
 5796SOL     OW18286   4.593   1.852   6.738
 5796SOL    HW118287   4.496   1.874   6.746
 5796SOL    HW218288   4.645   1.937   6.728
 5797SOL     OW18289   5.430   2.390   0.718
 5797SOL    HW118290   5.356   2.354   0.661
 5797SOL    HW218291   5.415   2.488   0.734
 5798SOL     OW18292   1.556   3.631   5.257
 5798SOL    HW118293   1.523   3.694   5.326
 5798SOL    HW218294   1.491   3.629   5.180
 5799SOL     OW18295   2.451   6.780   3.486
 5799SOL    HW118296   2.433   6.695   3.437
 5799SOL    HW218297   2.388   6.789   3.562
 5800SOL     OW18298   1.258   6.896   1.170
 5800SOL    HW118299   1.277   6.934   1.260
 5800SOL    HW218300   1.160   6.903   1.151
 5801SOL     OW18301   1.807   1.512   2.140
 5801SOL    HW118302   1.801   1.547   2.233
 5801SOL    HW218303   1.722   1.534   2.091
 5802SOL     OW18304   0.182   0.914   2.014
 5802SOL    HW118305   0.149   0.944   1.924
 5802SOL    HW218306   0.250   0.843   2.003
 5803SOL     OW18307   0.382   5.103   4.030
 5803SOL    HW118308   0.442   5.179   4.004
 5803SOL    HW218309   0.391   5.085   4.128
 5804SOL     OW18310   5.761   1.318   3.440
 5804SOL    HW118311   5.731   1.319   3.345
 5804SOL    HW218312   5.825   1.242   3.454
 5805SOL     OW18313   1.141   2.585   1.922
 5805SOL    HW118314   1.182   2.669   1.888
 5805SOL    HW218315   1.185   2.507   1.878
 5806SOL     OW18316   6.332   4.243   2.030
 5806SOL    HW118317   6.274   4.257   1.950
 5806SOL    HW218318   6.352   4.146   2.040
 5807SOL     OW18319   1.657   0.412   1.385
 5807SOL    HW118320   1.719   0.343   1.423
 5807SOL    HW218321   1.667   0.497   1.436
 5808SOL     OW18322   6.484   6.703   5.919
 5808SOL    HW118323   6.548   6.631   5.893
 5808SOL    HW218324   6.526   6.792   5.901
 5809SOL     OW18325   1.012   1.831   5.501
 5809SOL    HW118326   1.108   1.809   5.484
 5809SOL    HW218327   0.965   1.846   5.414
 5810SOL     OW18328   2.996   6.874   5.539
 5810SOL    HW118329   2.942   6.793   5.514
 5810SOL    HW218330   2.992   6.887   5.638
 5811SOL     OW18331   3.074   4.229   6.826
 5811SOL    HW118332   3.173   4.223   6.836
 5811SOL    HW218333   3.050   4.303   6.764
 5812SOL     OW18334   6.050   2.010   0.129
 5812SOL    HW118335   6.145   1.984   0.111
 5812SOL    HW218336   5.995   1.994   0.047
 5813SOL     OW18337   4.958   6.207   0.543
 5813SOL    HW118338   4.919   6.130   0.594
 5813SOL    HW218339   5.057   6.209   0.556
 5814SOL     OW18340   5.088   1.309   1.354
 5814SOL    HW118341   5.097   1.383   1.420
 5814SOL    HW218342   5.010   1.327   1.293
 5815SOL     OW18343   6.897   1.772   4.125
 5815SOL    HW118344   6.960   1.845   4.149
 5815SOL    HW218345   6.943   1.706   4.065
 5816SOL     OW18346   0.246   3.624   2.626
 5816SOL    HW118347   0.186   3.604   2.549
 5816SOL    HW218348   0.222   3.565   2.704
 5817SOL     OW18349   6.005   3.426   3.148
 5817SOL    HW118350   6.031   3.500   3.210
 5817SOL    HW218351   5.995   3.341   3.199
 5818SOL     OW18352   2.425   0.478   4.991
 5818SOL    HW118353   2.419   0.448   5.086
 5818SOL    HW218354   2.484   0.559   4.985
 5819SOL     OW18355   4.446   5.469   0.329
 5819SOL    HW118356   4.480   5.426   0.413
 5819SOL    HW218357   4.445   5.568   0.341
 5820SOL     OW18358   5.277   6.011   2.055
 5820SOL    HW118359   5.261   6.096   2.006
 5820SOL    HW218360   5.314   6.032   2.146
 5821SOL     OW18361   0.188   6.524   0.860
 5821SOL    HW118362   0.097   6.492   0.836
 5821SOL    HW218363   0.213   6.602   0.801
 5822SOL     OW18364   1.871   3.164   2.608
 5822SOL    HW118365   1.869   3.120   2.698
 5822SOL    HW218366   1.782   3.150   2.563
 5823SOL     OW18367   2.127   5.181   3.460
 5823SOL    HW118368   2.154   5.249   3.528
 5823SOL    HW218369   2.088   5.101   3.507
 5824SOL     OW18370   1.125   1.183   2.381
 5824SOL    HW118371   1.062   1.180   2.303
 5824SOL    HW218372   1.096   1.256   2.444
 5825SOL     OW18373   5.663   1.148   4.472
 5825SOL    HW118374   5.631   1.138   4.378
 5825SOL    HW218375   5.635   1.068   4.525
 5826SOL     OW18376   0.599   6.932   5.262
 5826SOL    HW118377   0.696   6.922   5.241
 5826SOL    HW218378   0.568   0.000   5.233
 5827SOL     OW18379   2.158   3.914   3.720
 5827SOL    HW118380   2.091   3.841   3.708
 5827SOL    HW218381   2.233   3.881   3.777
 5828SOL     OW18382   3.841   0.223   4.937
 5828SOL    HW118383   3.907   0.148   4.936
 5828SOL    HW218384   3.888   0.310   4.922
 5829SOL     OW18385   2.152   0.752   4.017
 5829SOL    HW118386   2.246   0.785   4.022
 5829SOL    HW218387   2.094   0.822   3.975
 5830SOL     OW18388   3.946   4.968   4.290
 5830SOL    HW118389   3.969   5.065   4.291
 5830SOL    HW218390   3.952   4.932   4.383
 5831SOL     OW18391   1.614   2.413   5.449
 5831SOL    HW118392   1.702   2.376   5.419
 5831SOL    HW218393   1.540   2.357   5.412
 5832SOL     OW18394   2.929   5.308   1.935
 5832SOL    HW118395   2.833   5.308   1.907
 5832SOL    HW218396   2.977   5.385   1.893
 5833SOL     OW18397   3.331   4.905   6.789
 5833SOL    HW118398   3.311   4.839   6.717
 5833SOL    HW218399   3.429   4.923   6.792
 5834SOL     OW18400   5.608   2.798   6.333
 5834SOL    HW118401   5.647   2.819   6.423
 5834SOL    HW218402   5.527   2.740   6.346
 5835SOL     OW18403   5.096   2.251   2.758
 5835SOL    HW118404   5.034   2.177   2.782
 5835SOL    HW218405   5.045   2.337   2.752
 5836SOL     OW18406   4.770   6.277   3.195
 5836SOL    HW118407   4.804   6.354   3.141
 5836SOL    HW218408   4.725   6.312   3.278
 5837SOL     OW18409   2.705   5.463   6.932
 5837SOL    HW118410   2.682   5.392   6.865
 5837SOL    HW218411   2.805   5.475   6.935
 5838SOL     OW18412   3.550   2.282   1.085
 5838SOL    HW118413   3.509   2.348   1.147
 5838SOL    HW218414   3.581   2.203   1.137
 5839SOL     OW18415   1.565   2.319   1.136
 5839SOL    HW118416   1.538   2.398   1.191
 5839SOL    HW218417   1.665   2.311   1.135
 5840SOL     OW18418   0.442   3.084   2.976
 5840SOL    HW118419   0.469   3.045   3.064
 5840SOL    HW218420   0.366   3.148   2.990
 5841SOL     OW18421   5.364   1.950   0.140
 5841SOL    HW118422   5.416   2.033   0.121
 5841SOL    HW218423   5.331   1.953   0.235
 5842SOL     OW18424   2.266   2.646   1.561
 5842SOL    HW118425   2.206   2.566   1.563
 5842SOL    HW218426   2.332   2.639   1.636
 5843SOL     OW18427   2.575   3.824   0.796
 5843SOL    HW118428   2.492   3.880   0.798
 5843SOL    HW218429   2.550   3.728   0.802
 5844SOL     OW18430   0.358   6.439   5.292
 5844SOL    HW118431   0.327   6.515   5.235
 5844SOL    HW218432   0.446   6.461   5.334
 5845SOL     OW18433   1.194   6.806   2.272
 5845SOL    HW118434   1.151   6.740   2.210
 5845SOL    HW218435   1.268   6.853   2.225
 5846SOL     OW18436   6.636   3.919   5.527
 5846SOL    HW118437   6.722   3.936   5.478
 5846SOL    HW218438   6.656   3.890   5.620
 5847SOL     OW18439   2.653   4.206   6.636
 5847SOL    HW118440   2.648   4.221   6.538
 5847SOL    HW218441   2.698   4.118   6.655
 5848SOL     OW18442   2.191   5.597   2.318
 5848SOL    HW118443   2.156   5.524   2.377
 5848SOL    HW218444   2.133   5.605   2.236
 5849SOL     OW18445   4.000   6.017   5.473
 5849SOL    HW118446   3.997   6.100   5.417
 5849SOL    HW218447   4.020   6.042   5.568
 5850SOL     OW18448   0.987   1.554   3.038
 5850SOL    HW118449   0.994   1.467   2.990
 5850SOL    HW218450   0.938   1.542   3.124
 5851SOL     OW18451   6.370   3.542   3.995
 5851SOL    HW118452   6.306   3.535   4.072
 5851SOL    HW218453   6.463   3.558   4.031
 5852SOL     OW18454   4.868   3.957   2.390
 5852SOL    HW118455   4.858   3.861   2.363
 5852SOL    HW218456   4.824   4.015   2.323
 5853SOL     OW18457   3.947   4.832   5.931
 5853SOL    HW118458   3.949   4.921   5.977
 5853SOL    HW218459   3.888   4.769   5.982
 5854SOL     OW18460   2.909   4.750   5.399
 5854SOL    HW118461   2.937   4.683   5.330
 5854SOL    HW218462   2.985   4.766   5.462
 5855SOL     OW18463   2.251   2.809   3.186
 5855SOL    HW118464   2.335   2.756   3.196
 5855SOL    HW218465   2.177   2.747   3.159
 5856SOL     OW18466   1.050   7.012   3.053
 5856SOL    HW118467   0.973   0.029   3.003
 5856SOL    HW218468   1.062   6.917   3.026
 5857SOL     OW18469   5.820   4.573   6.555
 5857SOL    HW118470   5.852   4.569   6.460
 5857SOL    HW218471   5.832   4.483   6.597
 5858SOL     OW18472   1.273   1.414   3.105
 5858SOL    HW118473   1.230   1.477   3.170
 5858SOL    HW218474   1.207   1.342   3.081
 5859SOL     OW18475   6.183   6.527   1.252
 5859SOL    HW118476   6.251   6.468   1.296
 5859SOL    HW218477   6.099   6.474   1.237
 5860SOL     OW18478   0.089   4.766   3.352
 5860SOL    HW118479   0.186   4.781   3.368
 5860SOL    HW218480   0.076   4.676   3.309
 5861SOL     OW18481   5.160   0.811   5.388
 5861SOL    HW118482   5.154   0.756   5.471
 5861SOL    HW218483   5.194   0.902   5.411
 5862SOL     OW18484   6.961   5.752   2.510
 5862SOL    HW118485   6.903   5.757   2.591
 5862SOL    HW218486   6.979   5.845   2.476
 5863SOL     OW18487   4.152   6.901   6.808
 5863SOL    HW118488   4.129   6.964   6.733
 5863SOL    HW218489   4.222   6.942   6.865
 5864SOL     OW18490   3.707   4.073   2.705
 5864SOL    HW118491   3.790   4.045   2.752
 5864SOL    HW218492   3.730   4.106   2.613
 5865SOL     OW18493   6.560   0.592   5.951
 5865SOL    HW118494   6.462   0.609   5.946
 5865SOL    HW218495   6.582   0.507   5.902
 5866SOL     OW18496   3.801   2.982   2.997
 5866SOL    HW118497   3.728   2.924   3.032
 5866SOL    HW218498   3.799   2.981   2.897
 5867SOL     OW18499   3.396   1.571   1.542
 5867SOL    HW118500   3.347   1.485   1.556
 5867SOL    HW218501   3.376   1.605   1.450
 5868SOL     OW18502   0.892   1.329   5.876
 5868SOL    HW118503   0.904   1.268   5.797
 5868SOL    HW218504   0.939   1.415   5.858
 5869SOL     OW18505   0.605   5.897   3.716
 5869SOL    HW118506   0.562   5.835   3.651
 5869SOL    HW218507   0.624   5.848   3.802
 5870SOL     OW18508   3.913   5.347   4.738
 5870SOL    HW118509   3.940   5.263   4.691
 5870SOL    HW218510   3.885   5.416   4.671
 5871SOL     OW18511   3.032   3.944   3.685
 5871SOL    HW118512   3.003   3.899   3.600
 5871SOL    HW218513   3.056   3.875   3.753
 5872SOL     OW18514   4.588   5.438   1.565
 5872SOL    HW118515   4.627   5.453   1.656
 5872SOL    HW218516   4.588   5.341   1.544
 5873SOL     OW18517   4.410   6.006   2.021
 5873SOL    HW118518   4.377   6.059   1.943
 5873SOL    HW218519   4.333   5.981   2.079
 5874SOL     OW18520   1.822   4.053   5.647
 5874SOL    HW118521   1.800   3.983   5.580
 5874SOL    HW218522   1.899   4.022   5.703
 5875SOL     OW18523   2.940   1.685   0.749
 5875SOL    HW118524   2.877   1.738   0.805
 5875SOL    HW218525   2.940   1.719   0.655
 5876SOL     OW18526   3.644   3.502   1.816
 5876SOL    HW118527   3.572   3.553   1.769
 5876SOL    HW218528   3.648   3.409   1.779
 5877SOL     OW18529   5.468   4.266   0.823
 5877SOL    HW118530   5.473   4.286   0.725
 5877SOL    HW218531   5.553   4.293   0.868
 5878SOL     OW18532   2.316   4.894   2.692
 5878SOL    HW118533   2.295   4.796   2.700
 5878SOL    HW218534   2.239   4.947   2.728
 5879SOL     OW18535   0.588   4.323   4.929
 5879SOL    HW118536   0.542   4.410   4.913
 5879SOL    HW218537   0.594   4.304   5.027
 5880SOL     OW18538   3.018   5.620   1.061
 5880SOL    HW118539   3.076   5.635   1.141
 5880SOL    HW218540   3.060   5.663   0.981
 5881SOL     OW18541   1.150   6.317   4.642
 5881SOL    HW118542   1.188   6.329   4.551
 5881SOL    HW218543   1.194   6.239   4.687
 5882SOL     OW18544   4.655   1.196   1.833
 5882SOL    HW118545   4.593   1.247   1.893
 5882SOL    HW218546   4.612   1.185   1.743
 5883SOL     OW18547   0.141   3.773   5.670
 5883SOL    HW118548   0.072   3.721   5.619
 5883SOL    HW218549   0.127   3.871   5.654
 5884SOL     OW18550   1.480   1.680   3.190
 5884SOL    HW118551   1.491   1.602   3.128
 5884SOL    HW218552   1.513   1.763   3.145
 5885SOL     OW18553   5.868   6.561   1.278
 5885SOL    HW118554   5.776   6.523   1.267
 5885SOL    HW218555   5.891   6.617   1.199
 5886SOL     OW18556   1.498   1.368   5.964
 5886SOL    HW118557   1.461   1.276   5.976
 5886SOL    HW218558   1.423   1.433   5.947
 5887SOL     OW18559   4.245   6.641   4.279
 5887SOL    HW118560   4.197   6.637   4.191
 5887SOL    HW218561   4.308   6.719   4.278
 5888SOL     OW18562   2.147   0.226   3.399
 5888SOL    HW118563   2.247   0.229   3.401
 5888SOL    HW218564   2.117   0.162   3.329
 5889SOL     OW18565   2.362   0.813   0.432
 5889SOL    HW118566   2.325   0.863   0.353
 5889SOL    HW218567   2.432   0.869   0.477
 5890SOL     OW18568   2.945   4.801   5.859
 5890SOL    HW118569   2.904   4.872   5.801
 5890SOL    HW218570   2.914   4.814   5.953
 5891SOL     OW18571   3.074   3.842   0.248
 5891SOL    HW118572   3.019   3.831   0.331
 5891SOL    HW218573   3.123   3.757   0.228
 5892SOL     OW18574   0.718   6.715   1.244
 5892SOL    HW118575   0.721   6.799   1.298
 5892SOL    HW218576   0.644   6.721   1.177
 5893SOL     OW18577   1.364   0.730   3.594
 5893SOL    HW118578   1.342   0.817   3.550
 5893SOL    HW218579   1.366   0.658   3.524
 5894SOL     OW18580   1.199   2.915   3.280
 5894SOL    HW118581   1.210   3.011   3.306
 5894SOL    HW218582   1.209   2.907   3.180
 5895SOL     OW18583   4.938   3.546   3.586
 5895SOL    HW118584   5.036   3.554   3.570
 5895SOL    HW218585   4.901   3.637   3.608
 5896SOL     OW18586   3.317   2.238   5.829
 5896SOL    HW118587   3.384   2.168   5.803
 5896SOL    HW218588   3.300   2.298   5.751
 5897SOL     OW18589   4.326   0.391   1.440
 5897SOL    HW118590   4.252   0.456   1.459
 5897SOL    HW218591   4.334   0.377   1.342
 5898SOL     OW18592   1.905   0.449   2.580
 5898SOL    HW118593   1.866   0.495   2.501
 5898SOL    HW218594   2.004   0.437   2.566
 5899SOL     OW18595   5.313   0.065   4.128
 5899SOL    HW118596   5.385   0.100   4.067
 5899SOL    HW218597   5.303   0.128   4.205
 5900SOL     OW18598   4.509   5.107   2.918
 5900SOL    HW118599   4.553   5.133   3.004
 5900SOL    HW218600   4.532   5.173   2.847
 5901SOL     OW18601   3.355   6.653   5.001
 5901SOL    HW118602   3.378   6.592   4.926
 5901SOL    HW218603   3.379   6.747   4.975
 5902SOL     OW18604   6.309   1.637   6.660
 5902SOL    HW118605   6.245   1.560   6.650
 5902SOL    HW218606   6.359   1.649   6.574
 5903SOL     OW18607   6.013   2.712   5.994
 5903SOL    HW118608   5.965   2.674   5.915
 5903SOL    HW218609   5.964   2.687   6.078
 5904SOL     OW18610   0.241   4.192   2.522
 5904SOL    HW118611   0.312   4.123   2.513
 5904SOL    HW218612   0.196   4.184   2.611
 5905SOL     OW18613   0.143   5.256   2.996
 5905SOL    HW118614   0.225   5.199   2.995
 5905SOL    HW218615   0.168   5.352   2.988
 5906SOL     OW18616   6.143   1.455   3.581
 5906SOL    HW118617   6.241   1.446   3.562
 5906SOL    HW218618   6.108   1.369   3.619
 5907SOL     OW18619   1.809   6.679   1.788
 5907SOL    HW118620   1.738   6.637   1.845
 5907SOL    HW218621   1.886   6.707   1.845
 5908SOL     OW18622   0.118   3.247   5.756
 5908SOL    HW118623   0.204   3.294   5.777
 5908SOL    HW218624   0.137   3.168   5.698
 5909SOL     OW18625   6.921   4.929   1.047
 5909SOL    HW118626   6.921   4.891   0.955
 5909SOL    HW218627   6.855   4.880   1.104
 5910SOL     OW18628   2.068   1.514   3.623
 5910SOL    HW118629   2.051   1.503   3.721
 5910SOL    HW218630   2.071   1.425   3.579
 5911SOL     OW18631   6.321   5.634   6.262
 5911SOL    HW118632   6.388   5.596   6.326
 5911SOL    HW218633   6.286   5.721   6.298
 5912SOL     OW18634   0.132   1.111   3.685
 5912SOL    HW118635   0.225   1.142   3.708
 5912SOL    HW218636   0.099   1.051   3.758
 5913SOL     OW18637   5.953   1.341   6.962
 5913SOL    HW118638   5.932   1.340   6.864
 5913SOL    HW218639   5.916   1.425   7.003
 5914SOL     OW18640   0.799   6.357   0.102
 5914SOL    HW118641   0.723   6.297   0.077
 5914SOL    HW218642   0.853   6.313   0.174
 5915SOL     OW18643   3.777   1.830   6.126
 5915SOL    HW118644   3.708   1.767   6.160
 5915SOL    HW218645   3.858   1.825   6.185
 5916SOL     OW18646   1.207   6.448   2.915
 5916SOL    HW118647   1.296   6.490   2.896
 5916SOL    HW218648   1.220   6.354   2.945
 5917SOL     OW18649   3.796   4.661   0.288
 5917SOL    HW118650   3.697   4.653   0.275
 5917SOL    HW218651   3.835   4.571   0.305
 5918SOL     OW18652   2.995   6.062   5.199
 5918SOL    HW118653   3.029   6.143   5.152
 5918SOL    HW218654   2.914   6.086   5.253
 5919SOL     OW18655   3.185   2.973   3.736
 5919SOL    HW118656   3.180   2.941   3.831
 5919SOL    HW218657   3.122   3.050   3.723
 5920SOL     OW18658   6.602   6.988   5.545
 5920SOL    HW118659   6.693   6.988   5.586
 5920SOL    HW218660   6.535   7.019   5.613
 5921SOL     OW18661   2.807   4.769   6.283
 5921SOL    HW118662   2.903   4.746   6.272
 5921SOL    HW218663   2.789   4.795   6.378
 5922SOL     OW18664   5.053   3.891   3.468
 5922SOL    HW118665   4.984   3.923   3.403
 5922SOL    HW218666   5.008   3.853   3.548
 5923SOL     OW18667   6.763   0.187   2.399
 5923SOL    HW118668   6.836   0.192   2.332
 5923SOL    HW218669   6.680   0.228   2.361
 5924SOL     OW18670   5.864   0.468   3.209
 5924SOL    HW118671   5.845   0.378   3.169
 5924SOL    HW218672   5.909   0.526   3.141
 5925SOL     OW18673   4.835   6.296   1.332
 5925SOL    HW118674   4.843   6.198   1.314
 5925SOL    HW218675   4.835   6.346   1.245
 5926SOL     OW18676   4.800   5.384   3.868
 5926SOL    HW118677   4.749   5.322   3.808
 5926SOL    HW218678   4.772   5.478   3.850
 5927SOL     OW18679   1.081   4.525   1.414
 5927SOL    HW118680   1.074   4.520   1.513
 5927SOL    HW218681   0.992   4.502   1.373
 5928SOL     OW18682   3.784   0.273   0.663
 5928SOL    HW118683   3.821   0.340   0.726
 5928SOL    HW218684   3.737   0.201   0.714
 5929SOL     OW18685   1.630   1.030   6.602
 5929SOL    HW118686   1.556   1.048   6.537
 5929SOL    HW218687   1.691   1.109   6.606
 5930SOL     OW18688   1.194   3.345   2.036
 5930SOL    HW118689   1.213   3.319   2.131
 5930SOL    HW218690   1.259   3.415   2.007
 5931SOL     OW18691   5.052   6.000   3.614
 5931SOL    HW118692   5.010   5.986   3.524
 5931SOL    HW218693   5.003   6.072   3.663
 5932SOL     OW18694   3.075   1.304   6.934
 5932SOL    HW118695   3.050   1.368   7.007
 5932SOL    HW218696   3.021   1.323   6.852
 5933SOL     OW18697   6.109   6.300   4.345
 5933SOL    HW118698   6.113   6.205   4.315
 5933SOL    HW218699   6.025   6.342   4.310
 5934SOL     OW18700   3.291   3.901   6.045
 5934SOL    HW118701   3.256   3.873   5.956
 5934SOL    HW218702   3.215   3.908   6.110
 5935SOL     OW18703   6.868   6.223   6.075
 5935SOL    HW118704   6.773   6.193   6.074
 5935SOL    HW218705   6.873   6.321   6.060
 5936SOL     OW18706   3.397   3.104   1.503
 5936SOL    HW118707   3.356   3.193   1.520
 5936SOL    HW218708   3.380   3.044   1.581
 5937SOL     OW18709   6.632   3.521   1.548
 5937SOL    HW118710   6.605   3.597   1.609
 5937SOL    HW218711   6.642   3.556   1.455
 5938SOL     OW18712   0.468   4.591   4.908
 5938SOL    HW118713   0.545   4.654   4.908
 5938SOL    HW218714   0.391   4.633   4.859
 5939SOL     OW18715   3.435   0.627   5.259
 5939SOL    HW118716   3.377   0.554   5.296
 5939SOL    HW218717   3.529   0.594   5.252
 5940SOL     OW18718   5.139   6.104   2.495
 5940SOL    HW118719   5.142   6.057   2.583
 5940SOL    HW218720   5.045   6.135   2.477
 5941SOL     OW18721   6.372   1.964   2.197
 5941SOL    HW118722   6.411   1.931   2.111
 5941SOL    HW218723   6.341   2.059   2.186
 5942SOL     OW18724   5.167   3.061   5.740
 5942SOL    HW118725   5.203   3.130   5.677
 5942SOL    HW218726   5.228   2.982   5.741
 5943SOL     OW18727   3.291   4.361   1.702
 5943SOL    HW118728   3.197   4.380   1.675
 5943SOL    HW218729   3.346   4.445   1.695
 5944SOL     OW18730   0.981   3.140   6.609
 5944SOL    HW118731   0.946   3.204   6.541
 5944SOL    HW218732   1.080   3.134   6.601
 5945SOL     OW18733   0.383   5.778   5.890
 5945SOL    HW118734   0.405   5.694   5.941
 5945SOL    HW218735   0.289   5.773   5.858
 5946SOL     OW18736   3.415   4.233   0.939
 5946SOL    HW118737   3.415   4.157   0.873
 5946SOL    HW218738   3.474   4.210   1.016
 5947SOL     OW18739   3.168   3.091   4.780
 5947SOL    HW118740   3.242   3.070   4.844
 5947SOL    HW218741   3.082   3.099   4.830
 5948SOL     OW18742   5.462   3.849   2.045
 5948SOL    HW118743   5.454   3.770   2.106
 5948SOL    HW218744   5.371   3.885   2.024
 5949SOL     OW18745   6.642   4.057   1.939
 5949SOL    HW118746   6.547   4.034   1.962
 5949SOL    HW218747   6.643   4.116   1.859
 5950SOL     OW18748   4.887   1.114   5.479
 5950SOL    HW118749   4.908   1.186   5.545
 5950SOL    HW218750   4.935   1.133   5.393
 5951SOL     OW18751   1.328   4.047   6.060
 5951SOL    HW118752   1.244   4.098   6.040
 5951SOL    HW218753   1.403   4.084   6.005
 5952SOL     OW18754   4.075   5.027   1.294
 5952SOL    HW118755   4.056   4.950   1.233
 5952SOL    HW218756   4.172   5.027   1.319
 5953SOL     OW18757   6.122   2.568   4.887
 5953SOL    HW118758   6.030   2.607   4.875
 5953SOL    HW218759   6.190   2.637   4.867
 5954SOL     OW18760   1.397   6.320   4.163
 5954SOL    HW118761   1.334   6.271   4.103
 5954SOL    HW218762   1.487   6.275   4.162
 5955SOL     OW18763   6.161   3.785   0.819
 5955SOL    HW118764   6.148   3.723   0.896
 5955SOL    HW218765   6.074   3.800   0.772
 5956SOL     OW18766   5.238   2.778   4.504
 5956SOL    HW118767   5.302   2.729   4.444
 5956SOL    HW218768   5.273   2.870   4.521
 5957SOL     OW18769   0.750   1.479   2.699
 5957SOL    HW118770   0.726   1.448   2.608
 5957SOL    HW218771   0.701   1.425   2.767
 5958SOL     OW18772   3.904   6.601   2.531
 5958SOL    HW118773   3.952   6.546   2.599
 5958SOL    HW218774   3.969   6.657   2.481
 5959SOL     OW18775   5.349   2.527   4.444
 5959SOL    HW118776   5.261   2.480   4.439
 5959SOL    HW218777   5.384   2.540   4.351
 5960SOL     OW18778   4.222   6.995   6.213
 5960SOL    HW118779   4.192   0.057   6.257
 5960SOL    HW218780   4.304   6.961   6.260
 5961SOL     OW18781   2.874   1.769   3.064
 5961SOL    HW118782   2.934   1.829   3.116
 5961SOL    HW218783   2.843   1.816   2.981
 5962SOL     OW18784   5.203   6.248   6.924
 5962SOL    HW118785   5.126   6.210   6.872
 5962SOL    HW218786   5.268   6.175   6.945
 5963SOL     OW18787   3.641   4.027   6.995
 5963SOL    HW118788   3.547   4.004   7.020
 5963SOL    HW218789   3.702   3.953   0.001
 5964SOL     OW18790   2.133   6.464   2.785
 5964SOL    HW118791   2.138   6.546   2.841
 5964SOL    HW218792   2.073   6.397   2.828
 5965SOL     OW18793   1.555   0.425   0.507
 5965SOL    HW118794   1.506   0.496   0.557
 5965SOL    HW218795   1.625   0.467   0.448
 5966SOL     OW18796   2.245   1.173   5.226
 5966SOL    HW118797   2.339   1.205   5.221
 5966SOL    HW218798   2.209   1.161   5.133
 5967SOL     OW18799   2.606   1.844   3.696
 5967SOL    HW118800   2.569   1.826   3.787
 5967SOL    HW218801   2.669   1.921   3.700
 5968SOL     OW18802   5.236   1.844   1.470
 5968SOL    HW118803   5.258   1.760   1.520
 5968SOL    HW218804   5.142   1.872   1.493
 5969SOL     OW18805   5.117   0.965   0.000
 5969SOL    HW118806   5.090   1.018   0.081
 5969SOL    HW218807   5.185   0.897   0.027
 5970SOL     OW18808   0.222   3.575   0.746
 5970SOL    HW118809   0.180   3.502   0.691
 5970SOL    HW218810   0.239   3.655   0.689
 5971SOL     OW18811   0.330   6.866   3.834
 5971SOL    HW118812   0.376   6.837   3.751
 5971SOL    HW218813   0.382   6.837   3.914
 5972SOL     OW18814   4.934   4.885   1.405
 5972SOL    HW118815   4.922   4.978   1.373
 5972SOL    HW218816   4.848   4.835   1.397
 5973SOL     OW18817   1.730   2.232   2.605
 5973SOL    HW118818   1.774   2.145   2.582
 5973SOL    HW218819   1.766   2.266   2.692
 5974SOL     OW18820   4.969   1.860   5.730
 5974SOL    HW118821   4.896   1.815   5.780
 5974SOL    HW218822   4.990   1.808   5.647
 5975SOL     OW18823   5.241   4.854   0.657
 5975SOL    HW118824   5.316   4.789   0.642
 5975SOL    HW218825   5.279   4.945   0.672
 5976SOL     OW18826   2.671   3.481   5.823
 5976SOL    HW118827   2.646   3.512   5.731
 5976SOL    HW218828   2.770   3.492   5.836
 5977SOL     OW18829   0.156   5.025   7.018
 5977SOL    HW118830   0.116   5.065   0.077
 5977SOL    HW218831   0.187   4.932   0.015
 5978SOL     OW18832   3.368   5.420   0.644
 5978SOL    HW118833   3.377   5.444   0.741
 5978SOL    HW218834   3.284   5.367   0.631
 5979SOL     OW18835   6.226   0.507   1.421
 5979SOL    HW118836   6.218   0.558   1.508
 5979SOL    HW218837   6.283   0.427   1.435
 5980SOL     OW18838   3.567   3.163   1.974
 5980SOL    HW118839   3.618   3.110   2.041
 5980SOL    HW218840   3.477   3.121   1.959
 5981SOL     OW18841   2.678   2.790   0.327
 5981SOL    HW118842   2.729   2.873   0.351
 5981SOL    HW218843   2.728   2.710   0.361
 5982SOL     OW18844   6.469   2.245   1.371
 5982SOL    HW118845   6.510   2.170   1.422
 5982SOL    HW218846   6.523   2.328   1.384
 5983SOL     OW18847   0.334   0.821   3.863
 5983SOL    HW118848   0.402   0.866   3.805
 5983SOL    HW218849   0.260   0.786   3.806
 5984SOL     OW18850   6.456   6.768   3.225
 5984SOL    HW118851   6.362   6.738   3.235
 5984SOL    HW218852   6.461   6.867   3.235
 5985SOL     OW18853   5.529   2.305   2.563
 5985SOL    HW118854   5.487   2.361   2.491
 5985SOL    HW218855   5.515   2.208   2.542
 5986SOL     OW18856   4.105   3.615   5.589
 5986SOL    HW118857   4.103   3.673   5.670
 5986SOL    HW218858   4.176   3.545   5.599
 5987SOL     OW18859   6.834   0.001   5.679
 5987SOL    HW118860   6.902   0.069   5.652
 5987SOL    HW218861   6.796   0.025   5.768
 5988SOL     OW18862   2.185   2.512   6.430
 5988SOL    HW118863   2.211   2.523   6.334
 5988SOL    HW218864   2.182   2.414   6.453
 5989SOL     OW18865   0.518   5.749   6.597
 5989SOL    HW118866   0.458   5.672   6.620
 5989SOL    HW218867   0.607   5.715   6.568
 5990SOL     OW18868   4.003   5.115   1.691
 5990SOL    HW118869   4.004   5.092   1.789
 5990SOL    HW218870   3.984   5.032   1.638
 5991SOL     OW18871   5.222   6.608   1.061
 5991SOL    HW118872   5.128   6.572   1.057
 5991SOL    HW218873   5.279   6.557   0.996
 5992SOL     OW18874   3.410   0.298   1.887
 5992SOL    HW118875   3.346   0.229   1.853
 5992SOL    HW218876   3.360   0.375   1.926
 5993SOL     OW18877   6.707   1.878   0.432
 5993SOL    HW118878   6.634   1.912   0.373
 5993SOL    HW218879   6.735   1.787   0.401
 5994SOL     OW18880   0.782   2.870   0.665
 5994SOL    HW118881   0.803   2.854   0.569
 5994SOL    HW218882   0.691   2.912   0.672
 5995SOL     OW18883   4.830   3.809   1.187
 5995SOL    HW118884   4.917   3.834   1.230
 5995SOL    HW218885   4.756   3.860   1.231
 5996SOL     OW18886   2.999   5.255   1.586
 5996SOL    HW118887   3.082   5.298   1.550
 5996SOL    HW218888   2.983   5.285   1.680
 5997SOL     OW18889   0.310   0.169   3.516
 5997SOL    HW118890   0.267   0.101   3.576
 5997SOL    HW218891   0.291   0.261   3.551
 5998SOL     OW18892   6.949   7.008   1.630
 5998SOL    HW118893   6.951   0.085   1.627
 5998SOL    HW218894   0.010   6.971   1.590
 5999SOL     OW18895   4.672   3.185   1.046
 5999SOL    HW118896   4.635   3.271   1.013
 5999SOL    HW218897   4.666   3.116   0.973
 6000SOL     OW18898   6.745   4.380   1.046
 6000SOL    HW118899   6.822   4.387   1.109
 6000SOL    HW218900   6.742   4.462   0.988
 6001SOL     OW18901   5.735   5.307   5.628
 6001SOL    HW118902   5.741   5.223   5.682
 6001SOL    HW218903   5.639   5.327   5.610
 6002SOL     OW18904   5.573   5.697   4.939
 6002SOL    HW118905   5.537   5.634   4.870
 6002SOL    HW218906   5.641   5.756   4.896
 6003SOL     OW18907   0.398   3.139   4.767
 6003SOL    HW118908   0.470   3.092   4.717
 6003SOL    HW218909   0.322   3.076   4.783
 6004SOL     OW18910   4.912   2.547   3.793
 6004SOL    HW118911   4.873   2.588   3.876
 6004SOL    HW218912   4.914   2.448   3.804
 6005SOL     OW18913   3.605   5.707   6.228
 6005SOL    HW118914   3.669   5.710   6.152
 6005SOL    HW218915   3.523   5.657   6.201
 6006SOL     OW18916   3.582   6.125   5.680
 6006SOL    HW118917   3.588   6.096   5.776
 6006SOL    HW218918   3.641   6.066   5.625
 6007SOL     OW18919   1.871   5.619   5.649
 6007SOL    HW118920   1.849   5.526   5.678
 6007SOL    HW218921   1.830   5.684   5.714
 6008SOL     OW18922   3.205   4.914   5.521
 6008SOL    HW118923   3.136   4.866   5.575
 6008SOL    HW218924   3.215   4.869   5.432
 6009SOL     OW18925   3.873   5.066   3.101
 6009SOL    HW118926   3.831   5.132   3.162
 6009SOL    HW218927   3.955   5.105   3.059
 6010SOL     OW18928   0.324   5.553   5.310
 6010SOL    HW118929   0.290   5.462   5.287
 6010SOL    HW218930   0.401   5.577   5.251
 6011SOL     OW18931   6.292   2.002   1.824
 6011SOL    HW118932   6.333   2.091   1.840
 6011SOL    HW218933   6.240   2.004   1.739
 6012SOL     OW18934   0.371   0.230   6.409
 6012SOL    HW118935   0.348   0.150   6.355
 6012SOL    HW218936   0.312   0.307   6.382
 6013SOL     OW18937   5.899   1.379   2.465
 6013SOL    HW118938   5.919   1.460   2.521
 6013SOL    HW218939   5.851   1.311   2.520
 6014SOL     OW18940   3.931   3.037   4.332
 6014SOL    HW118941   4.009   2.986   4.370
 6014SOL    HW218942   3.848   3.012   4.381
 6015SOL     OW18943   6.114   1.385   4.802
 6015SOL    HW118944   6.056   1.304   4.803
 6015SOL    HW218945   6.157   1.394   4.712
 6016SOL     OW18946   5.156   1.617   4.544
 6016SOL    HW118947   5.177   1.685   4.613
 6016SOL    HW218948   5.059   1.593   4.549
 6017SOL     OW18949   6.639   2.646   5.357
 6017SOL    HW118950   6.610   2.718   5.421
 6017SOL    HW218951   6.739   2.648   5.349
 6018SOL     OW18952   3.387   1.127   6.090
 6018SOL    HW118953   3.373   1.124   5.991
 6018SOL    HW218954   3.314   1.180   6.132
 6019SOL     OW18955   6.922   3.627   6.608
 6019SOL    HW118956   6.955   3.588   6.694
 6019SOL    HW218957   6.824   3.612   6.600
 6020SOL     OW18958   0.894   4.101   6.892
 6020SOL    HW118959   0.843   4.168   6.946
 6020SOL    HW218960   0.834   4.025   6.867
 6021SOL     OW18961   4.373   0.098   3.271
 6021SOL    HW118962   4.331   0.160   3.337
 6021SOL    HW218963   4.467   0.077   3.299
 6022SOL     OW18964   6.465   1.808   1.499
 6022SOL    HW118965   6.402   1.782   1.573
 6022SOL    HW218966   6.413   1.821   1.415
 6023SOL     OW18967   4.653   1.097   1.569
 6023SOL    HW118968   4.604   1.061   1.489
 6023SOL    HW218969   4.735   1.042   1.585
 6024SOL     OW18970   0.340   5.616   6.940
 6024SOL    HW118971   0.350   5.572   6.851
 6024SOL    HW218972   0.265   5.682   6.937
 6025SOL     OW18973   2.389   1.118   4.624
 6025SOL    HW118974   2.470   1.170   4.596
 6025SOL    HW218975   2.312   1.182   4.637
 6026SOL     OW18976   6.689   4.142   4.216
 6026SOL    HW118977   6.612   4.158   4.154
 6026SOL    HW218978   6.759   4.212   4.201
 6027SOL     OW18979   5.903   3.785   6.184
 6027SOL    HW118980   5.810   3.750   6.195
 6027SOL    HW218981   5.967   3.725   6.231
 6028SOL     OW18982   5.755   5.170   6.117
 6028SOL    HW118983   5.835   5.132   6.163
 6028SOL    HW218984   5.693   5.095   6.092
 6029SOL     OW18985   2.183   0.439   3.150
 6029SOL    HW118986   2.214   0.345   3.139
 6029SOL    HW218987   2.263   0.499   3.160
 6030SOL     OW18988   5.037   3.960   4.909
 6030SOL    HW118989   5.107   4.019   4.949
 6030SOL    HW218990   4.978   3.924   4.981
 6031SOL     OW18991   0.552   6.087   5.639
 6031SOL    HW118992   0.464   6.127   5.611
 6031SOL    HW218993   0.623   6.157   5.638
 6032SOL     OW18994   3.315   5.927   3.687
 6032SOL    HW118995   3.304   5.841   3.639
 6032SOL    HW218996   3.388   5.918   3.756
 6033SOL     OW18997   2.352   1.286   2.568
 6033SOL    HW118998   2.292   1.351   2.522
 6033SOL    HW218999   2.298   1.229   2.629
 6034SOL     OW19000   1.388   0.803   6.958
 6034SOL    HW119001   1.424   0.812   0.028
 6034SOL    HW219002   1.304   0.747   6.961
 6035SOL     OW19003   1.226   1.003   2.981
 6035SOL    HW119004   1.193   1.005   3.076
 6035SOL    HW219005   1.185   0.926   2.933
 6036SOL     OW19006   6.526   2.451   0.645
 6036SOL    HW119007   6.602   2.387   0.656
 6036SOL    HW219008   6.525   2.515   0.722
 6037SOL     OW19009   4.885   2.654   0.155
 6037SOL    HW119010   4.969   2.707   0.152
 6037SOL    HW219011   4.810   2.709   0.117
 6038SOL     OW19012   0.924   2.352   5.737
 6038SOL    HW119013   0.982   2.279   5.701
 6038SOL    HW219014   0.888   2.407   5.662
 6039SOL     OW19015   3.427   3.627   3.613
 6039SOL    HW119016   3.353   3.559   3.605
 6039SOL    HW219017   3.430   3.661   3.707
 6040SOL     OW19018   0.756   1.719   6.975
 6040SOL    HW119019   0.768   1.642   6.912
 6040SOL    HW219020   0.694   1.785   6.934
 6041SOL     OW19021   2.749   3.131   6.025
 6041SOL    HW119022   2.822   3.199   6.035
 6041SOL    HW219023   2.664   3.167   6.064
 6042SOL     OW19024   3.319   5.386   3.153
 6042SOL    HW119025   3.349   5.465   3.099
 6042SOL    HW219026   3.365   5.304   3.119
 6043SOL     OW19027   1.978   0.907   3.828
 6043SOL    HW119028   1.939   0.874   3.742
 6043SOL    HW219029   1.905   0.941   3.887
 6044SOL     OW19030   1.003   2.254   1.690
 6044SOL    HW119031   0.912   2.276   1.726
 6044SOL    HW219032   0.998   2.171   1.635
 6045SOL     OW19033   5.040   2.259   3.585
 6045SOL    HW119034   5.127   2.211   3.585
 6045SOL    HW219035   4.973   2.207   3.532
 6046SOL     OW19036   3.078   3.074   2.342
 6046SOL    HW119037   3.077   3.048   2.245
 6046SOL    HW219038   3.082   3.174   2.349
 6047SOL     OW19039   6.063   1.442   0.587
 6047SOL    HW119040   6.083   1.365   0.648
 6047SOL    HW219041   6.076   1.412   0.492
 6048SOL     OW19042   5.618   5.626   4.474
 6048SOL    HW119043   5.660   5.683   4.403
 6048SOL    HW219044   5.520   5.620   4.458
 6049SOL     OW19045   4.113   4.687   5.350
 6049SOL    HW119046   4.118   4.662   5.446
 6049SOL    HW219047   4.038   4.751   5.335
 6050SOL     OW19048   3.874   6.067   1.436
 6050SOL    HW119049   3.831   6.032   1.353
 6050SOL    HW219050   3.911   5.991   1.489
 6051SOL     OW19051   1.401   1.240   3.343
 6051SOL    HW119052   1.339   1.178   3.294
 6051SOL    HW219053   1.351   1.323   3.368
 6052SOL     OW19054   5.458   7.013   0.490
 6052SOL    HW119055   5.404   0.022   0.412
 6052SOL    HW219056   5.467   0.064   0.557
 6053SOL     OW19057   4.087   2.519   6.006
 6053SOL    HW119058   4.102   2.591   5.938
 6053SOL    HW219059   4.055   2.559   6.092
 6054SOL     OW19060   4.268   4.573   0.589
 6054SOL    HW119061   4.346   4.634   0.597
 6054SOL    HW219062   4.291   4.484   0.627
 6055SOL     OW19063   3.512   4.632   0.306
 6055SOL    HW119064   3.416   4.644   0.282
 6055SOL    HW219065   3.520   4.610   0.403
 6056SOL     OW19066   5.975   4.851   4.948
 6056SOL    HW119067   6.015   4.887   4.863
 6056SOL    HW219068   5.875   4.857   4.943
 6057SOL     OW19069   4.930   0.333   3.230
 6057SOL    HW119070   4.997   0.393   3.186
 6057SOL    HW219071   4.964   0.303   3.319
 6058SOL     OW19072   5.529   2.045   6.177
 6058SOL    HW119073   5.576   1.960   6.202
 6058SOL    HW219074   5.431   2.029   6.173
 6059SOL     OW19075   4.648   4.686   0.235
 6059SOL    HW119076   4.602   4.698   0.323
 6059SOL    HW219077   4.585   4.706   0.161
 6060SOL     OW19078   2.556   3.188   0.154
 6060SOL    HW119079   2.564   3.229   0.245
 6060SOL    HW219080   2.558   3.088   0.162
 6061SOL     OW19081   3.439   4.990   0.108
 6061SOL    HW119082   3.349   4.991   0.152
 6061SOL    HW219083   3.507   5.029   0.170
 6062SOL     OW19084   2.382   2.958   0.764
 6062SOL    HW119085   2.313   2.894   0.729
 6062SOL    HW219086   2.360   2.981   0.859
 6063SOL     OW19087   3.595   5.156   5.902
 6063SOL    HW119088   3.691   5.138   5.920
 6063SOL    HW219089   3.556   5.079   5.850
 6064SOL     OW19090   0.030   6.036   0.937
 6064SOL    HW119091   0.074   6.097   1.004
 6064SOL    HW219092   0.096   6.012   0.866
 6065SOL     OW19093   1.291   5.822   2.206
 6065SOL    HW119094   1.293   5.774   2.118
 6065SOL    HW219095   1.199   5.816   2.245
 6066SOL     OW19096   4.499   6.511   3.607
 6066SOL    HW119097   4.451   6.523   3.695
 6066SOL    HW219098   4.499   6.597   3.557
 6067SOL     OW19099   5.678   0.515   5.972
 6067SOL    HW119100   5.579   0.498   5.972
 6067SOL    HW219101   5.717   0.489   6.060
 6068SOL     OW19102   4.474   1.656   5.632
 6068SOL    HW119103   4.454   1.649   5.729
 6068SOL    HW219104   4.403   1.708   5.586
 6069SOL     OW19105   6.674   3.421   6.202
 6069SOL    HW119106   6.748   3.402   6.137
 6069SOL    HW219107   6.661   3.342   6.262
 6070SOL     OW19108   2.798   1.653   1.144
 6070SOL    HW119109   2.844   1.741   1.140
 6070SOL    HW219110   2.715   1.660   1.200
 6071SOL     OW19111   5.995   7.001   5.581
 6071SOL    HW119112   5.944   0.061   5.607
 6071SOL    HW219113   6.070   0.005   5.520
 6072SOL     OW19114   0.175   3.023   0.331
 6072SOL    HW119115   0.080   3.055   0.332
 6072SOL    HW219116   0.200   2.990   0.422
 6073SOL     OW19117   5.032   3.040   0.771
 6073SOL    HW119118   5.090   3.039   0.689
 6073SOL    HW219119   5.049   3.123   0.823
 6074SOL     OW19120   1.104   6.207   2.408
 6074SOL    HW119121   1.150   6.145   2.472
 6074SOL    HW219122   1.026   6.249   2.454
 6075SOL     OW19123   5.065   6.604   6.459
 6075SOL    HW119124   5.080   6.650   6.547
 6075SOL    HW219125   5.021   6.667   6.395
 6076SOL     OW19126   1.642   4.771   4.223
 6076SOL    HW119127   1.573   4.780   4.151
 6076SOL    HW219128   1.732   4.755   4.181
 6077SOL     OW19129   6.015   6.638   1.799
 6077SOL    HW119130   6.012   6.715   1.863
 6077SOL    HW219131   5.923   6.598   1.790
 6078SOL     OW19132   4.291   3.581   0.194
 6078SOL    HW119133   4.246   3.493   0.176
 6078SOL    HW219134   4.325   3.620   0.108
 6079SOL     OW19135   3.841   4.427   6.159
 6079SOL    HW119136   3.774   4.355   6.139
 6079SOL    HW219137   3.890   4.404   6.243
 6080SOL     OW19138   0.718   4.599   6.701
 6080SOL    HW119139   0.718   4.500   6.712
 6080SOL    HW219140   0.666   4.641   6.776
 6081SOL     OW19141   1.536   3.054   4.492
 6081SOL    HW119142   1.570   3.112   4.418
 6081SOL    HW219143   1.574   2.962   4.483
 6082SOL     OW19144   4.048   1.468   0.668
 6082SOL    HW119145   3.964   1.424   0.637
 6082SOL    HW219146   4.060   1.555   0.621
 6083SOL     OW19147   4.909   6.868   6.380
 6083SOL    HW119148   4.983   6.840   6.318
 6083SOL    HW219149   4.831   6.900   6.327
 6084SOL     OW19150   0.429   0.037   2.778
 6084SOL    HW119151   0.444   6.965   2.750
 6084SOL    HW219152   0.342   0.044   2.828
 6085SOL     OW19153   0.587   6.306   0.568
 6085SOL    HW119154   0.546   6.397   0.567
 6085SOL    HW219155   0.633   6.288   0.481
 6086SOL     OW19156   3.289   3.788   6.419
 6086SOL    HW119157   3.322   3.815   6.509
 6086SOL    HW219158   3.340   3.709   6.386
 6087SOL     OW19159   5.148   6.591   0.771
 6087SOL    HW119160   5.079   6.603   0.699
 6087SOL    HW219161   5.155   6.675   0.825
 6088SOL     OW19162   5.089   6.855   3.776
 6088SOL    HW119163   5.172   6.804   3.799
 6088SOL    HW219164   5.102   6.951   3.798
 6089SOL     OW19165   5.994   3.189   3.299
 6089SOL    HW119166   5.998   3.241   3.384
 6089SOL    HW219167   6.085   3.152   3.278
 6090SOL     OW19168   4.033   6.592   4.452
 6090SOL    HW119169   4.046   6.638   4.540
 6090SOL    HW219170   4.104   6.622   4.388
 6091SOL     OW19171   2.555   1.068   1.271
 6091SOL    HW119172   2.508   0.980   1.263
 6091SOL    HW219173   2.508   1.137   1.217
 6092SOL     OW19174   4.433   6.304   1.426
 6092SOL    HW119175   4.448   6.336   1.519
 6092SOL    HW219176   4.505   6.340   1.366
 6093SOL     OW19177   2.557   1.675   2.445
 6093SOL    HW119178   2.585   1.767   2.471
 6093SOL    HW219179   2.538   1.672   2.347
 6094SOL     OW19180   0.395   6.416   4.974
 6094SOL    HW119181   0.410   6.443   4.879
 6094SOL    HW219182   0.339   6.485   5.020
 6095SOL     OW19183   4.273   5.904   0.302
 6095SOL    HW119184   4.206   5.924   0.231
 6095SOL    HW219185   4.274   5.979   0.369
 6096SOL     OW19186   6.027   6.586   2.356
 6096SOL    HW119187   6.017   6.524   2.433
 6096SOL    HW219188   6.121   6.583   2.322
 6097SOL     OW19189   2.037   6.156   2.514
 6097SOL    HW119190   2.097   6.087   2.474
 6097SOL    HW219191   2.067   6.247   2.483
 6098SOL     OW19192   6.361   1.210   4.906
 6098SOL    HW119193   6.383   1.126   4.856
 6098SOL    HW219194   6.436   1.233   4.968
 6099SOL     OW19195   4.426   6.923   6.357
 6099SOL    HW119196   4.511   6.888   6.317
 6099SOL    HW219197   4.448   6.987   6.430
 6100SOL     OW19198   6.909   5.894   4.229
 6100SOL    HW119199   6.988   5.950   4.202
 6100SOL    HW219200   6.915   5.805   4.185
 6101SOL     OW19201   6.292   2.272   1.602
 6101SOL    HW119202   6.212   2.230   1.559
 6101SOL    HW219203   6.370   2.269   1.539
 6102SOL     OW19204   4.488   0.138   2.380
 6102SOL    HW119205   4.569   0.124   2.323
 6102SOL    HW219206   4.512   0.124   2.476
 6103SOL     OW19207   0.008   1.126   1.247
 6103SOL    HW119208   0.035   1.220   1.269
 6103SOL    HW219209   0.082   1.063   1.270
 6104SOL     OW19210   6.335   1.258   4.365
 6104SOL    HW119211   6.279   1.191   4.412
 6104SOL    HW219212   6.331   1.345   4.415
 6105SOL     OW19213   2.860   5.745   5.586
 6105SOL    HW119214   2.871   5.734   5.487
 6105SOL    HW219215   2.827   5.659   5.626
 6106SOL     OW19216   6.712   4.533   0.149
 6106SOL    HW119217   6.725   4.598   0.074
 6106SOL    HW219218   6.769   4.560   0.227
 6107SOL     OW19219   4.795   4.527   5.165
 6107SOL    HW119220   4.778   4.576   5.250
 6107SOL    HW219221   4.814   4.593   5.091
 6108SOL     OW19222   1.748   1.403   1.482
 6108SOL    HW119223   1.799   1.469   1.536
 6108SOL    HW219224   1.705   1.449   1.405
 6109SOL     OW19225   6.222   6.589   2.986
 6109SOL    HW119226   6.252   6.499   3.018
 6109SOL    HW219227   6.303   6.644   2.962
 6110SOL     OW19228   1.874   1.772   5.527
 6110SOL    HW119229   1.918   1.773   5.616
 6110SOL    HW219230   1.943   1.756   5.456
 6111SOL     OW19231   1.973   3.995   1.520
 6111SOL    HW119232   1.961   4.088   1.555
 6111SOL    HW219233   1.978   3.998   1.420
 6112SOL     OW19234   4.721   0.365   2.548
 6112SOL    HW119235   4.662   0.416   2.486
 6112SOL    HW219236   4.666   0.306   2.607
 6113SOL     OW19237   2.118   5.594   6.743
 6113SOL    HW119238   2.202   5.561   6.788
 6113SOL    HW219239   2.100   5.539   6.662
 6114SOL     OW19240   5.230   1.519   0.466
 6114SOL    HW119241   5.225   1.535   0.565
 6114SOL    HW219242   5.280   1.595   0.423
 6115SOL     OW19243   0.801   0.850   5.083
 6115SOL    HW119244   0.796   0.939   5.037
 6115SOL    HW219245   0.769   0.779   5.021
 6116SOL     OW19246   4.636   2.012   4.774
 6116SOL    HW119247   4.691   2.048   4.849
 6116SOL    HW219248   4.630   1.913   4.781
 6117SOL     OW19249   1.542   1.648   2.388
 6117SOL    HW119250   1.551   1.557   2.428
 6117SOL    HW219251   1.445   1.671   2.381
 6118SOL     OW19252   6.164   0.724   6.926
 6118SOL    HW119253   6.129   0.704   6.834
 6118SOL    HW219254   6.092   0.766   6.981
 6119SOL     OW19255   6.667   1.768   1.043
 6119SOL    HW119256   6.613   1.851   1.058
 6119SOL    HW219257   6.731   1.783   0.968
 6120SOL     OW19258   1.884   0.933   5.677
 6120SOL    HW119259   1.868   0.990   5.596
 6120SOL    HW219260   1.804   0.936   5.736
 6121SOL     OW19261   0.495   3.179   5.312
 6121SOL    HW119262   0.463   3.243   5.242
 6121SOL    HW219263   0.558   3.113   5.271
 6122SOL     OW19264   5.127   5.527   5.565
 6122SOL    HW119265   5.126   5.488   5.658
 6122SOL    HW219266   5.058   5.599   5.558
 6123SOL     OW19267   5.776   1.415   5.671
 6123SOL    HW119268   5.780   1.334   5.730
 6123SOL    HW219269   5.860   1.468   5.683
 6124SOL     OW19270   2.252   6.938   4.225
 6124SOL    HW119271   2.155   6.920   4.243
 6124SOL    HW219272   2.301   6.851   4.220
 6125SOL     OW19273   1.702   2.704   6.656
 6125SOL    HW119274   1.659   2.740   6.574
 6125SOL    HW219275   1.798   2.681   6.636
 6126SOL     OW19276   6.517   3.158   5.254
 6126SOL    HW119277   6.451   3.229   5.232
 6126SOL    HW219278   6.604   3.177   5.208
 6127SOL     OW19279   3.648   2.028   1.619
 6127SOL    HW119280   3.699   2.114   1.612
 6127SOL    HW219281   3.712   1.951   1.622
 6128SOL     OW19282   5.743   6.142   0.548
 6128SOL    HW119283   5.709   6.232   0.519
 6128SOL    HW219284   5.777   6.149   0.642
 6129SOL     OW19285   1.961   4.899   3.314
 6129SOL    HW119286   2.005   4.847   3.241
 6129SOL    HW219287   1.999   4.992   3.316
 6130SOL     OW19288   4.868   2.974   1.142
 6130SOL    HW119289   4.824   3.052   1.096
 6130SOL    HW219290   4.886   2.902   1.075
 6131SOL     OW19291   0.069   1.976   2.246
 6131SOL    HW119292   0.074   1.923   2.330
 6131SOL    HW219293   0.072   2.074   2.269
 6132SOL     OW19294   3.131   2.013   6.609
 6132SOL    HW119295   3.072   2.031   6.688
 6132SOL    HW219296   3.213   1.965   6.638
 6133SOL     OW19297   1.841   2.323   3.723
 6133SOL    HW119298   1.833   2.247   3.786
 6133SOL    HW219299   1.843   2.409   3.774
 6134SOL     OW19300   4.925   6.460   5.989
 6134SOL    HW119301   4.928   6.361   5.976
 6134SOL    HW219302   5.018   6.496   5.995
 6135SOL     OW19303   6.172   0.406   6.937
 6135SOL    HW119304   6.225   0.347   6.877
 6135SOL    HW219305   6.225   0.489   6.957
 6136SOL     OW19306   1.152   2.701   2.180
 6136SOL    HW119307   1.200   2.642   2.244
 6136SOL    HW219308   1.144   2.655   2.092
 6137SOL     OW19309   6.672   4.071   2.483
 6137SOL    HW119310   6.717   4.023   2.406
 6137SOL    HW219311   6.626   4.153   2.449
 6138SOL     OW19312   3.220   7.021   2.134
 6138SOL    HW119313   3.172   6.949   2.086
 6138SOL    HW219314   3.165   0.082   2.133
 6139SOL     OW19315   1.779   6.751   5.636
 6139SOL    HW119316   1.785   6.661   5.592
 6139SOL    HW219317   1.808   6.744   5.731
 6140SOL     OW19318   1.835   0.518   3.606
 6140SOL    HW119319   1.768   0.561   3.545
 6140SOL    HW219320   1.926   0.525   3.564
 6141SOL     OW19321   0.252   0.125   5.899
 6141SOL    HW119322   0.189   0.087   5.968
 6141SOL    HW219323   0.283   0.215   5.929
 6142SOL     OW19324   0.311   0.613   0.552
 6142SOL    HW119325   0.243   0.613   0.479
 6142SOL    HW219326   0.390   0.667   0.524
 6143SOL     OW19327   6.038   3.625   6.357
 6143SOL    HW119328   5.991   3.562   6.420
 6143SOL    HW219329   6.120   3.661   6.401
 6144SOL     OW19330   4.907   4.387   2.785
 6144SOL    HW119331   4.928   4.439   2.702
 6144SOL    HW219332   4.812   4.405   2.812
 6145SOL     OW19333   4.877   3.537   4.564
 6145SOL    HW119334   4.914   3.558   4.654
 6145SOL    HW219335   4.789   3.584   4.552
 6146SOL     OW19336   4.694   0.594   4.805
 6146SOL    HW119337   4.699   0.550   4.895
 6146SOL    HW219338   4.602   0.630   4.791
 6147SOL     OW19339   2.592   2.349   4.040
 6147SOL    HW119340   2.529   2.274   4.063
 6147SOL    HW219341   2.545   2.437   4.053
 6148SOL     OW19342   3.788   5.651   6.720
 6148SOL    HW119343   3.741   5.565   6.735
 6148SOL    HW219344   3.722   5.726   6.719
 6149SOL     OW19345   2.763   0.125   1.815
 6149SOL    HW119346   2.726   0.079   1.896
 6149SOL    HW219347   2.709   0.207   1.795
 6150SOL     OW19348   6.396   4.263   6.241
 6150SOL    HW119349   6.337   4.301   6.312
 6150SOL    HW219350   6.340   4.230   6.165
 6151SOL     OW19351   4.568   4.464   4.475
 6151SOL    HW119352   4.605   4.371   4.478
 6151SOL    HW219353   4.637   4.528   4.509
 6152SOL     OW19354   0.621   4.543   4.082
 6152SOL    HW119355   0.610   4.485   4.163
 6152SOL    HW219356   0.708   4.592   4.088
 6153SOL     OW19357   4.895   5.162   1.210
 6153SOL    HW119358   4.881   5.254   1.174
 6153SOL    HW219359   4.936   5.167   1.301
 6154SOL     OW19360   5.975   3.133   2.151
 6154SOL    HW119361   5.880   3.150   2.126
 6154SOL    HW219362   5.996   3.036   2.139
 6155SOL     OW19363   2.539   0.689   2.726
 6155SOL    HW119364   2.560   0.656   2.818
 6155SOL    HW219365   2.491   0.777   2.732
 6156SOL     OW19366   4.865   4.330   1.408
 6156SOL    HW119367   4.905   4.406   1.460
 6156SOL    HW219368   4.866   4.352   1.311
 6157SOL     OW19369   1.169   2.390   2.587
 6157SOL    HW119370   1.141   2.437   2.503
 6157SOL    HW219371   1.136   2.296   2.585
 6158SOL     OW19372   2.832   2.743   5.360
 6158SOL    HW119373   2.837   2.644   5.350
 6158SOL    HW219374   2.921   2.783   5.342
 6159SOL     OW19375   6.060   1.718   0.355
 6159SOL    HW119376   6.136   1.727   0.419
 6159SOL    HW219377   5.984   1.776   0.385
 6160SOL     OW19378   0.795   6.830   7.011
 6160SOL    HW119379   0.744   6.745   0.004
 6160SOL    HW219380   0.888   6.808   6.983
 6161SOL     OW19381   4.819   2.446   6.646
 6161SOL    HW119382   4.801   2.535   6.688
 6161SOL    HW219383   4.887   2.397   6.699
 6162SOL     OW19384   6.478   5.790   2.760
 6162SOL    HW119385   6.396   5.818   2.812
 6162SOL    HW219386   6.528   5.871   2.731
 6163SOL     OW19387   5.754   6.681   3.010
 6163SOL    HW119388   5.809   6.763   2.994
 6163SOL    HW219389   5.795   6.604   2.961
 6164SOL     OW19390   4.063   3.217   4.155
 6164SOL    HW119391   4.003   3.145   4.190
 6164SOL    HW219392   4.114   3.257   4.231
 6165SOL     OW19393   3.906   2.070   0.417
 6165SOL    HW119394   3.958   2.087   0.333
 6165SOL    HW219395   3.919   2.147   0.479
 6166SOL     OW19396   0.613   2.331   0.101
 6166SOL    HW119397   0.622   2.405   0.167
 6166SOL    HW219398   0.671   2.349   0.022
 6167SOL     OW19399   1.515   3.520   3.552
 6167SOL    HW119400   1.518   3.454   3.627
 6167SOL    HW219401   1.423   3.520   3.512
 6168SOL     OW19402   0.434   2.843   4.463
 6168SOL    HW119403   0.381   2.772   4.510
 6168SOL    HW219404   0.371   2.909   4.421
 6169SOL     OW19405   1.591   0.041   0.317
 6169SOL    HW119406   1.668   0.031   0.254
 6169SOL    HW219407   1.620   0.015   0.409
 6170SOL     OW19408   3.682   4.296   6.974
 6170SOL    HW119409   3.672   4.197   6.983
 6170SOL    HW219410   3.750   4.317   6.904
 6171SOL     OW19411   1.225   4.957   2.766
 6171SOL    HW119412   1.286   5.012   2.823
 6171SOL    HW219413   1.263   4.865   2.755
 6172SOL     OW19414   1.222   6.949   2.719
 6172SOL    HW119415   1.192   6.976   2.811
 6172SOL    HW219416   1.275   6.865   2.725
 6173SOL     OW19417   0.910   4.510   3.178
 6173SOL    HW119418   0.970   4.577   3.133
 6173SOL    HW219419   0.816   4.524   3.147
 6174SOL     OW19420   5.772   5.208   2.617
 6174SOL    HW119421   5.718   5.200   2.533
 6174SOL    HW219422   5.827   5.292   2.614
 6175SOL     OW19423   5.081   7.000   2.855
 6175SOL    HW119424   5.067   0.064   2.903
 6175SOL    HW219425   5.080   6.925   2.921
 6176SOL     OW19426   5.857   2.703   6.224
 6176SOL    HW119427   5.774   2.753   6.249
 6176SOL    HW219428   5.904   2.673   6.307
 6177SOL     OW19429   5.534   2.225   1.617
 6177SOL    HW119430   5.610   2.219   1.553
 6177SOL    HW219431   5.471   2.298   1.588
 6178SOL     OW19432   5.120   3.634   0.560
 6178SOL    HW119433   5.090   3.662   0.652
 6178SOL    HW219434   5.190   3.698   0.527
 6179SOL     OW19435   0.602   2.791   5.377
 6179SOL    HW119436   0.648   2.854   5.440
 6179SOL    HW219437   0.530   2.839   5.327
 6180SOL     OW19438   3.439   6.875   0.958
 6180SOL    HW119439   3.532   6.868   0.995
 6180SOL    HW219440   3.434   6.822   0.873
 6181SOL     OW19441   5.149   6.187   6.595
 6181SOL    HW119442   5.245   6.203   6.615
 6181SOL    HW219443   5.135   6.092   6.567
 6182SOL     OW19444   5.152   5.437   5.872
 6182SOL    HW119445   5.250   5.454   5.868
 6182SOL    HW219446   5.109   5.507   5.929
 6183SOL     OW19447   2.788   6.901   2.777
 6183SOL    HW119448   2.773   6.804   2.759
 6183SOL    HW219449   2.834   6.912   2.865
 6184SOL     OW19450   1.053   0.369   6.608
 6184SOL    HW119451   1.006   0.343   6.523
 6184SOL    HW219452   1.152   0.373   6.591
 6185SOL     OW19453   6.610   3.666   6.321
 6185SOL    HW119454   6.645   3.737   6.260
 6185SOL    HW219455   6.627   3.576   6.280
 6186SOL     OW19456   5.359   0.223   3.747
 6186SOL    HW119457   5.423   0.195   3.819
 6186SOL    HW219458   5.323   0.314   3.767
 6187SOL     OW19459   4.447   4.577   4.242
 6187SOL    HW119460   4.441   4.529   4.329
 6187SOL    HW219461   4.543   4.593   4.219
 6188SOL     OW19462   3.203   6.524   1.592
 6188SOL    HW119463   3.265   6.533   1.515
 6188SOL    HW219464   3.111   6.554   1.565
 6189SOL     OW19465   5.246   5.509   3.251
 6189SOL    HW119466   5.170   5.451   3.283
 6189SOL    HW219467   5.209   5.588   3.203
 6190SOL     OW19468   5.034   2.618   6.435
 6190SOL    HW119469   4.948   2.588   6.396
 6190SOL    HW219470   5.054   2.711   6.404
 6191SOL     OW19471   5.457   1.745   6.991
 6191SOL    HW119472   5.430   1.794   0.051
 6191SOL    HW219473   5.445   1.646   7.006
 6192SOL     OW19474   2.696   3.324   0.674
 6192SOL    HW119475   2.618   3.363   0.722
 6192SOL    HW219476   2.779   3.335   0.729
 6193SOL     OW19477   5.735   0.357   1.897
 6193SOL    HW119478   5.761   0.444   1.938
 6193SOL    HW219479   5.635   0.351   1.890
 6194SOL     OW19480   2.303   0.816   0.721
 6194SOL    HW119481   2.311   0.851   0.628
 6194SOL    HW219482   2.293   0.892   0.786
 6195SOL     OW19483   3.643   6.567   6.008
 6195SOL    HW119484   3.613   6.474   5.987
 6195SOL    HW219485   3.725   6.564   6.064
 6196SOL     OW19486   1.539   2.203   6.027
 6196SOL    HW119487   1.626   2.158   6.049
 6196SOL    HW219488   1.522   2.195   5.929
 6197SOL     OW19489   2.924   3.721   1.039
 6197SOL    HW119490   3.007   3.751   1.084
 6197SOL    HW219491   2.869   3.801   1.012
 6198SOL     OW19492   3.766   4.857   2.426
 6198SOL    HW119493   3.672   4.834   2.448
 6198SOL    HW219494   3.768   4.941   2.372
 6199SOL     OW19495   1.531   0.247   0.934
 6199SOL    HW119496   1.519   0.155   0.969
 6199SOL    HW219497   1.579   0.303   1.002
 6200SOL     OW19498   3.206   1.219   6.544
 6200SOL    HW119499   3.172   1.244   6.453
 6200SOL    HW219500   3.131   1.179   6.597
 6201SOL     OW19501   2.074   3.328   5.414
 6201SOL    HW119502   1.984   3.369   5.426
 6201SOL    HW219503   2.107   3.344   5.321
 6202SOL     OW19504   2.966   1.887   1.094
 6202SOL    HW119505   2.974   1.935   1.182
 6202SOL    HW219506   3.055   1.850   1.068
 6203SOL     OW19507   4.893   1.322   4.712
 6203SOL    HW119508   4.905   1.376   4.629
 6203SOL    HW219509   4.980   1.314   4.760
 6204SOL     OW19510   1.565   5.876   5.057
 6204SOL    HW119511   1.664   5.866   5.046
 6204SOL    HW219512   1.518   5.824   4.985
 6205SOL     OW19513   4.949   5.508   6.819
 6205SOL    HW119514   4.963   5.421   6.866
 6205SOL    HW219515   4.911   5.491   6.729
 6206SOL     OW19516   6.473   0.698   2.112
 6206SOL    HW119517   6.523   0.735   2.191
 6206SOL    HW219518   6.415   0.769   2.073
 6207SOL     OW19519   1.086   3.928   4.917
 6207SOL    HW119520   1.156   3.935   4.988
 6207SOL    HW219521   1.088   4.009   4.859
 6208SOL     OW19522   6.471   0.096   6.133
 6208SOL    HW119523   6.435   0.011   6.171
 6208SOL    HW219524   6.571   0.096   6.141
 6209SOL     OW19525   4.630   6.536   0.054
 6209SOL    HW119526   4.587   6.623   0.030
 6209SOL    HW219527   4.695   6.551   0.129
 6210SOL     OW19528   5.621   4.208   3.022
 6210SOL    HW119529   5.709   4.231   2.982
 6210SOL    HW219530   5.575   4.292   3.050
 6211SOL     OW19531   2.592   0.792   5.447
 6211SOL    HW119532   2.598   0.693   5.457
 6211SOL    HW219533   2.570   0.815   5.353
 6212SOL     OW19534   6.542   6.272   3.864
 6212SOL    HW119535   6.629   6.305   3.827
 6212SOL    HW219536   6.476   6.263   3.789
 6213SOL     OW19537   5.921   0.500   6.859
 6213SOL    HW119538   6.007   0.467   6.899
 6213SOL    HW219539   5.846   0.483   6.923
 6214SOL     OW19540   6.179   4.874   2.503
 6214SOL    HW119541   6.192   4.782   2.539
 6214SOL    HW219542   6.164   4.869   2.404
 6215SOL     OW19543   3.016   2.783   1.016
 6215SOL    HW119544   3.037   2.778   0.918
 6215SOL    HW219545   3.094   2.822   1.065
 6216SOL     OW19546   5.792   1.503   2.211
 6216SOL    HW119547   5.825   1.479   2.302
 6216SOL    HW219548   5.702   1.547   2.219
 6217SOL     OW19549   4.706   2.609   1.164
 6217SOL    HW119550   4.802   2.622   1.140
 6217SOL    HW219551   4.697   2.606   1.264
 6218SOL     OW19552   2.081   4.971   4.754
 6218SOL    HW119553   2.132   4.971   4.840
 6218SOL    HW219554   2.123   4.907   4.690
 6219SOL     OW19555   1.320   2.157   4.837
 6219SOL    HW119556   1.417   2.168   4.818
 6219SOL    HW219557   1.271   2.141   4.752
 6220SOL     OW19558   1.810   4.693   5.501
 6220SOL    HW119559   1.895   4.669   5.453
 6220SOL    HW219560   1.833   4.744   5.584
 6221SOL     OW19561   4.203   5.244   4.547
 6221SOL    HW119562   4.217   5.154   4.586
 6221SOL    HW219563   4.196   5.312   4.621
 6222SOL     OW19564   6.857   6.925   1.894
 6222SOL    HW119565   6.895   6.946   1.804
 6222SOL    HW219566   6.894   6.988   1.961
 6223SOL     OW19567   5.483   4.299   4.555
 6223SOL    HW119568   5.556   4.245   4.595
 6223SOL    HW219569   5.447   4.362   4.624
 6224SOL     OW19570   2.157   1.433   5.484
 6224SOL    HW119571   2.076   1.468   5.532
 6224SOL    HW219572   2.191   1.352   5.531
 6225SOL     OW19573   3.601   3.335   0.735
 6225SOL    HW119574   3.570   3.420   0.691
 6225SOL    HW219575   3.624   3.354   0.830
 6226SOL     OW19576   5.331   0.929   4.410
 6226SOL    HW119577   5.382   0.945   4.494
 6226SOL    HW219578   5.388   0.951   4.331
 6227SOL     OW19579   3.441   4.331   5.654
 6227SOL    HW119580   3.407   4.240   5.676
 6227SOL    HW219581   3.452   4.383   5.739
 6228SOL     OW19582   6.734   1.174   3.048
 6228SOL    HW119583   6.640   1.153   3.019
 6228SOL    HW219584   6.743   1.272   3.062
 6229SOL     OW19585   2.637   2.067   2.981
 6229SOL    HW119586   2.599   2.119   3.057
 6229SOL    HW219587   2.737   2.063   2.990
 6230SOL     OW19588   2.335   1.626   4.007
 6230SOL    HW119589   2.306   1.569   3.930
 6230SOL    HW219590   2.255   1.660   4.055
 6231SOL     OW19591   0.428   5.227   1.473
 6231SOL    HW119592   0.405   5.277   1.390
 6231SOL    HW219593   0.452   5.292   1.546
 6232SOL     OW19594   7.021   0.846   0.158
 6232SOL    HW119595   6.985   0.883   0.073
 6232SOL    HW219596   0.090   0.807   0.142
 6233SOL     OW19597   5.019   1.786   6.401
 6233SOL    HW119598   4.954   1.779   6.325
 6233SOL    HW219599   4.995   1.720   6.472
 6234SOL     OW19600   1.916   2.002   4.507
 6234SOL    HW119601   1.975   1.995   4.587
 6234SOL    HW219602   1.826   2.037   4.534
 6235SOL     OW19603   2.148   6.981   2.903
 6235SOL    HW119604   2.089   6.902   2.884
 6235SOL    HW219605   2.162   6.988   3.002
 6236SOL     OW19606   0.628   5.253   1.069
 6236SOL    HW119607   0.531   5.266   1.054
 6236SOL    HW219608   0.645   5.161   1.103
 6237SOL     OW19609   4.660   6.696   0.566
 6237SOL    HW119610   4.701   6.605   0.579
 6237SOL    HW219611   4.563   6.692   0.588
 6238SOL     OW19612   4.995   5.465   1.918
 6238SOL    HW119613   5.072   5.491   1.977
 6238SOL    HW219614   4.969   5.371   1.937
 6239SOL     OW19615   3.005   6.578   2.737
 6239SOL    HW119616   2.909   6.583   2.707
 6239SOL    HW219617   3.064   6.573   2.656
 6240SOL     OW19618   2.127   3.131   0.365
 6240SOL    HW119619   2.172   3.134   0.275
 6240SOL    HW219620   2.079   3.217   0.381
 6241SOL     OW19621   2.709   0.660   1.546
 6241SOL    HW119622   2.728   0.661   1.448
 6241SOL    HW219623   2.734   0.570   1.583
 6242SOL     OW19624   5.189   1.417   3.779
 6242SOL    HW119625   5.253   1.362   3.833
 6242SOL    HW219626   5.237   1.496   3.741
 6243SOL     OW19627   5.711   6.976   4.029
 6243SOL    HW119628   5.723   0.043   4.072
 6243SOL    HW219629   5.721   6.904   4.098
 6244SOL     OW19630   2.767   2.348   2.731
 6244SOL    HW119631   2.688   2.395   2.693
 6244SOL    HW219632   2.818   2.304   2.657
 6245SOL     OW19633   3.145   4.900   1.379
 6245SOL    HW119634   3.075   4.830   1.394
 6245SOL    HW219635   3.111   4.967   1.313
 6246SOL     OW19636   2.601   1.847   6.265
 6246SOL    HW119637   2.667   1.773   6.280
 6246SOL    HW219638   2.628   1.899   6.184
 6247SOL     OW19639   0.693   6.690   3.770
 6247SOL    HW119640   0.768   6.639   3.727
 6247SOL    HW219641   0.608   6.675   3.719
 6248SOL     OW19642   1.005   4.765   1.219
 6248SOL    HW119643   0.987   4.684   1.275
 6248SOL    HW219644   1.080   4.817   1.258
 6249SOL     OW19645   0.082   4.162   0.062
 6249SOL    HW119646   0.006   4.103   0.087
 6249SOL    HW219647   0.052   4.258   0.062
 6250SOL     OW19648   6.488   6.344   0.132
 6250SOL    HW119649   6.540   6.332   0.217
 6250SOL    HW219650   6.541   6.397   0.067
 6251SOL     OW19651   4.463   1.303   0.922
 6251SOL    HW119652   4.461   1.379   0.986
 6251SOL    HW219653   4.511   1.225   0.963
 6252SOL     OW19654   2.959   5.100   4.805
 6252SOL    HW119655   3.049   5.135   4.830
 6252SOL    HW219656   2.958   5.000   4.813
 6253SOL     OW19657   2.424   4.306   1.775
 6253SOL    HW119658   2.378   4.323   1.862
 6253SOL    HW219659   2.522   4.324   1.784
 6254SOL     OW19660   5.669   0.107   0.325
 6254SOL    HW119661   5.718   0.116   0.411
 6254SOL    HW219662   5.595   0.040   0.334
 6255SOL     OW19663   0.576   1.193   1.695
 6255SOL    HW119664   0.671   1.175   1.720
 6255SOL    HW219665   0.574   1.248   1.611
 6256SOL     OW19666   3.967   5.115   2.538
 6256SOL    HW119667   3.932   5.101   2.446
 6256SOL    HW219668   3.892   5.132   2.601
 6257SOL     OW19669   5.766   2.509   1.018
 6257SOL    HW119670   5.813   2.422   1.002
 6257SOL    HW219671   5.833   2.584   1.013
 6258SOL     OW19672   4.270   1.172   2.075
 6258SOL    HW119673   4.307   1.162   2.167
 6258SOL    HW219674   4.182   1.125   2.069
 6259SOL     OW19675   3.011   2.253   1.206
 6259SOL    HW119676   3.051   2.203   1.129
 6259SOL    HW219677   3.024   2.351   1.191
 6260SOL     OW19678   3.805   3.999   0.432
 6260SOL    HW119679   3.864   3.927   0.395
 6260SOL    HW219680   3.709   3.977   0.411
 6261SOL     OW19681   3.851   0.698   0.637
 6261SOL    HW119682   3.783   0.674   0.707
 6261SOL    HW219683   3.933   0.734   0.681
 6262SOL     OW19684   1.345   4.413   0.312
 6262SOL    HW119685   1.267   4.405   0.250
 6262SOL    HW219686   1.426   4.442   0.260
 6263SOL     OW19687   0.141   6.928   0.411
 6263SOL    HW119688   0.066   6.907   0.348
 6263SOL    HW219689   0.193   7.006   0.376
 6264SOL     OW19690   2.582   1.887   0.672
 6264SOL    HW119691   2.540   1.842   0.750
 6264SOL    HW219692   2.676   1.911   0.694
 6265SOL     OW19693   3.933   4.388   0.640
 6265SOL    HW119694   3.942   4.488   0.637
 6265SOL    HW219695   3.965   4.355   0.729
 6266SOL     OW19696   3.388   1.008   3.536
 6266SOL    HW119697   3.346   0.918   3.527
 6266SOL    HW219698   3.343   1.060   3.609
 6267SOL     OW19699   2.817   0.311   0.289
 6267SOL    HW119700   2.733   0.318   0.235
 6267SOL    HW219701   2.866   0.398   0.287
 6268SOL     OW19702   3.037   5.094   2.857
 6268SOL    HW119703   2.989   5.169   2.901
 6268SOL    HW219704   3.040   5.016   2.920
 6269SOL     OW19705   5.901   5.906   2.347
 6269SOL    HW119706   5.804   5.931   2.343
 6269SOL    HW219707   5.922   5.843   2.273
 6270SOL     OW19708   1.228   1.333   4.809
 6270SOL    HW119709   1.192   1.427   4.807
 6270SOL    HW219710   1.322   1.333   4.774
 6271SOL     OW19711   0.237   2.420   6.634
 6271SOL    HW119712   0.336   2.404   6.639
 6271SOL    HW219713   0.203   2.447   6.723
 6272SOL     OW19714   2.320   2.607   4.333
 6272SOL    HW119715   2.240   2.558   4.366
 6272SOL    HW219716   2.303   2.706   4.340
 6273SOL     OW19717   2.277   1.439   1.612
 6273SOL    HW119718   2.315   1.361   1.562
 6273SOL    HW219719   2.233   1.501   1.547
 6274SOL     OW19720   3.339   5.707   7.021
 6274SOL    HW119721   3.413   5.762   6.983
 6274SOL    HW219722   3.255   5.726   6.971
 6275SOL     OW19723   2.331   0.056   4.943
 6275SOL    HW119724   2.324   6.982   4.967
 6275SOL    HW219725   2.424   0.076   4.913
 6276SOL     OW19726   1.002   5.287   3.595
 6276SOL    HW119727   1.035   5.353   3.663
 6276SOL    HW219728   1.033   5.314   3.504
 6277SOL     OW19729   5.110   2.523   2.592
 6277SOL    HW119730   5.166   2.570   2.523
 6277SOL    HW219731   5.081   2.434   2.556
 6278SOL     OW19732   4.456   0.146   4.494
 6278SOL    HW119733   4.390   0.205   4.448
 6278SOL    HW219734   4.518   0.202   4.549
 6279SOL     OW19735   3.796   1.808   0.793
 6279SOL    HW119736   3.896   1.810   0.792
 6279SOL    HW219737   3.762   1.873   0.861
 6280SOL     OW19738   0.279   3.646   5.897
 6280SOL    HW119739   0.341   3.722   5.913
 6280SOL    HW219740   0.298   3.606   5.807
 6281SOL     OW19741   1.921   0.355   5.336
 6281SOL    HW119742   1.943   0.331   5.242
 6281SOL    HW219743   1.956   0.447   5.356
 6282SOL     OW19744   1.997   0.142   4.383
 6282SOL    HW119745   1.989   0.100   4.474
 6282SOL    HW219746   1.979   0.240   4.391
 6283SOL     OW19747   7.009   2.401   5.309
 6283SOL    HW119748   6.993   2.383   5.406
 6283SOL    HW219749   0.085   2.402   5.291
 6284SOL     OW19750   1.248   4.953   5.563
 6284SOL    HW119751   1.251   5.029   5.497
 6284SOL    HW219752   1.303   4.977   5.643
 6285SOL     OW19753   1.243   2.700   3.969
 6285SOL    HW119754   1.259   2.643   3.888
 6285SOL    HW219755   1.325   2.701   4.026
 6286SOL     OW19756   5.741   1.574   3.128
 6286SOL    HW119757   5.757   1.651   3.067
 6286SOL    HW219758   5.667   1.596   3.191
 6287SOL     OW19759   4.981   3.603   2.039
 6287SOL    HW119760   4.908   3.567   1.980
 6287SOL    HW219761   4.990   3.702   2.024
 6288SOL     OW19762   5.218   3.618   0.254
 6288SOL    HW119763   5.307   3.595   0.293
 6288SOL    HW219764   5.146   3.589   0.318
 6289SOL     OW19765   2.148   1.995   3.863
 6289SOL    HW119766   2.198   2.063   3.809
 6289SOL    HW219767   2.160   1.904   3.822
 6290SOL     OW19768   5.216   3.945   4.092
 6290SOL    HW119769   5.167   3.859   4.107
 6290SOL    HW219770   5.151   4.020   4.083
 6291SOL     OW19771   3.752   3.470   3.265
 6291SOL    HW119772   3.761   3.379   3.224
 6291SOL    HW219773   3.820   3.480   3.337
 6292SOL     OW19774   1.058   1.967   3.158
 6292SOL    HW119775   1.019   1.904   3.226
 6292SOL    HW219776   0.986   2.026   3.122
 6293SOL     OW19777   5.293   0.149   7.010
 6293SOL    HW119778   5.348   0.181   6.932
 6293SOL    HW219779   5.252   0.061   6.988
 6294SOL     OW19780   3.517   5.217   3.032
 6294SOL    HW119781   3.514   5.118   3.017
 6294SOL    HW219782   3.583   5.237   3.105
 6295SOL     OW19783   5.450   5.745   5.752
 6295SOL    HW119784   5.423   5.785   5.665
 6295SOL    HW219785   5.533   5.690   5.740
 6296SOL     OW19786   0.060   0.716   3.734
 6296SOL    HW119787   7.010   0.652   3.756
 6296SOL    HW219788   0.024   0.810   3.734
 6297SOL     OW19789   5.191   6.073   5.861
 6297SOL    HW119790   5.287   6.049   5.869
 6297SOL    HW219791   5.182   6.155   5.805
 6298SOL     OW19792   0.329   3.472   5.662
 6298SOL    HW119793   0.366   3.385   5.628
 6298SOL    HW219794   0.280   3.518   5.589
 6299SOL     OW19795   6.175   2.674   6.608
 6299SOL    HW119796   6.239   2.676   6.531
 6299SOL    HW219797   6.208   2.612   6.679
 6300SOL     OW19798   4.840   0.716   4.478
 6300SOL    HW119799   4.829   0.764   4.565
 6300SOL    HW219800   4.861   0.782   4.406
 6301SOL     OW19801   2.941   6.716   1.167
 6301SOL    HW119802   2.855   6.680   1.205
 6301SOL    HW219803   2.982   6.780   1.232
 6302SOL     OW19804   1.852   0.883   3.575
 6302SOL    HW119805   1.764   0.837   3.588
 6302SOL    HW219806   1.846   0.978   3.605
 6303SOL     OW19807   2.326   6.801   4.992
 6303SOL    HW119808   2.243   6.813   4.936
 6303SOL    HW219809   2.374   6.718   4.963
 6304SOL     OW19810   2.660   1.292   0.350
 6304SOL    HW119811   2.751   1.314   0.387
 6304SOL    HW219812   2.663   1.203   0.305
 6305SOL     OW19813   0.141   6.892   1.499
 6305SOL    HW119814   0.175   6.885   1.405
 6305SOL    HW219815   0.139   6.801   1.541
 6306SOL     OW19816   6.729   3.057   3.764
 6306SOL    HW119817   6.755   3.154   3.766
 6306SOL    HW219818   6.654   3.044   3.699
 6307SOL     OW19819   2.476   4.959   6.215
 6307SOL    HW119820   2.438   5.035   6.267
 6307SOL    HW219821   2.501   4.884   6.277
 6308SOL     OW19822   2.994   1.591   5.073
 6308SOL    HW119823   3.084   1.624   5.103
 6308SOL    HW219824   2.944   1.666   5.030
 6309SOL     OW19825   5.190   2.262   4.010
 6309SOL    HW119826   5.252   2.265   4.088
 6309SOL    HW219827   5.156   2.168   3.999
 6310SOL     OW19828   1.389   4.470   5.043
 6310SOL    HW119829   1.374   4.394   4.980
 6310SOL    HW219830   1.450   4.538   5.001
 6311SOL     OW19831   6.459   0.211   5.237
 6311SOL    HW119832   6.482   0.306   5.216
 6311SOL    HW219833   6.542   0.161   5.262
 6312SOL     OW19834   4.322   5.047   6.326
 6312SOL    HW119835   4.311   4.982   6.401
 6312SOL    HW219836   4.393   5.114   6.350
 6313SOL     OW19837   1.961   5.590   3.193
 6313SOL    HW119838   1.920   5.674   3.156
 6313SOL    HW219839   2.053   5.610   3.225
 6314SOL     OW19840   2.504   5.677   2.759
 6314SOL    HW119841   2.507   5.716   2.667
 6314SOL    HW219842   2.501   5.750   2.827
 6315SOL     OW19843   3.439   3.419   0.143
 6315SOL    HW119844   3.518   3.388   0.090
 6315SOL    HW219845   3.356   3.375   0.109
 6316SOL     OW19846   4.565   1.883   5.897
 6316SOL    HW119847   4.507   1.874   5.978
 6316SOL    HW219848   4.507   1.881   5.815
 6317SOL     OW19849   5.040   6.626   2.815
 6317SOL    HW119850   5.053   6.680   2.898
 6317SOL    HW219851   5.062   6.682   2.735
 6318SOL     OW19852   2.283   2.215   5.461
 6318SOL    HW119853   2.266   2.259   5.373
 6318SOL    HW219854   2.354   2.265   5.511
 6319SOL     OW19855   0.934   2.886   3.347
 6319SOL    HW119856   1.025   2.911   3.314
 6319SOL    HW219857   0.906   2.799   3.308
 6320SOL     OW19858   5.761   3.574   3.182
 6320SOL    HW119859   5.825   3.501   3.157
 6320SOL    HW219860   5.738   3.627   3.100
 6321SOL     OW19861   3.027   5.571   0.246
 6321SOL    HW119862   3.109   5.529   0.284
 6321SOL    HW219863   3.040   5.670   0.240
 6322SOL     OW19864   1.398   1.071   6.992
 6322SOL    HW119865   1.432   0.978   6.973
 6322SOL    HW219866   1.436   1.134   6.924
 6323SOL     OW19867   3.732   2.886   1.464
 6323SOL    HW119868   3.797   2.837   1.406
 6323SOL    HW219869   3.661   2.823   1.495
 6324SOL     OW19870   3.714   1.015   5.680
 6324SOL    HW119871   3.741   0.939   5.739
 6324SOL    HW219872   3.785   1.086   5.683
 6325SOL     OW19873   0.678   2.751   2.055
 6325SOL    HW119874   0.778   2.756   2.050
 6325SOL    HW219875   0.647   2.791   2.142
 6326SOL     OW19876   5.189   5.758   1.339
 6326SOL    HW119877   5.116   5.694   1.363
 6326SOL    HW219878   5.193   5.831   1.408
 6327SOL     OW19879   5.492   5.943   5.476
 6327SOL    HW119880   5.457   6.022   5.425
 6327SOL    HW219881   5.418   5.878   5.491
 6328SOL     OW19882   2.150   3.866   0.139
 6328SOL    HW119883   2.084   3.888   0.067
 6328SOL    HW219884   2.103   3.867   0.228
 6329SOL     OW19885   1.521   1.403   3.566
 6329SOL    HW119886   1.562   1.345   3.495
 6329SOL    HW219887   1.587   1.417   3.639
 6330SOL     OW19888   4.584   0.716   0.135
 6330SOL    HW119889   4.654   0.786   0.145
 6330SOL    HW219890   4.497   0.750   0.172
 6331SOL     OW19891   6.474   1.600   0.943
 6331SOL    HW119892   6.486   1.590   0.844
 6331SOL    HW219893   6.547   1.657   0.980
 6332SOL     OW19894   6.148   5.852   1.075
 6332SOL    HW119895   6.122   5.869   0.980
 6332SOL    HW219896   6.092   5.778   1.112
 6333SOL     OW19897   3.381   4.890   3.638
 6333SOL    HW119898   3.456   4.871   3.702
 6333SOL    HW219899   3.336   4.804   3.614
 6334SOL     OW19900   2.150   0.311   2.165
 6334SOL    HW119901   2.069   0.257   2.145
 6334SOL    HW219902   2.228   0.274   2.115
 6335SOL     OW19903   6.616   1.057   6.314
 6335SOL    HW119904   6.527   1.042   6.270
 6335SOL    HW219905   6.682   0.991   6.279
 6336SOL     OW19906   0.401   2.469   4.727
 6336SOL    HW119907   0.498   2.444   4.724
 6336SOL    HW219908   0.375   2.488   4.822
 6337SOL     OW19909   5.113   3.353   5.985
 6337SOL    HW119910   5.193   3.367   5.926
 6337SOL    HW219911   5.091   3.256   5.989
 6338SOL     OW19912   3.222   1.805   2.924
 6338SOL    HW119913   3.194   1.763   2.838
 6338SOL    HW219914   3.321   1.793   2.937
 6339SOL     OW19915   0.589   2.465   3.217
 6339SOL    HW119916   0.678   2.420   3.218
 6339SOL    HW219917   0.517   2.396   3.208
 6340SOL     OW19918   2.830   5.935   3.836
 6340SOL    HW119919   2.749   5.879   3.851
 6340SOL    HW219920   2.885   5.896   3.763
 6341SOL     OW19921   6.728   4.589   3.247
 6341SOL    HW119922   6.796   4.654   3.214
 6341SOL    HW219923   6.720   4.513   3.183
 6342SOL     OW19924   2.073   2.403   2.425
 6342SOL    HW119925   2.149   2.354   2.381
 6342SOL    HW219926   1.987   2.378   2.380
 6343SOL     OW19927   3.884   2.028   6.488
 6343SOL    HW119928   3.866   2.094   6.414
 6343SOL    HW219929   3.918   1.943   6.449
 6344SOL     OW19930   0.211   3.714   4.864
 6344SOL    HW119931   0.145   3.784   4.889
 6344SOL    HW219932   0.293   3.722   4.921
 6345SOL     OW19933   3.054   1.638   2.005
 6345SOL    HW119934   3.001   1.679   1.931
 6345SOL    HW219935   3.146   1.676   2.005
 6346SOL     OW19936   0.029   3.777   3.103
 6346SOL    HW119937   7.016   3.779   3.196
 6346SOL    HW219938   0.073   3.688   3.086
 6347SOL     OW19939   2.793   0.440   1.008
 6347SOL    HW119940   2.750   0.514   0.956
 6347SOL    HW219941   2.744   0.355   0.990
 6348SOL     OW19942   0.996   2.919   4.331
 6348SOL    HW119943   0.978   2.905   4.234
 6348SOL    HW219944   1.088   2.959   4.342
 6349SOL     OW19945   2.681   0.740   1.026
 6349SOL    HW119946   2.635   0.716   0.941
 6349SOL    HW219947   2.778   0.758   1.007
 6350SOL     OW19948   1.705   6.076   2.401
 6350SOL    HW119949   1.645   6.142   2.446
 6350SOL    HW219950   1.779   6.123   2.355
 6351SOL     OW19951   0.188   1.704   2.114
 6351SOL    HW119952   0.143   1.788   2.086
 6351SOL    HW219953   0.275   1.695   2.066
 6352SOL     OW19954   1.946   5.472   2.876
 6352SOL    HW119955   1.880   5.442   2.807
 6352SOL    HW219956   1.898   5.501   2.959
 6353SOL     OW19957   0.825   0.079   0.252
 6353SOL    HW119958   0.874   0.130   0.181
 6353SOL    HW219959   0.854   7.006   0.250
 6354SOL     OW19960   1.047   6.954   2.494
 6354SOL    HW119961   1.096   6.899   2.427
 6354SOL    HW219962   1.096   6.952   2.581
 6355SOL     OW19963   1.408   3.039   3.514
 6355SOL    HW119964   1.375   2.983   3.589
 6355SOL    HW219965   1.332   3.094   3.477
 6356SOL     OW19966   4.008   4.784   0.872
 6356SOL    HW119967   3.916   4.770   0.836
 6356SOL    HW219968   4.072   4.800   0.797
 6357SOL     OW19969   4.688   2.848   0.445
 6357SOL    HW119970   4.646   2.938   0.430
 6357SOL    HW219971   4.766   2.838   0.383
 6358SOL     OW19972   0.210   2.183   4.043
 6358SOL    HW119973   0.205   2.088   4.012
 6358SOL    HW219974   0.146   2.196   4.119
 6359SOL     OW19975   7.016   0.546   5.355
 6359SOL    HW119976   0.093   0.538   5.352
 6359SOL    HW219977   6.977   0.464   5.397
 6360SOL     OW19978   2.607   4.965   4.193
 6360SOL    HW119979   2.616   4.888   4.256
 6360SOL    HW219980   2.513   5.000   4.197
 6361SOL     OW19981   4.333   6.580   6.146
 6361SOL    HW119982   4.356   6.548   6.238
 6361SOL    HW219983   4.243   6.623   6.147
 6362SOL     OW19984   6.101   4.896   0.129
 6362SOL    HW119985   6.141   4.956   0.060
 6362SOL    HW219986   6.010   4.930   0.155
 6363SOL     OW19987   1.801   5.756   4.391
 6363SOL    HW119988   1.875   5.816   4.360
 6363SOL    HW219989   1.800   5.673   4.334
 6364SOL     OW19990   2.622   2.683   5.756
 6364SOL    HW119991   2.629   2.593   5.797
 6364SOL    HW219992   2.654   2.752   5.821
 6365SOL     OW19993   4.472   6.747   3.487
 6365SOL    HW119994   4.391   6.804   3.500
 6365SOL    HW219995   4.551   6.805   3.466
 6366SOL     OW19996   0.554   5.172   5.254
 6366SOL    HW119997   0.563   5.085   5.301
 6366SOL    HW219998   0.462   5.209   5.267
 6367SOL     OW19999   5.138   0.511   3.180
 6367SOL    HW120000   5.231   0.476   3.182
 6367SOL    HW220001   5.138   0.607   3.152
 6368SOL     OW20002   2.815   0.225   4.044
 6368SOL    HW120003   2.895   0.184   3.998
 6368SOL    HW220004   2.806   0.186   4.135
 6369SOL     OW20005   2.197   5.299   3.694
 6369SOL    HW120006   2.204   5.207   3.731
 6369SOL    HW220007   2.134   5.353   3.750
 6370SOL     OW20008   6.561   2.058   1.549
 6370SOL    HW120009   6.544   1.959   1.546
 6370SOL    HW220010   6.601   2.082   1.637
 6371SOL     OW20011   4.822   3.004   2.471
 6371SOL    HW120012   4.753   2.931   2.473
 6371SOL    HW220013   4.842   3.029   2.377
 6372SOL     OW20014   3.807   6.552   2.270
 6372SOL    HW120015   3.846   6.570   2.360
 6372SOL    HW220016   3.881   6.544   2.203
 6373SOL     OW20017   4.577   3.981   5.775
 6373SOL    HW120018   4.555   4.073   5.806
 6373SOL    HW220019   4.535   3.964   5.686
 6374SOL     OW20020   2.950   3.484   3.180
 6374SOL    HW120021   3.046   3.487   3.153
 6374SOL    HW220022   2.942   3.452   3.274
 6375SOL     OW20023   1.502   0.461   2.892
 6375SOL    HW120024   1.496   0.548   2.942
 6375SOL    HW220025   1.598   0.440   2.873
 6376SOL     OW20026   6.574   2.407   4.529
 6376SOL    HW120027   6.506   2.478   4.507
 6376SOL    HW220028   6.529   2.334   4.581
 6377SOL     OW20029   0.066   1.113   4.901
 6377SOL    HW120030   0.129   1.088   4.975
 6377SOL    HW220031   6.995   1.118   4.937
 6378SOL     OW20032   4.817   4.056   4.185
 6378SOL    HW120033   4.833   4.013   4.273
 6378SOL    HW220034   4.779   3.989   4.121
 6379SOL     OW20035   2.307   4.254   4.029
 6379SOL    HW120036   2.374   4.322   4.059
 6379SOL    HW220037   2.269   4.207   4.108
 6380SOL     OW20038   0.458   1.258   5.957
 6380SOL    HW120039   0.480   1.320   5.882
 6380SOL    HW220040   0.533   1.193   5.970
 6381SOL     OW20041   3.279   3.653   2.930
 6381SOL    HW120042   3.199   3.711   2.916
 6381SOL    HW220043   3.357   3.709   2.955
 6382SOL     OW20044   0.715   2.967   5.962
 6382SOL    HW120045   0.784   2.932   6.026
 6382SOL    HW220046   0.634   2.995   6.013
 6383SOL     OW20047   2.848   1.877   4.393
 6383SOL    HW120048   2.759   1.838   4.370
 6383SOL    HW220049   2.875   1.942   4.321
 6384SOL     OW20050   6.026   5.379   2.832
 6384SOL    HW120051   6.110   5.413   2.875
 6384SOL    HW220052   6.010   5.285   2.862
 6385SOL     OW20053   0.247   5.468   4.162
 6385SOL    HW120054   0.249   5.376   4.201
 6385SOL    HW220055   0.249   5.462   4.062
 6386SOL     OW20056   2.753   5.565   0.979
 6386SOL    HW120057   2.725   5.534   1.070
 6386SOL    HW220058   2.852   5.551   0.968
 6387SOL     OW20059   0.247   1.789   5.517
 6387SOL    HW120060   0.336   1.747   5.532
 6387SOL    HW220061   0.248   1.883   5.552
 6388SOL     OW20062   3.325   4.844   1.912
 6388SOL    HW120063   3.305   4.814   1.819
 6388SOL    HW220064   3.420   4.823   1.934
 6389SOL     OW20065   1.124   5.684   3.108
 6389SOL    HW120066   1.214   5.642   3.123
 6389SOL    HW220067   1.136   5.777   3.075
 6390SOL     OW20068   0.421   2.538   3.617
 6390SOL    HW120069   0.364   2.568   3.541
 6390SOL    HW220070   0.513   2.517   3.583
 6391SOL     OW20071   2.560   2.351   0.478
 6391SOL    HW120072   2.616   2.433   0.467
 6391SOL    HW220073   2.495   2.364   0.553
 6392SOL     OW20074   1.894   6.859   3.775
 6392SOL    HW120075   1.943   6.802   3.709
 6392SOL    HW220076   1.958   6.891   3.845
 6393SOL     OW20077   6.025   6.717   0.591
 6393SOL    HW120078   6.041   6.624   0.625
 6393SOL    HW220079   6.018   6.715   0.491
 6394SOL     OW20080   2.477   5.199   0.506
 6394SOL    HW120081   2.413   5.275   0.492
 6394SOL    HW220082   2.474   5.137   0.428
 6395SOL     OW20083   6.134   1.122   1.248
 6395SOL    HW120084   6.111   1.041   1.194
 6395SOL    HW220085   6.097   1.204   1.203
 6396SOL     OW20086   4.945   3.104   5.596
 6396SOL    HW120087   4.886   3.026   5.579
 6396SOL    HW220088   5.035   3.073   5.628
 6397SOL     OW20089   0.398   2.183   6.893
 6397SOL    HW120090   0.431   2.231   6.974
 6397SOL    HW220091   0.425   2.234   6.811
 6398SOL     OW20092   2.840   1.759   1.818
 6398SOL    HW120093   2.831   1.672   1.769
 6398SOL    HW220094   2.756   1.777   1.870
 6399SOL     OW20095   1.758   5.910   0.066
 6399SOL    HW120096   1.833   5.877   0.008
 6399SOL    HW220097   1.749   5.850   0.145
 6400SOL     OW20098   2.998   5.681   3.360
 6400SOL    HW120099   3.027   5.588   3.337
 6400SOL    HW220100   2.898   5.683   3.370
 6401SOL     OW20101   0.435   4.408   3.531
 6401SOL    HW120102   0.393   4.415   3.440
 6401SOL    HW220103   0.471   4.316   3.544
 6402SOL     OW20104   2.619   0.775   3.069
 6402SOL    HW120105   2.693   0.823   3.022
 6402SOL    HW220106   2.620   0.678   3.044
 6403SOL     OW20107   1.079   4.479   6.586
 6403SOL    HW120108   1.058   4.485   6.488
 6403SOL    HW220109   1.138   4.555   6.612
 6404SOL     OW20110   4.474   2.009   3.359
 6404SOL    HW120111   4.564   1.967   3.371
 6404SOL    HW220112   4.403   1.939   3.369
 6405SOL     OW20113   2.688   1.606   2.673
 6405SOL    HW120114   2.669   1.526   2.729
 6405SOL    HW220115   2.635   1.600   2.588
 6406SOL     OW20116   2.177   1.101   3.830
 6406SOL    HW120117   2.255   1.080   3.771
 6406SOL    HW220118   2.105   1.034   3.815
 6407SOL     OW20119   3.766   5.842   5.256
 6407SOL    HW120120   3.755   5.748   5.223
 6407SOL    HW220121   3.864   5.864   5.259
 6408SOL     OW20122   5.392   1.353   6.551
 6408SOL    HW120123   5.380   1.298   6.634
 6408SOL    HW220124   5.332   1.433   6.556
 6409SOL     OW20125   6.386   3.526   3.154
 6409SOL    HW120126   6.311   3.567   3.101
 6409SOL    HW220127   6.370   3.541   3.251
 6410SOL     OW20128   1.641   1.606   0.533
 6410SOL    HW120129   1.607   1.691   0.492
 6410SOL    HW220130   1.724   1.577   0.485
 6411SOL     OW20131   0.633   1.320   3.595
 6411SOL    HW120132   0.629   1.345   3.498
 6411SOL    HW220133   0.669   1.227   3.604
 6412SOL     OW20134   6.607   2.839   5.530
 6412SOL    HW120135   6.593   2.775   5.606
 6412SOL    HW220136   6.695   2.885   5.541
 6413SOL     OW20137   6.800   4.672   1.527
 6413SOL    HW120138   6.751   4.632   1.604
 6413SOL    HW220139   6.895   4.688   1.552
 6414SOL     OW20140   6.705   0.298   1.507
 6414SOL    HW120141   6.619   0.348   1.512
 6414SOL    HW220142   6.697   0.224   1.440
 6415SOL     OW20143   1.501   1.908   1.971
 6415SOL    HW120144   1.527   1.959   1.889
 6415SOL    HW220145   1.407   1.877   1.963
 6416SOL     OW20146   1.180   6.999   6.735
 6416SOL    HW120147   1.251   0.046   6.728
 6416SOL    HW220148   1.118   7.005   6.657
 6417SOL     OW20149   0.861   6.891   3.779
 6417SOL    HW120150   0.805   6.809   3.769
 6417SOL    HW220151   0.813   6.969   3.739
 6418SOL     OW20152   0.425   5.760   2.392
 6418SOL    HW120153   0.387   5.750   2.301
 6418SOL    HW220154   0.366   5.714   2.458
 6419SOL     OW20155   3.660   4.942   1.776
 6419SOL    HW120156   3.613   4.888   1.846
 6419SOL    HW220157   3.716   5.012   1.820
 6420SOL     OW20158   2.451   3.925   6.263
 6420SOL    HW120159   2.382   3.970   6.206
 6420SOL    HW220160   2.493   3.850   6.211
 6421SOL     OW20161   5.172   0.387   1.140
 6421SOL    HW120162   5.088   0.440   1.157
 6421SOL    HW220163   5.219   0.423   1.060
 6422SOL     OW20164   6.840   1.311   3.479
 6422SOL    HW120165   6.875   1.400   3.449
 6422SOL    HW220166   6.906   1.240   3.458
 6423SOL     OW20167   5.436   3.066   0.968
 6423SOL    HW120168   5.362   3.026   1.022
 6423SOL    HW220169   5.400   3.092   0.878
 6424SOL     OW20170   6.370   4.021   6.427
 6424SOL    HW120171   6.368   3.933   6.380
 6424SOL    HW220172   6.412   4.090   6.368
 6425SOL     OW20173   0.584   4.715   2.389
 6425SOL    HW120174   0.570   4.723   2.290
 6425SOL    HW220175   0.673   4.673   2.406
 6426SOL     OW20176   1.099   2.555   3.433
 6426SOL    HW120177   1.044   2.614   3.490
 6426SOL    HW220178   1.186   2.599   3.412
 6427SOL     OW20179   1.102   3.298   5.704
 6427SOL    HW120180   1.188   3.304   5.654
 6427SOL    HW220181   1.099   3.213   5.757
 6428SOL     OW20182   6.665   3.509   1.885
 6428SOL    HW120183   6.746   3.561   1.856
 6428SOL    HW220184   6.645   3.439   1.817
 6429SOL     OW20185   1.425   0.900   4.206
 6429SOL    HW120186   1.352   0.967   4.192
 6429SOL    HW220187   1.476   0.888   4.121
 6430SOL     OW20188   5.427   1.492   1.369
 6430SOL    HW120189   5.336   1.484   1.327
 6430SOL    HW220190   5.483   1.414   1.341
 6431SOL     OW20191   4.978   6.652   3.297
 6431SOL    HW120192   4.994   6.563   3.339
 6431SOL    HW220193   4.990   6.724   3.366
 6432SOL     OW20194   5.149   3.553   1.007
 6432SOL    HW120195   5.087   3.538   1.085
 6432SOL    HW220196   5.101   3.605   0.937
 6433SOL     OW20197   2.810   4.449   1.385
 6433SOL    HW120198   2.837   4.389   1.461
 6433SOL    HW220199   2.832   4.404   1.298
 6434SOL     OW20200   1.258   3.910   0.636
 6434SOL    HW120201   1.206   3.825   0.630
 6434SOL    HW220202   1.271   3.948   0.545
 6435SOL     OW20203   4.307   4.859   6.526
 6435SOL    HW120204   4.405   4.872   6.542
 6435SOL    HW220205   4.273   4.787   6.586
 6436SOL     OW20206   1.885   3.045   3.434
 6436SOL    HW120207   1.886   2.946   3.418
 6436SOL    HW220208   1.798   3.083   3.403
 6437SOL     OW20209   1.183   6.758   0.096
 6437SOL    HW120210   1.277   6.763   0.131
 6437SOL    HW220211   1.123   6.812   0.155
 6438SOL     OW20212   1.128   3.736   3.891
 6438SOL    HW120213   1.116   3.675   3.970
 6438SOL    HW220214   1.185   3.691   3.822
 6439SOL     OW20215   1.385   6.769   0.963
 6439SOL    HW120216   1.469   6.717   0.978
 6439SOL    HW220217   1.353   6.806   1.050
 6440SOL     OW20218   1.246   1.476   2.468
 6440SOL    HW120219   1.227   1.574   2.461
 6440SOL    HW220220   1.277   1.453   2.560
 6441SOL     OW20221   1.995   1.227   3.272
 6441SOL    HW120222   2.039   1.248   3.359
 6441SOL    HW220223   1.916   1.287   3.259
 6442SOL     OW20224   2.255   2.373   4.616
 6442SOL    HW120225   2.298   2.299   4.565
 6442SOL    HW220226   2.311   2.456   4.609
 6443SOL     OW20227   3.088   3.177   0.758
 6443SOL    HW120228   3.029   3.106   0.720
 6443SOL    HW220229   3.182   3.143   0.764
 6444SOL     OW20230   0.845   1.807   2.881
 6444SOL    HW120231   0.929   1.759   2.907
 6444SOL    HW220232   0.829   1.883   2.944
 6445SOL     OW20233   3.974   2.822   5.301
 6445SOL    HW120234   4.025   2.745   5.262
 6445SOL    HW220235   4.014   2.848   5.388
 6446SOL     OW20236   6.495   1.297   6.720
 6446SOL    HW120237   6.571   1.348   6.761
 6446SOL    HW220238   6.411   1.317   6.770
 6447SOL     OW20239   2.055   6.742   1.949
 6447SOL    HW120240   2.117   6.779   1.880
 6447SOL    HW220241   2.082   6.648   1.971
 6448SOL     OW20242   6.261   2.961   3.090
 6448SOL    HW120243   6.207   2.913   3.159
 6448SOL    HW220244   6.304   2.895   3.029
 6449SOL     OW20245   3.361   3.376   1.587
 6449SOL    HW120246   3.264   3.354   1.592
 6449SOL    HW220247   3.378   3.466   1.628
 6450SOL     OW20248   6.145   3.687   1.305
 6450SOL    HW120249   6.060   3.701   1.357
 6450SOL    HW220250   6.188   3.601   1.334
 6451SOL     OW20251   2.448   6.521   5.344
 6451SOL    HW120252   2.548   6.525   5.355
 6451SOL    HW220253   2.410   6.612   5.352
 6452SOL     OW20254   3.092   6.950   4.341
 6452SOL    HW120255   3.089   0.027   4.352
 6452SOL    HW220256   3.022   6.922   4.275
 6453SOL     OW20257   1.328   6.096   6.618
 6453SOL    HW120258   1.345   6.193   6.638
 6453SOL    HW220259   1.367   6.073   6.529
 6454SOL     OW20260   2.912   1.601   4.477
 6454SOL    HW120261   2.858   1.561   4.552
 6454SOL    HW220262   2.873   1.690   4.452
 6455SOL     OW20263   0.005   2.830   5.210
 6455SOL    HW120264   7.002   2.764   5.280
 6455SOL    HW220265   6.945   2.875   5.176
 6456SOL     OW20266   0.694   0.733   2.984
 6456SOL    HW120267   0.696   0.637   3.012
 6456SOL    HW220268   0.786   0.763   2.962
 6457SOL     OW20269   6.581   2.887   1.671
 6457SOL    HW120270   6.654   2.927   1.728
 6457SOL    HW220271   6.493   2.924   1.700
 6458SOL     OW20272   1.385   5.579   3.192
 6458SOL    HW120273   1.369   5.492   3.145
 6458SOL    HW220274   1.463   5.569   3.253
 6459SOL     OW20275   6.079   4.227   0.447
 6459SOL    HW120276   6.173   4.221   0.480
 6459SOL    HW220277   6.018   4.247   0.523
 6460SOL     OW20278   3.801   4.788   6.509
 6460SOL    HW120279   3.812   4.752   6.602
 6460SOL    HW220280   3.888   4.827   6.478
 6461SOL     OW20281   3.193   5.006   4.920
 6461SOL    HW120282   3.256   4.928   4.913
 6461SOL    HW220283   3.107   4.976   4.960
 6462SOL     OW20284   1.786   3.199   5.134
 6462SOL    HW120285   1.801   3.157   5.045
 6462SOL    HW220286   1.842   3.153   5.203
 6463SOL     OW20287   2.294   4.489   6.313
 6463SOL    HW120288   2.326   4.394   6.306
 6463SOL    HW220289   2.207   4.491   6.363
 6464SOL     OW20290   0.458   5.297   3.633
 6464SOL    HW120291   0.532   5.243   3.672
 6464SOL    HW220292   0.380   5.237   3.613
 6465SOL     OW20293   5.872   1.531   3.865
 6465SOL    HW120294   5.793   1.570   3.911
 6465SOL    HW220295   5.950   1.594   3.874
 6466SOL     OW20296   0.361   2.491   5.026
 6466SOL    HW120297   0.324   2.401   5.049
 6466SOL    HW220298   0.460   2.492   5.044
 6467SOL     OW20299   2.918   1.331   6.639
 6467SOL    HW120300   2.825   1.358   6.663
 6467SOL    HW220301   2.955   1.395   6.572
 6468SOL     OW20302   4.827   6.026   1.253
 6468SOL    HW120303   4.746   5.972   1.274
 6468SOL    HW220304   4.902   5.966   1.227
 6469SOL     OW20305   6.836   0.340   5.480
 6469SOL    HW120306   6.768   0.389   5.534
 6469SOL    HW220307   6.815   0.351   5.382
 6470SOL     OW20308   5.968   6.581   6.000
 6470SOL    HW120309   6.051   6.636   6.011
 6470SOL    HW220310   5.902   6.631   5.945
 6471SOL     OW20311   6.706   5.059   6.761
 6471SOL    HW120312   6.675   5.079   6.668
 6471SOL    HW220313   6.768   4.980   6.759
 6472SOL     OW20314   1.045   6.462   1.697
 6472SOL    HW120315   1.051   6.490   1.602
 6472SOL    HW220316   1.051   6.362   1.703
 6473SOL     OW20317   1.895   1.448   6.313
 6473SOL    HW120318   1.829   1.483   6.379
 6473SOL    HW220319   1.850   1.433   6.225
 6474SOL     OW20320   1.241   3.485   5.859
 6474SOL    HW120321   1.183   3.418   5.813
 6474SOL    HW220322   1.286   3.543   5.791
 6475SOL     OW20323   5.395   6.773   4.086
 6475SOL    HW120324   5.441   6.751   4.172
 6475SOL    HW220325   5.381   6.871   4.080
 6476SOL     OW20326   4.405   4.563   3.141
 6476SOL    HW120327   4.305   4.572   3.147
 6476SOL    HW220328   4.442   4.638   3.086
 6477SOL     OW20329   6.604   5.570   0.182
 6477SOL    HW120330   6.507   5.545   0.185
 6477SOL    HW220331   6.660   5.490   0.201
 6478SOL     OW20332   4.673   5.995   1.908
 6478SOL    HW120333   4.724   6.002   1.993
 6478SOL    HW220334   4.588   6.046   1.915
 6479SOL     OW20335   4.759   5.175   2.373
 6479SOL    HW120336   4.795   5.110   2.306
 6479SOL    HW220337   4.660   5.184   2.361
 6480SOL     OW20338   2.792   2.972   6.590
 6480SOL    HW120339   2.745   3.058   6.608
 6480SOL    HW220340   2.836   2.977   6.500
 6481SOL     OW20341   3.454   1.111   1.429
 6481SOL    HW120342   3.388   1.052   1.477
 6481SOL    HW220343   3.413   1.143   1.343
 6482SOL     OW20344   6.683   6.916   0.109
 6482SOL    HW120345   6.643   6.896   0.020
 6482SOL    HW220346   6.628   6.872   0.180
 6483SOL     OW20347   1.582   6.648   1.985
 6483SOL    HW120348   1.556   6.728   1.931
 6483SOL    HW220349   1.584   6.673   2.082
 6484SOL     OW20350   5.031   0.360   2.582
 6484SOL    HW120351   5.090   0.305   2.641
 6484SOL    HW220352   4.940   0.367   2.622
 6485SOL     OW20353   1.875   2.639   3.606
 6485SOL    HW120354   1.813   2.712   3.636
 6485SOL    HW220355   1.958   2.680   3.568
 6486SOL     OW20356   1.550   3.574   3.836
 6486SOL    HW120357   1.524   3.584   3.932
 6486SOL    HW220358   1.611   3.496   3.826
 6487SOL     OW20359   6.381   6.942   4.163
 6487SOL    HW120360   6.390   0.004   4.217
 6487SOL    HW220361   6.285   6.920   4.151
 6488SOL     OW20362   2.907   5.331   6.036
 6488SOL    HW120363   2.942   5.319   6.129
 6488SOL    HW220364   2.984   5.336   5.972
 6489SOL     OW20365   1.764   2.063   6.060
 6489SOL    HW120366   1.757   2.036   5.964
 6489SOL    HW220367   1.859   2.057   6.089
 6490SOL     OW20368   3.663   2.367   0.288
 6490SOL    HW120369   3.635   2.302   0.358
 6490SOL    HW220370   3.677   2.457   0.330
 6491SOL     OW20371   4.664   1.428   6.483
 6491SOL    HW120372   4.711   1.432   6.395
 6491SOL    HW220373   4.645   1.521   6.514
 6492SOL     OW20374   6.364   6.481   0.505
 6492SOL    HW120375   6.440   6.428   0.468
 6492SOL    HW220376   6.394   6.529   0.587
 6493SOL     OW20377   2.053   6.916   6.570
 6493SOL    HW120378   2.045   6.947   6.665
 6493SOL    HW220379   1.962   6.894   6.535
 6494SOL     OW20380   1.057   0.439   3.495
 6494SOL    HW120381   1.130   0.398   3.550
 6494SOL    HW220382   1.070   0.415   3.399
 6495SOL     OW20383   5.048   4.976   3.067
 6495SOL    HW120384   4.999   4.935   2.990
 6495SOL    HW220385   5.143   4.945   3.066
 6496SOL     OW20386   0.796   6.365   1.827
 6496SOL    HW120387   0.850   6.441   1.790
 6496SOL    HW220388   0.855   6.306   1.882
 6497SOL     OW20389   1.678   4.158   0.327
 6497SOL    HW120390   1.752   4.224   0.339
 6497SOL    HW220391   1.605   4.176   0.393
 6498SOL     OW20392   2.157   3.682   4.788
 6498SOL    HW120393   2.250   3.681   4.752
 6498SOL    HW220394   2.126   3.588   4.804
 6499SOL     OW20395   4.675   1.176   4.690
 6499SOL    HW120396   4.765   1.210   4.716
 6499SOL    HW220397   4.661   1.188   4.592
 6500SOL     OW20398   5.545   4.398   3.515
 6500SOL    HW120399   5.470   4.444   3.468
 6500SOL    HW220400   5.537   4.412   3.614
 6501SOL     OW20401   5.590   3.727   1.198
 6501SOL    HW120402   5.502   3.697   1.235
 6501SOL    HW220403   5.592   3.711   1.100
 6502SOL     OW20404   0.949   4.680   3.665
 6502SOL    HW120405   0.882   4.717   3.730
 6502SOL    HW220406   0.910   4.680   3.573
 6503SOL     OW20407   5.750   6.804   4.226
 6503SOL    HW120408   5.671   6.745   4.240
 6503SOL    HW220409   5.834   6.749   4.231
 6504SOL     OW20410   3.636   1.096   0.525
 6504SOL    HW120411   3.639   1.000   0.500
 6504SOL    HW220412   3.670   1.152   0.449
 6505SOL     OW20413   5.858   4.640   0.932
 6505SOL    HW120414   5.766   4.655   0.896
 6505SOL    HW220415   5.853   4.585   1.015
 6506SOL     OW20416   1.681   3.826   0.828
 6506SOL    HW120417   1.655   3.735   0.859
 6506SOL    HW220418   1.613   3.893   0.860
 6507SOL     OW20419   2.267   6.059   1.554
 6507SOL    HW120420   2.185   6.105   1.588
 6507SOL    HW220421   2.343   6.076   1.617
 6508SOL     OW20422   2.417   2.036   3.503
 6508SOL    HW120423   2.511   2.035   3.467
 6508SOL    HW220424   2.420   2.042   3.603
 6509SOL     OW20425   1.427   2.418   4.455
 6509SOL    HW120426   1.421   2.480   4.377
 6509SOL    HW220427   1.347   2.431   4.514
 6510SOL     OW20428   6.323   5.005   6.657
 6510SOL    HW120429   6.337   4.908   6.640
 6510SOL    HW220430   6.408   5.054   6.639
 6511SOL     OW20431   6.474   6.550   5.574
 6511SOL    HW120432   6.481   6.485   5.649
 6511SOL    HW220433   6.390   6.533   5.523
 6512SOL     OW20434   4.742   6.818   2.875
 6512SOL    HW120435   4.674   6.779   2.813
 6512SOL    HW220436   4.834   6.802   2.839
 6513SOL     OW20437   4.486   6.164   3.832
 6513SOL    HW120438   4.528   6.080   3.866
 6513SOL    HW220439   4.394   6.174   3.871
 6514SOL     OW20440   4.169   0.468   4.423
 6514SOL    HW120441   4.103   0.516   4.365
 6514SOL    HW220442   4.185   0.376   4.386
 6515SOL     OW20443   0.035   6.263   4.844
 6515SOL    HW120444   0.047   6.361   4.831
 6515SOL    HW220445   6.967   6.236   4.811
 6516SOL     OW20446   1.231   2.182   5.825
 6516SOL    HW120447   1.141   2.199   5.786
 6516SOL    HW220448   1.280   2.269   5.835
 6517SOL     OW20449   0.784   1.202   6.967
 6517SOL    HW120450   0.789   1.233   0.040
 6517SOL    HW220451   0.689   1.199   6.938
 6518SOL     OW20452   0.247   6.373   1.341
 6518SOL    HW120453   0.339   6.337   1.327
 6518SOL    HW220454   0.228   6.445   1.274
 6519SOL     OW20455   2.273   1.331   3.928
 6519SOL    HW120456   2.341   1.321   4.001
 6519SOL    HW220457   2.259   1.243   3.884
 6520SOL     OW20458   6.349   5.621   2.323
 6520SOL    HW120459   6.375   5.717   2.311
 6520SOL    HW220460   6.321   5.606   2.418
 6521SOL     OW20461   0.767   1.783   4.982
 6521SOL    HW120462   0.690   1.732   5.020
 6521SOL    HW220463   0.852   1.753   5.025
 6522SOL     OW20464   2.353   5.842   6.289
 6522SOL    HW120465   2.328   5.851   6.386
 6522SOL    HW220466   2.408   5.759   6.277
 6523SOL     OW20467   1.716   1.628   6.467
 6523SOL    HW120468   1.773   1.708   6.479
 6523SOL    HW220469   1.652   1.621   6.544
 6524SOL     OW20470   3.873   3.431   3.512
 6524SOL    HW120471   3.963   3.468   3.535
 6524SOL    HW220472   3.857   3.348   3.566
 6525SOL     OW20473   0.745   2.739   3.038
 6525SOL    HW120474   0.651   2.727   3.068
 6525SOL    HW220475   0.806   2.690   3.101
 6526SOL     OW20476   1.420   5.709   4.859
 6526SOL    HW120477   1.392   5.619   4.893
 6526SOL    HW220478   1.346   5.749   4.806
 6527SOL     OW20479   0.857   6.849   4.547
 6527SOL    HW120480   0.934   6.795   4.512
 6527SOL    HW220481   0.814   6.801   4.623
 6528SOL     OW20482   0.481   1.548   4.689
 6528SOL    HW120483   0.399   1.519   4.640
 6528SOL    HW220484   0.466   1.537   4.788
 6529SOL     OW20485   6.320   1.665   1.723
 6529SOL    HW120486   6.276   1.609   1.653
 6529SOL    HW220487   6.407   1.623   1.749
 6530SOL     OW20488   0.083   2.189   0.371
 6530SOL    HW120489   7.010   2.218   0.374
 6530SOL    HW220490   0.097   2.115   0.438
 6531SOL     OW20491   5.460   2.988   3.937
 6531SOL    HW120492   5.422   3.072   3.977
 6531SOL    HW220493   5.559   2.997   3.929
 6532SOL     OW20494   6.043   1.320   6.447
 6532SOL    HW120495   6.007   1.407   6.481
 6532SOL    HW220496   6.096   1.275   6.519
 6533SOL     OW20497   5.014   6.659   0.544
 6533SOL    HW120498   5.101   6.680   0.500
 6533SOL    HW220499   4.954   6.739   0.541
 6534SOL     OW20500   2.681   3.847   1.406
 6534SOL    HW120501   2.762   3.903   1.426
 6534SOL    HW220502   2.710   3.762   1.361
 6535SOL     OW20503   0.636   3.490   5.592
 6535SOL    HW120504   0.724   3.466   5.633
 6535SOL    HW220505   0.652   3.545   5.509
 6536SOL     OW20506   5.716   1.573   0.088
 6536SOL    HW120507   5.628   1.535   0.060
 6536SOL    HW220508   5.744   1.644   0.023
 6537SOL     OW20509   0.615   6.837   0.312
 6537SOL    HW120510   0.606   6.777   0.232
 6537SOL    HW220511   0.707   6.827   0.351
 6538SOL     OW20512   3.183   4.069   0.164
 6538SOL    HW120513   3.146   3.983   0.200
 6538SOL    HW220514   3.256   4.102   0.224
 6539SOL     OW20515   2.447   1.438   6.788
 6539SOL    HW120516   2.485   1.352   6.755
 6539SOL    HW220517   2.493   1.514   6.743
 6540SOL     OW20518   2.984   0.851   4.628
 6540SOL    HW120519   2.956   0.946   4.642
 6540SOL    HW220520   3.019   0.840   4.536
 6541SOL     OW20521   2.901   2.239   5.895
 6541SOL    HW120522   2.982   2.298   5.890
 6541SOL    HW220523   2.819   2.295   5.892
 6542SOL     OW20524   6.715   4.708   3.509
 6542SOL    HW120525   6.795   4.672   3.556
 6542SOL    HW220526   6.678   4.637   3.448
 6543SOL     OW20527   6.000   6.350   6.654
 6543SOL    HW120528   6.040   6.272   6.605
 6543SOL    HW220529   6.039   6.354   6.746
 6544SOL     OW20530   6.869   6.067   3.901
 6544SOL    HW120531   6.870   6.147   3.961
 6544SOL    HW220532   6.790   6.011   3.922
 6545SOL     OW20533   5.011   1.649   5.987
 6545SOL    HW120534   5.052   1.587   5.920
 6545SOL    HW220535   4.930   1.692   5.947
 6546SOL     OW20536   2.741   5.155   5.890
 6546SOL    HW120537   2.796   5.215   5.948
 6546SOL    HW220538   2.724   5.069   5.938
 6547SOL     OW20539   5.269   2.572   6.689
 6547SOL    HW120540   5.202   2.531   6.752
 6547SOL    HW220541   5.361   2.542   6.714
 6548SOL     OW20542   6.328   4.083   5.513
 6548SOL    HW120543   6.248   4.025   5.526
 6548SOL    HW220544   6.379   4.090   5.599
 6549SOL     OW20545   3.963   2.212   0.665
 6549SOL    HW120546   3.884   2.202   0.725
 6549SOL    HW220547   4.046   2.186   0.715
 6550SOL     OW20548   0.912   5.563   3.497
 6550SOL    HW120549   0.923   5.487   3.561
 6550SOL    HW220550   0.916   5.529   3.403
 6551SOL     OW20551   1.664   4.472   1.991
 6551SOL    HW120552   1.581   4.426   1.958
 6551SOL    HW220553   1.646   4.514   2.080
 6552SOL     OW20554   2.743   4.706   5.633
 6552SOL    HW120555   2.765   4.752   5.548
 6552SOL    HW220556   2.827   4.694   5.687
 6553SOL     OW20557   0.250   3.248   2.636
 6553SOL    HW120558   0.309   3.329   2.647
 6553SOL    HW220559   0.270   3.183   2.708
 6554SOL     OW20560   6.448   1.699   5.742
 6554SOL    HW120561   6.395   1.738   5.818
 6554SOL    HW220562   6.405   1.613   5.713
 6555SOL     OW20563   1.725   1.116   2.090
 6555SOL    HW120564   1.797   1.165   2.139
 6555SOL    HW220565   1.663   1.074   2.155
 6556SOL     OW20566   4.089   5.734   4.852
 6556SOL    HW120567   4.095   5.833   4.866
 6556SOL    HW220568   4.020   5.715   4.782
 6557SOL     OW20569   6.160   5.370   0.796
 6557SOL    HW120570   6.078   5.330   0.837
 6557SOL    HW220571   6.233   5.301   0.793
 6558SOL     OW20572   5.858   5.675   6.963
 6558SOL    HW120573   5.866   5.597   0.002
 6558SOL    HW220574   5.905   5.754   7.002
 6559SOL     OW20575   4.952   4.062   1.199
 6559SOL    HW120576   4.974   4.029   1.291
 6559SOL    HW220577   5.009   4.142   1.178
 6560SOL     OW20578   3.769   2.997   0.570
 6560SOL    HW120579   3.832   3.001   0.648
 6560SOL    HW220580   3.737   3.089   0.548
 6561SOL     OW20581   4.068   3.643   3.005
 6561SOL    HW120582   4.124   3.614   3.082
 6561SOL    HW220583   3.980   3.678   3.038
 6562SOL     OW20584   6.494   4.690   5.578
 6562SOL    HW120585   6.465   4.731   5.664
 6562SOL    HW220586   6.467   4.594   5.575
 6563SOL     OW20587   0.828   5.695   1.530
 6563SOL    HW120588   0.843   5.597   1.535
 6563SOL    HW220589   0.870   5.732   1.447
 6564SOL     OW20590   1.286   4.346   1.705
 6564SOL    HW120591   1.353   4.356   1.632
 6564SOL    HW220592   1.250   4.252   1.706
 6565SOL     OW20593   0.021   3.228   5.052
 6565SOL    HW120594   0.053   3.159   4.987
 6565SOL    HW220595   0.066   3.214   5.140
 6566SOL     OW20596   3.425   6.671   0.733
 6566SOL    HW120597   3.478   6.628   0.660
 6566SOL    HW220598   3.380   6.601   0.788
 6567SOL     OW20599   5.653   2.662   0.722
 6567SOL    HW120600   5.658   2.591   0.792
 6567SOL    HW220601   5.561   2.702   0.721
 6568SOL     OW20602   4.377   4.583   2.028
 6568SOL    HW120603   4.406   4.488   2.019
 6568SOL    HW220604   4.451   4.635   2.072
 6569SOL     OW20605   2.026   4.567   6.995
 6569SOL    HW120606   2.020   4.554   6.896
 6569SOL    HW220607   2.122   4.562   0.001
 6570SOL     OW20608   5.740   1.421   1.723
 6570SOL    HW120609   5.786   1.389   1.806
 6570SOL    HW220610   5.704   1.513   1.738
 6571SOL     OW20611   2.756   6.174   3.950
 6571SOL    HW120612   2.813   6.255   3.934
 6571SOL    HW220613   2.782   6.103   3.884
 6572SOL     OW20614   0.021   4.262   5.645
 6572SOL    HW120615   6.976   4.253   5.717
 6572SOL    HW220616   0.096   4.322   5.676
 6573SOL     OW20617   2.691   1.388   2.075
 6573SOL    HW120618   2.675   1.484   2.049
 6573SOL    HW220619   2.770   1.383   2.136
 6574SOL     OW20620   2.733   5.039   3.019
 6574SOL    HW120621   2.650   5.035   2.964
 6574SOL    HW220622   2.791   5.114   2.986
 6575SOL     OW20623   0.818   1.354   2.075
 6575SOL    HW120624   0.729   1.309   2.073
 6575SOL    HW220625   0.805   1.454   2.073
 6576SOL     OW20626   1.024   5.857   6.551
 6576SOL    HW120627   0.982   5.947   6.564
 6576SOL    HW220628   0.952   5.788   6.545
 6577SOL     OW20629   0.695   2.166   3.700
 6577SOL    HW120630   0.635   2.237   3.737
 6577SOL    HW220631   0.640   2.092   3.661
 6578SOL     OW20632   6.318   5.719   3.841
 6578SOL    HW120633   6.267   5.660   3.780
 6578SOL    HW220634   6.279   5.714   3.933
 6579SOL     OW20635   6.506   4.322   3.097
 6579SOL    HW120636   6.471   4.272   3.177
 6579SOL    HW220637   6.521   4.257   3.022
 6580SOL     OW20638   5.299   1.064   2.016
 6580SOL    HW120639   5.381   1.098   2.062
 6580SOL    HW220640   5.321   1.037   1.922
 6581SOL     OW20641   4.016   2.360   6.428
 6581SOL    HW120642   4.095   2.300   6.419
 6581SOL    HW220643   3.936   2.317   6.385
 6582SOL     OW20644   6.861   6.839   2.932
 6582SOL    HW120645   6.805   6.768   2.890
 6582SOL    HW220646   6.946   6.850   2.881
 6583SOL     OW20647   5.412   0.895   5.774
 6583SOL    HW120648   5.413   0.799   5.801
 6583SOL    HW220649   5.357   0.948   5.838
 6584SOL     OW20650   6.083   1.674   0.089
 6584SOL    HW120651   6.071   1.693   0.187
 6584SOL    HW220652   6.001   1.702   0.040
 6585SOL     OW20653   0.619   1.761   6.511
 6585SOL    HW120654   0.712   1.726   6.521
 6585SOL    HW220655   0.570   1.750   6.598
 6586SOL     OW20656   6.591   1.944   6.056
 6586SOL    HW120657   6.671   1.913   6.004
 6586SOL    HW220658   6.608   1.931   6.154
 6587SOL     OW20659   1.867   6.149   3.566
 6587SOL    HW120660   1.781   6.098   3.575
 6587SOL    HW220661   1.856   6.221   3.498
 6588SOL     OW20662   2.003   2.931   6.901
 6588SOL    HW120663   2.046   2.877   6.829
 6588SOL    HW220664   1.996   3.026   6.871
 6589SOL     OW20665   4.775   1.046   6.003
 6589SOL    HW120666   4.737   1.087   5.921
 6589SOL    HW220667   4.839   1.110   6.047
 6590SOL     OW20668   0.219   1.045   5.092
 6590SOL    HW120669   0.279   1.106   5.144
 6590SOL    HW220670   0.265   0.957   5.078
 6591SOL     OW20671   6.165   6.978   3.291
 6591SOL    HW120672   6.203   6.985   3.383
 6591SOL    HW220673   6.120   6.890   3.279
 6592SOL     OW20674   4.639   6.717   4.283
 6592SOL    HW120675   4.720   6.732   4.340
 6592SOL    HW220676   4.562   6.769   4.320
 6593SOL     OW20677   3.416   1.753   3.504
 6593SOL    HW120678   3.362   1.762   3.420
 6593SOL    HW220679   3.496   1.812   3.498
 6594SOL     OW20680   4.942   0.445   0.035
 6594SOL    HW120681   5.037   0.449   0.068
 6594SOL    HW220682   4.888   0.386   0.096
 6595SOL     OW20683   1.437   4.093   0.999
 6595SOL    HW120684   1.364   4.025   1.011
 6595SOL    HW220685   1.460   4.100   0.902
 6596SOL     OW20686   4.322   6.970   5.512
 6596SOL    HW120687   4.292   6.974   5.417
 6596SOL    HW220688   4.251   6.926   5.567
 6597SOL     OW20689   0.272   5.919   4.751
 6597SOL    HW120690   0.368   5.945   4.755
 6597SOL    HW220691   0.226   5.949   4.834
 6598SOL     OW20692   1.800   6.191   5.329
 6598SOL    HW120693   1.785   6.111   5.388
 6598SOL    HW220694   1.763   6.172   5.238
 6599SOL     OW20695   4.394   4.989   5.936
 6599SOL    HW120696   4.378   5.078   5.979
 6599SOL    HW220697   4.307   4.950   5.907
 6600SOL     OW20698   4.925   5.942   4.200
 6600SOL    HW120699   4.949   5.852   4.166
 6600SOL    HW220700   4.831   5.941   4.235
 6601SOL     OW20701   0.781   0.625   0.326
 6601SOL    HW120702   0.834   0.709   0.318
 6601SOL    HW220703   0.765   0.587   0.235
 6602SOL     OW20704   6.876   1.504   1.401
 6602SOL    HW120705   6.837   1.510   1.309
 6602SOL    HW220706   6.812   1.543   1.467
 6603SOL     OW20707   2.100   3.372   2.946
 6603SOL    HW120708   2.146   3.300   2.998
 6603SOL    HW220709   2.002   3.354   2.945
 6604SOL     OW20710   3.174   5.269   2.684
 6604SOL    HW120711   3.176   5.178   2.726
 6604SOL    HW220712   3.080   5.294   2.664
 6605SOL     OW20713   5.606   5.681   6.836
 6605SOL    HW120714   5.703   5.670   6.860
 6605SOL    HW220715   5.575   5.598   6.789
 6606SOL     OW20716   5.471   0.836   2.168
 6606SOL    HW120717   5.425   0.894   2.235
 6606SOL    HW220718   5.405   0.771   2.131
 6607SOL     OW20719   2.200   1.119   2.184
 6607SOL    HW120720   2.259   1.199   2.176
 6607SOL    HW220721   2.105   1.149   2.191
 6608SOL     OW20722   5.615   3.639   3.910
 6608SOL    HW120723   5.604   3.735   3.938
 6608SOL    HW220724   5.530   3.606   3.870
 6609SOL     OW20725   5.299   0.872   6.574
 6609SOL    HW120726   5.228   0.811   6.540
 6609SOL    HW220727   5.257   0.947   6.625
 6610SOL     OW20728   2.046   0.816   0.448
 6610SOL    HW120729   2.116   0.744   0.451
 6610SOL    HW220730   2.080   0.893   0.395
 6611SOL     OW20731   5.977   2.330   3.162
 6611SOL    HW120732   5.975   2.319   3.262
 6611SOL    HW220733   6.069   2.354   3.133
 6612SOL     OW20734   1.439   6.305   0.049
 6612SOL    HW120735   1.375   6.377   0.022
 6612SOL    HW220736   1.512   6.345   0.105
 6613SOL     OW20737   4.955   5.173   2.786
 6613SOL    HW120738   4.936   5.077   2.808
 6613SOL    HW220739   5.043   5.200   2.825
 6614SOL     OW20740   5.230   5.296   6.272
 6614SOL    HW120741   5.310   5.356   6.269
 6614SOL    HW220742   5.253   5.211   6.320
 6615SOL     OW20743   0.367   3.819   5.518
 6615SOL    HW120744   0.276   3.827   5.559
 6615SOL    HW220745   0.375   3.885   5.443
 6616SOL     OW20746   5.270   1.541   4.914
 6616SOL    HW120747   5.256   1.459   4.858
 6616SOL    HW220748   5.352   1.531   4.969
 6617SOL     OW20749   2.806   6.750   4.574
 6617SOL    HW120750   2.787   6.663   4.528
 6617SOL    HW220751   2.721   6.799   4.589
 6618SOL     OW20752   1.044   4.535   1.975
 6618SOL    HW120753   1.033   4.635   1.969
 6618SOL    HW220754   0.972   4.497   2.032
 6619SOL     OW20755   4.702   6.043   3.088
 6619SOL    HW120756   4.611   6.016   3.119
 6619SOL    HW220757   4.731   6.126   3.135
 6620SOL     OW20758   1.268   2.831   6.070
 6620SOL    HW120759   1.182   2.792   6.037
 6620SOL    HW220760   1.338   2.822   5.999
 6621SOL     OW20761   2.800   4.498   0.103
 6621SOL    HW120762   2.778   4.440   0.025
 6621SOL    HW220763   2.897   4.491   0.124
 6622SOL     OW20764   6.132   5.886   0.447
 6622SOL    HW120765   6.073   5.926   0.517
 6622SOL    HW220766   6.188   5.813   0.487
 6623SOL     OW20767   3.532   2.867   2.521
 6623SOL    HW120768   3.512   2.904   2.431
 6623SOL    HW220769   3.479   2.917   2.590
 6624SOL     OW20770   4.387   5.605   4.432
 6624SOL    HW120771   4.398   5.703   4.448
 6624SOL    HW220772   4.293   5.587   4.401
 6625SOL     OW20773   6.443   0.418   6.378
 6625SOL    HW120774   6.426   0.497   6.437
 6625SOL    HW220775   6.364   0.402   6.320
 6626SOL     OW20776   3.411   5.532   3.385
 6626SOL    HW120777   3.353   5.494   3.313
 6626SOL    HW220778   3.468   5.459   3.423
 6627SOL     OW20779   1.663   0.788   6.492
 6627SOL    HW120780   1.617   0.858   6.546
 6627SOL    HW220781   1.608   0.766   6.412
 6628SOL     OW20782   4.039   5.627   2.655
 6628SOL    HW120783   4.067   5.722   2.646
 6628SOL    HW220784   4.005   5.593   2.567
 6629SOL     OW20785   3.764   5.524   0.968
 6629SOL    HW120786   3.849   5.577   0.963
 6629SOL    HW220787   3.765   5.452   0.899
 6630SOL     OW20788   3.268   1.821   0.179
 6630SOL    HW120789   3.292   1.843   0.273
 6630SOL    HW220790   3.316   1.737   0.151
 6631SOL     OW20791   5.083   0.758   2.462
 6631SOL    HW120792   5.119   0.724   2.375
 6631SOL    HW220793   5.128   0.711   2.538
 6632SOL     OW20794   6.936   0.853   6.910
 6632SOL    HW120795   6.860   0.812   6.960
 6632SOL    HW220796   6.975   0.786   6.846
 6633SOL     OW20797   1.985   6.562   0.615
 6633SOL    HW120798   1.885   6.565   0.613
 6633SOL    HW220799   2.018   6.501   0.543
 6634SOL     OW20800   6.290   2.742   5.731
 6634SOL    HW120801   6.380   2.700   5.725
 6634SOL    HW220802   6.291   2.817   5.796
 6635SOL     OW20803   4.527   5.374   4.047
 6635SOL    HW120804   4.432   5.348   4.061
 6635SOL    HW220805   4.551   5.363   3.951
 6636SOL     OW20806   1.863   2.706   4.217
 6636SOL    HW120807   1.911   2.627   4.254
 6636SOL    HW220808   1.777   2.677   4.175
 6637SOL     OW20809   0.444   0.181   0.671
 6637SOL    HW120810   0.434   0.107   0.738
 6637SOL    HW220811   0.496   0.148   0.592
 6638SOL     OW20812   2.135   6.191   5.453
 6638SOL    HW120813   2.159   6.097   5.428
 6638SOL    HW220814   2.060   6.223   5.396
 6639SOL     OW20815   6.004   4.859   6.801
 6639SOL    HW120816   6.044   4.933   6.857
 6639SOL    HW220817   6.046   4.772   6.826
 6640SOL     OW20818   6.589   2.030   3.601
 6640SOL    HW120819   6.589   2.127   3.623
 6640SOL    HW220820   6.658   1.983   3.656
 6641SOL     OW20821   2.126   3.864   6.382
 6641SOL    HW120822   2.210   3.809   6.379
 6641SOL    HW220823   2.146   3.952   6.425
 6642SOL     OW20824   1.042   5.903   6.012
 6642SOL    HW120825   1.071   5.954   6.093
 6642SOL    HW220826   0.986   5.825   6.040
 6643SOL     OW20827   5.989   4.028   6.225
 6643SOL    HW120828   6.008   4.053   6.319
 6643SOL    HW220829   5.942   3.940   6.222
 6644SOL     OW20830   2.979   4.828   1.948
 6644SOL    HW120831   2.944   4.914   1.985
 6644SOL    HW220832   2.918   4.753   1.973
 6645SOL     OW20833   0.068   4.699   5.983
 6645SOL    HW120834   0.115   4.787   5.976
 6645SOL    HW220835   7.021   4.693   5.911
 6646SOL     OW20836   2.899   5.743   4.445
 6646SOL    HW120837   2.848   5.691   4.376
 6646SOL    HW220838   2.960   5.681   4.495
 6647SOL     OW20839   2.951   1.093   1.942
 6647SOL    HW120840   3.025   1.085   1.876
 6647SOL    HW220841   2.908   1.003   1.955
 6648SOL     OW20842   4.539   5.796   2.476
 6648SOL    HW120843   4.447   5.758   2.482
 6648SOL    HW220844   4.606   5.722   2.486
 6649SOL     OW20845   4.603   1.908   6.374
 6649SOL    HW120846   4.674   1.978   6.379
 6649SOL    HW220847   4.591   1.879   6.279
 6650SOL     OW20848   3.998   1.348   4.223
 6650SOL    HW120849   3.930   1.279   4.199
 6650SOL    HW220850   3.968   1.398   4.304
 6651SOL     OW20851   0.717   2.407   6.850
 6651SOL    HW120852   0.654   2.455   6.788
 6651SOL    HW220853   0.750   2.324   6.806
 6652SOL     OW20854   0.233   6.032   1.652
 6652SOL    HW120855   0.170   6.024   1.574
 6652SOL    HW220856   0.297   6.107   1.635
 6653SOL     OW20857   3.771   4.053   3.508
 6653SOL    HW120858   3.708   3.976   3.500
 6653SOL    HW220859   3.760   4.114   3.429
 6654SOL     OW20860   2.088   3.233   1.712
 6654SOL    HW120861   2.097   3.148   1.763
 6654SOL    HW220862   2.094   3.311   1.775
 6655SOL     OW20863   3.281   6.620   1.835
 6655SOL    HW120864   3.282   6.529   1.876
 6655SOL    HW220865   3.282   6.612   1.736
 6656SOL     OW20866   6.921   1.233   1.525
 6656SOL    HW120867   6.926   1.198   1.431
 6656SOL    HW220868   6.883   1.326   1.524
 6657SOL     OW20869   3.173   6.478   0.038
 6657SOL    HW120870   3.165   6.543   0.113
 6657SOL    HW220871   3.262   6.431   0.043
 6658SOL     OW20872   6.044   1.393   5.081
 6658SOL    HW120873   6.024   1.296   5.090
 6658SOL    HW220874   6.058   1.415   4.984
 6659SOL     OW20875   2.294   3.654   0.546
 6659SOL    HW120876   2.376   3.689   0.500
 6659SOL    HW220877   2.277   3.561   0.515
 6660SOL     OW20878   6.978   6.808   2.637
 6660SOL    HW120879   6.929   6.722   2.650
 6660SOL    HW220880   0.037   6.792   2.581
 6661SOL     OW20881   0.079   5.707   3.964
 6661SOL    HW120882   0.004   5.668   4.018
 6661SOL    HW220883   0.056   5.700   3.867
 6662SOL     OW20884   2.393   1.664   0.224
 6662SOL    HW120885   2.443   1.645   0.140
 6662SOL    HW220886   2.453   1.713   0.288
 6663SOL     OW20887   0.451   5.941   1.853
 6663SOL    HW120888   0.475   5.911   1.761
 6663SOL    HW220889   0.415   6.034   1.850
 6664SOL     OW20890   1.592   0.757   2.545
 6664SOL    HW120891   1.574   0.667   2.585
 6664SOL    HW220892   1.584   0.827   2.617
 6665SOL     OW20893   1.945   5.971   3.133
 6665SOL    HW120894   2.008   6.007   3.201
 6665SOL    HW220895   1.989   5.896   3.083
 6666SOL     OW20896   6.454   1.242   5.704
 6666SOL    HW120897   6.416   1.192   5.627
 6666SOL    HW220898   6.486   1.178   5.774
 6667SOL     OW20899   7.020   5.481   4.811
 6667SOL    HW120900   0.037   5.524   4.730
 6667SOL    HW220901   0.016   5.383   4.809
 6668SOL     OW20902   0.832   4.450   2.100
 6668SOL    HW120903   0.775   4.511   2.155
 6668SOL    HW220904   0.788   4.434   2.012
 6669SOL     OW20905   1.932   5.902   3.499
 6669SOL    HW120906   1.913   5.999   3.511
 6669SOL    HW220907   2.029   5.889   3.478
 6670SOL     OW20908   3.104   4.873   6.346
 6670SOL    HW120909   3.131   4.947   6.284
 6670SOL    HW220910   3.069   4.911   6.431
 6671SOL     OW20911   6.764   3.751   6.094
 6671SOL    HW120912   6.727   3.690   6.024
 6671SOL    HW220913   6.847   3.795   6.060
 6672SOL     OW20914   1.051   0.711   5.519
 6672SOL    HW120915   1.019   0.649   5.448
 6672SOL    HW220916   1.065   0.802   5.480
 6673SOL     OW20917   5.038   5.204   2.250
 6673SOL    HW120918   5.004   5.294   2.280
 6673SOL    HW220919   5.023   5.138   2.323
 6674SOL     OW20920   0.789   6.468   5.491
 6674SOL    HW120921   0.886   6.481   5.509
 6674SOL    HW220922   0.748   6.418   5.567
 6675SOL     OW20923   6.029   4.604   0.399
 6675SOL    HW120924   5.951   4.661   0.372
 6675SOL    HW220925   6.028   4.592   0.499
 6676SOL     OW20926   0.912   2.903   5.477
 6676SOL    HW120927   0.906   2.820   5.532
 6676SOL    HW220928   1.000   2.947   5.491
 6677SOL     OW20929   0.291   3.289   0.515
 6677SOL    HW120930   0.378   3.307   0.561
 6677SOL    HW220931   0.302   3.303   0.416
 6678SOL     OW20932   0.891   2.899   6.170
 6678SOL    HW120933   0.933   2.988   6.186
 6678SOL    HW220934   0.962   2.828   6.171
 6679SOL     OW20935   1.504   2.620   4.956
 6679SOL    HW120936   1.553   2.639   4.871
 6679SOL    HW220937   1.570   2.606   5.030
 6680SOL     OW20938   3.825   6.508   6.189
 6680SOL    HW120939   3.815   6.572   6.265
 6680SOL    HW220940   3.857   6.420   6.224
 6681SOL     OW20941   5.212   5.350   0.424
 6681SOL    HW120942   5.150   5.321   0.496
 6681SOL    HW220943   5.159   5.381   0.345
 6682SOL     OW20944   0.492   5.347   2.706
 6682SOL    HW120945   0.537   5.372   2.620
 6682SOL    HW220946   0.458   5.253   2.699
 6683SOL     OW20947   4.805   1.826   5.396
 6683SOL    HW120948   4.843   1.842   5.305
 6683SOL    HW220949   4.728   1.889   5.412
 6684SOL     OW20950   1.364   0.014   2.211
 6684SOL    HW120951   1.357   0.100   2.161
 6684SOL    HW220952   1.453   0.009   2.257
 6685SOL     OW20953   5.857   3.148   6.164
 6685SOL    HW120954   5.776   3.089   6.173
 6685SOL    HW220955   5.851   3.200   6.078
 6686SOL     OW20956   5.831   3.762   3.372
 6686SOL    HW120957   5.808   3.726   3.281
 6686SOL    HW220958   5.751   3.755   3.431
 6687SOL     OW20959   1.270   1.057   1.388
 6687SOL    HW120960   1.304   1.105   1.469
 6687SOL    HW220961   1.228   1.122   1.325
 6688SOL     OW20962   0.424   4.654   2.680
 6688SOL    HW120963   0.480   4.653   2.597
 6688SOL    HW220964   0.353   4.585   2.673
 6689SOL     OW20965   5.272   4.100   6.945
 6689SOL    HW120966   5.307   4.175   7.001
 6689SOL    HW220967   5.186   4.067   6.984
 6690SOL     OW20968   2.072   3.329   1.223
 6690SOL    HW120969   2.138   3.360   1.154
 6690SOL    HW220970   2.094   3.236   1.251
 6691SOL     OW20971   2.772   5.542   1.638
 6691SOL    HW120972   2.730   5.633   1.638
 6691SOL    HW220973   2.822   5.529   1.553
 6692SOL     OW20974   3.054   4.289   5.310
 6692SOL    HW120975   3.061   4.316   5.405
 6692SOL    HW220976   3.000   4.356   5.259
 6693SOL     OW20977   4.362   3.712   5.426
 6693SOL    HW120978   4.314   3.649   5.488
 6693SOL    HW220979   4.362   3.673   5.334
 6694SOL     OW20980   4.568   6.373   0.532
 6694SOL    HW120981   4.646   6.358   0.471
 6694SOL    HW220982   4.516   6.452   0.499
 6695SOL     OW20983   0.875   1.610   6.591
 6695SOL    HW120984   0.972   1.633   6.596
 6695SOL    HW220985   0.853   1.541   6.659
 6696SOL     OW20986   2.018   3.515   1.847
 6696SOL    HW120987   2.102   3.523   1.900
 6696SOL    HW220988   1.943   3.483   1.906
 6697SOL     OW20989   4.455   1.513   2.883
 6697SOL    HW120990   4.427   1.592   2.830
 6697SOL    HW220991   4.493   1.543   2.971
 6698SOL     OW20992   3.942   3.373   6.607
 6698SOL    HW120993   3.925   3.427   6.689
 6698SOL    HW220994   3.917   3.277   6.624
 6699SOL     OW20995   2.523   5.003   6.739
 6699SOL    HW120996   2.580   5.006   6.821
 6699SOL    HW220997   2.498   5.096   6.713
 6700SOL     OW20998   0.298   6.093   1.170
 6700SOL    HW120999   0.212   6.139   1.193
 6700SOL    HW221000   0.289   5.995   1.187
 6701SOL     OW21001   0.655   1.749   0.277
 6701SOL    HW121002   0.695   1.750   0.185
 6701SOL    HW221003   0.707   1.686   0.335
 6702SOL     OW21004   2.343   1.489   0.998
 6702SOL    HW121005   2.426   1.458   1.044
 6702SOL    HW221006   2.360   1.496   0.899
 6703SOL     OW21007   0.085   1.633   6.391
 6703SOL    HW121008   0.076   1.729   6.363
 6703SOL    HW221009   0.030   1.617   6.472
 6704SOL     OW21010   4.528   2.607   2.594
 6704SOL    HW121011   4.439   2.563   2.579
 6704SOL    HW221012   4.569   2.571   2.678
 6705SOL     OW21013   6.264   2.162   1.203
 6705SOL    HW121014   6.281   2.186   1.107
 6705SOL    HW221015   6.329   2.210   1.261
 6706SOL     OW21016   0.916   4.246   6.640
 6706SOL    HW121017   1.000   4.191   6.644
 6706SOL    HW221018   0.852   4.215   6.711
 6707SOL     OW21019   0.534   5.320   3.965
 6707SOL    HW121020   0.563   5.411   3.993
 6707SOL    HW221021   0.586   5.292   3.884
 6708SOL     OW21022   2.525   6.172   2.010
 6708SOL    HW121023   2.547   6.198   2.104
 6708SOL    HW221024   2.426   6.166   1.999
 6709SOL     OW21025   4.029   1.069   2.059
 6709SOL    HW121026   4.017   1.028   2.149
 6709SOL    HW221027   4.001   1.003   1.989
 6710SOL     OW21028   3.445   2.437   6.810
 6710SOL    HW121029   3.535   2.464   6.843
 6710SOL    HW221030   3.394   2.518   6.780
 6711SOL     OW21031   3.963   3.791   0.308
 6711SOL    HW121032   3.991   3.699   0.334
 6711SOL    HW221033   4.043   3.844   0.281
 6712SOL     OW21034   3.648   6.306   0.499
 6712SOL    HW121035   3.710   6.305   0.421
 6712SOL    HW221036   3.692   6.262   0.577
 6713SOL     OW21037   1.471   2.419   2.028
 6713SOL    HW121038   1.484   2.517   2.044
 6713SOL    HW221039   1.560   2.375   2.017
 6714SOL     OW21040   5.656   0.663   3.827
 6714SOL    HW121041   5.749   0.630   3.814
 6714SOL    HW221042   5.622   0.702   3.741
 6715SOL     OW21043   0.393   1.056   0.722
 6715SOL    HW121044   0.393   1.053   0.821
 6715SOL    HW221045   0.301   1.081   0.689
 6716SOL     OW21046   2.251   5.492   1.441
 6716SOL    HW121047   2.253   5.412   1.381
 6716SOL    HW221048   2.260   5.575   1.385
 6717SOL     OW21049   4.484   2.401   0.423
 6717SOL    HW121050   4.535   2.420   0.339
 6717SOL    HW221051   4.398   2.354   0.400
 6718SOL     OW21052   3.097   0.596   0.536
 6718SOL    HW121053   3.052   0.525   0.589
 6718SOL    HW221054   3.184   0.562   0.501
 6719SOL     OW21055   6.958   6.277   5.407
 6719SOL    HW121056   6.859   6.296   5.408
 6719SOL    HW221057   7.005   6.348   5.354
 6720SOL     OW21058   2.168   5.235   1.316
 6720SOL    HW121059   2.120   5.196   1.394
 6720SOL    HW221060   2.182   5.163   1.246
 6721SOL     OW21061   5.378   6.795   3.812
 6721SOL    HW121062   5.407   6.712   3.763
 6721SOL    HW221063   5.393   6.782   3.910
 6722SOL     OW21064   4.526   3.297   6.494
 6722SOL    HW121065   4.538   3.253   6.584
 6722SOL    HW221066   4.446   3.258   6.449
 6723SOL     OW21067   3.608   6.731   3.472
 6723SOL    HW121068   3.547   6.779   3.535
 6723SOL    HW221069   3.578   6.636   3.463
 6724SOL     OW21070   3.182   4.658   5.306
 6724SOL    HW121071   3.164   4.567   5.344
 6724SOL    HW221072   3.120   4.676   5.230
 6725SOL     OW21073   0.833   5.206   2.625
 6725SOL    HW121074   0.797   5.296   2.598
 6725SOL    HW221075   0.910   5.218   2.687
 6726SOL     OW21076   2.785   2.230   3.888
 6726SOL    HW121077   2.743   2.220   3.797
 6726SOL    HW221078   2.731   2.295   3.942
 6727SOL     OW21079   4.035   3.388   6.152
 6727SOL    HW121080   4.090   3.471   6.151
 6727SOL    HW221081   4.090   3.311   6.119
 6728SOL     OW21082   4.172   1.932   3.848
 6728SOL    HW121083   4.225   1.917   3.931
 6728SOL    HW221084   4.078   1.957   3.873
 6729SOL     OW21085   5.728   0.985   2.827
 6729SOL    HW121086   5.695   0.929   2.750
 6729SOL    HW221087   5.650   1.028   2.872
 6730SOL     OW21088   2.376   1.065   0.107
 6730SOL    HW121089   2.363   1.164   0.096
 6730SOL    HW221090   2.371   1.021   0.018
 6731SOL     OW21091   2.569   5.174   1.647
 6731SOL    HW121092   2.497   5.156   1.714
 6731SOL    HW221093   2.639   5.233   1.688
 6732SOL     OW21094   2.657   5.796   0.852
 6732SOL    HW121095   2.751   5.829   0.861
 6732SOL    HW221096   2.650   5.705   0.894
 6733SOL     OW21097   5.762   6.106   5.022
 6733SOL    HW121098   5.735   6.038   5.090
 6733SOL    HW221099   5.686   6.170   5.007
 6734SOL     OW21100   2.483   3.220   5.538
 6734SOL    HW121101   2.432   3.161   5.475
 6734SOL    HW221102   2.523   3.164   5.610
 6735SOL     OW21103   6.649   5.384   5.480
 6735SOL    HW121104   6.611   5.299   5.517
 6735SOL    HW221105   6.673   5.445   5.555
 6736SOL     OW21106   2.086   3.279   2.116
 6736SOL    HW121107   2.132   3.192   2.101
 6736SOL    HW221108   2.139   3.353   2.073
 6737SOL     OW21109   2.028   0.893   1.894
 6737SOL    HW121110   1.957   0.961   1.905
 6737SOL    HW221111   2.078   0.881   1.980
 6738SOL     OW21112   3.350   0.982   2.368
 6738SOL    HW121113   3.304   0.903   2.327
 6738SOL    HW221114   3.436   0.952   2.409
 6739SOL     OW21115   3.821   6.223   4.809
 6739SOL    HW121116   3.751   6.220   4.738
 6739SOL    HW221117   3.879   6.304   4.796
 6740SOL     OW21118   1.529   1.537   4.205
 6740SOL    HW121119   1.495   1.631   4.203
 6740SOL    HW221120   1.537   1.503   4.111
 6741SOL     OW21121   6.766   0.055   6.182
 6741SOL    HW121122   6.772   6.992   6.234
 6741SOL    HW221123   6.859   0.089   6.164
 6742SOL     OW21124   6.046   5.489   5.330
 6742SOL    HW121125   6.068   5.488   5.427
 6742SOL    HW221126   5.982   5.563   5.311
 6743SOL     OW21127   4.140   3.208   1.167
 6743SOL    HW121128   4.117   3.153   1.247
 6743SOL    HW221129   4.175   3.297   1.196
 6744SOL     OW21130   4.674   4.762   5.469
 6744SOL    HW121131   4.618   4.786   5.548
 6744SOL    HW221132   4.765   4.733   5.501
 6745SOL     OW21133   1.244   4.585   4.294
 6745SOL    HW121134   1.314   4.637   4.343
 6745SOL    HW221135   1.195   4.645   4.231
 6746SOL     OW21136   0.191   1.887   0.793
 6746SOL    HW121137   0.181   1.787   0.797
 6746SOL    HW221138   0.155   1.927   0.877
 6747SOL     OW21139   5.385   6.119   5.311
 6747SOL    HW121140   5.322   6.068   5.253
 6747SOL    HW221141   5.349   6.211   5.328
 6748SOL     OW21142   1.075   0.093   2.186
 6748SOL    HW121143   1.022   0.049   2.113
 6748SOL    HW221144   1.162   0.045   2.197
 6749SOL     OW21145   4.383   0.048   6.886
 6749SOL    HW121146   4.361   0.123   6.947
 6749SOL    HW221147   4.470   0.006   6.913
 6750SOL     OW21148   2.686   2.974   5.358
 6750SOL    HW121149   2.608   2.973   5.295
 6750SOL    HW221150   2.738   2.889   5.348
 6751SOL     OW21151   2.871   2.095   5.294
 6751SOL    HW121152   2.783   2.047   5.300
 6751SOL    HW221153   2.873   2.151   5.212
 6752SOL     OW21154   5.975   2.425   0.515
 6752SOL    HW121155   5.988   2.351   0.449
 6752SOL    HW221156   5.988   2.390   0.608
 6753SOL     OW21157   4.704   2.341   6.410
 6753SOL    HW121158   4.759   2.376   6.487
 6753SOL    HW221159   4.728   2.245   6.393
 6754SOL     OW21160   6.001   0.494   6.320
 6754SOL    HW121161   6.057   0.467   6.398
 6754SOL    HW221162   5.947   0.574   6.343
 6755SOL     OW21163   5.330   1.678   3.929
 6755SOL    HW121164   5.407   1.725   3.887
 6755SOL    HW221165   5.257   1.744   3.950
 6756SOL     OW21166   5.215   5.082   4.434
 6756SOL    HW121167   5.147   5.131   4.488
 6756SOL    HW221168   5.170   5.010   4.382
 6757SOL     OW21169   5.963   5.732   2.128
 6757SOL    HW121170   5.916   5.783   2.056
 6757SOL    HW221171   6.062   5.740   2.115
 6758SOL     OW21172   4.682   2.417   1.941
 6758SOL    HW121173   4.691   2.516   1.942
 6758SOL    HW221174   4.595   2.392   1.985
 6759SOL     OW21175   0.123   4.845   2.990
 6759SOL    HW121176   0.074   4.845   2.903
 6759SOL    HW221177   0.204   4.788   2.983
 6760SOL     OW21178   6.608   3.920   4.392
 6760SOL    HW121179   6.546   3.953   4.462
 6760SOL    HW221180   6.649   3.997   4.344
 6761SOL     OW21181   5.164   3.103   6.221
 6761SOL    HW121182   5.261   3.111   6.195
 6761SOL    HW221183   5.111   3.073   6.142
 6762SOL     OW21184   6.626   4.395   3.917
 6762SOL    HW121185   6.631   4.432   4.010
 6762SOL    HW221186   6.613   4.470   3.852
 6763SOL     OW21187   6.052   6.337   6.152
 6763SOL    HW121188   6.046   6.426   6.107
 6763SOL    HW221189   5.966   6.317   6.199
 6764SOL     OW21190   2.159   3.911   6.739
 6764SOL    HW121191   2.064   3.886   6.719
 6764SOL    HW221192   2.220   3.848   6.691
 6765SOL     OW21193   5.658   4.771   2.616
 6765SOL    HW121194   5.738   4.775   2.556
 6765SOL    HW221195   5.685   4.796   2.709
 6766SOL     OW21196   1.794   0.671   5.694
 6766SOL    HW121197   1.726   0.653   5.623
 6766SOL    HW221198   1.832   0.763   5.681
 6767SOL     OW21199   6.809   2.653   6.712
 6767SOL    HW121200   6.871   2.699   6.775
 6767SOL    HW221201   6.861   2.602   6.644
 6768SOL     OW21202   6.689   0.293   4.880
 6768SOL    HW121203   6.697   0.281   4.978
 6768SOL    HW221204   6.762   0.354   4.848
 6769SOL     OW21205   1.753   3.386   5.892
 6769SOL    HW121206   1.821   3.336   5.838
 6769SOL    HW221207   1.725   3.331   5.970
 6770SOL     OW21208   0.849   1.449   3.263
 6770SOL    HW121209   0.751   1.427   3.261
 6770SOL    HW221210   0.866   1.516   3.335
 6771SOL     OW21211   4.216   1.964   2.991
 6771SOL    HW121212   4.311   1.997   2.987
 6771SOL    HW221213   4.160   2.031   3.039
 6772SOL     OW21214   6.855   1.041   1.037
 6772SOL    HW121215   6.909   1.096   1.100
 6772SOL    HW221216   6.875   0.944   1.051
 6773SOL     OW21217   1.692   6.339   1.442
 6773SOL    HW121218   1.747   6.365   1.521
 6773SOL    HW221219   1.751   6.302   1.370
 6774SOL     OW21220   2.532   2.497   5.138
 6774SOL    HW121221   2.592   2.562   5.185
 6774SOL    HW221222   2.485   2.543   5.063
 6775SOL     OW21223   0.466   1.904   4.550
 6775SOL    HW121224   0.537   1.834   4.561
 6775SOL    HW221225   0.477   1.974   4.621
 6776SOL     OW21226   3.973   3.920   3.069
 6776SOL    HW121227   4.067   3.910   3.101
 6776SOL    HW221228   3.911   3.926   3.147
 6777SOL     OW21229   5.863   5.455   0.086
 6777SOL    HW121230   5.781   5.483   0.136
 6777SOL    HW221231   5.838   5.385   0.019
 6778SOL     OW21232   5.907   5.405   2.449
 6778SOL    HW121233   5.926   5.409   2.351
 6778SOL    HW221234   5.836   5.472   2.472
 6779SOL     OW21235   5.053   3.091   5.974
 6779SOL    HW121236   5.103   3.071   5.890
 6779SOL    HW221237   4.962   3.049   5.970
 6780SOL     OW21238   3.367   2.122   3.332
 6780SOL    HW121239   3.390   2.044   3.274
 6780SOL    HW221240   3.404   2.205   3.292
 6781SOL     OW21241   6.806   1.838   3.677
 6781SOL    HW121242   6.778   1.756   3.627
 6781SOL    HW221243   6.901   1.859   3.655
 6782SOL     OW21244   6.499   1.407   3.279
 6782SOL    HW121245   6.487   1.400   3.379
 6782SOL    HW221246   6.455   1.329   3.235
 6783SOL     OW21247   1.096   4.579   5.905
 6783SOL    HW121248   1.182   4.540   5.873
 6783SOL    HW221249   1.037   4.506   5.941
 6784SOL     OW21250   2.385   3.834   1.727
 6784SOL    HW121251   2.349   3.891   1.653
 6784SOL    HW221252   2.339   3.745   1.727
 6785SOL     OW21253   5.350   5.563   4.487
 6785SOL    HW121254   5.327   5.559   4.584
 6785SOL    HW221255   5.328   5.475   4.445
 6786SOL     OW21256   5.864   1.497   5.976
 6786SOL    HW121257   5.957   1.533   5.965
 6786SOL    HW221258   5.799   1.559   5.933
 6787SOL     OW21259   3.320   2.186   6.878
 6787SOL    HW121260   3.382   2.109   6.894
 6787SOL    HW221261   3.372   2.265   6.845
 6788SOL     OW21262   0.447   4.113   2.052
 6788SOL    HW121263   0.403   4.140   1.966
 6788SOL    HW221264   0.378   4.106   2.124
 6789SOL     OW21265   5.213   4.592   3.474
 6789SOL    HW121266   5.204   4.668   3.410
 6789SOL    HW221267   5.258   4.515   3.429
 6790SOL     OW21268   0.590   4.972   6.116
 6790SOL    HW121269   0.623   4.953   6.023
 6790SOL    HW221270   0.517   4.908   6.139
 6791SOL     OW21271   2.719   0.316   3.102
 6791SOL    HW121272   2.667   0.232   3.085
 6791SOL    HW221273   2.794   0.322   3.037
 6792SOL     OW21274   3.747   0.075   5.239
 6792SOL    HW121275   3.703   0.137   5.174
 6792SOL    HW221276   3.738   0.112   5.332
 6793SOL     OW21277   1.716   3.208   6.130
 6793SOL    HW121278   1.799   3.156   6.110
 6793SOL    HW221279   1.718   3.239   6.225
 6794SOL     OW21280   5.687   1.814   5.139
 6794SOL    HW121281   5.685   1.720   5.105
 6794SOL    HW221282   5.723   1.874   5.068
 6795SOL     OW21283   1.112   0.392   1.561
 6795SOL    HW121284   1.173   0.423   1.634
 6795SOL    HW221285   1.165   0.343   1.492
 6796SOL     OW21286   5.986   1.931   2.840
 6796SOL    HW121287   5.958   2.022   2.869
 6796SOL    HW221288   6.001   1.929   2.741
 6797SOL     OW21289   0.622   2.549   1.570
 6797SOL    HW121290   0.679   2.507   1.500
 6797SOL    HW221291   0.656   2.641   1.590
 6798SOL     OW21292   5.672   0.097   1.760
 6798SOL    HW121293   5.768   0.105   1.785
 6798SOL    HW221294   5.615   0.139   1.831
 6799SOL     OW21295   6.727   0.673   3.648
 6799SOL    HW121296   6.749   0.747   3.585
 6799SOL    HW221297   6.806   0.652   3.704
 6800SOL     OW21298   6.140   2.639   1.535
 6800SOL    HW121299   6.221   2.629   1.593
 6800SOL    HW221300   6.162   2.694   1.455
 6801SOL     OW21301   0.812   6.590   6.544
 6801SOL    HW121302   0.881   6.643   6.592
 6801SOL    HW221303   0.779   6.517   6.604
 6802SOL     OW21304   3.351   4.872   2.195
 6802SOL    HW121305   3.371   4.966   2.170
 6802SOL    HW221306   3.347   4.815   2.113
 6803SOL     OW21307   5.323   5.007   5.977
 6803SOL    HW121308   5.266   5.089   5.979
 6803SOL    HW221309   5.277   4.936   5.924
 6804SOL     OW21310   3.885   4.872   2.731
 6804SOL    HW121311   3.823   4.879   2.809
 6804SOL    HW221312   3.838   4.828   2.655
 6805SOL     OW21313   6.923   4.648   4.623
 6805SOL    HW121314   6.940   4.584   4.698
 6805SOL    HW221315   6.917   4.741   4.660
 6806SOL     OW21316   6.670   2.616   1.664
 6806SOL    HW121317   6.646   2.558   1.741
 6806SOL    HW221318   6.638   2.709   1.680
 6807SOL     OW21319   3.599   4.022   1.944
 6807SOL    HW121320   3.602   4.057   1.851
 6807SOL    HW221321   3.528   3.952   1.951
 6808SOL     OW21322   2.969   1.204   4.195
 6808SOL    HW121323   3.033   1.280   4.181
 6808SOL    HW221324   2.957   1.155   4.109
 6809SOL     OW21325   5.767   3.288   0.154
 6809SOL    HW121326   5.725   3.202   0.127
 6809SOL    HW221327   5.763   3.353   0.078
 6810SOL     OW21328   2.611   0.682   4.950
 6810SOL    HW121329   2.710   0.688   4.962
 6810SOL    HW221330   2.586   0.709   4.857
 6811SOL     OW21331   6.373   1.402   0.408
 6811SOL    HW121332   6.350   1.306   0.423
 6811SOL    HW221333   6.339   1.431   0.318
 6812SOL     OW21334   3.844   4.334   5.275
 6812SOL    HW121335   3.797   4.393   5.209
 6812SOL    HW221336   3.787   4.321   5.356
 6813SOL     OW21337   6.437   3.556   2.435
 6813SOL    HW121338   6.494   3.584   2.357
 6813SOL    HW221339   6.360   3.502   2.401
 6814SOL     OW21340   5.867   0.732   6.734
 6814SOL    HW121341   5.880   0.645   6.783
 6814SOL    HW221342   5.803   0.789   6.785
 6815SOL     OW21343   1.216   4.864   5.975
 6815SOL    HW121344   1.286   4.881   6.045
 6815SOL    HW221345   1.193   4.767   5.975
 6816SOL     OW21346   0.210   0.432   3.603
 6816SOL    HW121347   0.286   0.488   3.571
 6816SOL    HW221348   0.219   0.414   3.701
 6817SOL     OW21349   4.049   2.170   1.439
 6817SOL    HW121350   4.045   2.075   1.407
 6817SOL    HW221351   4.009   2.231   1.371
 6818SOL     OW21352   1.373   6.810   5.324
 6818SOL    HW121353   1.463   6.829   5.364
 6818SOL    HW221354   1.367   6.851   5.233
 6819SOL     OW21355   4.769   4.185   2.259
 6819SOL    HW121356   4.791   4.270   2.307
 6819SOL    HW221357   4.689   4.200   2.201
 6820SOL     OW21358   3.181   5.092   1.969
 6820SOL    HW121359   3.087   5.102   1.936
 6820SOL    HW221360   3.225   5.015   1.924
 6821SOL     OW21361   3.865   2.509   5.344
 6821SOL    HW121362   3.856   2.411   5.328
 6821SOL    HW221363   3.946   2.544   5.297
 6822SOL     OW21364   6.181   2.931   5.975
 6822SOL    HW121365   6.180   2.983   6.060
 6822SOL    HW221366   6.124   2.849   5.985
 6823SOL     OW21367   6.448   2.160   5.103
 6823SOL    HW121368   6.400   2.245   5.082
 6823SOL    HW221369   6.381   2.087   5.121
 6824SOL     OW21370   1.161   0.160   5.592
 6824SOL    HW121371   1.228   0.091   5.566
 6824SOL    HW221372   1.177   0.189   5.687
 6825SOL     OW21373   4.571   4.393   0.905
 6825SOL    HW121374   4.588   4.302   0.943
 6825SOL    HW221375   4.653   4.450   0.917
 6826SOL     OW21376   6.161   6.044   4.204
 6826SOL    HW121377   6.229   6.030   4.132
 6826SOL    HW221378   6.076   6.077   4.163
 6827SOL     OW21379   5.270   6.038   5.046
 6827SOL    HW121380   5.360   6.014   5.009
 6827SOL    HW221381   5.199   5.993   4.992
 6828SOL     OW21382   2.890   2.216   2.514
 6828SOL    HW121383   2.854   2.129   2.549
 6828SOL    HW221384   2.957   2.198   2.442
 6829SOL     OW21385   3.994   0.109   3.622
 6829SOL    HW121386   4.019   0.196   3.580
 6829SOL    HW221387   3.964   0.125   3.716
 6830SOL     OW21388   4.761   5.246   3.472
 6830SOL    HW121389   4.857   5.236   3.446
 6830SOL    HW221390   4.731   5.340   3.455
 6831SOL     OW21391   1.973   2.310   6.029
 6831SOL    HW121392   1.938   2.397   6.064
 6831SOL    HW221393   1.965   2.309   5.929
 6832SOL     OW21394   2.974   2.515   6.739
 6832SOL    HW121395   3.009   2.428   6.703
 6832SOL    HW221396   2.909   2.497   6.813
 6833SOL     OW21397   3.711   5.583   5.821
 6833SOL    HW121398   3.628   5.586   5.766
 6833SOL    HW221399   3.787   5.549   5.765
 6834SOL     OW21400   6.355   6.081   0.092
 6834SOL    HW121401   6.350   6.075   7.015
 6834SOL    HW221402   6.382   6.173   0.119
 6835SOL     OW21403   2.915   1.173   5.285
 6835SOL    HW121404   2.874   1.264   5.281
 6835SOL    HW221405   2.853   1.107   5.243
 6836SOL     OW21406   2.127   4.145   6.462
 6836SOL    HW121407   2.219   4.172   6.433
 6836SOL    HW221408   2.067   4.225   6.462
 6837SOL     OW21409   0.382   0.855   2.256
 6837SOL    HW121410   0.437   0.892   2.331
 6837SOL    HW221411   0.442   0.832   2.179
 6838SOL     OW21412   3.245   3.994   4.896
 6838SOL    HW121413   3.260   3.960   4.804
 6838SOL    HW221414   3.196   3.925   4.950
 6839SOL     OW21415   6.537   3.523   4.374
 6839SOL    HW121416   6.440   3.545   4.383
 6839SOL    HW221417   6.547   3.426   4.352
 6840SOL     OW21418   2.554   6.920   4.671
 6840SOL    HW121419   2.563   6.833   4.719
 6840SOL    HW221420   2.586   6.994   4.730
 6841SOL     OW21421   4.692   5.759   1.116
 6841SOL    HW121422   4.694   5.683   1.181
 6841SOL    HW221423   4.601   5.801   1.116
 6842SOL     OW21424   0.607   3.423   5.113
 6842SOL    HW121425   0.636   3.513   5.078
 6842SOL    HW221426   0.507   3.416   5.109
 6843SOL     OW21427   3.999   2.228   1.846
 6843SOL    HW121428   3.991   2.142   1.796
 6843SOL    HW221429   3.909   2.254   1.884
 6844SOL     OW21430   4.394   5.674   3.894
 6844SOL    HW121431   4.459   5.714   3.958
 6844SOL    HW221432   4.424   5.582   3.870
 6845SOL     OW21433   4.363   4.507   1.166
 6845SOL    HW121434   4.327   4.570   1.097
 6845SOL    HW221435   4.412   4.433   1.122
 6846SOL     OW21436   3.120   3.287   2.728
 6846SOL    HW121437   3.102   3.309   2.632
 6846SOL    HW221438   3.217   3.303   2.748
 6847SOL     OW21439   5.515   3.610   2.266
 6847SOL    HW121440   5.499   3.519   2.229
 6847SOL    HW221441   5.603   3.645   2.232
 6848SOL     OW21442   0.646   6.798   3.438
 6848SOL    HW121443   0.633   6.709   3.393
 6848SOL    HW221444   0.744   6.814   3.452
 6849SOL     OW21445   3.637   6.713   3.829
 6849SOL    HW121446   3.543   6.709   3.797
 6849SOL    HW221447   3.643   6.771   3.910
 6850SOL     OW21448   5.409   2.925   1.962
 6850SOL    HW121449   5.343   2.903   1.891
 6850SOL    HW221450   5.494   2.875   1.945
 6851SOL     OW21451   1.219   5.781   5.372
 6851SOL    HW121452   1.204   5.685   5.396
 6851SOL    HW221453   1.131   5.827   5.364
 6852SOL     OW21454   0.325   4.872   2.244
 6852SOL    HW121455   0.330   4.964   2.283
 6852SOL    HW221456   0.412   4.849   2.202
 6853SOL     OW21457   6.997   3.608   5.525
 6853SOL    HW121458   0.051   3.565   5.477
 6853SOL    HW221459   6.975   3.557   5.608
 6854SOL     OW21460   6.704   1.505   6.354
 6854SOL    HW121461   6.667   1.473   6.267
 6854SOL    HW221462   6.726   1.426   6.411
 6855SOL     OW21463   3.319   6.095   1.583
 6855SOL    HW121464   3.311   6.136   1.493
 6855SOL    HW221465   3.389   6.023   1.581
 6856SOL     OW21466   0.102   3.915   5.197
 6856SOL    HW121467   0.069   3.939   5.288
 6856SOL    HW221468   0.166   3.986   5.165
 6857SOL     OW21469   4.369   1.960   5.622
 6857SOL    HW121470   4.334   2.037   5.674
 6857SOL    HW221471   4.296   1.893   5.609
 6858SOL     OW21472   3.784   3.135   4.915
 6858SOL    HW121473   3.801   3.097   5.006
 6858SOL    HW221474   3.870   3.167   4.875
 6859SOL     OW21475   4.136   6.678   1.701
 6859SOL    HW121476   4.202   6.673   1.626
 6859SOL    HW221477   4.067   6.746   1.680
 6860SOL     OW21478   4.937   4.203   0.035
 6860SOL    HW121479   4.993   4.121   0.026
 6860SOL    HW221480   4.861   4.185   0.097
 6861SOL     OW21481   6.471   4.519   0.294
 6861SOL    HW121482   6.537   4.481   0.230
 6861SOL    HW221483   6.383   4.471   0.285
 6862SOL     OW21484   3.562   5.821   4.264
 6862SOL    HW121485   3.659   5.817   4.238
 6862SOL    HW221486   3.506   5.788   4.188
 6863SOL     OW21487   6.653   3.155   4.459
 6863SOL    HW121488   6.556   3.140   4.481
 6863SOL    HW221489   6.699   3.066   4.455
 6864SOL     OW21490   4.281   5.935   4.327
 6864SOL    HW121491   4.319   5.946   4.419
 6864SOL    HW221492   4.316   6.007   4.267
 6865SOL     OW21493   6.939   4.284   4.185
 6865SOL    HW121494   7.001   4.267   4.261
 6865SOL    HW221495   6.916   4.381   4.182
 6866SOL     OW21496   0.007   3.524   2.525
 6866SOL    HW121497   0.005   3.424   2.535
 6866SOL    HW221498   6.955   3.564   2.576
 6867SOL     OW21499   2.154   4.089   2.614
 6867SOL    HW121500   2.090   4.013   2.603
 6867SOL    HW221501   2.133   4.161   2.547
 6868SOL     OW21502   1.581   5.402   5.523
 6868SOL    HW121503   1.557   5.492   5.560
 6868SOL    HW221504   1.658   5.411   5.460
 6869SOL     OW21505   5.724   3.401   5.389
 6869SOL    HW121506   5.673   3.477   5.429
 6869SOL    HW221507   5.751   3.337   5.462
 6870SOL     OW21508   5.356   3.578   3.163
 6870SOL    HW121509   5.401   3.555   3.077
 6870SOL    HW221510   5.290   3.506   3.186
 6871SOL     OW21511   5.260   6.105   1.739
 6871SOL    HW121512   5.222   6.138   1.826
 6871SOL    HW221513   5.332   6.039   1.758
 6872SOL     OW21514   2.768   3.315   6.409
 6872SOL    HW121515   2.820   3.332   6.493
 6872SOL    HW221516   2.705   3.239   6.423
 6873SOL     OW21517   5.314   4.136   5.752
 6873SOL    HW121518   5.368   4.059   5.718
 6873SOL    HW221519   5.373   4.198   5.804
 6874SOL     OW21520   1.047   2.156   5.603
 6874SOL    HW121521   1.042   2.195   5.512
 6874SOL    HW221522   1.120   2.088   5.607
 6875SOL     OW21523   3.033   2.092   3.871
 6875SOL    HW121524   2.943   2.136   3.865
 6875SOL    HW221525   3.043   2.048   3.960
 6876SOL     OW21526   3.274   6.317   6.754
 6876SOL    HW121527   3.230   6.306   6.665
 6876SOL    HW221528   3.349   6.383   6.746
 6877SOL     OW21529   2.354   4.110   6.889
 6877SOL    HW121530   2.274   4.062   6.851
 6877SOL    HW221531   2.379   4.186   6.828
 6878SOL     OW21532   1.889   1.403   5.155
 6878SOL    HW121533   1.960   1.447   5.099
 6878SOL    HW221534   1.932   1.348   5.226
 6879SOL     OW21535   1.512   2.494   6.054
 6879SOL    HW121536   1.593   2.544   6.025
 6879SOL    HW221537   1.529   2.395   6.047
 6880SOL     OW21538   1.537   4.113   5.343
 6880SOL    HW121539   1.570   4.182   5.408
 6880SOL    HW221540   1.470   4.155   5.282
 6881SOL     OW21541   6.944   4.116   1.160
 6881SOL    HW121542   6.856   4.085   1.124
 6881SOL    HW221543   6.950   4.216   1.151
 6882SOL     OW21544   1.815   6.991   5.277
 6882SOL    HW121545   1.847   0.063   5.272
 6882SOL    HW221546   1.790   6.960   5.185
 6883SOL     OW21547   3.802   6.300   1.827
 6883SOL    HW121548   3.740   6.261   1.758
 6883SOL    HW221549   3.896   6.280   1.802
 6884SOL     OW21550   2.583   4.743   3.572
 6884SOL    HW121551   2.675   4.723   3.538
 6884SOL    HW221552   2.529   4.786   3.499
 6885SOL     OW21553   2.579   5.477   4.459
 6885SOL    HW121554   2.591   5.438   4.367
 6885SOL    HW221555   2.575   5.402   4.525
 6886SOL     OW21556   5.741   1.792   2.870
 6886SOL    HW121557   5.692   1.785   2.783
 6886SOL    HW221558   5.821   1.851   2.859
 6887SOL     OW21559   5.707   0.860   4.991
 6887SOL    HW121560   5.720   0.832   4.896
 6887SOL    HW221561   5.696   0.960   4.995
 6888SOL     OW21562   5.421   6.356   4.543
 6888SOL    HW121563   5.517   6.342   4.522
 6888SOL    HW221564   5.399   6.311   4.630
 6889SOL     OW21565   1.047   4.059   6.462
 6889SOL    HW121566   1.093   4.035   6.376
 6889SOL    HW221567   0.964   4.004   6.470
 6890SOL     OW21568   1.940   0.471   0.583
 6890SOL    HW121569   1.973   0.548   0.637
 6890SOL    HW221570   1.919   0.394   0.644
 6891SOL     OW21571   2.461   4.706   4.415
 6891SOL    HW121572   2.522   4.675   4.488
 6891SOL    HW221573   2.451   4.633   4.348
 6892SOL     OW21574   4.159   0.797   4.037
 6892SOL    HW121575   4.244   0.794   4.090
 6892SOL    HW221576   4.175   0.849   3.953
 6893SOL     OW21577   5.238   5.538   2.061
 6893SOL    HW121578   5.290   5.623   2.066
 6893SOL    HW221579   5.272   5.473   2.129
 6894SOL     OW21580   6.516   4.787   6.207
 6894SOL    HW121581   6.543   4.760   6.300
 6894SOL    HW221582   6.598   4.811   6.154
 6895SOL     OW21583   3.514   6.145   6.795
 6895SOL    HW121584   3.500   6.243   6.807
 6895SOL    HW221585   3.495   6.120   6.700
 6896SOL     OW21586   4.054   0.484   2.879
 6896SOL    HW121587   3.962   0.462   2.845
 6896SOL    HW221588   4.075   0.426   2.958
 6897SOL     OW21589   3.094   2.761   0.741
 6897SOL    HW121590   3.100   2.678   0.684
 6897SOL    HW221591   3.186   2.786   0.772
 6898SOL     OW21592   4.454   2.237   2.343
 6898SOL    HW121593   4.546   2.206   2.319
 6898SOL    HW221594   4.387   2.167   2.316
 6899SOL     OW21595   5.089   5.963   6.814
 6899SOL    HW121596   5.040   5.887   6.857
 6899SOL    HW221597   5.124   5.934   6.725
 6900SOL     OW21598   4.382   0.939   5.730
 6900SOL    HW121599   4.288   0.965   5.751
 6900SOL    HW221600   4.444   0.983   5.794
 6901SOL     OW21601   1.412   0.814   6.370
 6901SOL    HW121602   1.378   0.907   6.378
 6901SOL    HW221603   1.397   0.765   6.457
 6902SOL     OW21604   6.881   5.848   0.853
 6902SOL    HW121605   6.801   5.895   0.889
 6902SOL    HW221606   6.964   5.896   0.882
 6903SOL     OW21607   4.586   3.505   0.530
 6903SOL    HW121608   4.684   3.522   0.524
 6903SOL    HW221609   4.537   3.592   0.528
 6904SOL     OW21610   0.203   1.498   3.336
 6904SOL    HW121611   0.132   1.563   3.362
 6904SOL    HW221612   0.201   1.485   3.237
 6905SOL     OW21613   5.687   6.556   0.917
 6905SOL    HW121614   5.770   6.610   0.926
 6905SOL    HW221615   5.689   6.481   0.984
 6906SOL     OW21616   4.078   0.485   3.483
 6906SOL    HW121617   4.158   0.540   3.509
 6906SOL    HW221618   4.013   0.483   3.559
 6907SOL     OW21619   4.003   1.934   1.287
 6907SOL    HW121620   4.025   2.003   1.217
 6907SOL    HW221621   3.921   1.884   1.261
 6908SOL     OW21622   1.286   6.484   6.451
 6908SOL    HW121623   1.383   6.483   6.427
 6908SOL    HW221624   1.238   6.413   6.400
 6909SOL     OW21625   3.405   3.794   6.675
 6909SOL    HW121626   3.377   3.744   6.757
 6909SOL    HW221627   3.436   3.886   6.700
 6910SOL     OW21628   6.709   1.535   2.237
 6910SOL    HW121629   6.719   1.502   2.143
 6910SOL    HW221630   6.766   1.616   2.250
 6911SOL     OW21631   3.853   1.131   4.920
 6911SOL    HW121632   3.903   1.134   5.007
 6911SOL    HW221633   3.909   1.089   4.850
 6912SOL     OW21634   4.881   4.976   0.878
 6912SOL    HW121635   4.813   4.902   0.880
 6912SOL    HW221636   4.903   5.003   0.972
 6913SOL     OW21637   4.987   5.179   5.545
 6913SOL    HW121638   4.972   5.093   5.496
 6913SOL    HW221639   5.074   5.175   5.593
 6914SOL     OW21640   6.374   4.930   0.815
 6914SOL    HW121641   6.422   4.860   0.867
 6914SOL    HW221642   6.285   4.894   0.785
 6915SOL     OW21643   0.645   5.489   1.238
 6915SOL    HW121644   0.688   5.414   1.188
 6915SOL    HW221645   0.702   5.571   1.230
 6916SOL     OW21646   6.496   1.941   0.240
 6916SOL    HW121647   6.409   1.943   0.192
 6916SOL    HW221648   6.553   1.868   0.203
 6917SOL     OW21649   4.422   6.245   6.462
 6917SOL    HW121650   4.420   6.343   6.478
 6917SOL    HW221651   4.343   6.219   6.405
 6918SOL     OW21652   1.712   3.099   3.794
 6918SOL    HW121653   1.724   3.160   3.873
 6918SOL    HW221654   1.802   3.076   3.757
 6919SOL     OW21655   1.978   6.355   3.254
 6919SOL    HW121656   2.074   6.338   3.277
 6919SOL    HW221657   1.962   6.333   3.158
 6920SOL     OW21658   5.139   6.606   4.397
 6920SOL    HW121659   5.150   6.605   4.297
 6920SOL    HW221660   5.221   6.644   4.439
 6921SOL     OW21661   0.496   0.545   3.193
 6921SOL    HW121662   0.561   0.514   3.122
 6921SOL    HW221663   0.411   0.574   3.149
 6922SOL     OW21664   2.064   6.131   0.367
 6922SOL    HW121665   2.162   6.125   0.380
 6922SOL    HW221666   2.018   6.064   0.424
 6923SOL     OW21667   4.918   0.511   3.900
 6923SOL    HW121668   4.923   0.577   3.826
 6923SOL    HW221669   4.880   0.425   3.866
 6924SOL     OW21670   0.465   5.590   1.004
 6924SOL    HW121671   0.550   5.560   0.961
 6924SOL    HW221672   0.480   5.603   1.102
 6925SOL     OW21673   4.959   5.736   2.038
 6925SOL    HW121674   4.969   5.713   2.135
 6925SOL    HW221675   4.940   5.652   1.986
 6926SOL     OW21676   2.907   3.490   4.831
 6926SOL    HW121677   2.919   3.447   4.741
 6926SOL    HW221678   2.827   3.451   4.876
 6927SOL     OW21679   4.447   3.854   5.991
 6927SOL    HW121680   4.530   3.810   5.957
 6927SOL    HW221681   4.401   3.901   5.916
 6928SOL     OW21682   5.421   0.601   6.585
 6928SOL    HW121683   5.386   0.694   6.577
 6928SOL    HW221684   5.349   0.541   6.621
 6929SOL     OW21685   3.703   5.402   6.839
 6929SOL    HW121686   3.701   5.366   6.932
 6929SOL    HW221687   3.631   5.358   6.784
 6930SOL     OW21688   0.961   0.090   3.400
 6930SOL    HW121689   0.913   0.124   3.482
 6930SOL    HW221690   0.956   7.013   3.398
 6931SOL     OW21691   1.650   1.176   1.560
 6931SOL    HW121692   1.724   1.109   1.559
 6931SOL    HW221693   1.687   1.266   1.537
 6932SOL     OW21694   2.421   2.449   0.758
 6932SOL    HW121695   2.512   2.447   0.798
 6932SOL    HW221696   2.389   2.356   0.742
 6933SOL     OW21697   3.893   6.127   6.014
 6933SOL    HW121698   3.913   6.030   6.027
 6933SOL    HW221699   3.919   6.154   5.922
 6934SOL     OW21700   5.666   3.054   0.027
 6934SOL    HW121701   5.644   2.962   0.059
 6934SOL    HW221702   5.597   3.085   6.984
 6935SOL     OW21703   4.125   5.675   3.420
 6935SOL    HW121704   4.113   5.722   3.333
 6935SOL    HW221705   4.179   5.733   3.482
 6936SOL     OW21706   1.477   4.420   1.001
 6936SOL    HW121707   1.400   4.431   1.064
 6936SOL    HW221708   1.494   4.323   0.985
 6937SOL     OW21709   4.148   6.817   5.630
 6937SOL    HW121710   4.113   6.745   5.571
 6937SOL    HW221711   4.072   6.861   5.678
 6938SOL     OW21712   4.625   2.337   5.219
 6938SOL    HW121713   4.683   2.409   5.180
 6938SOL    HW221714   4.561   2.378   5.284
 6939SOL     OW21715   0.543   4.418   2.834
 6939SOL    HW121716   0.469   4.351   2.839
 6939SOL    HW221717   0.506   4.505   2.799
 6940SOL     OW21718   5.009   0.946   4.662
 6940SOL    HW121719   4.914   0.953   4.693
 6940SOL    HW221720   5.015   0.978   4.567
 6941SOL     OW21721   3.883   2.989   3.507
 6941SOL    HW121722   3.794   2.989   3.461
 6941SOL    HW221723   3.933   3.073   3.483
 6942SOL     OW21724   0.188   2.019   6.854
 6942SOL    HW121725   0.167   2.004   6.950
 6942SOL    HW221726   0.263   2.085   6.846
 6943SOL     OW21727   4.607   5.647   6.460
 6943SOL    HW121728   4.664   5.706   6.518
 6943SOL    HW221729   4.524   5.695   6.434
 6944SOL     OW21730   1.383   6.256   5.865
 6944SOL    HW121731   1.356   6.161   5.846
 6944SOL    HW221732   1.344   6.284   5.953
 6945SOL     OW21733   5.622   2.979   6.117
 6945SOL    HW121734   5.572   2.932   6.044
 6945SOL    HW221735   5.601   2.935   6.205
 6946SOL     OW21736   5.461   4.588   2.628
 6946SOL    HW121737   5.534   4.656   2.617
 6946SOL    HW221738   5.372   4.632   2.616
 6947SOL     OW21739   3.782   6.469   3.063
 6947SOL    HW121740   3.718   6.545   3.073
 6947SOL    HW221741   3.808   6.459   2.967
 6948SOL     OW21742   4.383   1.122   5.478
 6948SOL    HW121743   4.300   1.106   5.424
 6948SOL    HW221744   4.374   1.077   5.567
 6949SOL     OW21745   5.183   0.237   2.784
 6949SOL    HW121746   5.224   0.147   2.775
 6949SOL    HW221747   5.119   0.238   2.861
 6950SOL     OW21748   2.262   0.202   3.057
 6950SOL    HW121749   2.344   0.147   3.049
 6950SOL    HW221750   2.190   0.149   3.102
 6951SOL     OW21751   6.381   5.288   6.211
 6951SOL    HW121752   6.341   5.234   6.285
 6951SOL    HW221753   6.436   5.362   6.248
 6952SOL     OW21754   0.639   4.809   4.865
 6952SOL    HW121755   0.737   4.799   4.882
 6952SOL    HW221756   0.623   4.893   4.813
 6953SOL     OW21757   5.075   1.649   5.106
 6953SOL    HW121758   5.105   1.607   5.021
 6953SOL    HW221759   5.010   1.723   5.086
 6954SOL     OW21760   0.280   4.019   3.360
 6954SOL    HW121761   0.378   4.002   3.347
 6954SOL    HW221762   0.236   3.939   3.399
 6955SOL     OW21763   0.080   5.787   2.060
 6955SOL    HW121764   0.025   5.784   1.976
 6955SOL    HW221765   0.064   5.873   2.107
 6956SOL     OW21766   3.975   4.859   1.531
 6956SOL    HW121767   4.075   4.858   1.531
 6956SOL    HW221768   3.942   4.888   1.441
 6957SOL     OW21769   0.469   4.686   0.785
 6957SOL    HW121770   0.556   4.642   0.808
 6957SOL    HW221771   0.456   4.767   0.842
 6958SOL     OW21772   2.677   3.595   6.926
 6958SOL    HW121773   2.717   3.649   7.000
 6958SOL    HW221774   2.596   3.643   6.890
 6959SOL     OW21775   2.725   0.788   4.341
 6959SOL    HW121776   2.747   0.870   4.395
 6959SOL    HW221777   2.754   0.707   4.391
 6960SOL     OW21778   0.582   4.737   6.386
 6960SOL    HW121779   0.665   4.788   6.411
 6960SOL    HW221780   0.602   4.679   6.307
 6961SOL     OW21781   6.929   0.746   2.862
 6961SOL    HW121782   6.987   0.820   2.895
 6961SOL    HW221783   6.963   0.715   2.773
 6962SOL     OW21784   4.712   4.184   1.071
 6962SOL    HW121785   4.763   4.122   1.131
 6962SOL    HW221786   4.754   4.275   1.074
 6963SOL     OW21787   6.947   5.284   1.701
 6963SOL    HW121788   6.926   5.193   1.664
 6963SOL    HW221789   0.021   5.288   1.727
 6964SOL     OW21790   4.407   5.722   5.514
 6964SOL    HW121791   4.383   5.815   5.485
 6964SOL    HW221792   4.330   5.683   5.565
 6965SOL     OW21793   6.643   2.931   5.955
 6965SOL    HW121794   6.697   2.890   6.029
 6965SOL    HW221795   6.657   3.030   5.955
 6966SOL     OW21796   4.676   2.691   4.011
 6966SOL    HW121797   4.684   2.674   4.109
 6966SOL    HW221798   4.659   2.789   3.996
 6967SOL     OW21799   1.907   1.021   5.986
 6967SOL    HW121800   1.825   0.985   5.941
 6967SOL    HW221801   1.913   0.983   6.078
 6968SOL     OW21802   5.185   6.251   1.942
 6968SOL    HW121803   5.232   6.335   1.916
 6968SOL    HW221804   5.111   6.271   2.006
 6969SOL     OW21805   2.926   2.304   0.885
 6969SOL    HW121806   2.984   2.376   0.924
 6969SOL    HW221807   2.967   2.215   0.901
 6970SOL     OW21808   4.901   4.182   6.743
 6970SOL    HW121809   4.986   4.160   6.695
 6970SOL    HW221810   4.922   4.209   6.837
 6971SOL     OW21811   5.220   0.120   1.090
 6971SOL    HW121812   5.214   0.220   1.098
 6971SOL    HW221813   5.254   0.082   1.176
 6972SOL     OW21814   6.001   5.161   4.391
 6972SOL    HW121815   5.915   5.207   4.368
 6972SOL    HW221816   5.987   5.062   4.395
 6973SOL     OW21817   1.417   4.539   3.297
 6973SOL    HW121818   1.342   4.475   3.315
 6973SOL    HW221819   1.400   4.586   3.210
 6974SOL     OW21820   3.301   3.878   4.664
 6974SOL    HW121821   3.286   3.931   4.581
 6974SOL    HW221822   3.296   3.780   4.644
 6975SOL     OW21823   3.688   0.774   5.871
 6975SOL    HW121824   3.655   0.748   5.962
 6975SOL    HW221825   3.688   0.693   5.812
 6976SOL     OW21826   1.877   4.766   6.395
 6976SOL    HW121827   1.802   4.806   6.343
 6976SOL    HW221828   1.854   4.768   6.493
 6977SOL     OW21829   3.157   2.087   2.966
 6977SOL    HW121830   3.184   1.991   2.975
 6977SOL    HW221831   3.239   2.145   2.971
 6978SOL     OW21832   6.544   0.505   1.929
 6978SOL    HW121833   6.520   0.580   1.991
 6978SOL    HW221834   6.509   0.419   1.965
 6979SOL     OW21835   0.322   5.074   2.706
 6979SOL    HW121836   0.335   4.992   2.650
 6979SOL    HW221837   0.365   5.061   2.795
 6980SOL     OW21838   3.337   1.134   4.435
 6980SOL    HW121839   3.336   1.141   4.336
 6980SOL    HW221840   3.372   1.044   4.462
 6981SOL     OW21841   1.994   5.235   0.632
 6981SOL    HW121842   1.951   5.324   0.615
 6981SOL    HW221843   2.018   5.227   0.728
 6982SOL     OW21844   0.412   0.510   4.980
 6982SOL    HW121845   0.366   0.421   4.985
 6982SOL    HW221846   0.359   0.571   4.921
 6983SOL     OW21847   6.637   0.205   4.318
 6983SOL    HW121848   6.714   0.178   4.376
 6983SOL    HW221849   6.562   0.238   4.376
 6984SOL     OW21850   1.483   0.799   6.098
 6984SOL    HW121851   1.407   0.765   6.043
 6984SOL    HW221852   1.455   0.805   6.194
 6985SOL     OW21853   5.055   5.924   1.892
 6985SOL    HW121854   5.129   5.963   1.947
 6985SOL    HW221855   5.026   5.837   1.933
 6986SOL     OW21856   2.587   6.661   5.905
 6986SOL    HW121857   2.589   6.707   5.816
 6986SOL    HW221858   2.524   6.711   5.965
 6987SOL     OW21859   0.762   3.503   6.634
 6987SOL    HW121860   0.730   3.595   6.613
 6987SOL    HW221861   0.859   3.495   6.613
 6988SOL     OW21862   5.183   0.963   3.807
 6988SOL    HW121863   5.143   1.029   3.744
 6988SOL    HW221864   5.117   0.890   3.825
 6989SOL     OW21865   1.655   2.465   4.116
 6989SOL    HW121866   1.583   2.398   4.102
 6989SOL    HW221867   1.736   2.420   4.153
 6990SOL     OW21868   3.666   3.325   0.035
 6990SOL    HW121869   3.723   3.307   0.115
 6990SOL    HW221870   3.664   3.244   6.998
 6991SOL     OW21871   3.007   4.259   5.657
 6991SOL    HW121872   3.031   4.162   5.665
 6991SOL    HW221873   2.916   4.273   5.697
 6992SOL     OW21874   5.515   7.015   3.646
 6992SOL    HW121875   5.459   6.947   3.693
 6992SOL    HW221876   5.524   0.074   3.703
 6993SOL     OW21877   0.151   0.309   3.133
 6993SOL    HW121878   0.112   0.353   3.052
 6993SOL    HW221879   0.131   0.365   3.213
 6994SOL     OW21880   1.285   3.048   6.311
 6994SOL    HW121881   1.344   3.125   6.332
 6994SOL    HW221882   1.341   2.965   6.300
 6995SOL     OW21883   6.368   5.816   3.588
 6995SOL    HW121884   6.425   5.742   3.553
 6995SOL    HW221885   6.338   5.793   3.681
 6996SOL     OW21886   2.185   0.359   5.188
 6996SOL    HW121887   2.137   0.274   5.165
 6996SOL    HW221888   2.121   0.436   5.183
 6997SOL     OW21889   4.760   0.425   5.292
 6997SOL    HW121890   4.772   0.523   5.310
 6997SOL    HW221891   4.824   0.373   5.349
 6998SOL     OW21892   0.743   3.072   3.291
 6998SOL    HW121893   0.823   3.022   3.326
 6998SOL    HW221894   0.771   3.165   3.267
 6999SOL     OW21895   3.451   1.891   5.544
 6999SOL    HW121896   3.475   1.872   5.449
 6999SOL    HW221897   3.397   1.974   5.549
 7000SOL     OW21898   0.640   6.494   2.930
 7000SOL    HW121899   0.579   6.560   2.887
 7000SOL    HW221900   0.735   6.526   2.922
 7001SOL     OW21901   2.339   2.809   5.667
 7001SOL    HW121902   2.414   2.869   5.640
 7001SOL    HW221903   2.274   2.860   5.724
 7002SOL     OW21904   1.803   5.052   3.760
 7002SOL    HW121905   1.756   5.127   3.715
 7002SOL    HW221906   1.860   5.003   3.693
 7003SOL     OW21907   2.854   6.128   1.211
 7003SOL    HW121908   2.807   6.165   1.130
 7003SOL    HW221909   2.868   6.030   1.198
 7004SOL     OW21910   1.567   4.663   0.910
 7004SOL    HW121911   1.508   4.591   0.947
 7004SOL    HW221912   1.534   4.689   0.820
 7005SOL     OW21913   4.966   6.189   5.998
 7005SOL    HW121914   5.044   6.149   5.950
 7005SOL    HW221915   4.881   6.158   5.955
 7006SOL     OW21916   4.470   4.588   4.768
 7006SOL    HW121917   4.399   4.604   4.699
 7006SOL    HW221918   4.427   4.576   4.858
 7007SOL     OW21919   4.553   5.161   3.186
 7007SOL    HW121920   4.652   5.153   3.183
 7007SOL    HW221921   4.514   5.083   3.235
 7008SOL     OW21922   0.945   4.858   4.073
 7008SOL    HW121923   0.913   4.767   4.099
 7008SOL    HW221924   0.963   4.913   4.155
 7009SOL     OW21925   0.555   4.771   2.143
 7009SOL    HW121926   0.627   4.838   2.160
 7009SOL    HW221927   0.560   4.741   2.048
 7010SOL     OW21928   3.282   4.639   5.928
 7010SOL    HW121929   3.259   4.711   5.863
 7010SOL    HW221930   3.200   4.585   5.947
 7011SOL     OW21931   2.807   0.639   5.767
 7011SOL    HW121932   2.878   0.599   5.709
 7011SOL    HW221933   2.798   0.737   5.746
 7012SOL     OW21934   1.201   1.000   1.721
 7012SOL    HW121935   1.266   0.953   1.661
 7012SOL    HW221936   1.137   1.053   1.666
 7013SOL     OW21937   0.997   0.689   2.027
 7013SOL    HW121938   0.948   0.694   2.114
 7013SOL    HW221939   0.984   0.598   1.987
 7014SOL     OW21940   2.853   4.049   1.172
 7014SOL    HW121941   2.834   4.007   1.083
 7014SOL    HW221942   2.768   4.059   1.223
 7015SOL     OW21943   5.411   2.799   2.440
 7015SOL    HW121944   5.364   2.710   2.441
 7015SOL    HW221945   5.363   2.863   2.500
 7016SOL     OW21946   4.408   5.136   0.978
 7016SOL    HW121947   4.428   5.186   1.062
 7016SOL    HW221948   4.376   5.200   0.908
 7017SOL     OW21949   3.677   1.402   3.283
 7017SOL    HW121950   3.610   1.426   3.353
 7017SOL    HW221951   3.649   1.316   3.239
 7018SOL     OW21952   0.504   4.441   4.554
 7018SOL    HW121953   0.449   4.385   4.616
 7018SOL    HW221954   0.595   4.456   4.594
 7019SOL     OW21955   2.290   5.810   6.783
 7019SOL    HW121956   2.217   5.743   6.774
 7019SOL    HW221957   2.334   5.800   6.872
 7020SOL     OW21958   6.177   6.704   6.345
 7020SOL    HW121959   6.231   6.634   6.299
 7020SOL    HW221960   6.152   6.776   6.280
 7021SOL     OW21961   2.665   1.445   6.177
 7021SOL    HW121962   2.594   1.477   6.114
 7021SOL    HW221963   2.732   1.518   6.192
 7022SOL     OW21964   5.444   4.392   0.282
 7022SOL    HW121965   5.386   4.360   0.207
 7022SOL    HW221966   5.448   4.492   0.280
 7023SOL     OW21967   5.971   3.712   2.729
 7023SOL    HW121968   6.039   3.744   2.662
 7023SOL    HW221969   5.911   3.788   2.754
 7024SOL     OW21970   1.396   5.798   0.608
 7024SOL    HW121971   1.376   5.895   0.589
 7024SOL    HW221972   1.324   5.741   0.569
 7025SOL     OW21973   2.951   2.065   6.400
 7025SOL    HW121974   2.858   2.046   6.430
 7025SOL    HW221975   3.014   2.052   6.477
 7026SOL     OW21976   4.115   1.877   0.502
 7026SOL    HW121977   4.055   1.955   0.487
 7026SOL    HW221978   4.209   1.904   0.480
 7027SOL     OW21979   4.296   6.731   4.625
 7027SOL    HW121980   4.351   6.805   4.663
 7027SOL    HW221981   4.203   6.763   4.609
 7028SOL     OW21982   3.294   0.605   4.538
 7028SOL    HW121983   3.238   0.524   4.555
 7028SOL    HW221984   3.382   0.577   4.498
 7029SOL     OW21985   3.727   0.822   6.225
 7029SOL    HW121986   3.798   0.811   6.295
 7029SOL    HW221987   3.747   0.903   6.169
 7030SOL     OW21988   1.249   3.095   4.451
 7030SOL    HW121989   1.321   3.026   4.463
 7030SOL    HW221990   1.289   3.180   4.417
 7031SOL     OW21991   1.700   5.987   3.886
 7031SOL    HW121992   1.676   5.907   3.942
 7031SOL    HW221993   1.796   6.009   3.899
 7032SOL     OW21994   6.074   1.292   2.252
 7032SOL    HW121995   6.044   1.200   2.225
 7032SOL    HW221996   6.012   1.327   2.322
 7033SOL     OW21997   0.091   1.003   3.957
 7033SOL    HW121998   0.059   1.068   4.027
 7033SOL    HW221999   0.127   0.922   4.002
 7034SOL     OW22000   0.006   6.470   2.746
 7034SOL    HW122001   0.052   6.431   2.826
 7034SOL    HW222002   0.074   6.487   2.674
 7035SOL     OW22003   6.462   5.863   2.298
 7035SOL    HW122004   6.515   5.892   2.218
 7035SOL    HW222005   6.412   5.941   2.334
 7036SOL     OW22006   0.278   4.943   1.979
 7036SOL    HW122007   0.245   5.031   1.946
 7036SOL    HW222008   0.250   4.931   2.075
 7037SOL     OW22009   1.543   6.509   6.363
 7037SOL    HW122010   1.480   6.574   6.321
 7037SOL    HW222011   1.633   6.517   6.321
 7038SOL     OW22012   0.915   4.291   4.240
 7038SOL    HW122013   0.991   4.260   4.183
 7038SOL    HW222014   0.835   4.233   4.223
 7039SOL     OW22015   3.645   1.491   0.090
 7039SOL    HW122016   3.721   1.484   0.026
 7039SOL    HW222017   3.654   1.575   0.143
 7040SOL     OW22018   5.004   2.297   6.227
 7040SOL    HW122019   4.960   2.297   6.137
 7040SOL    HW222020   5.040   2.205   6.246
 7041SOL     OW22021   2.109   1.815   2.652
 7041SOL    HW122022   2.135   1.905   2.619
 7041SOL    HW222023   2.157   1.745   2.599
 7042SOL     OW22024   2.752   6.839   6.994
 7042SOL    HW122025   2.807   6.834   6.910
 7042SOL    HW222026   2.800   6.791   0.045
 7043SOL     OW22027   2.772   1.582   3.243
 7043SOL    HW122028   2.708   1.632   3.302
 7043SOL    HW222029   2.821   1.647   3.185
 7044SOL     OW22030   4.846   4.902   2.886
 7044SOL    HW122031   4.842   4.813   2.930
 7044SOL    HW222032   4.759   4.950   2.899
 7045SOL     OW22033   5.579   5.522   1.429
 7045SOL    HW122034   5.505   5.487   1.486
 7045SOL    HW222035   5.543   5.592   1.367
 7046SOL     OW22036   4.024   0.434   5.030
 7046SOL    HW122037   4.108   0.412   4.979
 7046SOL    HW222038   3.991   0.524   5.002
 7047SOL     OW22039   1.487   1.193   4.360
 7047SOL    HW122040   1.408   1.135   4.379
 7047SOL    HW222041   1.510   1.188   4.263
 7048SOL     OW22042   6.313   5.843   0.224
 7048SOL    HW122043   6.285   5.866   0.318
 7048SOL    HW222044   6.341   5.927   0.177
 7049SOL     OW22045   2.598   1.489   0.847
 7049SOL    HW122046   2.697   1.474   0.842
 7049SOL    HW222047   2.554   1.446   0.769
 7050SOL     OW22048   3.940   3.884   4.184
 7050SOL    HW122049   4.018   3.826   4.163
 7050SOL    HW222050   3.873   3.831   4.236
 7051SOL     OW22051   0.380   6.691   2.253
 7051SOL    HW122052   0.394   6.609   2.309
 7051SOL    HW222053   0.467   6.739   2.242
 7052SOL     OW22054   0.108   1.991   3.670
 7052SOL    HW122055   0.192   2.031   3.707
 7052SOL    HW222056   0.050   2.065   3.636
 7053SOL     OW22057   0.577   4.598   6.141
 7053SOL    HW122058   0.531   4.525   6.190
 7053SOL    HW222059   0.509   4.658   6.099
 7054SOL     OW22060   6.896   6.581   1.508
 7054SOL    HW122061   6.880   6.489   1.544
 7054SOL    HW222062   6.817   6.639   1.530
 7055SOL     OW22063   4.175   0.297   4.759
 7055SOL    HW122064   4.250   0.361   4.775
 7055SOL    HW222065   4.101   0.344   4.711
 7056SOL     OW22066   5.411   4.802   4.211
 7056SOL    HW122067   5.323   4.832   4.249
 7056SOL    HW222068   5.437   4.715   4.252
 7057SOL     OW22069   7.014   5.777   3.718
 7057SOL    HW122070   6.923   5.815   3.736
 7057SOL    HW222071   7.004   5.683   3.686
 7058SOL     OW22072   0.959   5.058   5.666
 7058SOL    HW122073   0.980   4.963   5.686
 7058SOL    HW222074   1.029   5.117   5.707
 7059SOL     OW22075   1.403   0.334   2.457
 7059SOL    HW122076   1.325   0.367   2.403
 7059SOL    HW222077   1.385   0.241   2.487
 7060SOL     OW22078   3.250   6.285   2.074
 7060SOL    HW122079   3.305   6.349   2.127
 7060SOL    HW222080   3.310   6.218   2.030
 7061SOL     OW22081   0.581   0.720   2.540
 7061SOL    HW122082   0.536   0.808   2.530
 7061SOL    HW222083   0.541   0.671   2.617
 7062SOL     OW22084   5.448   2.044   4.992
 7062SOL    HW122085   5.539   2.037   4.952
 7062SOL    HW222086   5.419   2.140   4.993
 7063SOL     OW22087   3.322   6.481   0.926
 7063SOL    HW122088   3.227   6.494   0.952
 7063SOL    HW222089   3.342   6.383   0.921
 7064SOL     OW22090   3.625   2.425   1.360
 7064SOL    HW122091   3.568   2.378   1.427
 7064SOL    HW222092   3.705   2.464   1.405
 7065SOL     OW22093   4.940   3.731   1.681
 7065SOL    HW122094   4.924   3.637   1.711
 7065SOL    HW222095   4.852   3.776   1.666
 7066SOL     OW22096   3.827   6.701   0.695
 7066SOL    HW122097   3.847   6.635   0.623
 7066SOL    HW222098   3.765   6.772   0.660
 7067SOL     OW22099   0.514   3.719   5.726
 7067SOL    HW122100   0.547   3.628   5.701
 7067SOL    HW222101   0.460   3.757   5.650
 7068SOL     OW22102   1.835   1.329   4.044
 7068SOL    HW122103   1.858   1.279   4.127
 7068SOL    HW222104   1.900   1.403   4.031
 7069SOL     OW22105   0.892   4.645   4.888
 7069SOL    HW122106   0.883   4.568   4.951
 7069SOL    HW222107   0.971   4.631   4.829
 7070SOL     OW22108   6.045   5.488   4.545
 7070SOL    HW122109   6.141   5.481   4.516
 7070SOL    HW222110   6.033   5.438   4.631
 7071SOL     OW22111   1.243   6.282   5.080
 7071SOL    HW122112   1.327   6.337   5.082
 7071SOL    HW222113   1.264   6.188   5.105
 7072SOL     OW22114   0.523   6.725   6.496
 7072SOL    HW122115   0.610   6.679   6.513
 7072SOL    HW222116   0.464   6.666   6.441
 7073SOL     OW22117   0.424   0.388   5.734
 7073SOL    HW122118   0.405   0.404   5.831
 7073SOL    HW222119   0.350   0.427   5.679
 7074SOL     OW22120   3.390   1.970   1.559
 7074SOL    HW122121   3.474   1.960   1.612
 7074SOL    HW222122   3.311   1.962   1.619
 7075SOL     OW22123   1.700   5.760   3.460
 7075SOL    HW122124   1.773   5.822   3.488
 7075SOL    HW222125   1.618   5.778   3.515
 7076SOL     OW22126   3.079   2.783   6.729
 7076SOL    HW122127   3.041   2.812   6.642
 7076SOL    HW222128   3.061   2.685   6.741
 7077SOL     OW22129   2.393   5.483   5.485
 7077SOL    HW122130   2.304   5.495   5.440
 7077SOL    HW222131   2.450   5.564   5.467
 7078SOL     OW22132   5.799   0.897   3.191
 7078SOL    HW122133   5.879   0.930   3.141
 7078SOL    HW222134   5.716   0.931   3.146
 7079SOL     OW22135   6.407   6.070   5.946
 7079SOL    HW122136   6.335   6.088   6.013
 7079SOL    HW222137   6.400   5.976   5.914
 7080SOL     OW22138   4.999   1.783   4.064
 7080SOL    HW122139   4.970   1.687   4.068
 7080SOL    HW222140   5.009   1.818   4.158
 7081SOL     OW22141   3.384   1.443   5.341
 7081SOL    HW122142   3.353   1.501   5.266
 7081SOL    HW222143   3.454   1.380   5.307
 7082SOL     OW22144   5.741   0.929   6.321
 7082SOL    HW122145   5.764   1.026   6.331
 7082SOL    HW222146   5.772   0.879   6.402
 7083SOL     OW22147   3.223   6.855   6.620
 7083SOL    HW122148   3.318   6.826   6.605
 7083SOL    HW222149   3.180   6.796   6.688
 7084SOL     OW22150   6.622   6.299   6.477
 7084SOL    HW122151   6.535   6.320   6.522
 7084SOL    HW222152   6.629   6.200   6.462
 7085SOL     OW22153   2.027   2.192   2.103
 7085SOL    HW122154   1.934   2.156   2.090
 7085SOL    HW222155   2.039   2.273   2.047
 7086SOL     OW22156   5.630   0.513   6.442
 7086SOL    HW122157   5.542   0.553   6.464
 7086SOL    HW222158   5.658   0.449   6.514
 7087SOL     OW22159   1.287   2.967   4.175
 7087SOL    HW122160   1.356   3.039   4.175
 7087SOL    HW222161   1.324   2.886   4.129
 7088SOL     OW22162   6.034   3.509   4.633
 7088SOL    HW122163   6.088   3.458   4.700
 7088SOL    HW222164   6.001   3.593   4.675
 7089SOL     OW22165   3.027   2.033   0.132
 7089SOL    HW122166   3.029   2.122   0.087
 7089SOL    HW222167   3.119   1.994   0.135
 7090SOL     OW22168   2.611   2.233   5.225
 7090SOL    HW122169   2.605   2.328   5.193
 7090SOL    HW222170   2.591   2.230   5.323
 7091SOL     OW22171   6.853   0.357   0.199
 7091SOL    HW122172   6.939   0.335   0.244
 7091SOL    HW222173   6.840   0.456   0.198
 7092SOL     OW22174   3.597   3.862   1.198
 7092SOL    HW122175   3.562   3.819   1.281
 7092SOL    HW222176   3.697   3.865   1.201
 7093SOL     OW22177   3.460   4.183   4.827
 7093SOL    HW122178   3.397   4.107   4.846
 7093SOL    HW222179   3.411   4.270   4.839
 7094SOL     OW22180   0.772   0.221   5.775
 7094SOL    HW122181   0.829   0.144   5.802
 7094SOL    HW222182   0.722   0.198   5.692
 7095SOL     OW22183   0.610   3.277   6.253
 7095SOL    HW122184   0.615   3.344   6.178
 7095SOL    HW222185   0.613   3.185   6.215
 7096SOL     OW22186   4.348   2.130   3.684
 7096SOL    HW122187   4.252   2.119   3.660
 7096SOL    HW222188   4.389   2.040   3.701
 7097SOL     OW22189   0.311   0.766   1.524
 7097SOL    HW122190   0.285   0.806   1.436
 7097SOL    HW222191   0.268   0.676   1.534
 7098SOL     OW22192   2.038   6.314   6.196
 7098SOL    HW122193   2.044   6.221   6.234
 7098SOL    HW222194   1.944   6.333   6.170
 7099SOL     OW22195   1.143   1.253   6.036
 7099SOL    HW122196   1.233   1.257   6.080
 7099SOL    HW222197   1.073   1.283   6.101
 7100SOL     OW22198   5.318   3.863   1.078
 7100SOL    HW122199   5.282   3.789   1.134
 7100SOL    HW222200   5.330   3.945   1.135
 7101SOL     OW22201   2.882   0.297   5.435
 7101SOL    HW122202   2.812   0.292   5.364
 7101SOL    HW222203   2.878   0.386   5.480
 7102SOL     OW22204   3.947   1.425   1.202
 7102SOL    HW122205   3.985   1.485   1.130
 7102SOL    HW222206   3.994   1.443   1.288
 7103SOL     OW22207   3.278   6.526   0.319
 7103SOL    HW122208   3.295   6.596   0.388
 7103SOL    HW222209   3.346   6.453   0.328
 7104SOL     OW22210   1.294   2.017   3.036
 7104SOL    HW122211   1.372   1.959   3.060
 7104SOL    HW222212   1.211   1.980   3.076
 7105SOL     OW22213   3.549   3.682   4.628
 7105SOL    HW122214   3.531   3.620   4.551
 7105SOL    HW222215   3.577   3.771   4.593
 7106SOL     OW22216   3.720   2.823   5.010
 7106SOL    HW122217   3.766   2.909   5.031
 7106SOL    HW222218   3.787   2.749   5.006
 7107SOL     OW22219   2.569   2.164   0.288
 7107SOL    HW122220   2.567   2.230   0.363
 7107SOL    HW222221   2.477   2.128   0.273
 7108SOL     OW22222   5.285   6.323   1.347
 7108SOL    HW122223   5.204   6.306   1.292
 7108SOL    HW222224   5.333   6.236   1.363
 7109SOL     OW22225   3.490   0.333   6.414
 7109SOL    HW122226   3.445   0.403   6.360
 7109SOL    HW222227   3.545   0.274   6.355
 7110SOL     OW22228   4.698   5.530   4.194
 7110SOL    HW122229   4.645   5.538   4.278
 7110SOL    HW222230   4.661   5.457   4.137
 7111SOL     OW22231   2.283   2.873   4.352
 7111SOL    HW122232   2.265   2.923   4.437
 7111SOL    HW222233   2.301   2.938   4.278
 7112SOL     OW22234   1.241   6.472   3.637
 7112SOL    HW122235   1.259   6.374   3.643
 7112SOL    HW222236   1.281   6.518   3.716
 7113SOL     OW22237   3.495   3.837   4.261
 7113SOL    HW122238   3.564   3.766   4.276
 7113SOL    HW222239   3.404   3.796   4.263
 7114SOL     OW22240   4.233   1.243   1.809
 7114SOL    HW122241   4.287   1.163   1.782
 7114SOL    HW222242   4.235   1.252   1.909
 7115SOL     OW22243   4.687   1.895   1.243
 7115SOL    HW122244   4.708   1.990   1.267
 7115SOL    HW222245   4.651   1.892   1.150
 7116SOL     OW22246   5.188   4.160   3.313
 7116SOL    HW122247   5.164   4.121   3.402
 7116SOL    HW222248   5.204   4.086   3.248
 7117SOL     OW22249   6.268   6.624   2.250
 7117SOL    HW122250   6.344   6.680   2.281
 7117SOL    HW222251   6.296   6.570   2.170
 7118SOL     OW22252   6.097   3.636   1.030
 7118SOL    HW122253   6.132   3.636   1.124
 7118SOL    HW222254   6.041   3.554   1.016
 7119SOL     OW22255   6.323   1.143   3.449
 7119SOL    HW122256   6.365   1.060   3.486
 7119SOL    HW222257   6.247   1.118   3.390
 7120SOL     OW22258   4.711   1.728   3.751
 7120SOL    HW122259   4.636   1.709   3.689
 7120SOL    HW222260   4.693   1.685   3.840
 7121SOL     OW22261   2.704   6.704   3.717
 7121SOL    HW122262   2.760   6.654   3.650
 7121SOL    HW222263   2.642   6.766   3.669
 7122SOL     OW22264   6.626   0.788   6.639
 7122SOL    HW122265   6.595   0.696   6.660
 7122SOL    HW222266   6.695   0.785   6.566
 7123SOL     OW22267   3.149   5.321   1.221
 7123SOL    HW122268   3.196   5.360   1.142
 7123SOL    HW222269   3.111   5.232   1.197
 7124SOL     OW22270   0.305   5.255   7.005
 7124SOL    HW122271   0.287   5.325   0.052
 7124SOL    HW222272   0.253   5.172   0.005
 7125SOL     OW22273   6.671   6.282   2.568
 7125SOL    HW122274   6.604   6.346   2.531
 7125SOL    HW222275   6.756   6.288   2.516
 7126SOL     OW22276   1.035   4.743   0.643
 7126SOL    HW122277   1.089   4.683   0.584
 7126SOL    HW222278   0.940   4.744   0.613
 7127SOL     OW22279   3.884   6.144   4.465
 7127SOL    HW122280   3.871   6.243   4.457
 7127SOL    HW222281   3.808   6.105   4.517
 7128SOL     OW22282   3.587   4.139   1.155
 7128SOL    HW122283   3.564   4.044   1.174
 7128SOL    HW222284   3.587   4.192   1.240
 7129SOL     OW22285   2.495   6.892   1.750
 7129SOL    HW122286   2.556   6.930   1.819
 7129SOL    HW222287   2.549   6.844   1.681
 7130SOL     OW22288   2.274   4.713   3.898
 7130SOL    HW122289   2.196   4.671   3.850
 7130SOL    HW222290   2.299   4.656   3.976
 7131SOL     OW22291   2.798   0.946   2.916
 7131SOL    HW122292   2.750   1.016   2.970
 7131SOL    HW222293   2.888   0.980   2.891
 7132SOL     OW22294   3.764   3.798   3.253
 7132SOL    HW122295   3.755   3.733   3.177
 7132SOL    HW222296   3.688   3.785   3.317
 7133SOL     OW22297   5.445   4.894   3.528
 7133SOL    HW122298   5.499   4.814   3.553
 7133SOL    HW222299   5.350   4.866   3.514
 7134SOL     OW22300   6.150   5.279   3.949
 7134SOL    HW122301   6.104   5.347   4.006
 7134SOL    HW222302   6.123   5.187   3.979
 7135SOL     OW22303   0.976   1.673   5.127
 7135SOL    HW122304   1.019   1.763   5.133
 7135SOL    HW222305   1.045   1.604   5.104
 7136SOL     OW22306   1.718   1.428   0.779
 7136SOL    HW122307   1.811   1.464   0.784
 7136SOL    HW222308   1.676   1.456   0.692
 7137SOL     OW22309   4.540   0.864   4.492
 7137SOL    HW122310   4.518   0.937   4.428
 7137SOL    HW222311   4.639   0.862   4.508
 7138SOL     OW22312   2.305   4.012   1.503
 7138SOL    HW122313   2.276   4.108   1.509
 7138SOL    HW222314   2.347   3.996   1.413
 7139SOL     OW22315   4.537   2.903   1.374
 7139SOL    HW122316   4.498   2.971   1.436
 7139SOL    HW222317   4.480   2.898   1.291
 7140SOL     OW22318   6.178   4.276   5.383
 7140SOL    HW122319   6.152   4.253   5.289
 7140SOL    HW222320   6.214   4.194   5.428
 7141SOL     OW22321   3.114   6.940   1.025
 7141SOL    HW122322   3.194   6.917   0.969
 7141SOL    HW222323   3.142   6.944   1.121
 7142SOL     OW22324   3.841   6.572   3.707
 7142SOL    HW122325   3.918   6.627   3.740
 7142SOL    HW222326   3.755   6.618   3.731
 7143SOL     OW22327   1.147   3.912   6.218
 7143SOL    HW122328   1.217   3.968   6.174
 7143SOL    HW222329   1.181   3.819   6.230
 7144SOL     OW22330   0.902   1.650   3.437
 7144SOL    HW122331   0.962   1.643   3.516
 7144SOL    HW222332   0.898   1.745   3.407
 7145SOL     OW22333   4.865   0.015   6.829
 7145SOL    HW122334   4.914   6.997   6.751
 7145SOL    HW222335   4.916   7.020   6.913
 7146SOL     OW22336   3.065   5.835   0.248
 7146SOL    HW122337   3.025   5.915   0.293
 7146SOL    HW222338   3.096   5.860   0.157
 7147SOL     OW22339   6.955   0.683   3.364
 7147SOL    HW122340   6.913   0.743   3.431
 7147SOL    HW222341   7.019   0.736   3.308
 7148SOL     OW22342   1.269   0.495   1.777
 7148SOL    HW122343   1.367   0.484   1.792
 7148SOL    HW222344   1.250   0.588   1.744
 7149SOL     OW22345   6.130   1.055   3.273
 7149SOL    HW122346   6.166   1.120   3.205
 7149SOL    HW222347   6.132   0.963   3.235
 7150SOL     OW22348   6.330   2.559   6.804
 7150SOL    HW122349   6.428   2.577   6.793
 7150SOL    HW222350   6.295   2.609   6.883
 7151SOL     OW22351   2.987   5.828   1.954
 7151SOL    HW122352   2.986   5.731   1.979
 7151SOL    HW222353   2.945   5.881   2.028
 7152SOL     OW22354   1.629   2.637   3.924
 7152SOL    HW122355   1.592   2.589   3.844
 7152SOL    HW222356   1.643   2.572   3.998
 7153SOL     OW22357   4.309   1.605   4.149
 7153SOL    HW122358   4.214   1.621   4.173
 7153SOL    HW222359   4.317   1.598   4.049
 7154SOL     OW22360   4.588   5.963   4.178
 7154SOL    HW122361   4.505   6.010   4.148
 7154SOL    HW222362   4.579   5.941   4.275
 7155SOL     OW22363   1.639   0.104   1.756
 7155SOL    HW122364   1.670   0.120   1.849
 7155SOL    HW222365   1.706   0.141   1.692
 7156SOL     OW22366   6.656   5.205   4.873
 7156SOL    HW122367   6.746   5.189   4.833
 7156SOL    HW222368   6.621   5.293   4.842
 7157SOL     OW22369   5.191   5.456   0.711
 7157SOL    HW122370   5.247   5.406   0.777
 7157SOL    HW222371   5.100   5.414   0.707
 7158SOL     OW22372   0.241   6.702   3.051
 7158SOL    HW122373   0.152   6.729   3.088
 7158SOL    HW222374   0.291   6.651   3.121
 7159SOL     OW22375   0.827   5.543   0.236
 7159SOL    HW122376   0.732   5.512   0.237
 7159SOL    HW222377   0.886   5.470   0.271
 7160SOL     OW22378   6.278   0.770   1.858
 7160SOL    HW122379   6.324   0.810   1.779
 7160SOL    HW222380   6.247   0.678   1.837
 7161SOL     OW22381   3.538   3.151   4.247
 7161SOL    HW122382   3.566   3.065   4.290
 7161SOL    HW222383   3.519   3.134   4.150
 7162SOL     OW22384   3.644   4.952   4.166
 7162SOL    HW122385   3.684   4.943   4.075
 7162SOL    HW222386   3.716   4.945   4.235
 7163SOL     OW22387   3.259   0.359   3.315
 7163SOL    HW122388   3.324   0.317   3.252
 7163SOL    HW222389   3.268   0.458   3.313
 7164SOL     OW22390   2.257   1.228   3.114
 7164SOL    HW122391   2.178   1.206   3.172
 7164SOL    HW222392   2.283   1.146   3.063
 7165SOL     OW22393   5.541   0.956   1.039
 7165SOL    HW122394   5.548   0.910   1.128
 7165SOL    HW222395   5.576   1.049   1.047
 7166SOL     OW22396   5.482   5.265   0.670
 7166SOL    HW122397   5.456   5.316   0.588
 7166SOL    HW222398   5.418   5.190   0.685
 7167SOL     OW22399   4.883   3.360   5.063
 7167SOL    HW122400   4.891   3.456   5.036
 7167SOL    HW222401   4.898   3.352   5.162
 7168SOL     OW22402   1.192   0.374   3.738
 7168SOL    HW122403   1.152   0.436   3.806
 7168SOL    HW222404   1.160   0.281   3.755
 7169SOL     OW22405   1.734   2.787   5.402
 7169SOL    HW122406   1.819   2.748   5.438
 7169SOL    HW222407   1.679   2.821   5.477
 7170SOL     OW22408   6.118   5.158   3.625
 7170SOL    HW122409   6.032   5.119   3.592
 7170SOL    HW222410   6.098   5.234   3.687
 7171SOL     OW22411   4.522   3.239   5.465
 7171SOL    HW122412   4.538   3.267   5.560
 7171SOL    HW222413   4.581   3.291   5.404
 7172SOL     OW22414   1.479   6.633   0.180
 7172SOL    HW122415   1.566   6.636   0.230
 7172SOL    HW222416   1.411   6.585   0.235
 7173SOL     OW22417   0.050   6.048   5.261
 7173SOL    HW122418   0.143   6.085   5.257
 7173SOL    HW222419   7.014   6.109   5.314
 7174SOL     OW22420   2.154   5.151   0.234
 7174SOL    HW122421   2.196   5.233   0.272
 7174SOL    HW222422   2.055   5.157   0.243
 7175SOL     OW22423   5.711   3.777   6.620
 7175SOL    HW122424   5.803   3.812   6.638
 7175SOL    HW222425   5.647   3.854   6.612
 7176SOL     OW22426   6.099   4.424   1.173
 7176SOL    HW122427   6.009   4.447   1.135
 7176SOL    HW222428   6.096   4.430   1.272
 7177SOL     OW22429   1.008   5.290   2.837
 7177SOL    HW122430   1.078   5.326   2.777
 7177SOL    HW222431   0.999   5.348   2.918
 7178SOL     OW22432   0.810   2.427   4.940
 7178SOL    HW122433   0.866   2.354   4.902
 7178SOL    HW222434   0.825   2.511   4.888
 7179SOL     OW22435   2.732   4.146   5.758
 7179SOL    HW122436   2.683   4.187   5.681
 7179SOL    HW222437   2.719   4.047   5.757
 7180SOL     OW22438   0.692   6.186   2.137
 7180SOL    HW122439   0.655   6.275   2.108
 7180SOL    HW222440   0.721   6.191   2.232
 7181SOL     OW22441   4.785   0.314   1.287
 7181SOL    HW122442   4.762   0.411   1.280
 7181SOL    HW222443   4.785   0.287   1.383
 7182SOL     OW22444   2.374   4.172   5.388
 7182SOL    HW122445   2.332   4.252   5.347
 7182SOL    HW222446   2.368   4.095   5.325
 7183SOL     OW22447   1.591   5.025   3.332
 7183SOL    HW122448   1.605   4.930   3.304
 7183SOL    HW222449   1.634   5.086   3.265
 7184SOL     OW22450   2.269   6.337   4.299
 7184SOL    HW122451   2.254   6.290   4.212
 7184SOL    HW222452   2.227   6.284   4.372
 7185SOL     OW22453   4.351   3.048   6.707
 7185SOL    HW122454   4.436   3.090   6.735
 7185SOL    HW222455   4.293   3.031   6.787
 7186SOL     OW22456   6.766   5.988   5.412
 7186SOL    HW122457   6.850   5.990   5.467
 7186SOL    HW222458   6.762   5.901   5.361
 7187SOL     OW22459   1.995   4.096   2.160
 7187SOL    HW122460   2.035   4.120   2.071
 7187SOL    HW222461   2.061   4.042   2.212
 7188SOL     OW22462   5.112   1.526   2.165
 7188SOL    HW122463   5.168   1.518   2.082
 7188SOL    HW222464   5.017   1.544   2.139
 7189SOL     OW22465   0.490   1.695   5.572
 7189SOL    HW122466   0.501   1.755   5.651
 7189SOL    HW222467   0.493   1.600   5.601
 7190SOL     OW22468   5.414   4.083   3.498
 7190SOL    HW122469   5.412   4.031   3.413
 7190SOL    HW222470   5.467   4.167   3.484
 7191SOL     OW22471   1.587   3.814   2.332
 7191SOL    HW122472   1.575   3.904   2.290
 7191SOL    HW222473   1.679   3.780   2.313
 7192SOL     OW22474   2.649   4.251   6.361
 7192SOL    HW122475   2.670   4.341   6.322
 7192SOL    HW222476   2.695   4.181   6.306
 7193SOL     OW22477   4.141   2.281   4.294
 7193SOL    HW122478   4.150   2.264   4.196
 7193SOL    HW222479   4.056   2.239   4.327
 7194SOL     OW22480   2.277   2.045   1.596
 7194SOL    HW122481   2.257   1.979   1.523
 7194SOL    HW222482   2.311   1.997   1.677
 7195SOL     OW22483   1.244   5.504   1.117
 7195SOL    HW122484   1.330   5.491   1.166
 7195SOL    HW222485   1.250   5.461   1.027
 7196SOL     OW22486   2.959   3.870   2.322
 7196SOL    HW122487   2.982   3.804   2.250
 7196SOL    HW222488   2.918   3.951   2.281
 7197SOL     OW22489   6.745   1.903   5.135
 7197SOL    HW122490   6.718   1.991   5.176
 7197SOL    HW222491   6.729   1.906   5.037
 7198SOL     OW22492   1.590   6.191   6.461
 7198SOL    HW122493   1.556   6.160   6.372
 7198SOL    HW222494   1.591   6.291   6.464
 7199SOL     OW22495   7.014   6.788   3.162
 7199SOL    HW122496   6.947   6.790   3.088
 7199SOL    HW222497   0.011   6.881   3.192
 7200SOL     OW22498   1.850   0.938   0.969
 7200SOL    HW122499   1.889   0.874   1.035
 7200SOL    HW222500   1.890   1.029   0.983
 7201SOL     OW22501   1.802   3.814   3.988
 7201SOL    HW122502   1.791   3.715   4.002
 7201SOL    HW222503   1.899   3.837   3.984
 7202SOL     OW22504   3.694   0.927   6.856
 7202SOL    HW122505   3.626   0.941   6.928
 7202SOL    HW222506   3.689   0.833   6.824
 7203SOL     OW22507   5.568   1.153   6.792
 7203SOL    HW122508   5.616   1.134   6.878
 7203SOL    HW222509   5.471   1.169   6.810
 7204SOL     OW22510   5.694   1.312   3.173
 7204SOL    HW122511   5.729   1.405   3.161
 7204SOL    HW222512   5.702   1.262   3.086
 7205SOL     OW22513   2.167   4.913   2.398
 7205SOL    HW122514   2.237   4.886   2.331
 7205SOL    HW222515   2.165   4.847   2.473
 7206SOL     OW22516   6.542   1.110   0.671
 7206SOL    HW122517   6.518   1.164   0.751
 7206SOL    HW222518   6.536   1.168   0.589
 7207SOL     OW22519   3.581   6.555   1.052
 7207SOL    HW122520   3.500   6.547   0.993
 7207SOL    HW222521   3.574   6.638   1.107
 7208SOL     OW22522   3.264   6.983   5.551
 7208SOL    HW122523   3.187   6.945   5.500
 7208SOL    HW222524   3.234   0.041   5.602
 7209SOL     OW22525   3.717   3.384   4.550
 7209SOL    HW122526   3.705   3.285   4.540
 7209SOL    HW222527   3.693   3.429   4.464
 7210SOL     OW22528   4.544   0.920   3.857
 7210SOL    HW122529   4.522   0.989   3.926
 7210SOL    HW222530   4.623   0.867   3.889
 7211SOL     OW22531   1.554   5.476   3.631
 7211SOL    HW122532   1.532   5.506   3.724
 7211SOL    HW222533   1.474   5.490   3.572
 7212SOL     OW22534   5.960   6.503   4.104
 7212SOL    HW122535   5.999   6.534   4.017
 7212SOL    HW222536   5.916   6.414   4.092
 7213SOL     OW22537   6.139   1.020   5.367
 7213SOL    HW122538   6.161   0.936   5.416
 7213SOL    HW222539   6.223   1.060   5.331
 7214SOL     OW22540   1.623   5.183   4.956
 7214SOL    HW122541   1.719   5.185   4.927
 7214SOL    HW222542   1.566   5.222   4.884
 7215SOL     OW22543   0.747   3.789   3.780
 7215SOL    HW122544   0.729   3.855   3.853
 7215SOL    HW222545   0.819   3.824   3.721
 7216SOL     OW22546   2.609   0.415   0.156
 7216SOL    HW122547   2.554   0.497   0.140
 7216SOL    HW222548   2.602   0.354   0.077
 7217SOL     OW22549   0.995   3.306   2.715
 7217SOL    HW122550   0.993   3.329   2.618
 7217SOL    HW222551   1.072   3.245   2.733
 7218SOL     OW22552   4.865   2.626   5.380
 7218SOL    HW122553   4.849   2.541   5.430
 7218SOL    HW222554   4.795   2.693   5.404
 7219SOL     OW22555   4.345   0.656   2.303
 7219SOL    HW122556   4.403   0.654   2.221
 7219SOL    HW222557   4.310   0.749   2.316
 7220SOL     OW22558   6.213   1.515   2.711
 7220SOL    HW122559   6.165   1.568   2.641
 7220SOL    HW222560   6.311   1.515   2.691
 7221SOL     OW22561   5.338   4.539   5.963
 7221SOL    HW122562   5.295   4.629   5.953
 7221SOL    HW222563   5.272   4.474   5.999
 7222SOL     OW22564   0.030   5.968   1.465
 7222SOL    HW122565   0.026   6.037   1.393
 7222SOL    HW222566   6.995   5.890   1.439
 7223SOL     OW22567   3.635   1.224   5.960
 7223SOL    HW122568   3.583   1.152   5.915
 7223SOL    HW222569   3.653   1.197   6.055
 7224SOL     OW22570   5.541   0.105   4.692
 7224SOL    HW122571   5.472   0.075   4.758
 7224SOL    HW222572   5.626   0.129   4.740
 7225SOL     OW22573   2.277   6.573   6.894
 7225SOL    HW122574   2.177   6.570   6.887
 7225SOL    HW222575   2.304   6.554   6.989
 7226SOL     OW22576   0.504   6.537   0.417
 7226SOL    HW122577   0.437   6.489   0.360
 7226SOL    HW222578   0.464   6.622   0.450
 7227SOL     OW22579   0.149   2.452   6.914
 7227SOL    HW122580   0.077   2.393   6.952
 7227SOL    HW222581   0.224   2.459   6.980
 7228SOL     OW22582   0.770   0.606   2.179
 7228SOL    HW122583   0.746   0.608   2.276
 7228SOL    HW222584   0.786   0.511   2.151
 7229SOL     OW22585   0.840   0.325   3.854
 7229SOL    HW122586   0.823   0.318   3.755
 7229SOL    HW222587   0.753   0.316   3.903
 7230SOL     OW22588   4.928   4.374   3.865
 7230SOL    HW122589   4.829   4.364   3.862
 7230SOL    HW222590   4.968   4.331   3.784
 7231SOL     OW22591   6.310   0.965   6.226
 7231SOL    HW122592   6.334   0.869   6.212
 7231SOL    HW222593   6.212   0.977   6.214
 7232SOL     OW22594   4.555   5.062   1.919
 7232SOL    HW122595   4.523   5.044   2.013
 7232SOL    HW222596   4.563   5.161   1.905
 7233SOL     OW22597   6.858   2.581   6.009
 7233SOL    HW122598   6.927   2.652   5.998
 7233SOL    HW222599   6.888   2.515   6.078
 7234SOL     OW22600   6.076   2.019   1.610
 7234SOL    HW122601   6.020   2.045   1.532
 7234SOL    HW222602   6.090   1.920   1.610
 7235SOL     OW22603   5.511   3.785   5.202
 7235SOL    HW122604   5.525   3.835   5.117
 7235SOL    HW222605   5.476   3.847   5.272
 7236SOL     OW22606   3.571   0.449   2.540
 7236SOL    HW122607   3.606   0.542   2.546
 7236SOL    HW222608   3.601   0.396   2.620
 7237SOL     OW22609   5.824   5.559   6.215
 7237SOL    HW122610   5.816   5.657   6.232
 7237SOL    HW222611   5.919   5.531   6.225
 7238SOL     OW22612   2.049   1.701   1.934
 7238SOL    HW122613   2.076   1.797   1.937
 7238SOL    HW222614   1.951   1.694   1.914
 7239SOL     OW22615   2.783   1.268   1.810
 7239SOL    HW122616   2.860   1.330   1.820
 7239SOL    HW222617   2.774   1.211   1.892
 7240SOL     OW22618   2.569   4.386   0.220
 7240SOL    HW122619   2.552   4.422   0.311
 7240SOL    HW222620   2.655   4.424   0.184
 7241SOL     OW22621   3.652   6.900   4.716
 7241SOL    HW122622   3.640   6.994   4.750
 7241SOL    HW222623   3.685   6.842   4.790
 7242SOL     OW22624   5.508   4.433   6.223
 7242SOL    HW122625   5.569   4.502   6.183
 7242SOL    HW222626   5.432   4.479   6.268
 7243SOL     OW22627   0.470   5.598   0.167
 7243SOL    HW122628   0.538   5.526   0.180
 7243SOL    HW222629   0.484   5.642   0.078
 7244SOL     OW22630   5.963   1.644   1.381
 7244SOL    HW122631   5.874   1.687   1.363
 7244SOL    HW222632   5.948   1.554   1.421
 7245SOL     OW22633   0.028   1.605   3.951
 7245SOL    HW122634   0.116   1.560   3.940
 7245SOL    HW222635   7.013   1.630   3.862
 7246SOL     OW22636   6.861   6.536   6.046
 7246SOL    HW122637   6.926   6.543   5.970
 7246SOL    HW222638   6.867   6.619   6.102
 7247SOL     OW22639   3.410   5.376   2.844
 7247SOL    HW122640   3.447   5.317   2.916
 7247SOL    HW222641   3.332   5.330   2.801
 7248SOL     OW22642   3.453   0.909   4.536
 7248SOL    HW122643   3.489   0.816   4.547
 7248SOL    HW222644   3.454   0.956   4.624
 7249SOL     OW22645   6.472   5.128   0.368
 7249SOL    HW122646   6.495   5.055   0.433
 7249SOL    HW222647   6.388   5.173   0.398
 7250SOL     OW22648   3.072   4.648   6.182
 7250SOL    HW122649   3.074   4.561   6.231
 7250SOL    HW222650   3.088   4.724   6.246
 7251SOL     OW22651   5.859   0.420   4.876
 7251SOL    HW122652   5.955   0.397   4.893
 7251SOL    HW222653   5.850   0.468   4.789
 7252SOL     OW22654   3.777   3.458   5.123
 7252SOL    HW122655   3.730   3.546   5.125
 7252SOL    HW222656   3.875   3.472   5.141
 7253SOL     OW22657   4.963   5.838   1.116
 7253SOL    HW122658   5.011   5.753   1.094
 7253SOL    HW222659   4.865   5.819   1.127
 7254SOL     OW22660   4.765   6.202   4.769
 7254SOL    HW122661   4.689   6.248   4.815
 7254SOL    HW222662   4.758   6.217   4.671
 7255SOL     OW22663   3.364   3.763   2.637
 7255SOL    HW122664   3.276   3.810   2.651
 7255SOL    HW222665   3.429   3.794   2.706
 7256SOL     OW22666   4.653   5.197   4.398
 7256SOL    HW122667   4.557   5.215   4.378
 7256SOL    HW222668   4.692   5.139   4.326
 7257SOL     OW22669   5.887   3.948   2.918
 7257SOL    HW122670   5.797   3.908   2.935
 7257SOL    HW222671   5.942   3.944   3.001
 7258SOL     OW22672   3.344   6.780   4.392
 7258SOL    HW122673   3.257   6.827   4.375
 7258SOL    HW222674   3.374   6.736   4.308
 7259SOL     OW22675   2.136   5.259   6.066
 7259SOL    HW122676   2.189   5.337   6.033
 7259SOL    HW222677   2.184   5.174   6.043
 7260SOL     OW22678   3.536   2.070   2.294
 7260SOL    HW122679   3.505   2.133   2.223
 7260SOL    HW222680   3.458   2.037   2.347
 7261SOL     OW22681   1.484   3.951   1.830
 7261SOL    HW122682   1.559   3.890   1.804
 7261SOL    HW222683   1.500   3.987   1.921
 7262SOL     OW22684   5.956   1.645   4.889
 7262SOL    HW122685   5.856   1.651   4.883
 7262SOL    HW222686   5.985   1.553   4.862
 7263SOL     OW22687   3.013   6.139   2.078
 7263SOL    HW122688   3.022   6.068   2.147
 7263SOL    HW222689   3.086   6.207   2.091
 7264SOL     OW22690   0.770   0.463   5.545
 7264SOL    HW122691   0.696   0.489   5.607
 7264SOL    HW222692   0.730   0.427   5.460
 7265SOL     OW22693   4.230   4.820   6.139
 7265SOL    HW122694   4.262   4.755   6.071
 7265SOL    HW222695   4.307   4.875   6.172
 7266SOL     OW22696   5.279   0.690   2.022
 7266SOL    HW122697   5.259   0.594   2.044
 7266SOL    HW222698   5.196   0.733   1.987
 7267SOL     OW22699   7.016   3.929   3.840
 7267SOL    HW122700   6.988   4.019   3.873
 7267SOL    HW222701   7.012   3.927   3.740
 7268SOL     OW22702   3.086   6.920   1.310
 7268SOL    HW122703   3.077   7.020   1.301
 7268SOL    HW222704   3.148   6.899   1.386
 7269SOL     OW22705   1.620   6.335   1.906
 7269SOL    HW122706   1.539   6.330   1.848
 7269SOL    HW222707   1.620   6.421   1.957
 7270SOL     OW22708   3.325   1.184   2.836
 7270SOL    HW122709   3.240   1.232   2.862
 7270SOL    HW222710   3.316   1.150   2.743
 7271SOL     OW22711   6.924   3.855   3.342
 7271SOL    HW122712   6.899   3.914   3.265
 7271SOL    HW222713   6.867   3.773   3.341
 7272SOL     OW22714   5.416   2.529   1.764
 7272SOL    HW122715   5.457   2.442   1.790
 7272SOL    HW222716   5.487   2.598   1.749
 7273SOL     OW22717   5.301   4.467   6.885
 7273SOL    HW122718   5.341   4.479   6.794
 7273SOL    HW222719   5.233   4.539   6.901
 7274SOL     OW22720   6.842   4.942   5.321
 7274SOL    HW122721   6.906   4.867   5.339
 7274SOL    HW222722   6.759   4.905   5.281
 7275SOL     OW22723   6.347   6.579   1.012
 7275SOL    HW122724   6.427   6.520   1.001
 7275SOL    HW222725   6.299   6.555   1.096
 7276SOL     OW22726   2.524   2.165   3.192
 7276SOL    HW122727   2.437   2.136   3.234
 7276SOL    HW222728   2.552   2.252   3.232
 7277SOL     OW22729   5.556   1.831   4.737
 7277SOL    HW122730   5.613   1.821   4.656
 7277SOL    HW222731   5.470   1.876   4.712
 7278SOL     OW22732   2.871   1.333   3.220
 7278SOL    HW122733   2.823   1.420   3.237
 7278SOL    HW222734   2.847   1.300   3.129
 7279SOL     OW22735   5.303   5.122   0.802
 7279SOL    HW122736   5.270   5.194   0.863
 7279SOL    HW222737   5.347   5.051   0.856
 7280SOL     OW22738   5.905   2.293   5.554
 7280SOL    HW122739   5.847   2.274   5.474
 7280SOL    HW222740   5.995   2.324   5.523
 7281SOL     OW22741   4.305   5.687   2.417
 7281SOL    HW122742   4.288   5.588   2.412
 7281SOL    HW222743   4.312   5.724   2.325
 7282SOL     OW22744   6.286   4.045   2.373
 7282SOL    HW122745   6.371   3.996   2.353
 7282SOL    HW222746   6.212   4.009   2.316
 7283SOL     OW22747   4.254   4.844   3.175
 7283SOL    HW122748   4.327   4.870   3.240
 7283SOL    HW222749   4.238   4.920   3.112
 7284SOL     OW22750   6.774   1.421   3.181
 7284SOL    HW122751   6.815   1.508   3.152
 7284SOL    HW222752   6.686   1.438   3.225
 7285SOL     OW22753   4.981   2.896   1.980
 7285SOL    HW122754   4.889   2.926   2.004
 7285SOL    HW222755   4.979   2.847   1.893
 7286SOL     OW22756   0.001   1.063   2.715
 7286SOL    HW122757   6.925   1.047   2.726
 7286SOL    HW222758   0.035   1.013   2.636
 7287SOL     OW22759   1.705   2.488   3.375
 7287SOL    HW122760   1.634   2.532   3.321
 7287SOL    HW222761   1.767   2.557   3.413
 7288SOL     OW22762   2.600   1.929   2.531
 7288SOL    HW122763   2.699   1.945   2.520
 7288SOL    HW222764   2.568   1.974   2.614
 7289SOL     OW22765   6.341   1.372   1.370
 7289SOL    HW122766   6.425   1.354   1.422
 7289SOL    HW222767   6.348   1.328   1.280
 7290SOL     OW22768   3.465   1.564   5.579
 7290SOL    HW122769   3.430   1.658   5.582
 7290SOL    HW222770   3.456   1.528   5.486
 7291SOL     OW22771   3.971   1.053   0.753
 7291SOL    HW122772   3.974   1.072   0.655
 7291SOL    HW222773   3.978   1.138   0.805
 7292SOL     OW22774   2.830   0.355   2.823
 7292SOL    HW122775   2.915   0.306   2.840
 7292SOL    HW222776   2.848   0.453   2.816
 7293SOL     OW22777   0.524   1.287   4.268
 7293SOL    HW122778   0.485   1.349   4.199
 7293SOL    HW222779   0.624   1.288   4.261
 7294SOL     OW22780   3.653   6.319   2.331
 7294SOL    HW122781   3.720   6.392   2.321
 7294SOL    HW222782   3.651   6.288   2.426
 7295SOL     OW22783   6.267   5.410   2.160
 7295SOL    HW122784   6.347   5.390   2.104
 7295SOL    HW222785   6.285   5.492   2.215
 7296SOL     OW22786   4.863   4.461   1.828
 7296SOL    HW122787   4.860   4.388   1.896
 7296SOL    HW222788   4.863   4.550   1.874
 7297SOL     OW22789   3.936   6.648   1.340
 7297SOL    HW122790   3.938   6.655   1.240
 7297SOL    HW222791   4.030   6.647   1.376
 7298SOL     OW22792   3.915   5.294   6.500
 7298SOL    HW122793   3.961   5.332   6.580
 7298SOL    HW222794   3.861   5.215   6.528
 7299SOL     OW22795   1.081   2.617   6.088
 7299SOL    HW122796   1.158   2.582   6.034
 7299SOL    HW222797   1.078   2.571   6.177
 7300SOL     OW22798   0.722   5.059   1.940
 7300SOL    HW122799   0.803   5.089   1.890
 7300SOL    HW222800   0.656   5.019   1.876
 7301SOL     OW22801   4.678   1.582   5.456
 7301SOL    HW122802   4.753   1.642   5.428
 7301SOL    HW222803   4.604   1.638   5.493
 7302SOL     OW22804   5.349   1.430   6.175
 7302SOL    HW122805   5.362   1.380   6.090
 7302SOL    HW222806   5.320   1.524   6.154
 7303SOL     OW22807   2.343   1.627   1.979
 7303SOL    HW122808   2.256   1.578   1.980
 7303SOL    HW222809   2.363   1.659   1.886
 7304SOL     OW22810   2.896   5.524   1.382
 7304SOL    HW122811   2.908   5.435   1.338
 7304SOL    HW222812   2.975   5.582   1.363
 7305SOL     OW22813   6.427   1.325   0.851
 7305SOL    HW122814   6.353   1.287   0.905
 7305SOL    HW222815   6.391   1.397   0.791
 7306SOL     OW22816   0.785   2.629   1.187
 7306SOL    HW122817   0.804   2.531   1.176
 7306SOL    HW222818   0.765   2.669   1.097
 7307SOL     OW22819   2.520   0.016   1.109
 7307SOL    HW122820   2.428   0.046   1.085
 7307SOL    HW222821   2.544   0.051   1.199
 7308SOL     OW22822   4.836   1.359   3.132
 7308SOL    HW122823   4.816   1.292   3.203
 7308SOL    HW222824   4.763   1.427   3.128
 7309SOL     OW22825   2.202   4.820   3.529
 7309SOL    HW122826   2.277   4.822   3.462
 7309SOL    HW222827   2.134   4.753   3.500
 7310SOL     OW22828   2.834   2.552   6.344
 7310SOL    HW122829   2.924   2.595   6.354
 7310SOL    HW222830   2.841   2.454   6.361
 7311SOL     OW22831   0.120   6.694   6.870
 7311SOL    HW122832   0.120   6.626   6.797
 7311SOL    HW222833   0.068   6.659   6.948
 7312SOL     OW22834   6.290   1.979   3.908
 7312SOL    HW122835   6.332   2.047   3.847
 7312SOL    HW222836   6.356   1.907   3.927
 7313SOL     OW22837   2.769   0.838   2.668
 7313SOL    HW122838   2.778   0.888   2.754
 7313SOL    HW222839   2.698   0.769   2.677
 7314SOL     OW22840   0.018   4.009   6.328
 7314SOL    HW122841   6.984   3.999   6.247
 7314SOL    HW222842   0.099   3.952   6.320
 7315SOL     OW22843   1.549   5.151   2.702
 7315SOL    HW122844   1.598   5.226   2.657
 7315SOL    HW222845   1.582   5.064   2.666
 7316SOL     OW22846   2.668   2.427   0.892
 7316SOL    HW122847   2.633   2.445   0.984
 7316SOL    HW222848   2.750   2.370   0.898
 7317SOL     OW22849   3.823   1.367   0.482
 7317SOL    HW122850   3.842   1.285   0.536
 7317SOL    HW222851   3.888   1.372   0.406
 7318SOL     OW22852   4.441   6.224   1.010
 7318SOL    HW122853   4.436   6.165   0.929
 7318SOL    HW222854   4.532   6.217   1.050
 7319SOL     OW22855   5.520   4.790   6.689
 7319SOL    HW122856   5.608   4.832   6.668
 7319SOL    HW222857   5.519   4.695   6.656
 7320SOL     OW22858   0.395   2.429   1.381
 7320SOL    HW122859   0.437   2.493   1.444
 7320SOL    HW222860   0.372   2.476   1.296
 7321SOL     OW22861   1.647   0.744   6.846
 7321SOL    HW122862   1.630   0.700   6.757
 7321SOL    HW222863   1.572   0.722   6.908
 7322SOL     OW22864   0.890   2.294   2.850
 7322SOL    HW122865   0.920   2.368   2.910
 7322SOL    HW222866   0.832   2.331   2.778
 7323SOL     OW22867   1.166   2.777   1.602
 7323SOL    HW122868   1.155   2.701   1.537
 7323SOL    HW222869   1.079   2.825   1.612
 7324SOL     OW22870   5.370   5.047   3.105
 7324SOL    HW122871   5.385   5.117   3.174
 7324SOL    HW222872   5.406   4.959   3.138
 7325SOL     OW22873   4.149   1.046   5.834
 7325SOL    HW122874   4.166   1.018   5.928
 7325SOL    HW222875   4.059   1.089   5.827
 7326SOL     OW22876   3.660   0.274   0.437
 7326SOL    HW122877   3.725   0.276   0.360
 7326SOL    HW222878   3.709   0.291   0.522
 7327SOL     OW22879   0.818   4.115   3.015
 7327SOL    HW122880   0.849   4.026   2.981
 7327SOL    HW222881   0.804   4.177   2.938
 7328SOL     OW22882   4.459   4.851   4.955
 7328SOL    HW122883   4.534   4.913   4.978
 7328SOL    HW222884   4.466   4.823   4.860
 7329SOL     OW22885   3.192   3.821   1.675
 7329SOL    HW122886   3.118   3.785   1.618
 7329SOL    HW222887   3.161   3.903   1.722
 7330SOL     OW22888   2.840   3.129   1.842
 7330SOL    HW122889   2.787   3.053   1.805
 7330SOL    HW222890   2.779   3.207   1.858
 7331SOL     OW22891   5.364   1.883   2.305
 7331SOL    HW122892   5.310   1.948   2.358
 7331SOL    HW222893   5.371   1.915   2.210
 7332SOL     OW22894   3.455   5.834   5.722
 7332SOL    HW122895   3.543   5.807   5.683
 7332SOL    HW222896   3.400   5.753   5.740
 7333SOL     OW22897   0.659   1.315   0.364
 7333SOL    HW122898   0.617   1.347   0.449
 7333SOL    HW222899   0.680   1.217   0.372
 7334SOL     OW22900   2.850   0.467   4.201
 7334SOL    HW122901   2.803   0.480   4.288
 7334SOL    HW222902   2.829   0.377   4.163
 7335SOL     OW22903   6.555   3.263   2.037
 7335SOL    HW122904   6.471   3.304   2.002
 7335SOL    HW222905   6.569   3.292   2.131
 7336SOL     OW22906   2.170   0.083   1.842
 7336SOL    HW122907   2.223   0.166   1.825
 7336SOL    HW222908   2.158   0.032   1.757
 7337SOL     OW22909   2.451   1.623   3.250
 7337SOL    HW122910   2.483   1.668   3.166
 7337SOL    HW222911   2.501   1.659   3.328
 7338SOL     OW22912   5.763   3.273   1.522
 7338SOL    HW122913   5.814   3.319   1.449
 7338SOL    HW222914   5.698   3.337   1.563
 7339SOL     OW22915   6.589   5.555   4.282
 7339SOL    HW122916   6.579   5.498   4.364
 7339SOL    HW222917   6.613   5.498   4.204
 7340SOL     OW22918   2.839   6.420   0.903
 7340SOL    HW122919   2.769   6.415   0.975
 7340SOL    HW222920   2.817   6.495   0.841
 7341SOL     OW22921   6.255   5.304   4.294
 7341SOL    HW122922   6.250   5.403   4.299
 7341SOL    HW222923   6.167   5.264   4.319
 7342SOL     OW22924   0.956   5.433   1.082
 7342SOL    HW122925   1.043   5.470   1.115
 7342SOL    HW222926   0.946   5.339   1.112
 7343SOL     OW22927   5.289   3.531   2.513
 7343SOL    HW122928   5.273   3.437   2.542
 7343SOL    HW222929   5.386   3.552   2.519
 7344SOL     OW22930   2.042   0.686   0.060
 7344SOL    HW122931   1.977   0.627   0.012
 7344SOL    HW222932   2.042   0.663   0.157
 7345SOL     OW22933   3.957   5.363   6.767
 7345SOL    HW122934   3.863   5.384   6.793
 7345SOL    HW222935   4.005   5.324   6.846
 7346SOL     OW22936   3.965   4.749   1.846
 7346SOL    HW122937   4.057   4.713   1.832
 7346SOL    HW222938   3.954   4.778   1.941
 7347SOL     OW22939   6.098   1.938   3.517
 7347SOL    HW122940   6.169   1.942   3.447
 7347SOL    HW222941   6.122   1.869   3.585
 7348SOL     OW22942   0.920   2.246   3.800
 7348SOL    HW122943   0.823   2.224   3.791
 7348SOL    HW222944   0.966   2.172   3.850
 7349SOL     OW22945   3.609   1.604   0.774
 7349SOL    HW122946   3.585   1.563   0.686
 7349SOL    HW222947   3.674   1.679   0.759
 7350SOL     OW22948   2.206   0.624   2.910
 7350SOL    HW122949   2.197   0.540   2.963
 7350SOL    HW222950   2.138   0.690   2.940
 7351SOL     OW22951   3.820   4.698   6.762
 7351SOL    HW122952   3.886   4.656   6.824
 7351SOL    HW222953   3.759   4.759   6.813
 7352SOL     OW22954   6.450   1.123   2.831
 7352SOL    HW122955   6.524   1.172   2.785
 7352SOL    HW222956   6.466   1.025   2.825
 7353SOL     OW22957   5.063   2.820   4.716
 7353SOL    HW122958   5.133   2.813   4.645
 7353SOL    HW222959   4.996   2.889   4.691
 7354SOL     OW22960   6.077   4.639   5.568
 7354SOL    HW122961   6.062   4.567   5.636
 7354SOL    HW222962   6.019   4.623   5.489
 7355SOL     OW22963   1.835   4.884   2.228
 7355SOL    HW122964   1.879   4.817   2.169
 7355SOL    HW222965   1.800   4.959   2.172
 7356SOL     OW22966   6.059   1.420   5.695
 7356SOL    HW122967   6.088   1.346   5.756
 7356SOL    HW222968   6.081   1.508   5.737
 7357SOL     OW22969   6.907   1.684   0.011
 7357SOL    HW122970   6.920   1.593   6.996
 7357SOL    HW222971   6.992   1.715   0.053
 7358SOL     OW22972   2.896   0.810   4.102
 7358SOL    HW122973   2.843   0.749   4.045
 7358SOL    HW222974   2.858   0.810   4.195
 7359SOL     OW22975   3.499   2.868   3.480
 7359SOL    HW122976   3.561   2.944   3.463
 7359SOL    HW222977   3.523   2.824   3.566
 7360SOL     OW22978   6.883   3.013   5.402
 7360SOL    HW122979   6.870   3.053   5.492
 7360SOL    HW222980   6.953   3.063   5.352
 7361SOL     OW22981   5.166   6.601   2.484
 7361SOL    HW122982   5.131   6.686   2.445
 7361SOL    HW222983   5.179   6.534   2.410
 7362SOL     OW22984   1.829   6.148   5.866
 7362SOL    HW122985   1.789   6.145   5.957
 7362SOL    HW222986   1.926   6.172   5.872
 7363SOL     OW22987   5.108   2.880   6.363
 7363SOL    HW122988   5.172   2.874   6.440
 7363SOL    HW222989   5.123   2.967   6.315
 7364SOL     OW22990   4.575   6.603   1.832
 7364SOL    HW122991   4.667   6.569   1.851
 7364SOL    HW222992   4.580   6.677   1.765
 7365SOL     OW22993   3.203   0.780   2.236
 7365SOL    HW122994   3.133   0.815   2.173
 7365SOL    HW222995   3.197   0.680   2.239
 7366SOL     OW22996   0.590   5.359   0.232
 7366SOL    HW122997   0.499   5.335   0.267
 7366SOL    HW222998   0.643   5.275   0.220
 7367SOL     OW22999   4.948   3.399   0.155
 7367SOL    HW123000   4.935   3.397   0.056
 7367SOL    HW223001   5.025   3.340   0.180
 7368SOL     OW23002   3.259   4.089   3.804
 7368SOL    HW123003   3.185   4.063   3.742
 7368SOL    HW223004   3.346   4.081   3.756
 7369SOL     OW23005   4.152   3.054   6.900
 7369SOL    HW123006   4.124   3.149   6.886
 7369SOL    HW223007   4.072   2.994   6.895
 7370SOL     OW23008   2.340   5.849   1.360
 7370SOL    HW123009   2.268   5.825   1.294
 7370SOL    HW223010   2.315   5.934   1.407
 7371SOL     OW23011   2.891   5.383   5.228
 7371SOL    HW123012   2.840   5.336   5.156
 7371SOL    HW223013   2.982   5.342   5.237
 7372SOL     OW23014   3.221   6.534   5.778
 7372SOL    HW123015   3.173   6.565   5.696
 7372SOL    HW223016   3.281   6.458   5.754
 7373SOL     OW23017   3.726   0.906   1.459
 7373SOL    HW123018   3.707   0.906   1.558
 7373SOL    HW223019   3.669   0.974   1.414
 7374SOL     OW23020   1.439   2.822   5.828
 7374SOL    HW123021   1.348   2.845   5.794
 7374SOL    HW223022   1.477   2.746   5.775
 7375SOL     OW23023   1.475   0.330   3.573
 7375SOL    HW123024   1.425   0.260   3.624
 7375SOL    HW223025   1.448   0.327   3.477
 7376SOL     OW23026   2.394   3.948   5.652
 7376SOL    HW123027   2.446   4.029   5.679
 7376SOL    HW223028   2.420   3.920   5.560
 7377SOL     OW23029   4.241   4.667   0.961
 7377SOL    HW123030   4.266   4.611   0.882
 7377SOL    HW223031   4.167   4.729   0.936
 7378SOL     OW23032   6.603   1.350   5.328
 7378SOL    HW123033   6.681   1.400   5.365
 7378SOL    HW223034   6.590   1.265   5.379
 7379SOL     OW23035   3.045   1.444   1.828
 7379SOL    HW123036   3.140   1.438   1.798
 7379SOL    HW223037   3.039   1.502   1.909
 7380SOL     OW23038   0.021   3.608   5.936
 7380SOL    HW123039   7.023   3.703   5.956
 7380SOL    HW223040   0.119   3.599   5.916
 7381SOL     OW23041   5.250   2.129   0.892
 7381SOL    HW123042   5.253   2.118   0.991
 7381SOL    HW223043   5.302   2.056   0.848
 7382SOL     OW23044   0.113   6.144   3.875
 7382SOL    HW123045   0.177   6.119   3.802
 7382SOL    HW223046   0.023   6.104   3.855
 7383SOL     OW23047   6.955   5.425   3.375
 7383SOL    HW123048   0.011   5.475   3.340
 7383SOL    HW223049   6.948   5.437   3.474
 7384SOL     OW23050   5.425   0.167   2.276
 7384SOL    HW123051   5.483   0.244   2.302
 7384SOL    HW223052   5.333   0.180   2.312
 7385SOL     OW23053   4.731   6.364   1.582
 7385SOL    HW123054   4.756   6.458   1.605
 7385SOL    HW223055   4.760   6.345   1.488
 7386SOL     OW23056   0.666   2.519   5.670
 7386SOL    HW123057   0.597   2.520   5.598
 7386SOL    HW223058   0.661   2.605   5.722
 7387SOL     OW23059   3.969   6.088   3.253
 7387SOL    HW123060   3.943   6.059   3.345
 7387SOL    HW223061   4.060   6.129   3.256
 7388SOL     OW23062   6.711   5.082   3.872
 7388SOL    HW123063   6.628   5.092   3.927
 7388SOL    HW223064   6.701   5.134   3.787
 7389SOL     OW23065   1.192   3.794   6.492
 7389SOL    HW123066   1.290   3.780   6.482
 7389SOL    HW223067   1.173   3.891   6.506
 7390SOL     OW23068   2.191   6.390   5.125
 7390SOL    HW123069   2.155   6.441   5.047
 7390SOL    HW223070   2.167   6.437   5.210
 7391SOL     OW23071   6.141   2.942   6.539
 7391SOL    HW123072   6.107   2.935   6.445
 7391SOL    HW223073   6.169   2.852   6.571
 7392SOL     OW23074   1.875   4.495   4.199
 7392SOL    HW123075   1.807   4.469   4.267
 7392SOL    HW223076   1.844   4.470   4.107
 7393SOL     OW23077   0.560   3.921   1.775
 7393SOL    HW123078   0.660   3.914   1.765
 7393SOL    HW223079   0.537   3.917   1.872
 7394SOL     OW23080   3.194   4.066   6.553
 7394SOL    HW123081   3.189   4.010   6.471
 7394SOL    HW223082   3.107   4.059   6.603
 7395SOL     OW23083   1.412   6.969   0.731
 7395SOL    HW123084   1.413   6.996   0.827
 7395SOL    HW223085   1.340   6.900   0.717
 7396SOL     OW23086   0.794   0.003   6.558
 7396SOL    HW123087   0.882   0.020   6.515
 7396SOL    HW223088   0.806   7.016   6.657
 7397SOL     OW23089   6.176   5.208   4.621
 7397SOL    HW123090   6.275   5.216   4.615
 7397SOL    HW223091   6.138   5.188   4.531
 7398SOL     OW23092   4.060   4.963   3.492
 7398SOL    HW123093   4.046   5.037   3.559
 7398SOL    HW223094   4.134   4.904   3.523
 7399SOL     OW23095   4.999   3.783   5.575
 7399SOL    HW123096   5.047   3.824   5.498
 7399SOL    HW223097   4.998   3.846   5.653
 7400SOL     OW23098   2.489   5.270   6.568
 7400SOL    HW123099   2.434   5.316   6.639
 7400SOL    HW223100   2.442   5.278   6.480
 7401SOL     OW23101   6.665   1.889   4.079
 7401SOL    HW123102   6.610   1.836   4.016
 7401SOL    HW223103   6.742   1.833   4.112
 7402SOL     OW23104   2.870   0.284   3.517
 7402SOL    HW123105   2.894   0.331   3.602
 7402SOL    HW223106   2.881   0.346   3.440
 7403SOL     OW23107   1.598   3.479   2.514
 7403SOL    HW123108   1.593   3.384   2.544
 7403SOL    HW223109   1.587   3.483   2.414
 7404SOL     OW23110   1.403   0.762   1.872
 7404SOL    HW123111   1.485   0.708   1.855
 7404SOL    HW223112   1.347   0.717   1.941
 7405SOL     OW23113   2.110   4.920   6.143
 7405SOL    HW123114   2.024   4.966   6.123
 7405SOL    HW223115   2.125   4.920   6.242
 7406SOL     OW23116   0.361   4.995   1.604
 7406SOL    HW123117   0.397   5.076   1.558
 7406SOL    HW223118   0.279   4.964   1.557
 7407SOL     OW23119   1.843   6.876   6.243
 7407SOL    HW123120   1.817   6.892   6.338
 7407SOL    HW223121   1.931   6.921   6.224
 7408SOL     OW23122   1.264   3.996   5.131
 7408SOL    HW123123   1.331   3.922   5.140
 7408SOL    HW223124   1.241   4.031   5.222
 7409SOL     OW23125   2.897   5.199   5.502
 7409SOL    HW123126   2.896   5.234   5.409
 7409SOL    HW223127   2.941   5.266   5.563
 7410SOL     OW23128   6.711   4.878   0.830
 7410SOL    HW123129   6.693   4.849   0.736
 7410SOL    HW223130   6.665   4.965   0.848
 7411SOL     OW23131   4.050   6.585   4.985
 7411SOL    HW123132   4.122   6.585   5.055
 7411SOL    HW223133   3.962   6.567   5.029
 7412SOL     OW23134   1.195   1.741   0.253
 7412SOL    HW123135   1.178   1.834   0.220
 7412SOL    HW223136   1.293   1.726   0.258
 7413SOL     OW23137   6.846   3.278   4.627
 7413SOL    HW123138   6.777   3.256   4.558
 7413SOL    HW223139   6.807   3.340   4.695
 7414SOL     OW23140   6.873   6.204   2.956
 7414SOL    HW123141   6.800   6.254   2.909
 7414SOL    HW223142   6.902   6.254   3.037
 7415SOL     OW23143   2.174   2.211   3.367
 7415SOL    HW123144   2.254   2.220   3.427
 7415SOL    HW223145   2.139   2.302   3.344
 7416SOL     OW23146   4.158   6.934   4.331
 7416SOL    HW123147   4.068   6.902   4.361
 7416SOL    HW223148   4.149   6.981   4.243
 7417SOL     OW23149   0.761   6.073   0.391
 7417SOL    HW123150   0.846   6.115   0.360
 7417SOL    HW223151   0.685   6.135   0.371
 7418SOL     OW23152   1.951   3.640   0.898
 7418SOL    HW123153   1.987   3.721   0.850
 7418SOL    HW223154   1.852   3.649   0.909
 7419SOL     OW23155   6.410   0.926   5.056
 7419SOL    HW123156   6.408   1.002   5.120
 7419SOL    HW223157   6.423   0.960   4.963
 7420SOL     OW23158   0.052   6.063   2.121
 7420SOL    HW123159   0.006   6.109   2.046
 7420SOL    HW223160   0.151   6.082   2.116
 7421SOL     OW23161   3.707   3.660   0.938
 7421SOL    HW123162   3.622   3.712   0.934
 7421SOL    HW223163   3.707   3.602   1.020
 7422SOL     OW23164   0.566   3.318   0.581
 7422SOL    HW123165   0.596   3.274   0.496
 7422SOL    HW223166   0.644   3.359   0.628
 7423SOL     OW23167   2.088   6.105   6.432
 7423SOL    HW123168   2.149   6.114   6.353
 7423SOL    HW223169   2.097   6.014   6.472
 7424SOL     OW23170   5.769   1.445   4.737
 7424SOL    HW123171   5.709   1.414   4.664
 7424SOL    HW223172   5.723   1.516   4.790
 7425SOL     OW23173   3.222   5.884   6.010
 7425SOL    HW123174   3.269   5.796   6.021
 7425SOL    HW223175   3.249   5.924   5.922
 7426SOL     OW23176   1.096   1.470   6.374
 7426SOL    HW123177   1.037   1.432   6.303
 7426SOL    HW223178   1.064   1.561   6.400
 7427SOL     OW23179   4.042   5.498   4.211
 7427SOL    HW123180   4.129   5.540   4.184
 7427SOL    HW223181   4.055   5.399   4.222
 7428SOL     OW23182   3.895   1.844   5.636
 7428SOL    HW123183   3.866   1.904   5.710
 7428SOL    HW223184   3.842   1.759   5.638
 7429SOL     OW23185   6.733   6.822   3.472
 7429SOL    HW123186   6.804   6.790   3.535
 7429SOL    HW223187   6.685   6.743   3.433
 7430SOL     OW23188   6.420   4.060   5.136
 7430SOL    HW123189   6.340   4.002   5.125
 7430SOL    HW223190   6.499   4.016   5.093
 7431SOL     OW23191   1.303   4.328   2.296
 7431SOL    HW123192   1.231   4.266   2.327
 7431SOL    HW223193   1.311   4.323   2.197
 7432SOL     OW23194   0.431   6.879   5.537
 7432SOL    HW123195   0.401   6.970   5.565
 7432SOL    HW223196   0.502   6.888   5.467
 7433SOL     OW23197   6.224   5.635   0.799
 7433SOL    HW123198   6.211   5.538   0.817
 7433SOL    HW223199   6.320   5.660   0.814
 7434SOL     OW23200   4.351   1.127   6.303
 7434SOL    HW123201   4.364   1.226   6.291
 7434SOL    HW223202   4.315   1.087   6.219
 7435SOL     OW23203   2.349   6.354   0.082
 7435SOL    HW123204   2.401   6.304   0.013
 7435SOL    HW223205   2.409   6.421   0.127
 7436SOL     OW23206   5.266   2.645   0.189
 7436SOL    HW123207   5.326   2.690   0.123
 7436SOL    HW223208   5.309   2.643   0.279
 7437SOL     OW23209   0.686   5.654   5.899
 7437SOL    HW123210   0.604   5.635   5.954
 7437SOL    HW223211   0.760   5.685   5.958
 7438SOL     OW23212   6.847   4.823   1.827
 7438SOL    HW123213   6.903   4.814   1.910
 7438SOL    HW223214   6.779   4.751   1.824
 7439SOL     OW23215   1.450   6.933   3.547
 7439SOL    HW123216   1.540   6.966   3.518
 7439SOL    HW223217   1.403   7.006   3.596
 7440SOL     OW23218   1.907   2.121   3.964
 7440SOL    HW123219   1.996   2.079   3.947
 7440SOL    HW223220   1.841   2.050   3.987
 7441SOL     OW23221   5.436   0.369   3.466
 7441SOL    HW123222   5.522   0.409   3.497
 7441SOL    HW223223   5.417   0.286   3.518
 7442SOL     OW23224   1.682   1.107   0.045
 7442SOL    HW123225   1.723   1.057   6.992
 7442SOL    HW223226   1.588   1.074   0.060
 7443SOL     OW23227   0.077   1.139   0.076
 7443SOL    HW123228   0.153   1.079   0.055
 7443SOL    HW223229   0.022   1.099   0.150
 7444SOL     OW23230   0.043   3.109   5.989
 7444SOL    HW123231   0.106   3.159   5.930
 7444SOL    HW223232   0.074   3.114   6.084
 7445SOL     OW23233   5.459   2.066   1.848
 7445SOL    HW123234   5.481   2.117   1.764
 7445SOL    HW223235   5.513   1.982   1.849
 7446SOL     OW23236   7.008   3.735   0.921
 7446SOL    HW123237   6.977   3.666   0.855
 7446SOL    HW223238   0.067   3.701   0.969
 7447SOL     OW23239   0.454   3.847   5.956
 7447SOL    HW123240   0.536   3.882   6.001
 7447SOL    HW223241   0.478   3.808   5.867
 7448SOL     OW23242   6.891   6.368   6.420
 7448SOL    HW123243   6.957   6.375   6.494
 7448SOL    HW223244   6.798   6.370   6.457
 7449SOL     OW23245   5.734   2.004   2.441
 7449SOL    HW123246   5.639   2.023   2.465
 7449SOL    HW223247   5.739   1.969   2.348
 7450SOL     OW23248   4.390   1.293   3.191
 7450SOL    HW123249   4.411   1.286   3.093
 7450SOL    HW223250   4.447   1.228   3.242
 7451SOL     OW23251   2.012   0.208   3.988
 7451SOL    HW123252   1.984   0.301   3.962
 7451SOL    HW223253   2.071   0.213   4.069
 7452SOL     OW23254   2.099   6.028   4.855
 7452SOL    HW123255   2.009   6.069   4.868
 7452SOL    HW223256   2.089   5.930   4.837
 7453SOL     OW23257   6.001   5.970   4.985
 7453SOL    HW123258   6.016   5.955   5.083
 7453SOL    HW223259   5.909   6.005   4.970
 7454SOL     OW23260   0.664   3.522   1.136
 7454SOL    HW123261   0.569   3.542   1.161
 7454SOL    HW223262   0.724   3.541   1.213
 7455SOL     OW23263   5.120   2.570   6.971
 7455SOL    HW123264   5.170   2.567   0.035
 7455SOL    HW223265   5.097   2.664   6.949
 7456SOL     OW23266   1.798   3.258   4.682
 7456SOL    HW123267   1.818   3.339   4.627
 7456SOL    HW223268   1.699   3.247   4.692
 7457SOL     OW23269   6.088   0.597   5.656
 7457SOL    HW123270   6.128   0.542   5.729
 7457SOL    HW223271   6.078   0.542   5.573
 7458SOL     OW23272   2.510   1.351   0.615
 7458SOL    HW123273   2.503   1.259   0.655
 7458SOL    HW223274   2.529   1.344   0.517
 7459SOL     OW23275   4.460   0.704   4.692
 7459SOL    HW123276   4.487   0.746   4.605
 7459SOL    HW223277   4.389   0.759   4.736
 7460SOL     OW23278   0.799   4.298   0.047
 7460SOL    HW123279   0.744   4.315   0.129
 7460SOL    HW223280   0.849   4.382   0.023
 7461SOL     OW23281   5.088   1.050   4.424
 7461SOL    HW123282   5.114   1.142   4.454
 7461SOL    HW223283   5.168   1.002   4.390
 7462SOL     OW23284   2.136   1.453   2.405
 7462SOL    HW123285   2.120   1.486   2.312
 7462SOL    HW223286   2.162   1.530   2.464
 7463SOL     OW23287   4.091   3.714   2.740
 7463SOL    HW123288   4.082   3.706   2.839
 7463SOL    HW223289   4.134   3.631   2.703
 7464SOL     OW23290   5.485   6.096   0.742
 7464SOL    HW123291   5.527   6.035   0.675
 7464SOL    HW223292   5.457   6.043   0.822
 7465SOL     OW23293   2.791   0.420   1.647
 7465SOL    HW123294   2.705   0.393   1.691
 7465SOL    HW223295   2.867   0.403   1.709
 7466SOL     OW23296   0.794   0.716   6.920
 7466SOL    HW123297   0.835   0.688   7.006
 7466SOL    HW223298   0.834   0.803   6.891
 7467SOL     OW23299   6.896   1.225   0.561
 7467SOL    HW123300   6.869   1.183   0.647
 7467SOL    HW223301   6.831   1.297   0.536
 7468SOL     OW23302   6.254   2.450   2.787
 7468SOL    HW123303   6.321   2.441   2.860
 7468SOL    HW223304   6.200   2.533   2.800
 7469SOL     OW23305   1.330   0.810   1.228
 7469SOL    HW123306   1.254   0.745   1.227
 7469SOL    HW223307   1.295   0.903   1.238
 7470SOL     OW23308   6.627   1.917   2.434
 7470SOL    HW123309   6.613   1.919   2.335
 7470SOL    HW223310   6.714   1.961   2.456
 7471SOL     OW23311   6.026   6.340   5.831
 7471SOL    HW123312   5.950   6.276   5.830
 7471SOL    HW223313   6.006   6.416   5.893
 7472SOL     OW23314   3.635   0.089   3.298
 7472SOL    HW123315   3.700   0.038   3.355
 7472SOL    HW223316   3.624   0.181   3.334
 7473SOL     OW23317   0.167   3.257   3.995
 7473SOL    HW123318   0.265   3.276   3.994
 7473SOL    HW223319   0.118   3.335   4.034
 7474SOL     OW23320   3.935   0.842   3.148
 7474SOL    HW123321   3.943   0.867   3.052
 7474SOL    HW223322   3.981   0.910   3.205
 7475SOL     OW23323   3.540   1.287   1.138
 7475SOL    HW123324   3.451   1.274   1.095
 7475SOL    HW223325   3.586   1.367   1.099
 7476SOL     OW23326   3.983   6.460   4.767
 7476SOL    HW123327   3.903   6.510   4.736
 7476SOL    HW223328   4.012   6.494   4.857
 7477SOL     OW23329   4.033   1.911   4.259
 7477SOL    HW123330   4.007   1.815   4.248
 7477SOL    HW223331   3.952   1.969   4.248
 7478SOL     OW23332   1.142   4.914   0.807
 7478SOL    HW123333   1.054   4.931   0.851
 7478SOL    HW223334   1.128   4.857   0.725
 7479SOL     OW23335   4.744   0.602   6.945
 7479SOL    HW123336   4.700   0.654   7.019
 7479SOL    HW223337   4.828   0.560   6.980
 7480SOL     OW23338   6.617   5.296   1.474
 7480SOL    HW123339   6.662   5.256   1.395
 7480SOL    HW223340   6.588   5.223   1.536
 7481SOL     OW23341   5.678   5.129   0.402
 7481SOL    HW123342   5.694   5.215   0.451
 7481SOL    HW223343   5.595   5.086   0.437
 7482SOL     OW23344   4.859   0.436   2.831
 7482SOL    HW123345   4.760   0.440   2.818
 7482SOL    HW223346   4.893   0.528   2.852
 7483SOL     OW23347   3.173   0.512   5.386
 7483SOL    HW123348   3.217   0.577   5.449
 7483SOL    HW223349   3.080   0.493   5.418
 7484SOL     OW23350   2.071   7.001   2.230
 7484SOL    HW123351   2.002   6.992   2.158
 7484SOL    HW223352   2.036   0.038   2.302
 7485SOL     OW23353   2.476   6.136   6.445
 7485SOL    HW123354   2.438   6.221   6.481
 7485SOL    HW223355   2.481   6.068   6.517
 7486SOL     OW23356   2.547   6.790   5.668
 7486SOL    HW123357   2.458   6.816   5.634
 7486SOL    HW223358   2.614   6.792   5.594
 7487SOL     OW23359   3.478   6.120   4.290
 7487SOL    HW123360   3.439   6.089   4.203
 7487SOL    HW223361   3.556   6.062   4.314
 7488SOL     OW23362   3.725   0.403   6.222
 7488SOL    HW123363   3.780   0.486   6.221
 7488SOL    HW223364   3.777   0.329   6.265
 7489SOL     OW23365   5.389   3.464   3.862
 7489SOL    HW123366   5.420   3.373   3.833
 7489SOL    HW223367   5.290   3.462   3.877
 7490SOL     OW23368   5.288   1.175   1.208
 7490SOL    HW123369   5.375   1.206   1.247
 7490SOL    HW223370   5.212   1.203   1.267
 7491SOL     OW23371   6.704   5.553   6.941
 7491SOL    HW123372   6.662   5.632   6.896
 7491SOL    HW223373   6.659   5.537   0.006
 7492SOL     OW23374   1.649   2.680   4.717
 7492SOL    HW123375   1.633   2.685   4.618
 7492SOL    HW223376   1.747   2.688   4.735
 7493SOL     OW23377   5.010   3.701   6.386
 7493SOL    HW123378   5.044   3.792   6.363
 7493SOL    HW223379   4.911   3.699   6.372
 7494SOL     OW23380   5.046   0.224   1.910
 7494SOL    HW123381   5.007   0.132   1.915
 7494SOL    HW223382   4.973   0.290   1.891
 7495SOL     OW23383   1.358   2.135   1.277
 7495SOL    HW123384   1.412   2.173   1.202
 7495SOL    HW223385   1.408   2.147   1.363
 7496SOL     OW23386   0.818   5.037   6.249
 7496SOL    HW123387   0.890   5.034   6.180
 7496SOL    HW223388   0.728   5.029   6.205
 7497SOL     OW23389   1.530   4.071   2.054
 7497SOL    HW123390   1.624   4.042   2.069
 7497SOL    HW223391   1.479   4.064   2.141
 7498SOL     OW23392   3.959   1.756   4.531
 7498SOL    HW123393   3.953   1.744   4.630
 7498SOL    HW223394   4.005   1.842   4.511
 7499SOL     OW23395   5.347   6.769   4.518
 7499SOL    HW123396   5.422   6.752   4.582
 7499SOL    HW223397   5.300   6.853   4.543
 7500SOL     OW23398   5.421   5.409   1.612
 7500SOL    HW123399   5.322   5.423   1.610
 7500SOL    HW223400   5.442   5.316   1.583
 7501SOL     OW23401   0.538   4.262   3.975
 7501SOL    HW123402   0.609   4.248   3.906
 7501SOL    HW223403   0.501   4.354   3.967
 7502SOL     OW23404   2.616   1.319   5.076
 7502SOL    HW123405   2.666   1.271   5.003
 7502SOL    HW223406   2.680   1.379   5.125
 7503SOL     OW23407   2.903   2.117   6.767
 7503SOL    HW123408   2.947   2.190   6.819
 7503SOL    HW223409   2.822   2.085   6.817
 7504SOL     OW23410   3.969   6.551   3.231
 7504SOL    HW123411   3.895   6.505   3.180
 7504SOL    HW223412   4.056   6.535   3.184
 7505SOL     OW23413   1.759   1.664   5.110
 7505SOL    HW123414   1.814   1.591   5.150
 7505SOL    HW223415   1.788   1.752   5.147
 7506SOL     OW23416   3.671   1.646   2.430
 7506SOL    HW123417   3.644   1.558   2.470
 7506SOL    HW223418   3.616   1.664   2.348
 7507SOL     OW23419   0.842   6.094   5.857
 7507SOL    HW123420   0.849   6.082   5.957
 7507SOL    HW223421   0.774   6.032   5.821
 7508SOL     OW23422   5.550   0.232   2.541
 7508SOL    HW123423   5.498   0.153   2.573
 7508SOL    HW223424   5.608   0.205   2.464
 7509SOL     OW23425   4.527   4.086   6.148
 7509SOL    HW123426   4.492   3.999   6.112
 7509SOL    HW223427   4.501   4.095   6.244
 7510SOL     OW23428   3.947   4.067   4.998
 7510SOL    HW123429   3.925   4.021   4.912
 7510SOL    HW223430   4.011   4.142   4.981
 7511SOL     OW23431   0.905   0.708   1.752
 7511SOL    HW123432   0.975   0.733   1.685
 7511SOL    HW223433   0.941   0.723   1.844
 7512SOL     OW23434   2.365   2.683   2.188
 7512SOL    HW123435   2.282   2.646   2.146
 7512SOL    HW223436   2.340   2.751   2.257
 7513SOL     OW23437   1.396   2.157   0.099
 7513SOL    HW123438   1.484   2.162   0.147
 7513SOL    HW223439   1.350   2.246   0.105
 7514SOL     OW23440   2.599   5.548   3.041
 7514SOL    HW123441   2.631   5.479   3.105
 7514SOL    HW223442   2.676   5.606   3.014
 7515SOL     OW23443   6.956   6.200   2.637
 7515SOL    HW123444   6.874   6.188   2.693
 7515SOL    HW223445   7.010   6.275   2.674
 7516SOL     OW23446   0.333   0.857   3.282
 7516SOL    HW123447   0.240   0.887   3.258
 7516SOL    HW223448   0.330   0.767   3.324
 7517SOL     OW23449   0.161   3.460   1.365
 7517SOL    HW123450   0.189   3.556   1.368
 7517SOL    HW223451   0.134   3.436   1.272
 7518SOL     OW23452   4.680   5.767   4.021
 7518SOL    HW123453   4.681   5.681   4.071
 7518SOL    HW223454   4.650   5.841   4.081
 7519SOL     OW23455   1.994   6.055   3.854
 7519SOL    HW123456   2.023   5.964   3.823
 7519SOL    HW223457   1.990   6.117   3.775
 7520SOL     OW23458   1.466   6.652   3.595
 7520SOL    HW123459   1.465   6.751   3.611
 7520SOL    HW223460   1.527   6.609   3.660
 7521SOL     OW23461   4.612   4.415   5.491
 7521SOL    HW123462   4.563   4.375   5.414
 7521SOL    HW223463   4.548   4.464   5.550
 7522SOL     OW23464   2.009   0.835   1.233
 7522SOL    HW123465   2.087   0.822   1.173
 7522SOL    HW223466   2.000   0.932   1.255
 7523SOL     OW23467   5.584   0.239   6.580
 7523SOL    HW123468   5.676   0.257   6.615
 7523SOL    HW223469   5.531   0.192   6.650
 7524SOL     OW23470   0.680   1.760   5.383
 7524SOL    HW123471   0.708   1.670   5.349
 7524SOL    HW223472   0.601   1.749   5.444
 7525SOL     OW23473   0.950   0.814   0.471
 7525SOL    HW123474   0.919   0.729   0.514
 7525SOL    HW223475   1.034   0.845   0.516
 7526SOL     OW23476   3.624   2.921   4.769
 7526SOL    HW123477   3.632   2.882   4.861
 7526SOL    HW223478   3.678   3.005   4.764
 7527SOL     OW23479   5.583   4.699   3.615
 7527SOL    HW123480   5.664   4.704   3.557
 7527SOL    HW223481   5.584   4.613   3.667
 7528SOL     OW23482   6.007   2.782   0.054
 7528SOL    HW123483   5.952   2.786   0.137
 7528SOL    HW223484   6.063   2.699   0.055
 7529SOL     OW23485   3.513   1.473   5.849
 7529SOL    HW123486   3.480   1.474   5.754
 7529SOL    HW223487   3.540   1.380   5.874
 7530SOL     OW23488   0.956   4.005   1.753
 7530SOL    HW123489   0.945   3.931   1.819
 7530SOL    HW223490   0.986   4.088   1.800
 7531SOL     OW23491   4.240   1.839   3.615
 7531SOL    HW123492   4.208   1.877   3.702
 7531SOL    HW223493   4.170   1.852   3.545
 7532SOL     OW23494   5.302   5.732   2.347
 7532SOL    HW123495   5.383   5.677   2.361
 7532SOL    HW223496   5.236   5.715   2.420
 7533SOL     OW23497   3.551   1.337   4.266
 7533SOL    HW123498   3.577   1.432   4.248
 7533SOL    HW223499   3.529   1.326   4.363
 7534SOL     OW23500   4.891   6.514   4.707
 7534SOL    HW123501   4.923   6.443   4.644
 7534SOL    HW223502   4.801   6.546   4.679
 7535SOL     OW23503   2.899   2.637   5.734
 7535SOL    HW123504   2.956   2.707   5.690
 7535SOL    HW223505   2.804   2.652   5.709
 7536SOL     OW23506   4.720   5.939   4.709
 7536SOL    HW123507   4.633   5.906   4.747
 7536SOL    HW223508   4.749   6.021   4.758
 7537SOL     OW23509   1.721   4.899   5.883
 7537SOL    HW123510   1.773   4.910   5.968
 7537SOL    HW223511   1.783   4.868   5.811
 7538SOL     OW23512   3.127   3.557   2.546
 7538SOL    HW123513   3.072   3.582   2.626
 7538SOL    HW223514   3.224   3.569   2.568
 7539SOL     OW23515   2.138   2.854   4.979
 7539SOL    HW123516   2.070   2.833   5.049
 7539SOL    HW223517   2.215   2.902   5.020
 7540SOL     OW23518   2.761   1.375   0.042
 7540SOL    HW123519   2.822   1.371   0.121
 7540SOL    HW223520   2.755   1.285   7.022
 7541SOL     OW23521   6.307   2.476   5.553
 7541SOL    HW123522   6.404   2.458   5.571
 7541SOL    HW223523   6.281   2.563   5.597
 7542SOL     OW23524   1.453   6.579   5.822
 7542SOL    HW123525   1.525   6.515   5.798
 7542SOL    HW223526   1.368   6.529   5.839
 7543SOL     OW23527   4.132   3.135   0.264
 7543SOL    HW123528   4.059   3.068   0.277
 7543SOL    HW223529   4.218   3.099   0.300
 7544SOL     OW23530   2.254   1.811   2.993
 7544SOL    HW123531   2.179   1.869   2.962
 7544SOL    HW223532   2.280   1.836   3.086
 7545SOL     OW23533   5.336   6.939   3.311
 7545SOL    HW123534   5.341   7.013   3.244
 7545SOL    HW223535   5.429   6.909   3.333
 7546SOL     OW23536   4.741   0.946   0.187
 7546SOL    HW123537   4.829   0.925   0.232
 7546SOL    HW223538   4.757   0.966   0.091
 7547SOL     OW23539   3.270   0.372   0.355
 7547SOL    HW123540   3.208   0.344   0.281
 7547SOL    HW223541   3.260   0.308   0.431
 7548SOL     OW23542   1.698   2.301   1.964
 7548SOL    HW123543   1.706   2.244   2.045
 7548SOL    HW223544   1.706   2.244   1.882
 7549SOL     OW23545   5.660   2.117   2.949
 7549SOL    HW123546   5.588   2.181   2.923
 7549SOL    HW223547   5.749   2.162   2.938
 7550SOL     OW23548   1.943   5.738   2.937
 7550SOL    HW123549   1.977   5.647   2.913
 7550SOL    HW223550   1.866   5.762   2.878
 7551SOL     OW23551   5.234   3.238   6.490
 7551SOL    HW123552   5.333   3.240   6.493
 7551SOL    HW223553   5.204   3.192   6.406
 7552SOL     OW23554   2.932   4.925   4.390
 7552SOL    HW123555   3.025   4.919   4.426
 7552SOL    HW223556   2.897   5.018   4.400
 7553SOL     OW23557   3.728   5.773   6.010
 7553SOL    HW123558   3.814   5.820   5.993
 7553SOL    HW223559   3.716   5.700   5.942
 7554SOL     OW23560   6.333   0.775   0.118
 7554SOL    HW123561   6.369   0.857   0.074
 7554SOL    HW223562   6.306   0.708   0.048
 7555SOL     OW23563   0.287   6.228   5.625
 7555SOL    HW123564   0.219   6.276   5.569
 7555SOL    HW223565   0.293   6.272   5.714
 7556SOL     OW23566   0.687   2.699   4.550
 7556SOL    HW123567   0.600   2.718   4.505
 7556SOL    HW223568   0.745   2.645   4.489
 7557SOL     OW23569   4.711   4.159   0.225
 7557SOL    HW123570   4.640   4.229   0.227
 7557SOL    HW223571   4.672   4.072   0.193
 7558SOL     OW23572   1.887   3.242   3.124
 7558SOL    HW123573   1.825   3.167   3.146
 7558SOL    HW223574   1.840   3.307   3.065
 7559SOL     OW23575   0.187   4.344   0.763
 7559SOL    HW123576   0.202   4.442   0.749
 7559SOL    HW223577   0.273   4.295   0.750
 7560SOL     OW23578   5.273   6.773   0.485
 7560SOL    HW123579   5.360   6.754   0.531
 7560SOL    HW223580   5.230   6.852   0.528
 7561SOL     OW23581   6.925   3.034   0.378
 7561SOL    HW123582   6.842   3.033   0.322
 7561SOL    HW223583   6.923   2.957   0.441
 7562SOL     OW23584   5.567   6.300   4.878
 7562SOL    HW123585   5.471   6.326   4.874
 7562SOL    HW223586   5.620   6.374   4.919
 7563SOL     OW23587   2.709   0.810   2.388
 7563SOL    HW123588   2.740   0.846   2.476
 7563SOL    HW223589   2.664   0.883   2.336
 7564SOL     OW23590   5.295   6.643   3.281
 7564SOL    HW123591   5.323   6.738   3.271
 7564SOL    HW223592   5.274   6.604   3.191
 7565SOL     OW23593   4.892   4.746   0.118
 7565SOL    HW123594   4.818   4.710   0.175
 7565SOL    HW223595   4.858   4.760   0.025
 7566SOL     OW23596   1.363   5.981   4.228
 7566SOL    HW123597   1.314   6.045   4.169
 7566SOL    HW223598   1.333   5.995   4.323
 7567SOL     OW23599   3.049   4.322   0.084
 7567SOL    HW123600   3.042   4.327   7.006
 7567SOL    HW223601   3.086   4.233   0.110
 7568SOL     OW23602   4.450   5.443   3.763
 7568SOL    HW123603   4.395   5.360   3.748
 7568SOL    HW223604   4.470   5.486   3.676
 7569SOL     OW23605   3.566   6.575   0.507
 7569SOL    HW123606   3.617   6.615   0.431
 7569SOL    HW223607   3.605   6.485   0.529
 7570SOL     OW23608   6.129   5.596   3.702
 7570SOL    HW123609   6.035   5.562   3.708
 7570SOL    HW223610   6.192   5.518   3.708
 7571SOL     OW23611   5.268   4.177   1.706
 7571SOL    HW123612   5.196   4.131   1.759
 7571SOL    HW223613   5.351   4.182   1.760
 7572SOL     OW23614   3.220   1.241   4.782
 7572SOL    HW123615   3.235   1.142   4.782
 7572SOL    HW223616   3.159   1.265   4.858
 7573SOL     OW23617   1.629   6.212   4.111
 7573SOL    HW123618   1.716   6.236   4.154
 7573SOL    HW223619   1.639   6.125   4.063
 7574SOL     OW23620   5.229   6.487   3.018
 7574SOL    HW123621   5.266   6.531   2.936
 7574SOL    HW223622   5.280   6.404   3.038
 7575SOL     OW23623   3.865   1.645   5.445
 7575SOL    HW123624   3.826   1.594   5.522
 7575SOL    HW223625   3.957   1.610   5.425
 7576SOL     OW23626   6.624   3.212   0.464
 7576SOL    HW123627   6.723   3.220   0.454
 7576SOL    HW223628   6.579   3.292   0.424
 7577SOL     OW23629   5.993   0.697   4.922
 7577SOL    HW123630   6.040   0.618   4.883
 7577SOL    HW223631   5.904   0.708   4.877
 7578SOL     OW23632   2.327   5.175   4.609
 7578SOL    HW123633   2.407   5.164   4.550
 7578SOL    HW223634   2.282   5.087   4.621
 7579SOL     OW23635   3.825   2.061   2.526
 7579SOL    HW123636   3.728   2.050   2.504
 7579SOL    HW223637   3.880   2.051   2.443
 7580SOL     OW23638   1.954   4.369   2.700
 7580SOL    HW123639   1.984   4.377   2.605
 7580SOL    HW223640   1.956   4.273   2.728
 7581SOL     OW23641   5.494   0.644   0.755
 7581SOL    HW123642   5.468   0.733   0.718
 7581SOL    HW223643   5.573   0.656   0.817
 7582SOL     OW23644   2.861   1.172   0.901
 7582SOL    HW123645   2.943   1.135   0.945
 7582SOL    HW223646   2.856   1.270   0.918
 7583SOL     OW23647   5.521   3.748   2.506
 7583SOL    HW123648   5.451   3.819   2.514
 7583SOL    HW223649   5.497   3.684   2.433
 7584SOL     OW23650   2.950   0.114   0.946
 7584SOL    HW123651   3.004   0.047   0.997
 7584SOL    HW223652   3.001   0.200   0.940
 7585SOL     OW23653   1.688   4.949   6.303
 7585SOL    HW123654   1.618   4.902   6.357
 7585SOL    HW223655   1.659   5.043   6.286
 7586SOL     OW23656   3.377   0.890   2.930
 7586SOL    HW123657   3.335   0.914   2.842
 7586SOL    HW223658   3.477   0.894   2.920
 7587SOL     OW23659   0.750   1.712   6.133
 7587SOL    HW123660   0.768   1.673   6.224
 7587SOL    HW223661   0.797   1.800   6.126
 7588SOL     OW23662   0.009   4.599   2.439
 7588SOL    HW123663   0.042   4.512   2.402
 7588SOL    HW223664   6.933   4.607   2.424
 7589SOL     OW23665   6.134   5.493   0.548
 7589SOL    HW123666   6.119   5.411   0.493
 7589SOL    HW223667   6.165   5.466   0.639
 7590SOL     OW23668   2.165   1.365   6.164
 7590SOL    HW123669   2.231   1.294   6.187
 7590SOL    HW223670   2.097   1.373   6.238
 7591SOL     OW23671   6.788   4.700   6.968
 7591SOL    HW123672   6.879   4.708   6.927
 7591SOL    HW223673   6.788   4.748   0.034
 7592SOL     OW23674   5.386   4.991   6.837
 7592SOL    HW123675   5.434   4.918   6.788
 7592SOL    HW223676   5.374   5.069   6.776
 7593SOL     OW23677   5.576   2.213   6.972
 7593SOL    HW123678   5.507   2.256   0.007
 7593SOL    HW223679   5.665   2.254   6.991
 7594SOL     OW23680   1.284   5.959   3.834
 7594SOL    HW123681   1.333   5.899   3.771
 7594SOL    HW223682   1.191   5.925   3.847
 7595SOL     OW23683   6.632   3.235   6.680
 7595SOL    HW123684   6.548   3.212   6.730
 7595SOL    HW223685   6.704   3.258   6.745
 7596SOL     OW23686   5.053   4.767   1.628
 7596SOL    HW123687   5.005   4.829   1.566
 7596SOL    HW223688   5.109   4.819   1.692
 7597SOL     OW23689   3.813   5.298   1.758
 7597SOL    HW123690   3.878   5.228   1.728
 7597SOL    HW223691   3.845   5.388   1.730
 7598SOL     OW23692   0.012   1.060   3.455
 7598SOL    HW123693   0.080   1.074   3.382
 7598SOL    HW223694   0.059   1.053   3.543
 7599SOL     OW23695   6.483   1.868   2.968
 7599SOL    HW123696   6.432   1.905   3.045
 7599SOL    HW223697   6.427   1.871   2.885
 7600SOL     OW23698   2.200   1.409   1.870
 7600SOL    HW123699   2.213   1.424   1.771
 7600SOL    HW223700   2.285   1.377   1.911
 7601SOL     OW23701   1.856   6.236   4.292
 7601SOL    HW123702   1.907   6.207   4.212
 7601SOL    HW223703   1.895   6.193   4.374
 7602SOL     OW23704   0.572   3.690   4.558
 7602SOL    HW123705   0.545   3.635   4.637
 7602SOL    HW223706   0.671   3.700   4.556
 7603SOL     OW23707   1.559   6.597   1.503
 7603SOL    HW123708   1.479   6.585   1.562
 7603SOL    HW223709   1.601   6.508   1.485
 7604SOL     OW23710   4.497   6.128   5.159
 7604SOL    HW123711   4.439   6.054   5.124
 7604SOL    HW223712   4.467   6.215   5.120
 7605SOL     OW23713   6.679   4.257   0.037
 7605SOL    HW123714   6.579   4.249   0.041
 7605SOL    HW223715   6.708   4.340   0.084
 7606SOL     OW23716   6.051   2.292   2.365
 7606SOL    HW123717   6.056   2.382   2.320
 7606SOL    HW223718   6.119   2.287   2.438
 7607SOL     OW23719   4.951   0.270   6.727
 7607SOL    HW123720   4.872   0.311   6.772
 7607SOL    HW223721   4.947   0.170   6.737
 7608SOL     OW23722   3.049   3.722   3.879
 7608SOL    HW123723   3.037   3.735   3.977
 7608SOL    HW223724   3.107   3.642   3.863
 7609SOL     OW23725   0.882   3.268   4.029
 7609SOL    HW123726   0.848   3.340   4.089
 7609SOL    HW223727   0.806   3.225   3.981
 7610SOL     OW23728   5.512   0.188   0.682
 7610SOL    HW123729   5.452   0.143   0.748
 7610SOL    HW223730   5.606   0.183   0.715
 7611SOL     OW23731   1.174   1.991   0.158
 7611SOL    HW123732   1.245   2.039   0.106
 7611SOL    HW223733   1.112   1.945   0.094
 7612SOL     OW23734   3.844   2.148   3.511
 7612SOL    HW123735   3.935   2.184   3.529
 7612SOL    HW223736   3.850   2.052   3.486
 7613SOL     OW23737   4.829   0.994   1.860
 7613SOL    HW123738   4.802   0.920   1.798
 7613SOL    HW223739   4.782   1.078   1.834
 7614SOL     OW23740   3.947   2.417   1.022
 7614SOL    HW123741   3.980   2.483   0.955
 7614SOL    HW223742   3.853   2.389   0.998
 7615SOL     OW23743   4.037   4.858   6.350
 7615SOL    HW123744   3.964   4.830   6.288
 7615SOL    HW223745   4.126   4.838   6.309
 7616SOL     OW23746   6.580   3.857   3.025
 7616SOL    HW123747   6.531   3.866   2.938
 7616SOL    HW223748   6.516   3.871   3.101
 7617SOL     OW23749   3.309   4.922   3.194
 7617SOL    HW123750   3.404   4.903   3.219
 7617SOL    HW223751   3.252   4.915   3.276
 7618SOL     OW23752   2.415   2.166   6.670
 7618SOL    HW123753   2.468   2.245   6.702
 7618SOL    HW223754   2.330   2.198   6.628
 7619SOL     OW23755   6.085   3.659   5.570
 7619SOL    HW123756   6.155   3.587   5.568
 7619SOL    HW223757   6.011   3.636   5.507
 7620SOL     OW23758   3.805   6.866   1.428
 7620SOL    HW123759   3.842   6.779   1.396
 7620SOL    HW223760   3.844   6.888   1.518
 7621SOL     OW23761   2.366   0.531   1.429
 7621SOL    HW123762   2.436   0.487   1.373
 7621SOL    HW223763   2.395   0.622   1.455
 7622SOL     OW23764   4.226   2.908   0.575
 7622SOL    HW123765   4.201   2.811   0.564
 7622SOL    HW223766   4.166   2.950   0.643
 7623SOL     OW23767   4.479   0.359   5.872
 7623SOL    HW123768   4.491   0.384   5.776
 7623SOL    HW223769   4.534   0.278   5.893
 7624SOL     OW23770   0.807   0.996   3.219
 7624SOL    HW123771   0.720   0.952   3.242
 7624SOL    HW223772   0.861   0.936   3.161
 7625SOL     OW23773   5.154   0.691   1.237
 7625SOL    HW123774   5.113   0.657   1.322
 7625SOL    HW223775   5.217   0.765   1.258
 7626SOL     OW23776   1.799   6.310   4.632
 7626SOL    HW123777   1.721   6.287   4.574
 7626SOL    HW223778   1.835   6.400   4.606
 7627SOL     OW23779   6.663   2.556   0.997
 7627SOL    HW123780   6.649   2.631   0.933
 7627SOL    HW223781   6.642   2.587   1.090
 7628SOL     OW23782   3.228   1.615   0.737
 7628SOL    HW123783   3.141   1.566   0.746
 7628SOL    HW223784   3.211   1.708   0.706
 7629SOL     OW23785   6.679   5.581   3.038
 7629SOL    HW123786   6.677   5.681   3.035
 7629SOL    HW223787   6.641   5.544   2.953
 7630SOL     OW23788   6.248   0.718   2.851
 7630SOL    HW123789   6.188   0.701   2.773
 7630SOL    HW223790   6.263   0.633   2.901
 7631SOL     OW23791   0.328   2.132   3.723
 7631SOL    HW123792   0.255   2.175   3.777
 7631SOL    HW223793   0.408   2.192   3.723
 7632SOL     OW23794   4.897   2.367   0.221
 7632SOL    HW123795   4.836   2.305   0.173
 7632SOL    HW223796   4.898   2.456   0.176
 7633SOL     OW23797   5.446   3.872   6.755
 7633SOL    HW123798   5.460   3.970   6.762
 7633SOL    HW223799   5.481   3.827   6.838
 7634SOL     OW23800   2.054   0.884   2.183
 7634SOL    HW123801   2.117   0.962   2.179
 7634SOL    HW223802   2.100   0.806   2.225
 7635SOL     OW23803   2.491   4.843   5.561
 7635SOL    HW123804   2.550   4.775   5.604
 7635SOL    HW223805   2.545   4.921   5.530
 7636SOL     OW23806   0.754   0.518   4.171
 7636SOL    HW123807   0.816   0.465   4.229
 7636SOL    HW223808   0.694   0.455   4.122
 7637SOL     OW23809   1.201   6.146   4.022
 7637SOL    HW123810   1.239   6.080   3.957
 7637SOL    HW223811   1.111   6.175   3.991
 7638SOL     OW23812   5.476   5.498   1.868
 7638SOL    HW123813   5.400   5.518   1.930
 7638SOL    HW223814   5.440   5.477   1.777
 7639SOL     OW23815   0.816   1.646   5.657
 7639SOL    HW123816   0.833   1.723   5.595
 7639SOL    HW223817   0.794   1.564   5.604
 7640SOL     OW23818   2.569   1.802   0.413
 7640SOL    HW123819   2.584   1.843   0.503
 7640SOL    HW223820   2.641   1.734   0.395
 7641SOL     OW23821   5.850   3.993   2.411
 7641SOL    HW123822   5.930   4.053   2.427
 7641SOL    HW223823   5.766   4.046   2.426
 7642SOL     OW23824   2.390   1.758   2.220
 7642SOL    HW123825   2.360   1.854   2.221
 7642SOL    HW223826   2.366   1.717   2.132
 7643SOL     OW23827   4.822   2.900   3.011
 7643SOL    HW123828   4.863   2.991   3.003
 7643SOL    HW223829   4.798   2.866   2.920
 7644SOL     OW23830   6.912   3.375   2.805
 7644SOL    HW123831   6.889   3.301   2.869
 7644SOL    HW223832   6.831   3.432   2.789
 7645SOL     OW23833   4.285   4.523   0.269
 7645SOL    HW123834   4.282   4.524   0.369
 7645SOL    HW223835   4.297   4.617   0.236
 7646SOL     OW23836   2.171   1.953   1.982
 7646SOL    HW123837   2.250   1.961   1.921
 7646SOL    HW223838   2.144   2.044   2.014
 7647SOL     OW23839   2.543   4.141   1.577
 7647SOL    HW123840   2.498   4.221   1.615
 7647SOL    HW223841   2.476   4.068   1.562
 7648SOL     OW23842   4.271   1.202   3.845
 7648SOL    HW123843   4.215   1.280   3.871
 7648SOL    HW223844   4.227   1.118   3.876
 7649SOL     OW23845   2.954   0.496   2.192
 7649SOL    HW123846   2.875   0.483   2.252
 7649SOL    HW223847   2.967   0.593   2.174
 7650SOL     OW23848   6.242   3.870   1.855
 7650SOL    HW123849   6.150   3.896   1.886
 7650SOL    HW223850   6.277   3.940   1.793
 7651SOL     OW23851   3.300   1.372   6.745
 7651SOL    HW123852   3.231   1.347   6.812
 7651SOL    HW223853   3.293   1.313   6.665
 7652SOL     OW23854   0.337   3.883   2.643
 7652SOL    HW123855   0.368   3.932   2.725
 7652SOL    HW223856   0.325   3.786   2.665
 7653SOL     OW23857   2.613   2.076   1.689
 7653SOL    HW123858   2.558   2.126   1.622
 7653SOL    HW223859   2.705   2.062   1.654
 7654SOL     OW23860   5.243   3.602   3.606
 7654SOL    HW123861   5.292   3.629   3.524
 7654SOL    HW223862   5.309   3.580   3.679
 7655SOL     OW23863   3.571   6.387   4.905
 7655SOL    HW123864   3.540   6.366   4.813
 7655SOL    HW223865   3.581   6.301   4.956
 7656SOL     OW23866   6.956   6.053   5.585
 7656SOL    HW123867   7.020   6.065   5.662
 7656SOL    HW223868   6.964   6.130   5.523
 7657SOL     OW23869   3.307   1.758   3.800
 7657SOL    HW123870   3.264   1.832   3.852
 7657SOL    HW223871   3.373   1.796   3.736
 7658SOL     OW23872   3.944   1.090   6.154
 7658SOL    HW123873   4.007   1.159   6.119
 7658SOL    HW223874   3.947   1.009   6.095
 7659SOL     OW23875   5.794   6.843   0.706
 7659SOL    HW123876   5.802   6.923   0.646
 7659SOL    HW223877   5.872   6.782   0.691
 7660SOL     OW23878   5.534   5.730   2.826
 7660SOL    HW123879   5.578   5.673   2.756
 7660SOL    HW223880   5.481   5.672   2.888
 7661SOL     OW23881   6.576   3.021   3.550
 7661SOL    HW123882   6.600   2.972   3.466
 7661SOL    HW223883   6.489   3.068   3.538
 7662SOL     OW23884   1.123   4.829   2.087
 7662SOL    HW123885   1.180   4.846   2.007
 7662SOL    HW223886   1.029   4.811   2.057
 7663SOL     OW23887   0.035   4.706   6.260
 7663SOL    HW123888   0.040   4.718   6.161
 7663SOL    HW223889   0.117   4.659   6.292
 7664SOL     OW23890   2.456   5.386   3.653
 7664SOL    HW123891   2.446   5.416   3.558
 7664SOL    HW223892   2.375   5.334   3.680
 7665SOL     OW23893   2.568   0.098   4.481
 7665SOL    HW123894   2.565   0.016   4.537
 7665SOL    HW223895   2.476   0.137   4.474
 7666SOL     OW23896   1.480   0.809   1.004
 7666SOL    HW123897   1.429   0.813   1.089
 7666SOL    HW223898   1.518   0.899   0.984
 7667SOL     OW23899   4.626   7.020   7.003
 7667SOL    HW123900   4.683   0.012   6.922
 7667SOL    HW223901   4.681   0.008   0.063
 7668SOL     OW23902   3.738   4.406   1.120
 7668SOL    HW123903   3.673   4.359   1.179
 7668SOL    HW223904   3.815   4.346   1.100
 7669SOL     OW23905   5.124   0.319   4.051
 7669SOL    HW123906   5.044   0.356   4.099
 7669SOL    HW223907   5.207   0.364   4.084
 7670SOL     OW23908   1.443   5.311   0.481
 7670SOL    HW123909   1.482   5.230   0.437
 7670SOL    HW223910   1.500   5.338   0.558
 7671SOL     OW23911   6.137   2.850   4.044
 7671SOL    HW123912   6.221   2.841   4.098
 7671SOL    HW223913   6.152   2.915   3.970
 7672SOL     OW23914   5.575   0.702   3.287
 7672SOL    HW123915   5.530   0.713   3.198
 7672SOL    HW223916   5.658   0.758   3.289
 7673SOL     OW23917   0.695   4.171   0.848
 7673SOL    HW123918   0.734   4.236   0.914
 7673SOL    HW223919   0.745   4.085   0.854
 7674SOL     OW23920   6.211   1.251   5.522
 7674SOL    HW123921   6.160   1.168   5.499
 7674SOL    HW223922   6.154   1.310   5.578
 7675SOL     OW23923   4.134   6.975   3.273
 7675SOL    HW123924   4.220   0.004   3.265
 7675SOL    HW223925   4.091   6.995   3.361
 7676SOL     OW23926   1.343   0.671   0.417
 7676SOL    HW123927   1.285   0.747   0.447
 7676SOL    HW223928   1.407   0.648   0.490
 7677SOL     OW23929   1.583   3.195   2.530
 7677SOL    HW123930   1.602   3.098   2.512
 7677SOL    HW223931   1.485   3.207   2.547
 7678SOL     OW23932   6.828   0.161   0.726
 7678SOL    HW123933   6.854   0.250   0.765
 7678SOL    HW223934   6.807   0.172   0.629
 7679SOL     OW23935   0.870   5.000   4.964
 7679SOL    HW123936   0.965   5.019   4.943
 7679SOL    HW223937   0.864   4.946   5.048
 7680SOL     OW23938   3.530   3.080   0.359
 7680SOL    HW123939   3.443   3.125   0.377
 7680SOL    HW223940   3.522   2.982   0.378
 7681SOL     OW23941   2.889   1.582   6.952
 7681SOL    HW123942   2.830   1.502   6.944
 7681SOL    HW223943   2.944   1.575   0.013
 7682SOL     OW23944   3.072   6.973   2.382
 7682SOL    HW123945   3.139   6.995   2.311
 7682SOL    HW223946   2.980   6.991   2.348
 7683SOL     OW23947   5.385   2.253   2.856
 7683SOL    HW123948   5.292   2.245   2.820
 7683SOL    HW223949   5.445   2.290   2.785
 7684SOL     OW23950   4.342   2.065   6.014
 7684SOL    HW123951   4.435   2.102   6.022
 7684SOL    HW223952   4.296   2.105   5.935
 7685SOL     OW23953   3.459   3.043   0.728
 7685SOL    HW123954   3.438   2.991   0.646
 7685SOL    HW223955   3.502   3.130   0.703
 7686SOL     OW23956   4.399   6.380   4.108
 7686SOL    HW123957   4.450   6.458   4.072
 7686SOL    HW223958   4.301   6.396   4.098
 7687SOL     OW23959   4.985   5.397   5.363
 7687SOL    HW123960   4.983   5.311   5.414
 7687SOL    HW223961   5.060   5.455   5.397
 7688SOL     OW23962   0.101   6.528   4.803
 7688SOL    HW123963   0.093   6.528   4.703
 7688SOL    HW223964   0.198   6.532   4.828
 7689SOL     OW23965   4.838   6.880   4.812
 7689SOL    HW123966   4.882   6.802   4.858
 7689SOL    HW223967   4.779   6.927   4.877
 7690SOL     OW23968   6.043   4.908   3.288
 7690SOL    HW123969   6.090   4.974   3.228
 7690SOL    HW223970   6.100   4.827   3.299
 7691SOL     OW23971   5.192   3.337   4.547
 7691SOL    HW123972   5.095   3.320   4.531
 7691SOL    HW223973   5.220   3.420   4.498
 7692SOL     OW23974   2.044   6.778   1.512
 7692SOL    HW123975   2.079   6.774   1.419
 7692SOL    HW223976   1.977   6.705   1.526
 7693SOL     OW23977   4.480   1.589   6.318
 7693SOL    HW123978   4.562   1.537   6.295
 7693SOL    HW223979   4.481   1.610   6.416
 7694SOL     OW23980   0.061   5.158   4.542
 7694SOL    HW123981   0.075   5.113   4.453
 7694SOL    HW223982   0.073   5.257   4.531
 7695SOL     OW23983   4.418   6.697   1.135
 7695SOL    HW123984   4.342   6.743   1.090
 7695SOL    HW223985   4.504   6.725   1.093
 7696SOL     OW23986   0.178   3.627   5.181
 7696SOL    HW123987   0.168   3.586   5.090
 7696SOL    HW223988   0.150   3.723   5.177
 7697SOL     OW23989   2.985   1.293   2.682
 7697SOL    HW123990   2.972   1.375   2.738
 7697SOL    HW223991   3.000   1.214   2.741
 7698SOL     OW23992   6.601   2.717   5.791
 7698SOL    HW123993   6.538   2.674   5.855
 7698SOL    HW223994   6.623   2.810   5.822
 7699SOL     OW23995   2.952   5.521   6.973
 7699SOL    HW123996   3.007   5.545   0.031
 7699SOL    HW223997   2.988   5.569   6.893
 7700SOL     OW23998   5.295   6.365   5.353
 7700SOL    HW123999   5.219   6.368   5.288
 7700SOL    HW224000   5.361   6.437   5.331
 7701SOL     OW24001   0.088   1.611   4.455
 7701SOL    HW124002   0.062   1.696   4.410
 7701SOL    HW224003   0.155   1.562   4.398
 7702SOL     OW24004   3.131   6.139   5.723
 7702SOL    HW124005   3.065   6.112   5.793
 7702SOL    HW224006   3.159   6.058   5.671
 7703SOL     OW24007   0.689   1.111   5.902
 7703SOL    HW124008   0.772   1.162   5.922
 7703SOL    HW224009   0.690   1.024   5.951
 7704SOL     OW24010   4.060   4.192   6.932
 7704SOL    HW124011   4.125   4.266   6.950
 7704SOL    HW224012   4.009   4.173   7.016
 7705SOL     OW24013   3.512   5.194   5.182
 7705SOL    HW124014   3.509   5.154   5.090
 7705SOL    HW224015   3.421   5.229   5.205
 7706SOL     OW24016   6.710   0.901   5.025
 7706SOL    HW124017   6.734   0.839   4.950
 7706SOL    HW224018   6.612   0.897   5.042
 7707SOL     OW24019   6.782   5.563   6.445
 7707SOL    HW124020   6.830   5.482   6.410
 7707SOL    HW224021   6.813   5.582   6.539
 7708SOL     OW24022   4.705   6.905   4.561
 7708SOL    HW124023   4.755   6.879   4.478
 7708SOL    HW224024   4.768   6.908   4.638
 7709SOL     OW24025   4.192   2.192   2.030
 7709SOL    HW124026   4.124   2.214   1.959
 7709SOL    HW224027   4.275   2.158   1.987
 7710SOL     OW24028   2.289   0.562   0.217
 7710SOL    HW124029   2.287   0.465   0.196
 7710SOL    HW224030   2.265   0.577   0.313
 7711SOL     OW24031   5.387   6.665   5.687
 7711SOL    HW124032   5.479   6.690   5.715
 7711SOL    HW224033   5.357   6.583   5.735
 7712SOL     OW24034   5.941   5.255   0.921
 7712SOL    HW124035   6.012   5.185   0.929
 7712SOL    HW224036   5.871   5.224   0.857
 7713SOL     OW24037   1.484   4.046   6.281
 7713SOL    HW124038   1.577   4.035   6.246
 7713SOL    HW224039   1.420   4.055   6.204
 7714SOL     OW24040   6.504   4.290   3.694
 7714SOL    HW124041   6.540   4.319   3.783
 7714SOL    HW224042   6.421   4.342   3.673
 7715SOL     OW24043   4.894   0.028   1.455
 7715SOL    HW124044   4.877   7.006   1.367
 7715SOL    HW224045   4.961   6.996   1.506
 7716SOL     OW24046   4.518   1.898   3.881
 7716SOL    HW124047   4.458   1.854   3.948
 7716SOL    HW224048   4.610   1.905   3.919
 7717SOL     OW24049   2.811   1.494   5.733
 7717SOL    HW124050   2.802   1.549   5.649
 7717SOL    HW224051   2.871   1.416   5.715
 7718SOL     OW24052   2.790   0.821   3.341
 7718SOL    HW124053   2.747   0.911   3.353
 7718SOL    HW224054   2.749   0.774   3.263
 7719SOL     OW24055   6.807   1.742   4.519
 7719SOL    HW124056   6.794   1.655   4.471
 7719SOL    HW224057   6.901   1.774   4.504
 7720SOL     OW24058   5.871   6.033   1.561
 7720SOL    HW124059   5.912   6.017   1.651
 7720SOL    HW224060   5.894   5.957   1.500
 7721SOL     OW24061   2.183   4.147   2.908
 7721SOL    HW124062   2.122   4.080   2.951
 7721SOL    HW224063   2.198   4.123   2.813
 7722SOL     OW24064   6.744   4.841   3.950
 7722SOL    HW124065   6.729   4.938   3.933
 7722SOL    HW224066   6.842   4.820   3.946
 7723SOL     OW24067   6.838   3.367   0.931
 7723SOL    HW124068   6.792   3.374   1.020
 7723SOL    HW224069   6.854   3.270   0.911
 7724SOL     OW24070   1.175   4.349   1.067
 7724SOL    HW124071   1.161   4.331   0.970
 7724SOL    HW224072   1.168   4.264   1.119
 7725SOL     OW24073   5.875   3.281   4.141
 7725SOL    HW124074   5.797   3.329   4.102
 7725SOL    HW224075   5.902   3.325   4.226
 7726SOL     OW24076   0.409   4.697   3.210
 7726SOL    HW124077   0.415   4.705   3.110
 7726SOL    HW224078   0.385   4.603   3.234
 7727SOL     OW24079   6.723   2.278   3.004
 7727SOL    HW124080   6.775   2.338   2.944
 7727SOL    HW224081   6.746   2.182   2.983
 7728SOL     OW24082   1.808   2.826   3.254
 7728SOL    HW124083   1.770   2.873   3.174
 7728SOL    HW224084   1.739   2.822   3.326
 7729SOL     OW24085   4.978   2.646   1.082
 7729SOL    HW124086   4.989   2.697   0.997
 7729SOL    HW224087   5.066   2.641   1.130
 7730SOL     OW24088   5.476   0.360   2.766
 7730SOL    HW124089   5.378   0.341   2.761
 7730SOL    HW224090   5.522   0.314   2.690
 7731SOL     OW24091   6.364   0.959   6.926
 7731SOL    HW124092   6.268   0.938   6.914
 7731SOL    HW224093   6.412   0.953   6.839
 7732SOL     OW24094   3.939   6.016   0.298
 7732SOL    HW124095   3.892   5.978   0.377
 7732SOL    HW224096   3.894   5.985   0.214
 7733SOL     OW24097   3.794   0.584   1.638
 7733SOL    HW124098   3.808   0.627   1.728
 7733SOL    HW224099   3.722   0.515   1.646
 7734SOL     OW24100   1.728   2.252   3.487
 7734SOL    HW124101   1.763   2.284   3.575
 7734SOL    HW224102   1.713   2.331   3.427
 7735SOL     OW24103   5.345   4.163   6.670
 7735SOL    HW124104   5.315   4.184   6.763
 7735SOL    HW224105   5.267   4.133   6.615
 7736SOL     OW24106   6.150   4.623   0.150
 7736SOL    HW124107   6.129   4.607   0.246
 7736SOL    HW224108   6.136   4.720   0.128
 7737SOL     OW24109   4.734   1.651   0.457
 7737SOL    HW124110   4.715   1.561   0.496
 7737SOL    HW224111   4.761   1.641   0.361
 7738SOL     OW24112   2.928   5.215   0.298
 7738SOL    HW124113   2.970   5.246   0.213
 7738SOL    HW224114   2.836   5.254   0.306
 7739SOL     OW24115   6.887   2.135   1.111
 7739SOL    HW124116   6.817   2.195   1.071
 7739SOL    HW224117   6.843   2.066   1.168
 7740SOL     OW24118   6.814   0.270   3.014
 7740SOL    HW124119   6.878   0.340   2.981
 7740SOL    HW224120   6.826   0.260   3.113
 7741SOL     OW24121   1.583   6.044   4.661
 7741SOL    HW124122   1.647   5.992   4.717
 7741SOL    HW224123   1.579   6.004   4.569
 7742SOL     OW24124   6.481   1.754   3.897
 7742SOL    HW124125   6.510   1.659   3.912
 7742SOL    HW224126   6.436   1.761   3.808
 7743SOL     OW24127   4.684   2.762   4.503
 7743SOL    HW124128   4.630   2.687   4.542
 7743SOL    HW224129   4.747   2.726   4.435
 7744SOL     OW24130   6.765   0.220   3.698
 7744SOL    HW124131   6.842   0.268   3.739
 7744SOL    HW224132   6.691   0.286   3.679
 7745SOL     OW24133   4.216   2.898   6.180
 7745SOL    HW124134   4.129   2.855   6.201
 7745SOL    HW224135   4.202   2.996   6.162
 7746SOL     OW24136   1.469   0.820   0.214
 7746SOL    HW124137   1.421   0.748   0.263
 7746SOL    HW224138   1.564   0.825   0.246
 7747SOL     OW24139   5.413   6.223   1.011
 7747SOL    HW124140   5.432   6.250   0.917
 7747SOL    HW224141   5.334   6.273   1.045
 7748SOL     OW24142   2.758   4.486   6.201
 7748SOL    HW124143   2.741   4.585   6.209
 7748SOL    HW224144   2.839   4.462   6.254
 7749SOL     OW24145   5.517   2.466   5.770
 7749SOL    HW124146   5.488   2.374   5.794
 7749SOL    HW224147   5.523   2.475   5.671
 7750SOL     OW24148   0.340   5.774   2.098
 7750SOL    HW124149   0.246   5.749   2.075
 7750SOL    HW224150   0.379   5.829   2.024
 7751SOL     OW24151   0.880   2.944   2.484
 7751SOL    HW124152   0.918   2.908   2.400
 7751SOL    HW224153   0.832   3.030   2.465
 7752SOL     OW24154   4.288   1.594   4.539
 7752SOL    HW124155   4.339   1.520   4.493
 7752SOL    HW224156   4.329   1.682   4.514
 7753SOL     OW24157   2.988   1.344   4.916
 7753SOL    HW124158   3.027   1.282   4.984
 7753SOL    HW224159   2.996   1.438   4.949
 7754SOL     OW24160   4.722   6.094   1.647
 7754SOL    HW124161   4.722   6.075   1.745
 7754SOL    HW224162   4.719   6.193   1.632
 7755SOL     OW24163   0.520   4.160   6.067
 7755SOL    HW124164   0.579   4.101   6.122
 7755SOL    HW224165   0.550   4.159   5.972
 7756SOL     OW24166   3.199   5.584   1.656
 7756SOL    HW124167   3.278   5.642   1.680
 7756SOL    HW224168   3.227   5.514   1.591
 7757SOL     OW24169   0.329   4.494   2.228
 7757SOL    HW124170   0.317   4.575   2.284
 7757SOL    HW224171   0.267   4.422   2.261
 7758SOL     OW24172   1.626   1.017   4.984
 7758SOL    HW124173   1.561   1.051   4.915
 7758SOL    HW224174   1.715   1.060   4.971
 7759SOL     OW24175   2.666   2.319   6.410
 7759SOL    HW124176   2.668   2.223   6.439
 7759SOL    HW224177   2.652   2.377   6.490
 7760SOL     OW24178   4.121   3.286   0.879
 7760SOL    HW124179   4.117   3.258   0.975
 7760SOL    HW224180   4.214   3.313   0.855
 7761SOL     OW24181   4.784   5.560   4.669
 7761SOL    HW124182   4.854   5.489   4.665
 7761SOL    HW224183   4.695   5.520   4.650
 7762SOL     OW24184   6.084   1.684   2.921
 7762SOL    HW124185   6.030   1.761   2.886
 7762SOL    HW224186   6.157   1.663   2.856
 7763SOL     OW24187   2.455   0.115   4.211
 7763SOL    HW124188   2.550   0.085   4.217
 7763SOL    HW224189   2.394   0.037   4.231
 7764SOL     OW24190   3.082   3.836   5.556
 7764SOL    HW124191   3.066   3.745   5.518
 7764SOL    HW224192   3.082   3.904   5.482
 7765SOL     OW24193   0.071   3.485   4.984
 7765SOL    HW124194   0.041   3.395   5.015
 7765SOL    HW224195   0.018   3.513   4.904
 7766SOL     OW24196   6.319   3.852   6.174
 7766SOL    HW124197   6.349   3.757   6.183
 7766SOL    HW224198   6.232   3.856   6.124
 7767SOL     OW24199   2.931   0.655   3.489
 7767SOL    HW124200   2.877   0.730   3.451
 7767SOL    HW224201   2.919   0.574   3.432
 7768SOL     OW24202   4.464   4.943   3.324
 7768SOL    HW124203   4.542   4.896   3.365
 7768SOL    HW224204   4.448   5.029   3.372
 7769SOL     OW24205   3.602   2.607   5.340
 7769SOL    HW124206   3.554   2.558   5.413
 7769SOL    HW224207   3.698   2.579   5.340
 7770SOL     OW24208   2.072   3.425   4.798
 7770SOL    HW124209   2.038   3.427   4.892
 7770SOL    HW224210   2.110   3.335   4.778
 7771SOL     OW24211   2.697   2.364   6.140
 7771SOL    HW124212   2.796   2.374   6.138
 7771SOL    HW224213   2.665   2.366   6.235
 7772SOL     OW24214   4.834   6.579   1.917
 7772SOL    HW124215   4.835   6.583   2.017
 7772SOL    HW224216   4.925   6.551   1.885
 7773SOL     OW24217   3.400   6.314   0.061
 7773SOL    HW124218   3.369   6.264   7.002
 7773SOL    HW224219   3.430   6.249   0.131
 7774SOL     OW24220   4.206   1.648   2.505
 7774SOL    HW124221   4.135   1.701   2.459
 7774SOL    HW224222   4.260   1.709   2.563
 7775SOL     OW24223   3.130   1.101   0.232
 7775SOL    HW124224   3.060   1.056   0.287
 7775SOL    HW224225   3.119   1.077   0.136
 7776SOL     OW24226   1.826   1.230   4.968
 7776SOL    HW124227   1.774   1.292   4.908
 7776SOL    HW224228   1.881   1.284   5.031
 7777SOL     OW24229   6.354   4.989   3.684
 7777SOL    HW124230   6.330   4.898   3.651
 7777SOL    HW224231   6.271   5.045   3.690
 7778SOL     OW24232   6.807   5.159   2.618
 7778SOL    HW124233   6.730   5.198   2.668
 7778SOL    HW224234   6.880   5.137   2.682
 7779SOL     OW24235   4.212   5.866   2.213
 7779SOL    HW124236   4.159   5.801   2.267
 7779SOL    HW224237   4.151   5.929   2.166
 7780SOL     OW24238   6.085   6.619   4.698
 7780SOL    HW124239   6.097   6.521   4.681
 7780SOL    HW224240   6.118   6.671   4.620
 7781SOL     OW24241   1.428   2.513   0.759
 7781SOL    HW124242   1.526   2.493   0.753
 7781SOL    HW224243   1.407   2.553   0.848
 7782SOL     OW24244   5.683   3.058   4.237
 7782SOL    HW124245   5.692   3.156   4.259
 7782SOL    HW224246   5.590   3.028   4.258
 7783SOL     OW24247   1.317   0.244   5.055
 7783SOL    HW124248   1.307   0.274   4.960
 7783SOL    HW224249   1.233   0.200   5.086
 7784SOL     OW24250   1.797   2.256   2.334
 7784SOL    HW124251   1.733   2.196   2.285
 7784SOL    HW224252   1.777   2.253   2.432
 7785SOL     OW24253   0.707   0.129   2.665
 7785SOL    HW124254   0.625   0.101   2.716
 7785SOL    HW224255   0.720   0.068   2.587
 7786SOL     OW24256   3.933   0.738   6.415
 7786SOL    HW124257   3.937   0.731   6.515
 7786SOL    HW224258   3.977   0.658   6.374
 7787SOL     OW24259   2.066   2.451   1.595
 7787SOL    HW124260   1.971   2.463   1.567
 7787SOL    HW224261   2.073   2.375   1.659
 7788SOL     OW24262   0.064   4.486   1.404
 7788SOL    HW124263   0.062   4.583   1.426
 7788SOL    HW224264   0.046   4.432   1.487
 7789SOL     OW24265   3.170   1.741   5.828
 7789SOL    HW124266   3.081   1.730   5.783
 7789SOL    HW224267   3.175   1.832   5.870
 7790SOL     OW24268   4.588   4.479   1.774
 7790SOL    HW124269   4.528   4.431   1.838
 7790SOL    HW224270   4.675   4.429   1.766
 7791SOL     OW24271   2.612   4.936   1.973
 7791SOL    HW124272   2.700   4.971   2.004
 7791SOL    HW224273   2.548   5.012   1.961
 7792SOL     OW24274   0.666   1.753   2.656
 7792SOL    HW124275   0.720   1.777   2.737
 7792SOL    HW224276   0.637   1.658   2.662
 7793SOL     OW24277   4.647   0.630   6.069
 7793SOL    HW124278   4.592   0.652   5.989
 7793SOL    HW224279   4.733   0.681   6.065
 7794SOL     OW24280   0.814   6.883   2.831
 7794SOL    HW124281   0.763   6.840   2.906
 7794SOL    HW224282   0.827   6.981   2.851
 7795SOL     OW24283   3.136   5.664   6.774
 7795SOL    HW124284   3.101   5.749   6.815
 7795SOL    HW224285   3.216   5.685   6.718
 7796SOL     OW24286   4.069   3.779   6.568
 7796SOL    HW124287   4.147   3.841   6.567
 7796SOL    HW224288   4.098   3.688   6.537
 7797SOL     OW24289   0.672   6.051   2.615
 7797SOL    HW124290   0.645   6.035   2.710
 7797SOL    HW224291   0.696   5.964   2.572
 7798SOL     OW24292   1.659   3.553   0.924
 7798SOL    HW124293   1.694   3.461   0.943
 7798SOL    HW224294   1.563   3.547   0.898
 7799SOL     OW24295   2.423   5.446   3.364
 7799SOL    HW124296   2.408   5.537   3.403
 7799SOL    HW224297   2.395   5.446   3.268
 7800SOL     OW24298   0.348   6.397   2.083
 7800SOL    HW124299   0.445   6.408   2.103
 7800SOL    HW224300   0.319   6.305   2.107
 7801SOL     OW24301   1.428   2.159   2.316
 7801SOL    HW124302   1.344   2.165   2.262
 7801SOL    HW224303   1.446   2.247   2.360
 7802SOL     OW24304   0.187   3.820   4.228
 7802SOL    HW124305   0.165   3.912   4.259
 7802SOL    HW224306   0.148   3.753   4.291
 7803SOL     OW24307   4.019   2.913   5.802
 7803SOL    HW124308   3.925   2.928   5.833
 7803SOL    HW224309   4.078   2.986   5.837
 7804SOL     OW24310   3.233   1.807   5.382
 7804SOL    HW124311   3.245   1.892   5.433
 7804SOL    HW224312   3.315   1.788   5.328
 7805SOL     OW24313   5.890   3.042   0.770
 7805SOL    HW124314   5.837   2.959   0.787
 7805SOL    HW224315   5.945   3.029   0.688
 7806SOL     OW24316   7.018   2.112   5.693
 7806SOL    HW124317   6.966   2.084   5.774
 7806SOL    HW224318   6.989   2.059   5.614
 7807SOL     OW24319   2.069   4.494   6.132
 7807SOL    HW124320   2.147   4.531   6.183
 7807SOL    HW224321   2.056   4.547   6.048
 7808SOL     OW24322   5.233   3.934   2.799
 7808SOL    HW124323   5.206   3.861   2.862
 7808SOL    HW224324   5.152   3.972   2.755
 7809SOL     OW24325   4.950   4.613   3.543
 7809SOL    HW124326   4.966   4.520   3.574
 7809SOL    HW224327   5.037   4.657   3.521
 7810SOL     OW24328   3.330   6.453   5.188
 7810SOL    HW124329   3.368   6.523   5.127
 7810SOL    HW224330   3.400   6.383   5.205
 7811SOL     OW24331   1.385   6.203   3.048
 7811SOL    HW124332   1.479   6.221   3.076
 7811SOL    HW224333   1.322   6.255   3.105
 7812SOL     OW24334   3.135   2.081   5.965
 7812SOL    HW124335   3.177   2.048   6.050
 7812SOL    HW224336   3.192   2.153   5.926
 7813SOL     OW24337   5.960   0.566   0.400
 7813SOL    HW124338   5.984   0.587   0.494
 7813SOL    HW224339   6.041   0.538   0.350
 7814SOL     OW24340   6.671   3.015   2.037
 7814SOL    HW124341   6.718   2.999   1.950
 7814SOL    HW224342   6.629   3.106   2.036
 7815SOL     OW24343   5.800   3.673   5.516
 7815SOL    HW124344   5.805   3.765   5.555
 7815SOL    HW224345   5.799   3.606   5.591
 7816SOL     OW24346   0.346   0.287   5.304
 7816SOL    HW124347   0.329   0.384   5.320
 7816SOL    HW224348   0.306   0.234   5.378
 7817SOL     OW24349   3.041   3.209   6.572
 7817SOL    HW124350   3.140   3.227   6.576
 7817SOL    HW224351   3.007   3.189   6.664
 7818SOL     OW24352   5.572   0.976   3.046
 7818SOL    HW124353   5.522   1.054   3.085
 7818SOL    HW224354   5.515   0.894   3.050
 7819SOL     OW24355   1.642   3.832   3.765
 7819SOL    HW124356   1.600   3.743   3.745
 7819SOL    HW224357   1.691   3.827   3.852
 7820SOL     OW24358   1.660   0.023   6.132
 7820SOL    HW124359   1.728   6.976   6.154
 7820SOL    HW224360   1.665   0.045   6.035
 7821SOL     OW24361   5.082   5.658   6.495
 7821SOL    HW124362   5.055   5.591   6.426
 7821SOL    HW224363   5.002   5.682   6.550
 7822SOL     OW24364   0.276   0.692   4.832
 7822SOL    HW124365   0.308   0.694   4.737
 7822SOL    HW224366   0.327   0.760   4.885
 7823SOL     OW24367   2.204   3.272   5.655
 7823SOL    HW124368   2.303   3.270   5.641
 7823SOL    HW224369   2.158   3.293   5.569
 7824SOL     OW24370   5.492   2.656   3.190
 7824SOL    HW124371   5.573   2.711   3.172
 7824SOL    HW224372   5.426   2.710   3.243
 7825SOL     OW24373   3.634   3.699   2.237
 7825SOL    HW124374   3.694   3.665   2.165
 7825SOL    HW224375   3.684   3.762   2.296
 7826SOL     OW24376   6.674   0.099   1.329
 7826SOL    HW124377   6.592   0.075   1.278
 7826SOL    HW224378   6.744   0.030   1.314
 7827SOL     OW24379   5.256   4.122   0.915
 7827SOL    HW124380   5.333   4.167   0.870
 7827SOL    HW224381   5.289   4.042   0.966
 7828SOL     OW24382   0.901   5.648   0.747
 7828SOL    HW124383   0.880   5.745   0.736
 7828SOL    HW224384   0.986   5.639   0.799
 7829SOL     OW24385   3.992   3.093   2.437
 7829SOL    HW124386   3.910   3.039   2.421
 7829SOL    HW224387   3.967   3.187   2.461
 7830SOL     OW24388   5.934   2.722   6.781
 7830SOL    HW124389   5.951   2.768   6.868
 7830SOL    HW224390   6.008   2.743   6.716
 7831SOL     OW24391   1.846   2.419   6.804
 7831SOL    HW124392   1.833   2.427   6.903
 7831SOL    HW224393   1.889   2.331   6.784
 7832SOL     OW24394   2.810   2.463   5.336
 7832SOL    HW124395   2.846   2.399   5.268
 7832SOL    HW224396   2.743   2.416   5.394
 7833SOL     OW24397   1.195   6.792   0.767
 7833SOL    HW124398   1.258   6.784   0.845
 7833SOL    HW224399   1.101   6.798   0.800
 7834SOL     OW24400   0.354   0.521   1.114
 7834SOL    HW124401   0.265   0.492   1.149
 7834SOL    HW224402   0.421   0.448   1.131
 7835SOL     OW24403   1.961   2.776   5.183
 7835SOL    HW124404   1.865   2.803   5.193
 7835SOL    HW224405   2.014   2.810   5.262
 7836SOL     OW24406   2.096   6.905   0.449
 7836SOL    HW124407   2.006   6.875   0.483
 7836SOL    HW224408   2.112   7.000   0.477
 7837SOL     OW24409   6.184   0.186   3.174
 7837SOL    HW124410   6.166   0.104   3.229
 7837SOL    HW224411   6.121   0.189   3.097
 7838SOL     OW24412   4.002   6.798   3.796
 7838SOL    HW124413   4.043   6.861   3.730
 7838SOL    HW224414   3.907   6.826   3.813
 7839SOL     OW24415   6.193   4.874   4.273
 7839SOL    HW124416   6.165   4.902   4.181
 7839SOL    HW224417   6.280   4.918   4.297
 7840SOL     OW24418   5.262   2.899   5.334
 7840SOL    HW124419   5.227   2.810   5.304
 7840SOL    HW224420   5.356   2.909   5.302
 7841SOL     OW24421   1.234   1.883   6.542
 7841SOL    HW124422   1.331   1.866   6.557
 7841SOL    HW224423   1.183   1.798   6.550
 7842SOL     OW24424   3.200   1.021   3.116
 7842SOL    HW124425   3.130   0.957   3.149
 7842SOL    HW224426   3.266   0.973   3.059
 7843SOL     OW24427   5.070   3.273   1.229
 7843SOL    HW124428   4.971   3.272   1.215
 7843SOL    HW224429   5.099   3.184   1.266
 7844SOL     OW24430   4.482   1.035   4.115
 7844SOL    HW124431   4.392   1.073   4.136
 7844SOL    HW224432   4.550   1.108   4.116
 7845SOL     OW24433   6.890   0.991   4.270
 7845SOL    HW124434   6.793   0.994   4.246
 7845SOL    HW224435   6.925   0.898   4.255
 7846SOL     OW24436   3.426   6.871   2.006
 7846SOL    HW124437   3.393   6.961   2.034
 7846SOL    HW224438   3.349   6.815   1.976
 7847SOL     OW24439   0.076   0.549   0.008
 7847SOL    HW124440   7.018   0.575   0.060
 7847SOL    HW224441   0.158   0.556   0.066
 7848SOL     OW24442   4.854   4.237   0.800
 7848SOL    HW124443   4.798   4.231   0.882
 7848SOL    HW224444   4.926   4.305   0.813
 7849SOL     OW24445   5.953   3.495   5.179
 7849SOL    HW124446   6.010   3.575   5.195
 7849SOL    HW224447   5.910   3.468   5.266
 7850SOL     OW24448   0.627   0.744   4.392
 7850SOL    HW124449   0.699   0.690   4.350
 7850SOL    HW224450   0.663   0.834   4.418
 7851SOL     OW24451   5.616   6.795   6.910
 7851SOL    HW124452   5.628   6.888   6.943
 7851SOL    HW224453   5.702   6.744   6.920
 7852SOL     OW24454   1.942   5.814   6.895
 7852SOL    HW124455   1.985   5.729   6.865
 7852SOL    HW224456   1.955   5.884   6.825
 7853SOL     OW24457   2.453   3.343   0.769
 7853SOL    HW124458   2.396   3.299   0.700
 7853SOL    HW224459   2.452   3.289   0.853
 7854SOL     OW24460   3.461   4.132   2.821
 7854SOL    HW124461   3.524   4.114   2.746
 7854SOL    HW224462   3.507   4.112   2.908
 7855SOL     OW24463   3.796   6.577   5.559
 7855SOL    HW124464   3.743   6.507   5.607
 7855SOL    HW224465   3.792   6.663   5.611
 7856SOL     OW24466   4.841   2.924   6.265
 7856SOL    HW124467   4.936   2.893   6.269
 7856SOL    HW224468   4.782   2.855   6.307
 7857SOL     OW24469   0.333   1.857   5.194
 7857SOL    HW124470   0.384   1.780   5.232
 7857SOL    HW224471   0.358   1.870   5.098
 7858SOL     OW24472   6.025   3.923   3.520
 7858SOL    HW124473   5.980   4.007   3.552
 7858SOL    HW224474   5.958   3.866   3.473
 7859SOL     OW24475   1.141   5.531   6.732
 7859SOL    HW124476   1.100   5.489   6.650
 7859SOL    HW224477   1.119   5.475   6.812
 7860SOL     OW24478   3.735   0.397   1.882
 7860SOL    HW124479   3.668   0.448   1.935
 7860SOL    HW224480   3.827   0.432   1.901
 7861SOL     OW24481   5.409   4.197   0.503
 7861SOL    HW124482   5.325   4.153   0.536
 7861SOL    HW224483   5.456   4.135   0.440
 7862SOL     OW24484   3.041   4.647   1.741
 7862SOL    HW124485   3.048   4.719   1.810
 7862SOL    HW224486   2.973   4.580   1.771
 7863SOL     OW24487   6.914   5.788   1.831
 7863SOL    HW124488   6.907   5.888   1.831
 7863SOL    HW224489   6.824   5.749   1.810
 7864SOL     OW24490   0.765   5.276   4.899
 7864SOL    HW124491   0.746   5.184   4.934
 7864SOL    HW224492   0.679   5.319   4.871
 7865SOL     OW24493   3.189   0.156   2.875
 7865SOL    HW124494   3.127   0.127   2.802
 7865SOL    HW224495   3.282   0.164   2.838
 7866SOL     OW24496   2.754   2.327   4.276
 7866SOL    HW124497   2.705   2.362   4.196
 7866SOL    HW224498   2.788   2.235   4.255
 7867SOL     OW24499   5.670   4.372   2.012
 7867SOL    HW124500   5.748   4.351   2.070
 7867SOL    HW224501   5.591   4.395   2.068
 7868SOL     OW24502   4.904   6.944   0.614
 7868SOL    HW124503   5.001   6.958   0.635
 7868SOL    HW224504   4.851   7.022   0.646
 7869SOL     OW24505   0.291   3.296   2.075
 7869SOL    HW124506   0.244   3.248   2.001
 7869SOL    HW224507   0.251   3.387   2.087
 7870SOL     OW24508   7.022   6.147   4.161
 7870SOL    HW124509   0.081   6.143   4.218
 7870SOL    HW224510   0.022   6.188   4.073
 7871SOL     OW24511   5.529   2.628   2.883
 7871SOL    HW124512   5.584   2.646   2.965
 7871SOL    HW224513   5.441   2.591   2.911
 7872SOL     OW24514   6.678   2.972   3.284
 7872SOL    HW124515   6.651   3.042   3.218
 7872SOL    HW224516   6.773   2.985   3.310
 7873SOL     OW24517   0.337   4.858   5.286
 7873SOL    HW124518   0.415   4.873   5.225
 7873SOL    HW224519   0.252   4.878   5.237
 7874SOL     OW24520   5.554   1.100   0.462
 7874SOL    HW124521   5.617   1.069   0.391
 7874SOL    HW224522   5.545   1.200   0.458
 7875SOL     OW24523   4.520   2.867   6.573
 7875SOL    HW124524   4.599   2.925   6.594
 7875SOL    HW224525   4.435   2.917   6.591
 7876SOL     OW24526   6.679   0.837   4.088
 7876SOL    HW124527   6.653   0.934   4.087
 7876SOL    HW224528   6.607   0.783   4.046
 7877SOL     OW24529   6.811   2.264   2.471
 7877SOL    HW124530   6.715   2.289   2.474
 7877SOL    HW224531   6.867   2.346   2.473
 7878SOL     OW24532   4.803   4.013   1.741
 7878SOL    HW124533   4.727   4.076   1.725
 7878SOL    HW224534   4.872   4.025   1.670
 7879SOL     OW24535   5.375   0.458   4.149
 7879SOL    HW124536   5.367   0.485   4.245
 7879SOL    HW224537   5.389   0.539   4.092
 7880SOL     OW24538   0.492   6.885   6.703
 7880SOL    HW124539   0.520   6.981   6.701
 7880SOL    HW224540   0.515   6.842   6.616
 7881SOL     OW24541   0.009   4.778   3.968
 7881SOL    HW124542   0.090   4.736   4.011
 7881SOL    HW224543   0.038   4.857   3.914
 7882SOL     OW24544   0.273   4.042   2.240
 7882SOL    HW124545   0.264   4.057   2.339
 7882SOL    HW224546   0.182   4.034   2.200
 7883SOL     OW24547   3.605   1.524   4.045
 7883SOL    HW124548   3.508   1.541   4.063
 7883SOL    HW224549   3.616   1.430   4.011
 7884SOL     OW24550   0.364   3.544   3.792
 7884SOL    HW124551   0.315   3.612   3.847
 7884SOL    HW224552   0.373   3.459   3.845
 7885SOL     OW24553   6.099   5.297   3.398
 7885SOL    HW124554   6.107   5.264   3.492
 7885SOL    HW224555   6.177   5.265   3.344
 7886SOL     OW24556   4.800   3.050   2.753
 7886SOL    HW124557   4.811   3.076   2.657
 7886SOL    HW224558   4.772   2.954   2.758
 7887SOL     OW24559   2.267   3.396   1.011
 7887SOL    HW124560   2.263   3.496   1.002
 7887SOL    HW224561   2.182   3.356   0.976
 7888SOL     OW24562   5.983   2.285   4.809
 7888SOL    HW124563   5.943   2.327   4.890
 7888SOL    HW224564   6.079   2.314   4.800
 7889SOL     OW24565   5.623   5.535   0.240
 7889SOL    HW124566   5.583   5.572   0.156
 7889SOL    HW224567   5.658   5.610   0.295
 7890SOL     OW24568   1.347   3.319   4.367
 7890SOL    HW124569   1.292   3.345   4.288
 7890SOL    HW224570   1.405   3.395   4.394
 7891SOL     OW24571   0.181   1.469   4.652
 7891SOL    HW124572   0.132   1.528   4.588
 7891SOL    HW224573   0.129   1.384   4.666
 7892SOL     OW24574   0.239   2.460   5.924
 7892SOL    HW124575   0.250   2.491   5.830
 7892SOL    HW224576   0.259   2.362   5.930
 7893SOL     OW24577   6.249   0.488   0.622
 7893SOL    HW124578   6.326   0.544   0.653
 7893SOL    HW224579   6.254   0.474   0.524
 7894SOL     OW24580   3.172   1.528   6.024
 7894SOL    HW124581   3.208   1.582   5.947
 7894SOL    HW224582   3.151   1.436   5.993
 7895SOL     OW24583   4.087   6.384   3.964
 7895SOL    HW124584   4.065   6.318   4.036
 7895SOL    HW224585   4.079   6.340   3.875
 7896SOL     OW24586   2.447   2.047   1.223
 7896SOL    HW124587   2.412   2.115   1.159
 7896SOL    HW224588   2.448   2.085   1.315
 7897SOL     OW24589   3.519   3.385   0.404
 7897SOL    HW124590   3.481   3.386   0.311
 7897SOL    HW224591   3.444   3.392   0.470
 7898SOL     OW24592   5.132   0.106   3.860
 7898SOL    HW124593   5.227   0.130   3.839
 7898SOL    HW224594   5.096   0.169   3.929
 7899SOL     OW24595   5.957   4.781   2.852
 7899SOL    HW124596   5.894   4.779   2.929
 7899SOL    HW224597   5.950   4.869   2.805
 7900SOL     OW24598   0.791   4.641   1.499
 7900SOL    HW124599   0.866   4.661   1.562
 7900SOL    HW224600   0.712   4.607   1.551
 7901SOL     OW24601   6.250   1.408   6.262
 7901SOL    HW124602   6.176   1.367   6.315
 7901SOL    HW224603   6.300   1.336   6.214
 7902SOL     OW24604   0.917   6.845   3.415
 7902SOL    HW124605   0.903   6.812   3.321
 7902SOL    HW224606   0.982   6.784   3.461
 7903SOL     OW24607   2.907   2.309   5.145
 7903SOL    HW124608   3.005   2.300   5.123
 7903SOL    HW224609   2.856   2.331   5.062
 7904SOL     OW24610   4.921   1.715   2.530
 7904SOL    HW124611   4.932   1.683   2.624
 7904SOL    HW224612   5.002   1.693   2.476
 7905SOL     OW24613   5.656   0.659   0.951
 7905SOL    HW124614   5.753   0.682   0.946
 7905SOL    HW224615   5.625   0.666   1.046
 7906SOL     OW24616   2.037   5.449   0.303
 7906SOL    HW124617   2.062   5.546   0.302
 7906SOL    HW224618   1.967   5.433   0.372
 7907SOL     OW24619   6.293   0.268   2.856
 7907SOL    HW124620   6.329   0.196   2.915
 7907SOL    HW224621   6.346   0.352   2.869
 7908SOL     OW24622   0.906   0.283   6.823
 7908SOL    HW124623   0.967   0.312   6.750
 7908SOL    HW224624   0.959   0.236   6.894
 7909SOL     OW24625   5.631   4.710   1.807
 7909SOL    HW124626   5.592   4.697   1.715
 7909SOL    HW224627   5.557   4.723   1.872
 7910SOL     OW24628   1.443   3.597   0.389
 7910SOL    HW124629   1.368   3.570   0.329
 7910SOL    HW224630   1.512   3.526   0.391
 7911SOL     OW24631   0.700   3.970   0.464
 7911SOL    HW124632   0.617   4.014   0.497
 7911SOL    HW224633   0.772   4.038   0.454
 7912SOL     OW24634   5.841   6.078   0.878
 7912SOL    HW124635   5.837   5.990   0.832
 7912SOL    HW224636   5.902   6.139   0.827
 7913SOL     OW24637   0.742   3.669   0.922
 7913SOL    HW124638   0.810   3.633   0.858
 7913SOL    HW224639   0.717   3.599   0.988
 7914SOL     OW24640   6.501   5.658   4.701
 7914SOL    HW124641   6.594   5.676   4.733
 7914SOL    HW224642   6.467   5.739   4.652
 7915SOL     OW24643   3.814   6.482   2.785
 7915SOL    HW124644   3.735   6.508   2.730
 7915SOL    HW224645   3.846   6.392   2.755
 7916SOL     OW24646   1.477   0.889   4.480
 7916SOL    HW124647   1.480   0.791   4.502
 7916SOL    HW224648   1.456   0.900   4.382
 7917SOL     OW24649   4.332   3.695   1.088
 7917SOL    HW124650   4.311   3.770   1.152
 7917SOL    HW224651   4.283   3.613   1.116
 7918SOL     OW24652   2.294   1.752   4.294
 7918SOL    HW124653   2.241   1.823   4.249
 7918SOL    HW224654   2.377   1.793   4.334
 7919SOL     OW24655   1.679   6.295   3.253
 7919SOL    HW124656   1.610   6.285   3.324
 7919SOL    HW224657   1.764   6.328   3.294
 7920SOL     OW24658   5.462   0.423   0.562
 7920SOL    HW124659   5.476   0.511   0.607
 7920SOL    HW224660   5.484   0.349   0.625
 7921SOL     OW24661   4.640   1.814   1.761
 7921SOL    HW124662   4.693   1.872   1.700
 7921SOL    HW224663   4.657   1.840   1.856
 7922SOL     OW24664   1.472   5.502   1.261
 7922SOL    HW124665   1.515   5.474   1.347
 7922SOL    HW224666   1.513   5.586   1.228
 7923SOL     OW24667   4.590   1.863   0.293
 7923SOL    HW124668   4.621   1.768   0.297
 7923SOL    HW224669   4.589   1.894   0.198
 7924SOL     OW24670   6.418   6.946   0.983
 7924SOL    HW124671   6.327   6.985   1.000
 7924SOL    HW224672   6.483   7.020   0.966
 7925SOL     OW24673   1.677   6.587   0.353
 7925SOL    HW124674   1.696   6.511   0.290
 7925SOL    HW224675   1.602   6.562   0.413
 7926SOL     OW24676   4.656   5.590   6.735
 7926SOL    HW124677   4.572   5.645   6.739
 7926SOL    HW224678   4.733   5.649   6.713
 7927SOL     OW24679   4.852   0.450   1.858
 7927SOL    HW124680   4.799   0.471   1.776
 7927SOL    HW224681   4.832   0.516   1.930
 7928SOL     OW24682   6.986   1.586   3.443
 7928SOL    HW124683   6.898   1.632   3.431
 7928SOL    HW224684   0.019   1.636   3.510
 7929SOL     OW24685   3.559   4.871   5.826
 7929SOL    HW124686   3.583   4.799   5.760
 7929SOL    HW224687   3.598   4.849   5.915
 7930SOL     OW24688   4.417   6.142   5.662
 7930SOL    HW124689   4.454   6.156   5.571
 7930SOL    HW224690   4.424   6.227   5.714
 7931SOL     OW24691   3.519   2.375   0.673
 7931SOL    HW124692   3.523   2.428   0.758
 7931SOL    HW224693   3.451   2.302   0.683
 7932SOL     OW24694   1.625   5.615   3.005
 7932SOL    HW124695   1.534   5.621   3.047
 7932SOL    HW224696   1.684   5.685   3.045
 7933SOL     OW24697   0.686   1.011   6.342
 7933SOL    HW124698   0.725   0.934   6.392
 7933SOL    HW224699   0.680   1.091   6.403
 7934SOL     OW24700   0.726   4.578   0.903
 7934SOL    HW124701   0.777   4.648   0.953
 7934SOL    HW224702   0.760   4.487   0.928
 7935SOL     OW24703   4.892   3.069   3.501
 7935SOL    HW124704   4.844   2.995   3.453
 7935SOL    HW224705   4.925   3.136   3.435
 7936SOL     OW24706   3.261   6.563   4.032
 7936SOL    HW124707   3.349   6.604   4.056
 7936SOL    HW224708   3.276   6.468   4.005
 7937SOL     OW24709   3.722   0.465   0.219
 7937SOL    HW124710   3.708   0.547   0.163
 7937SOL    HW224711   3.721   0.384   0.160
 7938SOL     OW24712   3.834   6.922   4.400
 7938SOL    HW124713   3.833   6.842   4.340
 7938SOL    HW224714   3.740   6.947   4.424
 7939SOL     OW24715   0.693   1.550   3.769
 7939SOL    HW124716   0.789   1.580   3.764
 7939SOL    HW224717   0.680   1.473   3.706
 7940SOL     OW24718   4.922   0.993   2.869
 7940SOL    HW124719   4.961   0.968   2.780
 7940SOL    HW224720   4.866   0.918   2.903
 7941SOL     OW24721   3.795   0.144   1.353
 7941SOL    HW124722   3.721   0.204   1.383
 7941SOL    HW224723   3.771   0.049   1.372
 7942SOL     OW24724   1.343   4.547   1.441
 7942SOL    HW124725   1.248   4.549   1.412
 7942SOL    HW224726   1.398   4.605   1.380
 7943SOL     OW24727   1.388   5.763   6.255
 7943SOL    HW124728   1.358   5.677   6.297
 7943SOL    HW224729   1.327   5.837   6.282
 7944SOL     OW24730   1.710   2.597   0.734
 7944SOL    HW124731   1.779   2.545   0.783
 7944SOL    HW224732   1.736   2.604   0.637
 7945SOL     OW24733   5.450   4.788   3.140
 7945SOL    HW124734   5.539   4.833   3.148
 7945SOL    HW224735   5.455   4.715   3.072
 7946SOL     OW24736   3.925   1.208   5.858
 7946SOL    HW124737   3.970   1.290   5.822
 7946SOL    HW224738   3.861   1.234   5.930
 7947SOL     OW24739   0.533   3.222   5.767
 7947SOL    HW124740   0.505   3.211   5.862
 7947SOL    HW224741   0.611   3.284   5.762
 7948SOL     OW24742   1.294   4.496   2.086
 7948SOL    HW124743   1.358   4.447   2.026
 7948SOL    HW224744   1.212   4.520   2.034
 7949SOL     OW24745   3.348   5.471   6.492
 7949SOL    HW124746   3.440   5.433   6.492
 7949SOL    HW224747   3.341   5.540   6.564
 7950SOL     OW24748   5.242   5.297   5.164
 7950SOL    HW124749   5.252   5.386   5.209
 7950SOL    HW224750   5.154   5.257   5.190
 7951SOL     OW24751   2.796   5.791   3.036
 7951SOL    HW124752   2.895   5.778   3.039
 7951SOL    HW224753   2.770   5.864   3.100
 7952SOL     OW24754   5.453   3.537   6.771
 7952SOL    HW124755   5.400   3.564   6.851
 7952SOL    HW224756   5.393   3.533   6.691
 7953SOL     OW24757   2.223   0.846   1.073
 7953SOL    HW124758   2.232   0.763   1.017
 7953SOL    HW224759   2.216   0.926   1.014
 7954SOL     OW24760   3.507   3.316   6.579
 7954SOL    HW124761   3.553   3.227   6.576
 7954SOL    HW224762   3.565   3.385   6.535
 7955SOL     OW24763   1.709   1.380   0.100
 7955SOL    HW124764   1.797   1.407   0.140
 7955SOL    HW224765   1.710   1.282   0.081
 7956SOL     OW24766   6.044   6.203   0.633
 7956SOL    HW124767   6.100   6.207   0.550
 7956SOL    HW224768   6.097   6.236   0.711
 7957SOL     OW24769   4.512   0.688   5.037
 7957SOL    HW124770   4.562   0.601   5.042
 7957SOL    HW224771   4.562   0.758   5.087
 7958SOL     OW24772   5.823   2.361   6.996
 7958SOL    HW124773   5.870   2.331   6.913
 7958SOL    HW224774   5.887   2.362   0.050
 7959SOL     OW24775   5.819   1.615   6.201
 7959SOL    HW124776   5.820   1.553   6.123
 7959SOL    HW224777   5.733   1.604   6.251
 7960SOL     OW24778   0.980   0.453   5.726
 7960SOL    HW124779   1.021   0.535   5.686
 7960SOL    HW224780   0.896   0.431   5.678
 7961SOL     OW24781   6.474   6.557   0.740
 7961SOL    HW124782   6.402   6.559   0.810
 7961SOL    HW224783   6.512   6.648   0.729
 7962SOL     OW24784   5.334   6.993   5.755
 7962SOL    HW124785   5.312   0.064   5.781
 7962SOL    HW224786   5.254   6.951   5.711
 7963SOL     OW24787   0.253   4.785   4.819
 7963SOL    HW124788   0.243   4.753   4.725
 7963SOL    HW224789   0.303   4.871   4.821
 7964SOL     OW24790   6.588   4.318   2.383
 7964SOL    HW124791   6.612   4.407   2.421
 7964SOL    HW224792   6.495   4.321   2.346
 7965SOL     OW24793   3.633   2.482   6.447
 7965SOL    HW124794   3.622   2.407   6.512
 7965SOL    HW224795   3.695   2.551   6.485
 7966SOL     OW24796   4.868   3.863   5.112
 7966SOL    HW124797   4.802   3.888   5.183
 7966SOL    HW224798   4.864   3.764   5.095
 7967SOL     OW24799   1.508   4.578   2.256
 7967SOL    HW124800   1.539   4.496   2.304
 7967SOL    HW224801   1.438   4.554   2.190
 7968SOL     OW24802   0.090   2.488   4.475
 7968SOL    HW124803   0.157   2.562   4.483
 7968SOL    HW224804   0.092   2.433   4.558
 7969SOL     OW24805   4.684   5.182   7.011
 7969SOL    HW124806   4.650   5.219   6.924
 7969SOL    HW224807   4.607   5.149   0.043
 7970SOL     OW24808   5.684   3.137   2.065
 7970SOL    HW124809   5.673   3.129   1.966
 7970SOL    HW224810   5.637   3.061   2.110
 7971SOL     OW24811   2.886   0.910   0.316
 7971SOL    HW124812   2.827   0.832   0.295
 7971SOL    HW224813   2.874   0.937   0.411
 7972SOL     OW24814   3.617   3.821   2.765
 7972SOL    HW124815   3.590   3.808   2.860
 7972SOL    HW224816   3.635   3.918   2.748
 7973SOL     OW24817   6.445   3.819   2.519
 7973SOL    HW124818   6.500   3.829   2.436
 7973SOL    HW224819   6.447   3.723   2.549
 7974SOL     OW24820   6.584   2.335   5.967
 7974SOL    HW124821   6.642   2.342   6.048
 7974SOL    HW224822   6.513   2.266   5.983
 7975SOL     OW24823   4.916   0.259   1.056
 7975SOL    HW124824   5.006   0.229   1.088
 7975SOL    HW224825   4.854   0.266   1.134
 7976SOL     OW24826   0.723   0.052   6.867
 7976SOL    HW124827   0.803   0.113   6.871
 7976SOL    HW224828   0.746   6.987   6.910
 7977SOL     OW24829   5.863   5.792   2.714
 7977SOL    HW124830   5.876   5.737   2.796
 7977SOL    HW224831   5.950   5.835   2.689
 7978SOL     OW24832   0.374   4.448   1.286
 7978SOL    HW124833   0.393   4.350   1.294
 7978SOL    HW224834   0.328   4.479   1.369
 7979SOL     OW24835   1.725   2.812   4.470
 7979SOL    HW124836   1.794   2.874   4.508
 7979SOL    HW224837   1.738   2.804   4.371
 7980SOL     OW24838   4.134   5.581   6.792
 7980SOL    HW124839   4.164   5.596   6.698
 7980SOL    HW224840   4.045   5.535   6.792
 7981SOL     OW24841   1.549   4.329   2.899
 7981SOL    HW124842   1.512   4.244   2.863
 7981SOL    HW224843   1.620   4.309   2.967
 7982SOL     OW24844   0.054   1.899   5.152
 7982SOL    HW124845   7.004   1.912   5.220
 7982SOL    HW224846   0.142   1.887   5.199
 7983SOL     OW24847   4.920   1.869   2.129
 7983SOL    HW124848   4.915   1.887   2.227
 7983SOL    HW224849   4.828   1.854   2.093
 7984SOL     OW24850   0.543   2.105   2.427
 7984SOL    HW124851   0.603   2.094   2.506
 7984SOL    HW224852   0.555   2.197   2.388
 7985SOL     OW24853   2.560   1.957   5.341
 7985SOL    HW124854   2.478   1.971   5.285
 7985SOL    HW224855   2.581   2.041   5.391
 7986SOL     OW24856   2.578   0.903   3.837
 7986SOL    HW124857   2.536   0.973   3.780
 7986SOL    HW224858   2.675   0.926   3.852
 7987SOL     OW24859   1.289   3.121   0.252
 7987SOL    HW124860   1.355   3.181   0.297
 7987SOL    HW224861   1.322   3.027   0.255
 7988SOL     OW24862   0.143   1.439   0.777
 7988SOL    HW124863   0.136   1.377   0.855
 7988SOL    HW224864   0.206   1.513   0.799
 7989SOL     OW24865   0.584   4.545   0.146
 7989SOL    HW124866   0.617   4.451   0.148
 7989SOL    HW224867   0.551   4.570   0.237
 7990SOL     OW24868   3.700   5.460   5.307
 7990SOL    HW124869   3.770   5.495   5.244
 7990SOL    HW224870   3.637   5.401   5.257
 7991SOL     OW24871   6.341   1.530   4.910
 7991SOL    HW124872   6.354   1.594   4.835
 7991SOL    HW224873   6.260   1.474   4.893
 7992SOL     OW24874   2.789   0.633   0.736
 7992SOL    HW124875   2.711   0.693   0.719
 7992SOL    HW224876   2.776   0.546   0.688
 7993SOL     OW24877   6.666   5.975   0.977
 7993SOL    HW124878   6.697   5.972   1.072
 7993SOL    HW224879   6.567   5.987   0.975
 7994SOL     OW24880   5.547   0.301   3.009
 7994SOL    HW124881   5.647   0.292   3.012
 7994SOL    HW224882   5.520   0.325   2.915
 7995SOL     OW24883   0.147   4.563   1.085
 7995SOL    HW124884   0.132   4.660   1.105
 7995SOL    HW224885   0.169   4.515   1.170
 7996SOL     OW24886   3.604   0.692   2.660
 7996SOL    HW124887   3.505   0.699   2.666
 7996SOL    HW224888   3.645   0.719   2.747
 7997SOL     OW24889   0.828   2.534   0.189
 7997SOL    HW124890   0.903   2.572   0.244
 7997SOL    HW224891   0.740   2.559   0.231
 7998SOL     OW24892   2.354   1.563   0.580
 7998SOL    HW124893   2.420   1.489   0.566
 7998SOL    HW224894   2.266   1.524   0.607
 7999SOL     OW24895   0.733   0.786   4.841
 7999SOL    HW124896   0.665   0.719   4.810
 7999SOL    HW224897   0.824   0.757   4.812
 8000SOL     OW24898   5.226   5.549   6.985
 8000SOL    HW124899   5.221   5.529   6.887
 8000SOL    HW224900   5.210   5.646   7.000
 8001SOL     OW24901   4.597   6.488   1.267
 8001SOL    HW124902   4.514   6.531   1.231
 8001SOL    HW224903   4.628   6.417   1.204
 8002SOL     OW24904   0.856   6.985   5.160
 8002SOL    HW124905   0.833   0.060   5.163
 8002SOL    HW224906   0.951   6.973   5.187
 8003SOL     OW24907   2.806   6.313   2.595
 8003SOL    HW124908   2.709   6.292   2.587
 8003SOL    HW224909   2.851   6.297   2.507
 8004SOL     OW24910   1.375   2.917   3.808
 8004SOL    HW124911   1.415   2.834   3.770
 8004SOL    HW224912   1.278   2.923   3.783
 8005SOL     OW24913   2.418   0.668   3.222
 8005SOL    HW124914   2.503   0.713   3.195
 8005SOL    HW224915   2.341   0.714   3.178
 8006SOL     OW24916   3.446   4.725   5.382
 8006SOL    HW124917   3.350   4.707   5.358
 8006SOL    HW224918   3.499   4.642   5.372
 8007SOL     OW24919   6.139   0.412   6.582
 8007SOL    HW124920   6.083   0.336   6.549
 8007SOL    HW224921   6.216   0.377   6.634
 8008SOL     OW24922   5.153   0.018   6.047
 8008SOL    HW124923   5.237   6.991   6.026
 8008SOL    HW224924   5.105   0.039   5.962
 8009SOL     OW24925   4.630   1.194   6.615
 8009SOL    HW124926   4.640   1.278   6.562
 8009SOL    HW224927   4.716   1.143   6.614
 8010SOL     OW24928   2.623   2.192   5.499
 8010SOL    HW124929   2.694   2.148   5.554
 8010SOL    HW224930   2.590   2.274   5.545
 8011SOL     OW24931   4.038   1.786   1.999
 8011SOL    HW124932   4.087   1.817   1.917
 8011SOL    HW224933   4.092   1.807   2.080
 8012SOL     OW24934   0.217   2.517   5.671
 8012SOL    HW124935   0.213   2.559   5.580
 8012SOL    HW224936   0.141   2.453   5.681
 8013SOL     OW24937   2.768   2.357   3.024
 8013SOL    HW124938   2.832   2.301   3.077
 8013SOL    HW224939   2.804   2.370   2.931
 8014SOL     OW24940   1.980   1.014   2.764
 8014SOL    HW124941   2.058   1.027   2.703
 8014SOL    HW224942   1.976   1.089   2.830
 8015SOL     OW24943   2.362   6.929   5.481
 8015SOL    HW124944   2.301   6.880   5.543
 8015SOL    HW224945   2.372   6.877   5.396
 8016SOL     OW24946   4.482   1.325   4.810
 8016SOL    HW124947   4.549   1.276   4.754
 8016SOL    HW224948   4.530   1.376   4.881
 8017SOL     OW24949   6.608   6.654   1.371
 8017SOL    HW124950   6.623   6.701   1.284
 8017SOL    HW224951   6.613   6.555   1.357
 8018SOL     OW24952   4.029   2.473   0.062
 8018SOL    HW124953   4.129   2.479   0.063
 8018SOL    HW224954   4.000   2.429   6.999
 8019SOL     OW24955   2.415   3.587   1.422
 8019SOL    HW124956   2.468   3.646   1.362
 8019SOL    HW224957   2.423   3.492   1.391
 8020SOL     OW24958   0.125   0.155   5.413
 8020SOL    HW124959   0.115   0.056   5.414
 8020SOL    HW224960   0.121   0.188   5.318
 8021SOL     OW24961   1.211   2.316   2.106
 8021SOL    HW124962   1.294   2.334   2.053
 8021SOL    HW224963   1.131   2.344   2.054
 8022SOL     OW24964   4.493   1.349   2.016
 8022SOL    HW124965   4.456   1.438   1.989
 8022SOL    HW224966   4.418   1.288   2.040
 8023SOL     OW24967   4.671   5.573   3.056
 8023SOL    HW124968   4.591   5.606   3.108
 8023SOL    HW224969   4.648   5.567   2.959
 8024SOL     OW24970   1.821   0.552   6.520
 8024SOL    HW124971   1.865   0.513   6.440
 8024SOL    HW224972   1.789   0.644   6.499
 8025SOL     OW24973   2.059   5.041   1.070
 8025SOL    HW124974   2.013   5.010   0.987
 8025SOL    HW224975   2.006   5.115   1.112
 8026SOL     OW24976   1.244   5.589   6.384
 8026SOL    HW124977   1.319   5.565   6.445
 8026SOL    HW224978   1.158   5.557   6.424
 8027SOL     OW24979   3.348   0.053   0.185
 8027SOL    HW124980   3.250   0.048   0.204
 8027SOL    HW224981   3.363   0.111   0.105
 8028SOL     OW24982   3.149   5.511   4.988
 8028SOL    HW124983   3.067   5.534   4.935
 8028SOL    HW224984   3.133   5.532   5.085
 8029SOL     OW24985   6.552   6.839   0.469
 8029SOL    HW124986   6.473   6.899   0.454
 8029SOL    HW224987   6.556   6.813   0.565
 8030SOL     OW24988   0.868   3.761   0.451
 8030SOL    HW124989   0.799   3.825   0.485
 8030SOL    HW224990   0.825   3.674   0.429
 8031SOL     OW24991   6.544   1.537   2.727
 8031SOL    HW124992   6.570   1.441   2.732
 8031SOL    HW224993   6.571   1.584   2.811
 8032SOL     OW24994   5.425   2.904   1.266
 8032SOL    HW124995   5.444   2.854   1.182
 8032SOL    HW224996   5.474   2.862   1.342
 8033SOL     OW24997   4.519   3.758   0.871
 8033SOL    HW124998   4.466   3.763   0.787
 8033SOL    HW224999   4.457   3.747   0.949
 8034SOL     OW25000   5.753   0.302   5.400
 8034SOL    HW125001   5.709   0.382   5.440
 8034SOL    HW225002   5.791   0.325   5.311
 8035SOL     OW25003   5.519   1.957   3.120
 8035SOL    HW125004   5.565   1.917   3.199
 8035SOL    HW225005   5.587   1.999   3.060
 8036SOL     OW25006   5.946   2.788   3.683
 8036SOL    HW125007   5.920   2.717   3.749
 8036SOL    HW225008   5.910   2.763   3.593
 8037SOL     OW25009   1.289   2.508   5.949
 8037SOL    HW125010   1.382   2.496   5.986
 8037SOL    HW225011   1.294   2.534   5.853
 8038SOL     OW25012   0.396   5.126   2.978
 8038SOL    HW125013   0.466   5.171   2.923
 8038SOL    HW225014   0.439   5.064   3.043
 8039SOL     OW25015   1.184   2.490   5.350
 8039SOL    HW125016   1.165   2.488   5.252
 8039SOL    HW225017   1.098   2.497   5.401
 8040SOL     OW25018   2.389   6.078   5.886
 8040SOL    HW125019   2.412   6.094   5.791
 8040SOL    HW225020   2.451   6.129   5.945
 8041SOL     OW25021   3.933   1.442   3.308
 8041SOL    HW125022   3.978   1.369   3.256
 8041SOL    HW225023   3.837   1.417   3.322
 8042SOL     OW25024   4.098   4.131   5.630
 8042SOL    HW125025   4.119   4.179   5.544
 8042SOL    HW225026   3.999   4.130   5.645
 8043SOL     OW25027   5.239   4.738   6.671
 8043SOL    HW125028   5.333   4.716   6.697
 8043SOL    HW225029   5.189   4.770   6.752
 8044SOL     OW25030   3.415   3.666   1.680
 8044SOL    HW125031   3.473   3.731   1.728
 8044SOL    HW225032   3.320   3.699   1.682
 8045SOL     OW25033   0.395   1.323   2.743
 8045SOL    HW125034   0.489   1.287   2.748
 8045SOL    HW225035   0.345   1.297   2.825
 8046SOL     OW25036   0.423   5.171   2.340
 8046SOL    HW125037   0.476   5.129   2.415
 8046SOL    HW225038   0.342   5.216   2.377
 8047SOL     OW25039   3.489   6.838   6.568
 8047SOL    HW125040   3.470   6.899   6.645
 8047SOL    HW225041   3.588   6.820   6.564
 8048SOL     OW25042   3.939   2.863   6.923
 8048SOL    HW125043   4.010   2.801   6.892
 8048SOL    HW225044   3.866   2.811   6.967
 8049SOL     OW25045   1.408   1.414   0.572
 8049SOL    HW125046   1.475   1.466   0.520
 8049SOL    HW225047   1.397   1.324   0.532
 8050SOL     OW25048   0.589   4.331   5.713
 8050SOL    HW125049   0.587   4.425   5.746
 8050SOL    HW225050   0.518   4.277   5.759
 8051SOL     OW25051   3.793   5.495   3.748
 8051SOL    HW125052   3.839   5.461   3.830
 8051SOL    HW225053   3.699   5.522   3.771
 8052SOL     OW25054   2.228   2.625   2.495
 8052SOL    HW125055   2.166   2.557   2.455
 8052SOL    HW225056   2.322   2.601   2.471
 8053SOL     OW25057   2.496   2.749   6.624
 8053SOL    HW125058   2.570   2.763   6.689
 8053SOL    HW225059   2.449   2.663   6.645
 8054SOL     OW25060   5.351   3.370   5.293
 8054SOL    HW125061   5.284   3.438   5.261
 8054SOL    HW225062   5.315   3.278   5.278
 8055SOL     OW25063   6.896   0.286   6.091
 8055SOL    HW125064   6.813   0.340   6.108
 8055SOL    HW225065   6.940   0.264   6.178
 8056SOL     OW25066   2.262   1.206   4.311
 8056SOL    HW125067   2.274   1.169   4.403
 8056SOL    HW225068   2.268   1.306   4.314
 8057SOL     OW25069   2.722   2.358   2.337
 8057SOL    HW125070   2.773   2.328   2.418
 8057SOL    HW225071   2.777   2.344   2.255
 8058SOL     OW25072   3.129   6.410   2.952
 8058SOL    HW125073   3.165   6.319   2.973
 8058SOL    HW225074   3.194   6.459   2.895
 8059SOL     OW25075   2.580   3.073   6.385
 8059SOL    HW125076   2.548   3.003   6.322
 8059SOL    HW225077   2.514   3.147   6.390
 8060SOL     OW25078   6.469   7.017   5.814
 8060SOL    HW125079   6.387   7.015   5.871
 8060SOL    HW225080   6.545   0.032   5.867
 8061SOL     OW25081   6.794   0.688   1.886
 8061SOL    HW125082   6.809   0.725   1.978
 8061SOL    HW225083   6.726   0.614   1.891
 8062SOL     OW25084   4.230   5.758   5.966
 8062SOL    HW125085   4.232   5.790   6.061
 8062SOL    HW225086   4.269   5.666   5.961
 8063SOL     OW25087   3.749   6.196   3.122
 8063SOL    HW125088   3.832   6.155   3.161
 8063SOL    HW225089   3.764   6.294   3.107
 8064SOL     OW25090   5.938   1.995   0.567
 8064SOL    HW125091   5.866   1.926   0.559
 8064SOL    HW225092   5.941   2.029   0.660
 8065SOL     OW25093   3.209   5.621   5.741
 8065SOL    HW125094   3.148   5.595   5.815
 8065SOL    HW225095   3.217   5.545   5.676
 8066SOL     OW25096   0.430   6.725   4.473
 8066SOL    HW125097   0.350   6.728   4.533
 8066SOL    HW225098   0.505   6.678   4.520
 8067SOL     OW25099   5.041   3.301   3.431
 8067SOL    HW125100   5.117   3.328   3.372
 8067SOL    HW225101   4.980   3.378   3.445
 8068SOL     OW25102   6.503   4.090   1.180
 8068SOL    HW125103   6.468   4.004   1.142
 8068SOL    HW225104   6.429   4.157   1.182
 8069SOL     OW25105   2.594   4.711   2.750
 8069SOL    HW125106   2.590   4.809   2.770
 8069SOL    HW225107   2.665   4.695   2.681
 8070SOL     OW25108   5.085   4.615   6.955
 8070SOL    HW125109   5.073   4.710   6.926
 8070SOL    HW225110   4.995   4.570   6.957
 8071SOL     OW25111   2.708   0.038   5.542
 8071SOL    HW125112   2.622   0.082   5.568
 8071SOL    HW225113   2.785   0.088   5.582
 8072SOL     OW25114   1.929   2.568   6.103
 8072SOL    HW125115   1.915   2.658   6.062
 8072SOL    HW225116   2.022   2.561   6.138
 8073SOL     OW25117   3.617   0.218   6.625
 8073SOL    HW125118   3.562   0.262   6.555
 8073SOL    HW225119   3.628   0.280   6.703
 8074SOL     OW25120   1.548   1.231   6.825
 8074SOL    HW125121   1.529   1.167   6.752
 8074SOL    HW225122   1.638   1.272   6.812
 8075SOL     OW25123   0.565   6.569   0.815
 8075SOL    HW125124   0.508   6.492   0.785
 8075SOL    HW225125   0.661   6.549   0.795
 8076SOL     OW25126   7.017   6.292   0.562
 8076SOL    HW125127   6.951   6.223   0.532
 8076SOL    HW225128   0.081   6.246   0.586
 8077SOL     OW25129   4.198   5.104   0.752
 8077SOL    HW125130   4.203   5.007   0.728
 8077SOL    HW225131   4.124   5.118   0.818
 8078SOL     OW25132   0.355   0.251   2.033
 8078SOL    HW125133   0.453   0.236   2.029
 8078SOL    HW225134   0.335   0.328   2.094
 8079SOL     OW25135   1.538   2.303   5.091
 8079SOL    HW125136   1.519   2.291   5.188
 8079SOL    HW225137   1.626   2.350   5.079
 8080SOL     OW25138   1.218   3.341   3.125
 8080SOL    HW125139   1.288   3.377   3.063
 8080SOL    HW225140   1.140   3.308   3.072
 8081SOL     OW25141   6.515   5.902   4.544
 8081SOL    HW125142   6.557   5.889   4.454
 8081SOL    HW225143   6.416   5.910   4.533
 8082SOL     OW25144   3.649   2.038   1.894
 8082SOL    HW125145   3.693   2.112   1.945
 8082SOL    HW225146   3.650   2.059   1.796
 8083SOL     OW25147   5.860   2.618   4.749
 8083SOL    HW125148   5.766   2.584   4.748
 8083SOL    HW225149   5.911   2.577   4.673
 8084SOL     OW25150   2.978   0.586   6.363
 8084SOL    HW125151   2.984   0.645   6.282
 8084SOL    HW225152   2.963   0.642   6.444
 8085SOL     OW25153   0.639   6.277   4.803
 8085SOL    HW125154   0.623   6.251   4.898
 8085SOL    HW225155   0.728   6.322   4.795
 8086SOL     OW25156   0.051   1.372   1.933
 8086SOL    HW125157   0.113   1.387   2.009
 8086SOL    HW225158   0.103   1.367   1.848
 8087SOL     OW25159   0.791   0.780   0.913
 8087SOL    HW125160   0.832   0.698   0.952
 8087SOL    HW225161   0.691   0.772   0.915
 8088SOL     OW25162   5.674   6.909   5.273
 8088SOL    HW125163   5.628   6.980   5.220
 8088SOL    HW225164   5.605   6.858   5.326
 8089SOL     OW25165   5.031   2.765   5.873
 8089SOL    HW125166   5.088   2.741   5.794
 8089SOL    HW225167   5.086   2.764   5.956
 8090SOL     OW25168   4.038   1.641   5.911
 8090SOL    HW125169   4.021   1.735   5.939
 8090SOL    HW225170   3.951   1.596   5.891
 8091SOL     OW25171   1.525   4.623   4.723
 8091SOL    HW125172   1.540   4.531   4.760
 8091SOL    HW225173   1.613   4.665   4.702
 8092SOL     OW25174   4.815   2.397   5.558
 8092SOL    HW125175   4.821   2.333   5.482
 8092SOL    HW225176   4.752   2.362   5.627
 8093SOL     OW25177   4.578   6.574   2.379
 8093SOL    HW125178   4.570   6.551   2.282
 8093SOL    HW225179   4.520   6.653   2.399
 8094SOL     OW25180   1.335   3.816   3.659
 8094SOL    HW125181   1.315   3.722   3.687
 8094SOL    HW225182   1.389   3.816   3.575
 8095SOL     OW25183   1.082   4.269   5.837
 8095SOL    HW125184   1.099   4.241   5.931
 8095SOL    HW225185   1.000   4.222   5.803
 8096SOL     OW25186   1.150   6.210   2.133
 8096SOL    HW125187   1.124   6.195   2.228
 8096SOL    HW225188   1.072   6.194   2.073
 8097SOL     OW25189   3.906   5.366   5.517
 8097SOL    HW125190   3.827   5.379   5.458
 8097SOL    HW225191   3.901   5.276   5.560
 8098SOL     OW25192   1.143   5.559   5.108
 8098SOL    HW125193   1.146   5.659   5.101
 8098SOL    HW225194   1.086   5.523   5.034
 8099SOL     OW25195   2.628   5.749   3.886
 8099SOL    HW125196   2.626   5.652   3.862
 8099SOL    HW225197   2.548   5.771   3.942
 8100SOL     OW25198   0.206   0.419   6.319
 8100SOL    HW125199   0.194   0.434   6.221
 8100SOL    HW225200   0.166   0.496   6.369
 8101SOL     OW25201   2.695   5.968   1.961
 8101SOL    HW125202   2.648   5.881   1.975
 8101SOL    HW225203   2.631   6.043   1.973
 8102SOL     OW25204   1.246   2.798   4.390
 8102SOL    HW125205   1.171   2.739   4.359
 8102SOL    HW225206   1.271   2.862   4.317
 8103SOL     OW25207   3.513   1.417   2.259
 8103SOL    HW125208   3.469   1.370   2.183
 8103SOL    HW225209   3.539   1.509   2.231
 8104SOL     OW25210   2.301   6.551   0.343
 8104SOL    HW125211   2.334   6.572   0.251
 8104SOL    HW225212   2.311   6.632   0.401
 8105SOL     OW25213   6.781   1.432   2.486
 8105SOL    HW125214   6.706   1.439   2.421
 8105SOL    HW225215   6.864   1.404   2.438
 8106SOL     OW25216   2.284   6.247   4.860
 8106SOL    HW125217   2.227   6.165   4.851
 8106SOL    HW225218   2.268   6.289   4.949
 8107SOL     OW25219   1.638   5.585   5.210
 8107SOL    HW125220   1.697   5.506   5.227
 8107SOL    HW225221   1.543   5.562   5.231
 8108SOL     OW25222   7.003   1.362   6.959
 8108SOL    HW125223   0.058   1.419   6.929
 8108SOL    HW225224   0.015   1.276   6.996
 8109SOL     OW25225   6.501   2.914   0.285
 8109SOL    HW125226   6.540   2.938   0.374
 8109SOL    HW225227   6.551   2.961   0.212
 8110SOL     OW25228   4.147   5.381   0.424
 8110SOL    HW125229   4.112   5.414   0.335
 8110SOL    HW225230   4.074   5.330   0.471
 8111SOL     OW25231   5.758   1.255   2.911
 8111SOL    HW125232   5.847   1.299   2.901
 8111SOL    HW225233   5.768   1.157   2.896
 8112SOL     OW25234   0.612   2.773   5.796
 8112SOL    HW125235   0.521   2.791   5.758
 8112SOL    HW225236   0.651   2.859   5.827
 8113SOL     OW25237   6.344   2.713   1.121
 8113SOL    HW125238   6.297   2.711   1.209
 8113SOL    HW225239   6.318   2.632   1.067
 8114SOL     OW25240   2.055   4.374   1.949
 8114SOL    HW125241   2.063   4.286   1.902
 8114SOL    HW225242   1.962   4.385   1.984
 8115SOL     OW25243   2.490   0.660   0.062
 8115SOL    HW125244   2.397   0.661   0.100
 8115SOL    HW225245   2.486   0.669   6.985
 8116SOL     OW25246   3.000   4.659   1.462
 8116SOL    HW125247   2.935   4.585   1.446
 8116SOL    HW225248   3.042   4.648   1.553
 8117SOL     OW25249   2.901   6.919   3.020
 8117SOL    HW125250   2.993   6.942   2.989
 8117SOL    HW225251   2.886   6.960   3.110
 8118SOL     OW25252   6.273   3.012   0.166
 8118SOL    HW125253   6.360   2.989   0.210
 8118SOL    HW225254   6.198   2.992   0.229
 8119SOL     OW25255   5.920   5.545   6.500
 8119SOL    HW125256   5.923   5.515   6.595
 8119SOL    HW225257   6.002   5.514   6.452
 8120SOL     OW25258   2.333   6.181   1.050
 8120SOL    HW125259   2.369   6.138   1.132
 8120SOL    HW225260   2.263   6.249   1.075
 8121SOL     OW25261   1.341   3.279   2.593
 8121SOL    HW125262   1.338   3.368   2.638
 8121SOL    HW225263   1.280   3.216   2.640
 8122SOL     OW25264   0.903   4.353   2.352
 8122SOL    HW125265   0.986   4.298   2.336
 8122SOL    HW225266   0.852   4.361   2.266
 8123SOL     OW25267   0.607   1.683   5.866
 8123SOL    HW125268   0.682   1.683   5.800
 8123SOL    HW225269   0.644   1.681   5.959
 8124SOL     OW25270   5.746   5.004   4.209
 8124SOL    HW125271   5.683   4.961   4.144
 8124SOL    HW225272   5.769   4.938   4.281
 8125SOL     OW25273   0.791   0.029   2.399
 8125SOL    HW125274   0.878   0.031   2.448
 8125SOL    HW225275   0.807   7.023   2.305
 8126SOL     OW25276   3.962   4.835   4.537
 8126SOL    HW125277   3.999   4.828   4.629
 8126SOL    HW225278   3.862   4.832   4.540
 8127SOL     OW25279   3.069   2.889   0.200
 8127SOL    HW125280   2.988   2.921   0.251
 8127SOL    HW225281   3.056   2.908   0.103
 8128SOL     OW25282   3.243   2.838   2.111
 8128SOL    HW125283   3.314   2.877   2.170
 8128SOL    HW225284   3.181   2.782   2.166
 8129SOL     OW25285   1.511   2.786   0.485
 8129SOL    HW125286   1.550   2.878   0.488
 8129SOL    HW225287   1.585   2.718   0.486
 8130SOL     OW25288   1.496   5.324   6.367
 8130SOL    HW125289   1.492   5.401   6.431
 8130SOL    HW225290   1.447   5.245   6.405
 8131SOL     OW25291   2.053   3.674   1.150
 8131SOL    HW125292   1.999   3.661   1.067
 8131SOL    HW225293   2.141   3.714   1.126
 8132SOL     OW25294   6.875   6.763   4.592
 8132SOL    HW125295   6.835   6.708   4.666
 8132SOL    HW225296   6.926   6.839   4.631
 8133SOL     OW25297   3.304   4.949   0.934
 8133SOL    HW125298   3.288   4.851   0.948
 8133SOL    HW225299   3.222   5.000   0.958
 8134SOL     OW25300   5.988   0.660   5.211
 8134SOL    HW125301   5.995   0.699   5.119
 8134SOL    HW225302   6.080   0.653   5.250
 8135SOL     OW25303   2.588   0.070   1.358
 8135SOL    HW125304   2.519   0.119   1.412
 8135SOL    HW225305   2.577   6.994   1.372
 8136SOL     OW25306   4.468   5.187   2.514
 8136SOL    HW125307   4.400   5.240   2.565
 8136SOL    HW225308   4.550   5.175   2.570
 8137SOL     OW25309   3.844   1.759   4.787
 8137SOL    HW125310   3.889   1.683   4.835
 8137SOL    HW225311   3.750   1.767   4.821
 8138SOL     OW25312   5.350   0.918   1.288
 8138SOL    HW125313   5.424   0.952   1.346
 8138SOL    HW225314   5.322   0.990   1.224
 8139SOL     OW25315   1.021   1.604   2.660
 8139SOL    HW125316   0.957   1.532   2.683
 8139SOL    HW225317   1.061   1.642   2.743
 8140SOL     OW25318   4.030   1.635   3.470
 8140SOL    HW125319   4.072   1.596   3.551
 8140SOL    HW225320   4.012   1.563   3.403
 8141SOL     OW25321   4.131   5.488   5.197
 8141SOL    HW125322   4.185   5.414   5.237
 8141SOL    HW225323   4.188   5.539   5.132
 8142SOL     OW25324   6.183   5.056   0.603
 8142SOL    HW125325   6.277   5.072   0.634
 8142SOL    HW225326   6.141   4.985   0.661
 8143SOL     OW25327   5.870   4.287   5.862
 8143SOL    HW125328   5.937   4.310   5.791
 8143SOL    HW225329   5.902   4.322   5.950
 8144SOL     OW25330   5.416   6.432   6.959
 8144SOL    HW125331   5.330   6.384   6.942
 8144SOL    HW225332   5.465   6.444   6.873
 8145SOL     OW25333   6.078   5.902   2.575
 8145SOL    HW125334   6.013   5.936   2.508
 8145SOL    HW225335   6.119   5.817   2.542
 8146SOL     OW25336   3.209   1.088   5.800
 8146SOL    HW125337   3.209   1.169   5.741
 8146SOL    HW225338   3.303   1.054   5.809
 8147SOL     OW25339   5.337   2.033   4.165
 8147SOL    HW125340   5.410   1.970   4.194
 8147SOL    HW225341   5.348   2.056   4.069
 8148SOL     OW25342   5.899   3.096   2.894
 8148SOL    HW125343   5.987   3.141   2.879
 8148SOL    HW225344   5.885   3.026   2.823
 8149SOL     OW25345   4.310   5.142   3.431
 8149SOL    HW125346   4.234   5.085   3.401
 8149SOL    HW225347   4.290   5.238   3.412
 8150SOL     OW25348   1.118   5.138   6.386
 8150SOL    HW125349   1.075   5.053   6.419
 8150SOL    HW225350   1.217   5.125   6.381
 8151SOL     OW25351   1.305   2.004   5.306
 8151SOL    HW125352   1.310   1.941   5.384
 8151SOL    HW225353   1.280   1.953   5.223
 8152SOL     OW25354   1.650   0.646   3.451
 8152SOL    HW125355   1.662   0.746   3.456
 8152SOL    HW225356   1.558   0.626   3.416
 8153SOL     OW25357   2.866   6.169   0.769
 8153SOL    HW125358   2.839   6.255   0.813
 8153SOL    HW225359   2.800   6.147   0.697
 8154SOL     OW25360   1.818   6.375   3.735
 8154SOL    HW125361   1.727   6.413   3.753
 8154SOL    HW225362   1.809   6.295   3.675
 8155SOL     OW25363   3.186   3.425   3.047
 8155SOL    HW125364   3.257   3.356   3.060
 8155SOL    HW225365   3.225   3.506   3.004
 8156SOL     OW25366   5.695   0.697   5.236
 8156SOL    HW125367   5.791   0.675   5.251
 8156SOL    HW225368   5.687   0.759   5.158
 8157SOL     OW25369   5.808   4.349   6.723
 8157SOL    HW125370   5.810   4.269   6.662
 8157SOL    HW225371   5.870   4.333   6.800
 8158SOL     OW25372   1.597   5.277   1.974
 8158SOL    HW125373   1.525   5.310   2.034
 8158SOL    HW225374   1.632   5.353   1.919
 8159SOL     OW25375   1.773   5.813   2.411
 8159SOL    HW125376   1.782   5.908   2.443
 8159SOL    HW225377   1.683   5.779   2.435
 8160SOL     OW25378   4.124   2.459   1.721
 8160SOL    HW125379   4.049   2.525   1.724
 8160SOL    HW225380   4.095   2.373   1.763
 8161SOL     OW25381   4.845   1.487   0.207
 8161SOL    HW125382   4.767   1.474   0.146
 8161SOL    HW225383   4.835   1.428   0.287
 8162SOL     OW25384   5.118   6.816   1.240
 8162SOL    HW125385   5.053   6.851   1.172
 8162SOL    HW225386   5.168   6.738   1.202
 8163SOL     OW25387   2.165   3.954   5.301
 8163SOL    HW125388   2.162   4.002   5.389
 8163SOL    HW225389   2.235   3.996   5.243
 8164SOL     OW25390   4.375   2.509   1.830
 8164SOL    HW125391   4.415   2.425   1.795
 8164SOL    HW225392   4.277   2.511   1.812
 8165SOL     OW25393   2.251   4.459   1.289
 8165SOL    HW125394   2.166   4.512   1.287
 8165SOL    HW225395   2.252   4.401   1.370
 8166SOL     OW25396   2.946   6.956   1.786
 8166SOL    HW125397   2.934   6.912   1.697
 8166SOL    HW225398   2.882   0.009   1.795
 8167SOL     OW25399   5.999   2.652   4.139
 8167SOL    HW125400   6.017   2.569   4.086
 8167SOL    HW225401   6.048   2.729   4.098
 8168SOL     OW25402   3.641   0.876   3.207
 8168SOL    HW125403   3.738   0.857   3.194
 8168SOL    HW225404   3.611   0.940   3.137
 8169SOL     OW25405   4.350   3.623   6.552
 8169SOL    HW125406   4.438   3.596   6.512
 8169SOL    HW225407   4.344   3.723   6.554
 8170SOL     OW25408   0.792   5.922   4.253
 8170SOL    HW125409   0.860   5.861   4.213
 8170SOL    HW225410   0.778   6.000   4.192
 8171SOL     OW25411   0.882   2.727   5.674
 8171SOL    HW125412   0.976   2.726   5.709
 8171SOL    HW225413   0.818   2.713   5.749
 8172SOL     OW25414   0.601   6.435   1.063
 8172SOL    HW125415   0.625   6.517   1.011
 8172SOL    HW225416   0.671   6.418   1.133
 8173SOL     OW25417   4.287   2.409   6.843
 8173SOL    HW125418   4.201   2.376   6.804
 8173SOL    HW225419   4.310   2.497   6.800
 8174SOL     OW25420   5.596   1.016   2.017
 8174SOL    HW125421   5.577   0.950   2.090
 8174SOL    HW225422   5.648   0.971   1.944
 8175SOL     OW25423   0.746   2.712   6.313
 8175SOL    HW125424   0.744   2.622   6.271
 8175SOL    HW225425   0.785   2.778   6.249
 8176SOL     OW25426   2.729   5.487   2.450
 8176SOL    HW125427   2.679   5.435   2.519
 8176SOL    HW225428   2.760   5.573   2.490
 8177SOL     OW25429   6.633   6.221   5.180
 8177SOL    HW125430   6.650   6.258   5.271
 8177SOL    HW225431   6.717   6.180   5.144
 8178SOL     OW25432   2.245   6.488   6.153
 8178SOL    HW125433   2.310   6.520   6.222
 8178SOL    HW225434   2.170   6.439   6.199
 8179SOL     OW25435   3.398   2.563   0.344
 8179SOL    HW125436   3.387   2.466   0.320
 8179SOL    HW225437   3.394   2.618   0.260
 8180SOL     OW25438   6.245   5.875   4.865
 8180SOL    HW125439   6.269   5.954   4.808
 8180SOL    HW225440   6.168   5.900   4.924
 8181SOL     OW25441   2.633   2.408   3.247
 8181SOL    HW125442   2.673   2.382   3.159
 8181SOL    HW225443   2.699   2.390   3.320
 8182SOL     OW25444   4.189   2.148   5.158
 8182SOL    HW125445   4.150   2.204   5.231
 8182SOL    HW225446   4.223   2.062   5.196
 8183SOL     OW25447   1.426   3.603   4.672
 8183SOL    HW125448   1.380   3.691   4.670
 8183SOL    HW225449   1.418   3.562   4.763
 8184SOL     OW25450   6.680   6.328   5.452
 8184SOL    HW125451   6.637   6.412   5.484
 8184SOL    HW225452   6.658   6.254   5.516
 8185SOL     OW25453   2.785   1.339   2.539
 8185SOL    HW125454   2.860   1.300   2.592
 8185SOL    HW225455   2.795   1.313   2.443
 8186SOL     OW25456   3.547   5.998   5.922
 8186SOL    HW125457   3.493   5.960   5.847
 8186SOL    HW225458   3.595   5.924   5.969
 8187SOL     OW25459   1.930   1.619   4.814
 8187SOL    HW125460   1.893   1.540   4.863
 8187SOL    HW225461   2.010   1.654   4.862
 8188SOL     OW25462   5.819   2.817   3.390
 8188SOL    HW125463   5.890   2.843   3.325
 8188SOL    HW225464   5.754   2.893   3.400
 8189SOL     OW25465   5.999   4.224   2.588
 8189SOL    HW125466   6.082   4.175   2.616
 8189SOL    HW225467   6.020   4.320   2.573
 8190SOL     OW25468   4.876   3.655   3.273
 8190SOL    HW125469   4.842   3.668   3.366
 8190SOL    HW225470   4.880   3.743   3.226
 8191SOL     OW25471   0.884   4.597   4.112
 8191SOL    HW125472   0.930   4.523   4.063
 8191SOL    HW225473   0.885   4.578   4.210
 8192SOL     OW25474   2.146   4.475   1.698
 8192SOL    HW125475   2.110   4.455   1.790
 8192SOL    HW225476   2.095   4.551   1.659
 8193SOL     OW25477   3.900   6.901   5.757
 8193SOL    HW125478   3.822   6.838   5.764
 8193SOL    HW225479   3.868   6.995   5.767
 8194SOL     OW25480   0.239   0.726   0.192
 8194SOL    HW125481   0.268   0.793   0.260
 8194SOL    HW225482   0.319   0.678   0.155
 8195SOL     OW25483   6.850   6.069   0.513
 8195SOL    HW125484   6.772   6.043   0.571
 8195SOL    HW225485   6.913   5.991   0.505
 8196SOL     OW25486   2.653   6.826   6.247
 8196SOL    HW125487   2.579   6.815   6.182
 8196SOL    HW225488   2.705   6.910   6.226
 8197SOL     OW25489   0.625   0.248   6.545
 8197SOL    HW125490   0.666   0.161   6.573
 8197SOL    HW225491   0.538   0.229   6.498
 8198SOL     OW25492   3.027   6.523   3.197
 8198SOL    HW125493   3.043   6.497   3.102
 8198SOL    HW225494   2.929   6.521   3.216
 8199SOL     OW25495   6.899   3.718   0.099
 8199SOL    HW125496   6.991   3.757   0.094
 8199SOL    HW225497   6.832   3.792   0.108
 8200SOL     OW25498   5.061   4.396   0.751
 8200SOL    HW125499   5.142   4.425   0.803
 8200SOL    HW225500   5.085   4.388   0.655
 8201SOL     OW25501   6.334   0.622   3.491
 8201SOL    HW125502   6.310   0.544   3.550
 8201SOL    HW225503   6.324   0.595   3.395
 8202SOL     OW25504   1.478   3.808   3.422
 8202SOL    HW125505   1.517   3.899   3.412
 8202SOL    HW225506   1.537   3.741   3.377
 8203SOL     OW25507   5.872   2.850   1.052
 8203SOL    HW125508   5.821   2.936   1.053
 8203SOL    HW225509   5.956   2.862   1.000
 8204SOL     OW25510   3.092   6.808   1.982
 8204SOL    HW125511   3.029   6.866   1.931
 8204SOL    HW225512   3.135   6.743   1.920
 8205SOL     OW25513   5.988   5.447   2.147
 8205SOL    HW125514   6.084   5.418   2.148
 8205SOL    HW225515   5.984   5.544   2.123
 8206SOL     OW25516   4.891   1.920   4.326
 8206SOL    HW125517   4.978   1.964   4.305
 8206SOL    HW225518   4.829   1.985   4.370
 8207SOL     OW25519   2.430   5.800   0.356
 8207SOL    HW125520   2.529   5.792   0.349
 8207SOL    HW225521   2.407   5.878   0.414
 8208SOL     OW25522   1.674   4.851   0.219
 8208SOL    HW125523   1.628   4.763   0.218
 8208SOL    HW225524   1.764   4.842   0.176
 8209SOL     OW25525   0.294   0.274   5.003
 8209SOL    HW125526   0.280   0.211   5.079
 8209SOL    HW225527   0.352   0.230   4.934
 8210SOL     OW25528   2.819   1.628   6.687
 8210SOL    HW125529   2.725   1.660   6.696
 8210SOL    HW225530   2.863   1.625   6.777
 8211SOL     OW25531   2.919   3.396   4.596
 8211SOL    HW125532   2.996   3.333   4.584
 8211SOL    HW225533   2.904   3.447   4.512
 8212SOL     OW25534   2.959   0.446   1.248
 8212SOL    HW125535   2.943   0.430   1.151
 8212SOL    HW225536   2.891   0.511   1.283
 8213SOL     OW25537   4.582   4.174   1.696
 8213SOL    HW125538   4.534   4.168   1.608
 8213SOL    HW225539   4.524   4.220   1.763
 8214SOL     OW25540   4.567   5.920   4.445
 8214SOL    HW125541   4.655   5.903   4.488
 8214SOL    HW225542   4.494   5.903   4.510
 8215SOL     OW25543   4.319   6.897   0.433
 8215SOL    HW125544   4.244   6.842   0.470
 8215SOL    HW225545   4.285   6.954   0.358
 8216SOL     OW25546   5.712   4.835   1.170
 8216SOL    HW125547   5.637   4.796   1.224
 8216SOL    HW225548   5.677   4.912   1.116
 8217SOL     OW25549   2.944   6.366   3.910
 8217SOL    HW125550   2.982   6.384   4.001
 8217SOL    HW225551   2.884   6.441   3.884
 8218SOL     OW25552   2.937   0.151   4.554
 8218SOL    HW125553   2.982   0.116   4.636
 8218SOL    HW225554   2.838   0.145   4.565
 8219SOL     OW25555   4.031   3.639   0.892
 8219SOL    HW125556   3.989   3.585   0.819
 8219SOL    HW225557   4.098   3.583   0.942
 8220SOL     OW25558   3.791   3.288   4.003
 8220SOL    HW125559   3.838   3.359   3.950
 8220SOL    HW225560   3.854   3.212   4.022
 8221SOL     OW25561   5.324   3.752   3.371
 8221SOL    HW125562   5.234   3.794   3.365
 8221SOL    HW225563   5.336   3.687   3.296
 8222SOL     OW25564   6.502   3.451   0.352
 8222SOL    HW125565   6.575   3.461   0.285
 8222SOL    HW225566   6.420   3.414   0.306
 8223SOL     OW25567   1.027   6.005   5.376
 8223SOL    HW125568   1.053   6.074   5.444
 8223SOL    HW225569   0.981   5.929   5.422
 8224SOL     OW25570   5.471   1.886   0.578
 8224SOL    HW125571   5.467   1.981   0.547
 8224SOL    HW225572   5.455   1.882   0.676
 8225SOL     OW25573   5.390   1.747   0.372
 8225SOL    HW125574   5.427   1.798   0.450
 8225SOL    HW225575   5.312   1.796   0.334
 8226SOL     OW25576   4.163   0.039   0.274
 8226SOL    HW125577   4.169   0.040   0.174
 8226SOL    HW225578   4.183   0.130   0.309
 8227SOL     OW25579   4.916   2.574   2.790
 8227SOL    HW125580   4.969   2.598   2.871
 8227SOL    HW225581   4.974   2.583   2.708
 8228SOL     OW25582   2.269   0.189   4.567
 8228SOL    HW125583   2.255   0.288   4.568
 8228SOL    HW225584   2.313   0.160   4.652
 8229SOL     OW25585   5.006   3.967   0.920
 8229SOL    HW125586   4.986   3.972   1.018
 8229SOL    HW225587   5.080   4.030   0.897
 8230SOL     OW25588   5.759   0.385   6.230
 8230SOL    HW125589   5.703   0.433   6.297
 8230SOL    HW225590   5.853   0.420   6.232
 8231SOL     OW25591   2.770   1.853   2.786
 8231SOL    HW125592   2.733   1.771   2.742
 8231SOL    HW225593   2.791   1.921   2.715
 8232SOL     OW25594   3.706   5.666   3.019
 8232SOL    HW125595   3.793   5.672   2.971
 8232SOL    HW225596   3.710   5.720   3.103
 8233SOL     OW25597   0.419   1.030   6.221
 8233SOL    HW125598   0.498   1.026   6.282
 8233SOL    HW225599   0.384   1.123   6.218
 8234SOL     OW25600   0.911   2.317   0.884
 8234SOL    HW125601   0.945   2.262   0.808
 8234SOL    HW225602   0.988   2.348   0.940
 8235SOL     OW25603   1.211   6.131   1.210
 8235SOL    HW125604   1.138   6.142   1.278
 8235SOL    HW225605   1.298   6.118   1.257
 8236SOL     OW25606   0.787   6.006   1.464
 8236SOL    HW125607   0.712   6.018   1.399
 8236SOL    HW225608   0.800   5.908   1.483
 8237SOL     OW25609   4.257   5.044   6.906
 8237SOL    HW125610   4.219   5.072   6.818
 8237SOL    HW225611   4.213   4.960   6.936
 8238SOL     OW25612   1.086   4.347   0.181
 8238SOL    HW125613   1.022   4.423   0.189
 8238SOL    HW225614   1.083   4.310   0.088
 8239SOL     OW25615   1.693   1.411   4.816
 8239SOL    HW125616   1.728   1.403   4.723
 8239SOL    HW225617   1.634   1.492   4.822
 8240SOL     OW25618   3.358   3.425   4.695
 8240SOL    HW125619   3.320   3.509   4.655
 8240SOL    HW225620   3.374   3.358   4.622
 8241SOL     OW25621   1.875   4.413   5.813
 8241SOL    HW125622   1.947   4.444   5.750
 8241SOL    HW225623   1.914   4.403   5.905
 8242SOL     OW25624   0.940   2.808   2.869
 8242SOL    HW125625   0.893   2.893   2.843
 8242SOL    HW225626   0.884   2.759   2.936
 8243SOL     OW25627   0.999   6.079   4.368
 8243SOL    HW125628   0.944   6.162   4.360
 8243SOL    HW225629   0.951   6.002   4.326
 8244SOL     OW25630   0.433   1.092   4.458
 8244SOL    HW125631   0.464   1.166   4.398
 8244SOL    HW225632   0.334   1.081   4.449
 8245SOL     OW25633   5.196   2.152   3.122
 8245SOL    HW125634   5.276   2.093   3.116
 8245SOL    HW225635   5.224   2.247   3.108
 8246SOL     OW25636   1.995   5.218   6.727
 8246SOL    HW125637   2.008   5.238   6.630
 8246SOL    HW225638   2.029   5.126   6.747
 8247SOL     OW25639   2.952   5.176   3.283
 8247SOL    HW125640   2.874   5.140   3.335
 8247SOL    HW225641   2.990   5.104   3.225
 8248SOL     OW25642   6.546   4.980   3.016
 8248SOL    HW125643   6.589   5.056   3.064
 8248SOL    HW225644   6.455   4.965   3.052
 8249SOL     OW25645   3.386   1.647   6.466
 8249SOL    HW125646   3.370   1.697   6.551
 8249SOL    HW225647   3.323   1.570   6.460
 8250SOL     OW25648   1.054   1.392   6.872
 8250SOL    HW125649   0.988   1.431   6.937
 8250SOL    HW225650   1.015   1.393   6.780
 8251SOL     OW25651   0.985   2.598   4.578
 8251SOL    HW125652   0.922   2.648   4.637
 8251SOL    HW225653   1.071   2.583   4.628
 8252SOL     OW25654   1.152   2.480   6.383
 8252SOL    HW125655   1.143   2.393   6.334
 8252SOL    HW225656   1.087   2.482   6.459
 8253SOL     OW25657   4.501   5.815   0.391
 8253SOL    HW125658   4.463   5.795   0.482
 8253SOL    HW225659   4.427   5.845   0.331
 8254SOL     OW25660   5.228   4.751   6.408
 8254SOL    HW125661   5.206   4.665   6.361
 8254SOL    HW225662   5.266   4.731   6.498
 8255SOL     OW25663   1.780   0.290   6.234
 8255SOL    HW125664   1.845   0.268   6.162
 8255SOL    HW225665   1.706   0.222   6.234
 8256SOL     OW25666   1.305   5.337   5.048
 8256SOL    HW125667   1.267   5.255   5.091
 8256SOL    HW225668   1.278   5.418   5.100
 8257SOL     OW25669   5.194   3.945   3.142
 8257SOL    HW125670   5.279   3.909   3.104
 8257SOL    HW225671   5.117   3.893   3.106
 8258SOL     OW25672   6.927   3.678   1.802
 8258SOL    HW125673   6.979   3.608   1.849
 8258SOL    HW225674   6.947   3.674   1.704
 8259SOL     OW25675   5.390   1.587   4.366
 8259SOL    HW125676   5.433   1.677   4.360
 8259SOL    HW225677   5.303   1.594   4.415
 8260SOL     OW25678   4.476   1.500   1.113
 8260SOL    HW125679   4.405   1.570   1.113
 8260SOL    HW225680   4.498   1.475   1.207
 8261SOL     OW25681   5.844   0.533   2.487
 8261SOL    HW125682   5.774   0.595   2.452
 8261SOL    HW225683   5.874   0.471   2.414
 8262SOL     OW25684   5.493   4.168   1.864
 8262SOL    HW125685   5.572   4.201   1.916
 8262SOL    HW225686   5.509   4.074   1.833
 8263SOL     OW25687   6.774   2.446   5.794
 8263SOL    HW125688   6.698   2.393   5.833
 8263SOL    HW225689   6.820   2.497   5.867
 8264SOL     OW25690   3.187   6.955   3.016
 8264SOL    HW125691   3.239   6.954   3.102
 8264SOL    HW225692   3.185   0.025   2.979
 8265SOL     OW25693   5.119   6.733   0.148
 8265SOL    HW125694   5.118   6.635   0.130
 8265SOL    HW225695   5.213   6.764   0.157
 8266SOL     OW25696   2.374   0.836   3.540
 8266SOL    HW125697   2.276   0.814   3.531
 8266SOL    HW225698   2.428   0.755   3.515
 8267SOL     OW25699   1.672   4.076   2.557
 8267SOL    HW125700   1.585   4.123   2.539
 8267SOL    HW225701   1.733   4.089   2.479
 8268SOL     OW25702   3.853   5.166   5.978
 8268SOL    HW125703   3.883   5.138   6.069
 8268SOL    HW225704   3.931   5.198   5.925
 8269SOL     OW25705   6.010   3.046   4.211
 8269SOL    HW125706   5.939   3.111   4.184
 8269SOL    HW225707   6.027   2.982   4.136
 8270SOL     OW25708   3.172   0.116   6.911
 8270SOL    HW125709   3.152   0.131   6.814
 8270SOL    HW225710   3.130   0.030   6.940
 8271SOL     OW25711   3.401   6.228   6.277
 8271SOL    HW125712   3.466   6.153   6.280
 8271SOL    HW225713   3.388   6.256   6.181
 8272SOL     OW25714   0.652   0.295   2.039
 8272SOL    HW125715   0.736   0.333   2.079
 8272SOL    HW225716   0.620   0.357   1.967
 8273SOL     OW25717   4.128   0.466   6.805
 8273SOL    HW125718   4.082   0.412   6.876
 8273SOL    HW225719   4.192   0.530   6.848
 8274SOL     OW25720   5.436   6.189   5.641
 8274SOL    HW125721   5.509   6.161   5.579
 8274SOL    HW225722   5.453   6.151   5.732
 8275SOL     OW25723   5.394   0.434   3.193
 8275SOL    HW125724   5.465   0.412   3.126
 8275SOL    HW225725   5.435   0.435   3.285
 8276SOL     OW25726   6.837   1.894   6.529
 8276SOL    HW125727   6.814   1.835   6.607
 8276SOL    HW225728   6.927   1.935   6.543
 8277SOL     OW25729   1.386   6.599   6.930
 8277SOL    HW125730   1.426   6.647   6.852
 8277SOL    HW225731   1.438   6.622   7.013
 8278SOL     OW25732   3.088   1.594   0.386
 8278SOL    HW125733   3.077   1.691   0.405
 8278SOL    HW225734   3.180   1.566   0.412
 8279SOL     OW25735   4.282   5.657   5.032
 8279SOL    HW125736   4.215   5.668   4.959
 8279SOL    HW225737   4.334   5.742   5.042
 8280SOL     OW25738   5.464   3.628   0.378
 8280SOL    HW125739   5.505   3.537   0.374
 8280SOL    HW225740   5.426   3.643   0.469
 8281SOL     OW25741   2.963   4.988   0.448
 8281SOL    HW125742   2.879   4.949   0.486
 8281SOL    HW225743   2.940   5.067   0.391
 8282SOL     OW25744   3.052   2.505   1.063
 8282SOL    HW125745   3.146   2.489   1.032
 8282SOL    HW225746   3.034   2.603   1.067
 8283SOL     OW25747   0.301   5.529   3.602
 8283SOL    HW125748   0.237   5.510   3.528
 8283SOL    HW225749   0.377   5.464   3.598
 8284SOL     OW25750   3.494   1.639   1.769
 8284SOL    HW125751   3.461   1.609   1.680
 8284SOL    HW225752   3.580   1.688   1.758
 8285SOL     OW25753   2.861   4.722   6.750
 8285SOL    HW125754   2.956   4.707   6.775
 8285SOL    HW225755   2.812   4.635   6.748
 8286SOL     OW25756   5.542   2.029   5.264
 8286SOL    HW125757   5.598   1.954   5.231
 8286SOL    HW225758   5.474   2.054   5.194
 8287SOL     OW25759   2.065   6.957   3.970
 8287SOL    HW125760   2.040   6.947   4.067
 8287SOL    HW225761   2.073   0.031   3.948
 8288SOL     OW25762   2.540   0.115   3.055
 8288SOL    HW125763   2.549   0.033   3.112
 8288SOL    HW225764   2.568   0.095   2.962
 8289SOL     OW25765   6.571   1.144   5.953
 8289SOL    HW125766   6.644   1.197   5.995
 8289SOL    HW225767   6.595   1.047   5.956
 8290SOL     OW25768   4.774   2.900   1.736
 8290SOL    HW125769   4.698   2.842   1.707
 8290SOL    HW225770   4.743   2.962   1.808
 8291SOL     OW25771   3.973   5.786   6.554
 8291SOL    HW125772   3.928   5.717   6.611
 8291SOL    HW225773   3.907   5.826   6.491
 8292SOL     OW25774   0.857   3.022   4.525
 8292SOL    HW125775   0.920   3.060   4.592
 8292SOL    HW225776   0.908   2.982   4.449
 8293SOL     OW25777   2.850   4.764   3.730
 8293SOL    HW125778   2.770   4.751   3.789
 8293SOL    HW225779   2.930   4.722   3.773
 8294SOL     OW25780   4.443   3.410   6.149
 8294SOL    HW125781   4.507   3.398   6.073
 8294SOL    HW225782   4.410   3.321   6.179
 8295SOL     OW25783   4.950   4.598   2.586
 8295SOL    HW125784   4.995   4.584   2.497
 8295SOL    HW225785   5.019   4.615   2.656
 8296SOL     OW25786   4.280   6.633   2.208
 8296SOL    HW125787   4.217   6.678   2.144
 8296SOL    HW225788   4.351   6.586   2.156
 8297SOL     OW25789   5.531   4.474   3.794
 8297SOL    HW125790   5.469   4.546   3.824
 8297SOL    HW225791   5.592   4.449   3.869
 8298SOL     OW25792   6.809   6.686   6.752
 8298SOL    HW125793   6.882   6.706   6.687
 8298SOL    HW225794   6.848   6.674   6.843
 8299SOL     OW25795   0.498   3.568   0.825
 8299SOL    HW125796   0.531   3.626   0.899
 8299SOL    HW225797   0.398   3.575   0.820
 8300SOL     OW25798   5.673   5.484   2.767
 8300SOL    HW125799   5.679   5.385   2.770
 8300SOL    HW225800   5.739   5.524   2.831
 8301SOL     OW25801   5.079   6.469   0.088
 8301SOL    HW125802   5.065   6.478   7.012
 8301SOL    HW225803   5.061   6.375   0.116
 8302SOL     OW25804   3.431   6.763   5.502
 8302SOL    HW125805   3.525   6.794   5.489
 8302SOL    HW225806   3.384   6.826   5.564
 8303SOL     OW25807   0.350   5.408   3.210
 8303SOL    HW125808   0.397   5.431   3.125
 8303SOL    HW225809   0.408   5.432   3.287
 8304SOL     OW25810   5.957   4.580   3.228
 8304SOL    HW125811   5.962   4.495   3.176
 8304SOL    HW225812   6.050   4.614   3.245
 8305SOL     OW25813   5.299   6.627   4.906
 8305SOL    HW125814   5.293   6.530   4.928
 8305SOL    HW225815   5.394   6.651   4.886
 8306SOL     OW25816   6.322   1.256   2.337
 8306SOL    HW125817   6.337   1.220   2.429
 8306SOL    HW225818   6.235   1.307   2.335
 8307SOL     OW25819   1.504   3.360   2.926
 8307SOL    HW125820   1.458   3.425   2.865
 8307SOL    HW225821   1.596   3.393   2.945
 8308SOL     OW25822   1.571   5.009   0.627
 8308SOL    HW125823   1.528   4.921   0.646
 8308SOL    HW225824   1.567   5.067   0.709
 8309SOL     OW25825   6.511   4.739   4.576
 8309SOL    HW125826   6.557   4.826   4.556
 8309SOL    HW225827   6.574   4.663   4.560
 8310SOL     OW25828   1.936   0.233   0.755
 8310SOL    HW125829   1.842   0.238   0.719
 8310SOL    HW225830   1.934   0.240   0.855
 8311SOL     OW25831   5.618   6.234   3.344
 8311SOL    HW125832   5.687   6.304   3.363
 8311SOL    HW225833   5.533   6.278   3.314
 8312SOL     OW25834   5.653   1.555   0.365
 8312SOL    HW125835   5.585   1.628   0.365
 8312SOL    HW225836   5.693   1.547   0.274
 8313SOL     OW25837   5.481   2.518   5.376
 8313SOL    HW125838   5.576   2.524   5.407
 8313SOL    HW225839   5.476   2.543   5.280
 8314SOL     OW25840   5.182   6.557   4.134
 8314SOL    HW125841   5.244   6.488   4.171
 8314SOL    HW225842   5.234   6.636   4.103
 8315SOL     OW25843   3.703   4.179   4.688
 8315SOL    HW125844   3.755   4.264   4.687
 8315SOL    HW225845   3.606   4.198   4.684
 8316SOL     OW25846   2.024   2.165   6.243
 8316SOL    HW125847   1.954   2.209   6.299
 8316SOL    HW225848   2.021   2.203   6.150
 8317SOL     OW25849   1.452   1.755   3.732
 8317SOL    HW125850   1.436   1.852   3.753
 8317SOL    HW225851   1.481   1.746   3.637
 8318SOL     OW25852   4.415   0.371   6.522
 8318SOL    HW125853   4.444   0.454   6.570
 8318SOL    HW225854   4.495   0.312   6.508
 8319SOL     OW25855   1.669   5.976   6.620
 8319SOL    HW125856   1.658   6.066   6.576
 8319SOL    HW225857   1.636   5.905   6.559
 8320SOL     OW25858   3.166   3.293   5.206
 8320SOL    HW125859   3.183   3.328   5.114
 8320SOL    HW225860   3.067   3.282   5.220
 8321SOL     OW25861   0.277   6.851   1.230
 8321SOL    HW125862   0.232   6.909   1.162
 8321SOL    HW225863   0.323   6.776   1.184
 8322SOL     OW25864   0.766   6.500   0.355
 8322SOL    HW125865   0.780   6.444   0.273
 8322SOL    HW225866   0.668   6.503   0.377
 8323SOL     OW25867   5.621   4.649   0.807
 8323SOL    HW125868   5.634   4.637   0.709
 8323SOL    HW225869   5.627   4.560   0.853
 8324SOL     OW25870   4.694   5.392   6.205
 8324SOL    HW125871   4.662   5.378   6.112
 8324SOL    HW225872   4.633   5.344   6.269
 8325SOL     OW25873   1.659   5.799   6.396
 8325SOL    HW125874   1.589   5.774   6.329
 8325SOL    HW225875   1.698   5.715   6.436
 8326SOL     OW25876   1.483   2.997   6.935
 8326SOL    HW125877   1.480   2.921   6.870
 8326SOL    HW225878   1.575   3.003   6.975
 8327SOL     OW25879   0.756   6.763   4.791
 8327SOL    HW125880   0.847   6.771   4.832
 8327SOL    HW225881   0.692   6.820   4.841
 8328SOL     OW25882   0.877   6.756   0.444
 8328SOL    HW125883   0.838   6.669   0.412
 8328SOL    HW225884   0.873   6.759   0.544
 8329SOL     OW25885   1.960   2.738   4.780
 8329SOL    HW125886   2.032   2.704   4.721
 8329SOL    HW225887   1.992   2.739   4.875
 8330SOL     OW25888   3.349   1.536   0.416
 8330SOL    HW125889   3.402   1.488   0.485
 8330SOL    HW225890   3.353   1.486   0.329
 8331SOL     OW25891   1.934   2.345   5.774
 8331SOL    HW125892   1.970   2.293   5.696
 8331SOL    HW225893   1.981   2.432   5.781
 8332SOL     OW25894   6.466   5.506   1.538
 8332SOL    HW125895   6.527   5.426   1.535
 8332SOL    HW225896   6.418   5.515   1.451
 8333SOL     OW25897   2.100   4.318   0.255
 8333SOL    HW125898   2.113   4.404   0.304
 8333SOL    HW225899   2.171   4.308   0.185
 8334SOL     OW25900   3.808   2.236   6.299
 8334SOL    HW125901   3.746   2.310   6.326
 8334SOL    HW225902   3.756   2.165   6.252
 8335SOL     OW25903   5.210   4.471   6.267
 8335SOL    HW125904   5.180   4.434   6.180
 8335SOL    HW225905   5.182   4.410   6.341
 8336SOL     OW25906   1.004   3.816   3.638
 8336SOL    HW125907   1.030   3.773   3.724
 8336SOL    HW225908   1.082   3.867   3.602
 8337SOL     OW25909   0.730   1.352   4.643
 8337SOL    HW125910   0.704   1.263   4.607
 8337SOL    HW225911   0.663   1.421   4.615
 8338SOL     OW25912   3.675   5.544   1.446
 8338SOL    HW125913   3.745   5.573   1.510
 8338SOL    HW225914   3.627   5.464   1.482
 8339SOL     OW25915   5.865   0.075   1.364
 8339SOL    HW125916   5.913   0.163   1.356
 8339SOL    HW225917   5.918   0.004   1.317
 8340SOL     OW25918   6.098   1.884   6.432
 8340SOL    HW125919   6.002   1.908   6.444
 8340SOL    HW225920   6.105   1.799   6.381
 8341SOL     OW25921   3.682   0.646   0.857
 8341SOL    HW125922   3.645   0.728   0.901
 8341SOL    HW225923   3.716   0.583   0.927
 8342SOL     OW25924   4.657   0.579   0.396
 8342SOL    HW125925   4.748   0.614   0.420
 8342SOL    HW225926   4.624   0.625   0.314
 8343SOL     OW25927   5.412   3.572   4.182
 8343SOL    HW125928   5.364   3.636   4.122
 8343SOL    HW225929   5.449   3.497   4.127
 8344SOL     OW25930   1.018   4.967   5.302
 8344SOL    HW125931   0.973   4.878   5.289
 8344SOL    HW225932   1.014   4.993   5.398
 8345SOL     OW25933   4.755   0.645   3.671
 8345SOL    HW125934   4.674   0.608   3.716
 8345SOL    HW225935   4.769   0.599   3.583
 8346SOL     OW25936   5.811   3.786   5.257
 8346SOL    HW125937   5.723   3.778   5.210
 8346SOL    HW225938   5.809   3.732   5.341
 8347SOL     OW25939   2.306   0.943   6.907
 8347SOL    HW125940   2.214   0.939   6.944
 8347SOL    HW225941   2.302   0.956   6.808
 8348SOL     OW25942   3.270   5.835   1.925
 8348SOL    HW125943   3.185   5.870   1.887
 8348SOL    HW225944   3.255   5.804   2.019
 8349SOL     OW25945   0.175   6.798   2.457
 8349SOL    HW125946   0.221   6.887   2.453
 8349SOL    HW225947   0.214   6.737   2.388
 8350SOL     OW25948   1.768   0.512   0.370
 8350SOL    HW125949   1.823   0.497   0.452
 8350SOL    HW225950   1.792   0.442   0.301
 8351SOL     OW25951   0.012   3.327   3.154
 8351SOL    HW125952   6.940   3.296   3.144
 8351SOL    HW225953   0.059   3.270   3.221
 8352SOL     OW25954   2.712   6.169   1.601
 8352SOL    HW125955   2.746   6.088   1.552
 8352SOL    HW225956   2.762   6.179   1.687
 8353SOL     OW25957   1.615   4.895   2.639
 8353SOL    HW125958   1.545   4.836   2.680
 8353SOL    HW225959   1.650   4.853   2.556
 8354SOL     OW25960   3.773   0.619   3.039
 8354SOL    HW125961   3.732   0.528   3.039
 8354SOL    HW225962   3.850   0.622   3.102
 8355SOL     OW25963   2.705   6.465   6.511
 8355SOL    HW125964   2.609   6.479   6.535
 8355SOL    HW225965   2.756   6.549   6.525
 8356SOL     OW25966   2.220   5.314   0.485
 8356SOL    HW125967   2.166   5.235   0.515
 8356SOL    HW225968   2.164   5.371   0.425
 8357SOL     OW25969   4.556   6.560   5.310
 8357SOL    HW125970   4.628   6.571   5.241
 8357SOL    HW225971   4.546   6.646   5.360
 8358SOL     OW25972   0.773   1.233   5.082
 8358SOL    HW125973   0.843   1.277   5.026
 8358SOL    HW225974   0.682   1.250   5.043
 8359SOL     OW25975   3.960   2.152   5.635
 8359SOL    HW125976   3.934   2.171   5.730
 8359SOL    HW225977   3.886   2.102   5.590
 8360SOL     OW25978   4.796   0.862   0.880
 8360SOL    HW125979   4.707   0.896   0.911
 8360SOL    HW225980   4.862   0.870   0.955
 8361SOL     OW25981   3.931   0.883   0.035
 8361SOL    HW125982   4.022   0.924   0.038
 8361SOL    HW225983   3.875   0.933   6.991
 8362SOL     OW25984   6.608   3.987   1.405
 8362SOL    HW125985   6.628   4.021   1.313
 8362SOL    HW225986   6.510   3.972   1.415
 8363SOL     OW25987   2.584   3.261   0.417
 8363SOL    HW125988   2.522   3.186   0.438
 8363SOL    HW225989   2.634   3.288   0.499
 8364SOL     OW25990   0.693   3.429   4.333
 8364SOL    HW125991   0.725   3.337   4.308
 8364SOL    HW225992   0.686   3.435   4.433
 8365SOL     OW25993   1.153   2.025   2.166
 8365SOL    HW125994   1.188   2.114   2.136
 8365SOL    HW225995   1.107   2.035   2.255
 8366SOL     OW25996   5.282   5.100   2.144
 8366SOL    HW125997   5.194   5.140   2.171
 8366SOL    HW225998   5.346   5.104   2.221
 8367SOL     OW25999   3.569   5.386   4.255
 8367SOL    HW126000   3.630   5.464   4.240
 8367SOL    HW226001   3.488   5.416   4.305
 8368SOL     OW26002   6.091   6.132   6.525
 8368SOL    HW126003   6.034   6.068   6.473
 8368SOL    HW226004   6.164   6.167   6.467
 8369SOL     OW26005   2.699   6.596   1.274
 8369SOL    HW126006   2.742   6.511   1.303
 8369SOL    HW226007   2.640   6.578   1.195
 8370SOL     OW26008   2.447   3.714   6.854
 8370SOL    HW126009   2.379   3.721   6.781
 8370SOL    HW226010   2.400   3.700   6.941
 8371SOL     OW26011   1.628   4.590   5.868
 8371SOL    HW126012   1.660   4.682   5.894
 8371SOL    HW226013   1.706   4.536   5.836
 8372SOL     OW26014   2.234   5.982   2.422
 8372SOL    HW126015   2.284   6.067   2.410
 8372SOL    HW226016   2.298   5.908   2.445
 8373SOL     OW26017   6.710   1.510   4.105
 8373SOL    HW126018   6.795   1.471   4.069
 8373SOL    HW226019   6.637   1.495   4.039
 8374SOL     OW26020   0.923   1.034   4.155
 8374SOL    HW126021   0.951   0.939   4.168
 8374SOL    HW226022   0.943   1.062   4.061
 8375SOL     OW26023   3.404   0.999   4.793
 8375SOL    HW126024   3.439   1.088   4.820
 8375SOL    HW226025   3.473   0.929   4.811
 8376SOL     OW26026   1.870   0.579   3.068
 8376SOL    HW126027   1.910   0.571   3.160
 8376SOL    HW226028   1.890   0.669   3.030
 8377SOL     OW26029   4.901   5.237   0.184
 8377SOL    HW126030   4.876   5.194   0.270
 8377SOL    HW226031   4.851   5.194   0.109
 8378SOL     OW26032   5.489   6.028   4.042
 8378SOL    HW126033   5.414   5.963   4.054
 8378SOL    HW226034   5.540   6.036   4.128
 8379SOL     OW26035   5.934   1.153   1.489
 8379SOL    HW126036   6.002   1.164   1.562
 8379SOL    HW226037   5.980   1.120   1.406
 8380SOL     OW26038   6.828   5.616   0.738
 8380SOL    HW126039   6.864   5.702   0.773
 8380SOL    HW226040   6.833   5.615   0.639
 8381SOL     OW26041   0.433   1.831   2.526
 8381SOL    HW126042   0.506   1.787   2.577
 8381SOL    HW226043   0.467   1.861   2.437
 8382SOL     OW26044   1.658   0.852   0.752
 8382SOL    HW126045   1.577   0.911   0.754
 8382SOL    HW226046   1.720   0.879   0.825
 8383SOL     OW26047   2.765   6.732   6.496
 8383SOL    HW126048   2.708   6.783   6.561
 8383SOL    HW226049   2.732   6.747   6.403
 8384SOL     OW26050   0.576   3.115   2.731
 8384SOL    HW126051   0.548   3.023   2.705
 8384SOL    HW226052   0.533   3.140   2.817
 8385SOL     OW26053   4.002   3.439   1.394
 8385SOL    HW126054   3.939   3.393   1.330
 8385SOL    HW226055   4.028   3.375   1.466
 8386SOL     OW26056   2.579   6.017   2.361
 8386SOL    HW126057   2.616   5.950   2.296
 8386SOL    HW226058   2.605   6.109   2.333
 8387SOL     OW26059   1.553   1.178   2.615
 8387SOL    HW126060   1.599   1.092   2.637
 8387SOL    HW226061   1.474   1.189   2.676
 8388SOL     OW26062   3.846   6.449   1.516
 8388SOL    HW126063   3.798   6.454   1.603
 8388SOL    HW226064   3.846   6.539   1.473
 8389SOL     OW26065   0.486   2.428   4.098
 8389SOL    HW126066   0.386   2.427   4.102
 8389SOL    HW226067   0.521   2.498   4.161
 8390SOL     OW26068   2.979   0.447   5.969
 8390SOL    HW126069   2.962   0.415   6.062
 8390SOL    HW226070   3.046   0.521   5.970
 8391SOL     OW26071   5.401   5.618   1.007
 8391SOL    HW126072   5.423   5.521   1.001
 8391SOL    HW226073   5.483   5.670   1.032
 8392SOL     OW26074   5.606   6.343   5.837
 8392SOL    HW126075   5.644   6.376   5.750
 8392SOL    HW226076   5.659   6.381   5.913
 8393SOL     OW26077   0.196   5.851   3.284
 8393SOL    HW126078   0.099   5.858   3.304
 8393SOL    HW226079   0.248   5.871   3.367
 8394SOL     OW26080   0.721   2.059   2.661
 8394SOL    HW126081   0.778   2.138   2.686
 8394SOL    HW226082   0.751   1.979   2.712
 8395SOL     OW26083   0.506   6.013   5.907
 8395SOL    HW126084   0.532   6.040   5.814
 8395SOL    HW226085   0.463   5.923   5.904
 8396SOL     OW26086   4.643   3.390   1.485
 8396SOL    HW126087   4.693   3.307   1.512
 8396SOL    HW226088   4.549   3.385   1.520
 8397SOL     OW26089   2.175   5.765   3.218
 8397SOL    HW126090   2.180   5.836   3.288
 8397SOL    HW226091   2.251   5.775   3.154
 8398SOL     OW26092   5.216   2.258   0.610
 8398SOL    HW126093   5.161   2.306   0.542
 8398SOL    HW226094   5.160   2.189   0.655
 8399SOL     OW26095   5.577   5.819   0.635
 8399SOL    HW126096   5.511   5.744   0.639
 8399SOL    HW226097   5.623   5.818   0.547
 8400SOL     OW26098   6.114   0.704   3.654
 8400SOL    HW126099   6.190   0.661   3.606
 8400SOL    HW226100   6.029   0.659   3.627
 8401SOL     OW26101   2.993   3.974   6.770
 8401SOL    HW126102   2.895   3.953   6.763
 8401SOL    HW226103   3.004   4.058   6.823
 8402SOL     OW26104   4.006   2.188   0.188
 8402SOL    HW126105   4.092   2.201   0.238
 8402SOL    HW226106   3.970   2.277   0.160
 8403SOL     OW26107   1.534   1.466   3.947
 8403SOL    HW126108   1.573   1.533   3.885
 8403SOL    HW226109   1.464   1.413   3.899
 8404SOL     OW26110   4.518   4.828   5.693
 8404SOL    HW126111   4.563   4.859   5.777
 8404SOL    HW226112   4.429   4.872   5.685
 8405SOL     OW26113   0.670   2.929   4.893
 8405SOL    HW126114   0.659   2.993   4.969
 8405SOL    HW226115   0.645   2.974   4.807
 8406SOL     OW26116   5.528   3.333   1.824
 8406SOL    HW126117   5.484   3.332   1.913
 8406SOL    HW226118   5.585   3.251   1.814
 8407SOL     OW26119   5.043   4.043   2.616
 8407SOL    HW126120   4.977   4.043   2.692
 8407SOL    HW226121   5.001   4.001   2.536
 8408SOL     OW26122   4.462   2.546   4.324
 8408SOL    HW126123   4.546   2.600   4.314
 8408SOL    HW226124   4.410   2.549   4.239
 8409SOL     OW26125   0.519   2.350   3.808
 8409SOL    HW126126   0.549   2.364   3.903
 8409SOL    HW226127   0.493   2.437   3.768
 8410SOL     OW26128   4.219   6.947   1.625
 8410SOL    HW126129   4.131   6.992   1.634
 8410SOL    HW226130   4.293   7.014   1.634
 8411SOL     OW26131   1.762   3.255   4.012
 8411SOL    HW126132   1.719   3.330   4.062
 8411SOL    HW226133   1.821   3.203   4.073
 8412SOL     OW26134   5.835   2.364   3.982
 8412SOL    HW126135   5.811   2.458   3.957
 8412SOL    HW226136   5.803   2.301   3.911
 8413SOL     OW26137   3.131   4.704   0.605
 8413SOL    HW126138   3.080   4.632   0.558
 8413SOL    HW226139   3.205   4.663   0.658
 8414SOL     OW26140   3.903   6.214   2.695
 8414SOL    HW126141   3.984   6.272   2.684
 8414SOL    HW226142   3.873   6.182   2.606
 8415SOL     OW26143   6.871   3.722   2.593
 8415SOL    HW126144   6.948   3.749   2.535
 8415SOL    HW226145   6.850   3.797   2.657
 8416SOL     OW26146   5.279   4.209   2.893
 8416SOL    HW126147   5.250   4.114   2.883
 8416SOL    HW226148   5.331   4.238   2.812
 8417SOL     OW26149   2.767   6.084   5.831
 8417SOL    HW126150   2.695   6.152   5.846
 8417SOL    HW226151   2.843   6.102   5.893
 8418SOL     OW26152   6.342   5.574   2.618
 8418SOL    HW126153   6.400   5.654   2.633
 8418SOL    HW226154   6.346   5.513   2.697
 8419SOL     OW26155   4.577   0.377   4.091
 8419SOL    HW126156   4.634   0.314   4.144
 8419SOL    HW226157   4.591   0.471   4.124
 8420SOL     OW26158   4.259   1.455   6.543
 8420SOL    HW126159   4.256   1.383   6.613
 8420SOL    HW226160   4.284   1.415   6.455
 8421SOL     OW26161   2.633   6.658   1.870
 8421SOL    HW126162   2.673   6.581   1.822
 8421SOL    HW226163   2.542   6.632   1.905
 8422SOL     OW26164   3.971   6.727   1.083
 8422SOL    HW126165   4.061   6.764   1.062
 8422SOL    HW226166   3.945   6.660   1.014
 8423SOL     OW26167   3.080   4.293   1.415
 8423SOL    HW126168   3.053   4.296   1.511
 8423SOL    HW226169   3.166   4.244   1.405
 8424SOL     OW26170   3.549   1.877   2.607
 8424SOL    HW126171   3.470   1.835   2.562
 8424SOL    HW226172   3.616   1.807   2.630
 8425SOL     OW26173   5.724   4.499   6.959
 8425SOL    HW126174   5.716   4.453   6.870
 8425SOL    HW226175   5.820   4.500   6.987
 8426SOL     OW26176   3.896   3.160   3.254
 8426SOL    HW126177   3.947   3.098   3.193
 8426SOL    HW226178   3.908   3.255   3.222
 8427SOL     OW26179   2.308   3.742   6.602
 8427SOL    HW126180   2.396   3.755   6.557
 8427SOL    HW226181   2.254   3.674   6.552
 8428SOL     OW26182   6.015   4.260   1.963
 8428SOL    HW126183   6.047   4.352   1.985
 8428SOL    HW226184   5.964   4.223   2.041
 8429SOL     OW26185   2.389   6.660   2.420
 8429SOL    HW126186   2.314   6.720   2.449
 8429SOL    HW226187   2.476   6.696   2.456
 8430SOL     OW26188   4.689   4.842   3.468
 8430SOL    HW126189   4.788   4.854   3.464
 8430SOL    HW226190   4.667   4.746   3.480
 8431SOL     OW26191   3.795   4.021   0.972
 8431SOL    HW126192   3.792   4.011   0.873
 8431SOL    HW226193   3.702   4.019   1.009
 8432SOL     OW26194   3.882   6.658   0.060
 8432SOL    HW126195   3.962   6.598   0.070
 8432SOL    HW226196   3.807   6.622   0.116
 8433SOL     OW26197   1.269   1.769   6.111
 8433SOL    HW126198   1.237   1.832   6.039
 8433SOL    HW226199   1.313   1.822   6.184
 8434SOL     OW26200   5.461   6.569   5.279
 8434SOL    HW126201   5.461   6.609   5.187
 8434SOL    HW226202   5.459   6.642   5.347
 8435SOL     OW26203   4.278   1.902   0.955
 8435SOL    HW126204   4.268   1.820   1.012
 8435SOL    HW226205   4.271   1.983   1.013
 8436SOL     OW26206   3.900   4.561   1.562
 8436SOL    HW126207   3.990   4.583   1.599
 8436SOL    HW226208   3.911   4.514   1.475
 8437SOL     OW26209   0.297   0.887   1.247
 8437SOL    HW126210   0.388   0.846   1.254
 8437SOL    HW226211   0.262   0.877   1.154
 8438SOL     OW26212   1.419   0.046   1.629
 8438SOL    HW126213   1.456   0.004   1.547
 8438SOL    HW226214   1.493   0.079   1.687
 8439SOL     OW26215   0.335   6.028   2.414
 8439SOL    HW126216   0.279   6.050   2.494
 8439SOL    HW226217   0.371   5.935   2.423
 8440SOL     OW26218   0.601   1.349   3.260
 8440SOL    HW126219   0.525   1.362   3.324
 8440SOL    HW226220   0.576   1.279   3.193
 8441SOL     OW26221   4.833   5.804   6.558
 8441SOL    HW126222   4.882   5.827   6.474
 8441SOL    HW226223   4.824   5.886   6.614
 8442SOL     OW26224   2.028   4.656   6.716
 8442SOL    HW126225   1.929   4.649   6.707
 8442SOL    HW226226   2.072   4.601   6.646
 8443SOL     OW26227   1.698   0.995   2.728
 8443SOL    HW126228   1.668   0.913   2.777
 8443SOL    HW226229   1.797   0.991   2.715
 8444SOL     OW26230   3.514   6.471   3.417
 8444SOL    HW126231   3.455   6.460   3.336
 8444SOL    HW226232   3.598   6.419   3.403
 8445SOL     OW26233   3.893   4.838   2.091
 8445SOL    HW126234   3.946   4.782   2.154
 8445SOL    HW226235   3.799   4.845   2.124
 8446SOL     OW26236   5.748   4.726   3.075
 8446SOL    HW126237   5.796   4.645   3.109
 8446SOL    HW226238   5.751   4.798   3.144
 8447SOL     OW26239   4.857   2.481   1.738
 8447SOL    HW126240   4.948   2.443   1.756
 8447SOL    HW226241   4.797   2.461   1.814
 8448SOL     OW26242   1.002   2.967   6.821
 8448SOL    HW126243   0.963   3.046   6.772
 8448SOL    HW226244   1.057   2.913   6.758
 8449SOL     OW26245   1.999   2.501   4.592
 8449SOL    HW126246   2.082   2.460   4.628
 8449SOL    HW226247   1.919   2.459   4.634
 8450SOL     OW26248   1.982   5.117   2.403
 8450SOL    HW126249   1.950   5.134   2.310
 8450SOL    HW226250   2.033   5.030   2.405
 8451SOL     OW26251   3.348   2.813   0.888
 8451SOL    HW126252   3.388   2.863   0.965
 8451SOL    HW226253   3.410   2.740   0.860
 8452SOL     OW26254   6.643   6.042   0.664
 8452SOL    HW126255   6.695   6.111   0.714
 8452SOL    HW226256   6.549   6.074   0.650
 8453SOL     OW26257   6.764   4.581   6.579
 8453SOL    HW126258   6.848   4.528   6.569
 8453SOL    HW226259   6.700   4.531   6.638
 8454SOL     OW26260   1.512   0.592   4.408
 8454SOL    HW126261   1.582   0.595   4.336
 8454SOL    HW226262   1.436   0.535   4.377
 8455SOL     OW26263   5.009   1.182   1.622
 8455SOL    HW126264   5.071   1.115   1.580
 8455SOL    HW226265   4.979   1.247   1.553
 8456SOL     OW26266   5.569   5.892   3.040
 8456SOL    HW126267   5.667   5.882   3.058
 8456SOL    HW226268   5.545   5.845   2.955
 8457SOL     OW26269   0.514   6.241   6.393
 8457SOL    HW126270   0.600   6.292   6.405
 8457SOL    HW226271   0.486   6.245   6.297
 8458SOL     OW26272   1.120   1.248   0.767
 8458SOL    HW126273   1.203   1.199   0.793
 8458SOL    HW226274   1.118   1.336   0.813
 8459SOL     OW26275   2.984   5.392   2.189
 8459SOL    HW126276   2.969   5.309   2.243
 8459SOL    HW226277   2.977   5.370   2.091
 8460SOL     OW26278   4.684   1.547   0.938
 8460SOL    HW126279   4.675   1.615   0.866
 8460SOL    HW226280   4.609   1.557   1.003
 8461SOL     OW26281   6.152   4.147   1.490
 8461SOL    HW126282   6.112   4.056   1.497
 8461SOL    HW226283   6.095   4.213   1.540
 8462SOL     OW26284   2.756   4.927   6.907
 8462SOL    HW126285   2.785   4.851   6.849
 8462SOL    HW226286   2.758   4.899   7.003
 8463SOL     OW26287   6.324   1.141   0.389
 8463SOL    HW126288   6.400   1.095   0.344
 8463SOL    HW226289   6.243   1.083   0.386
 8464SOL     OW26290   0.298   3.515   0.081
 8464SOL    HW126291   0.288   3.575   0.002
 8464SOL    HW226292   0.337   3.567   0.157
 8465SOL     OW26293   3.824   3.324   1.044
 8465SOL    HW126294   3.909   3.317   0.991
 8465SOL    HW226295   3.815   3.243   1.102
 8466SOL     OW26296   6.082   0.877   5.628
 8466SOL    HW126297   5.997   0.918   5.661
 8466SOL    HW226298   6.076   0.777   5.634
 8467SOL     OW26299   3.282   0.877   1.132
 8467SOL    HW126300   3.348   0.849   1.202
 8467SOL    HW226301   3.286   0.814   1.055
 8468SOL     OW26302   6.393   3.196   0.616
 8468SOL    HW126303   6.368   3.293   0.616
 8468SOL    HW226304   6.464   3.179   0.548
 8469SOL     OW26305   3.883   3.017   6.073
 8469SOL    HW126306   3.823   2.989   6.148
 8469SOL    HW226307   3.835   3.005   5.986
 8470SOL     OW26308   1.653   4.928   1.641
 8470SOL    HW126309   1.702   4.893   1.561
 8470SOL    HW226310   1.575   4.982   1.610
 8471SOL     OW26311   3.808   2.095   5.082
 8471SOL    HW126312   3.850   2.153   5.152
 8471SOL    HW226313   3.860   2.010   5.074
 8472SOL     OW26314   5.962   1.255   6.113
 8472SOL    HW126315   5.920   1.258   6.204
 8472SOL    HW226316   5.957   1.345   6.071
 8473SOL     OW26317   4.741   4.642   6.576
 8473SOL    HW126318   4.817   4.686   6.624
 8473SOL    HW226319   4.768   4.620   6.483
 8474SOL     OW26320   3.836   3.726   2.599
 8474SOL    HW126321   3.771   3.773   2.660
 8474SOL    HW226322   3.922   3.712   2.647
 8475SOL     OW26323   6.475   2.562   2.155
 8475SOL    HW126324   6.526   2.638   2.196
 8475SOL    HW226325   6.517   2.475   2.181
 8476SOL     OW26326   6.477   0.240   2.366
 8476SOL    HW126327   6.482   0.237   2.466
 8476SOL    HW226328   6.436   0.327   2.337
 8477SOL     OW26329   5.799   6.470   1.777
 8477SOL    HW126330   5.725   6.496   1.840
 8477SOL    HW226331   5.814   6.371   1.783
 8478SOL     OW26332   6.653   0.347   5.823
 8478SOL    HW126333   6.750   0.371   5.823
 8478SOL    HW226334   6.614   0.364   5.732
 8479SOL     OW26335   0.711   2.803   1.604
 8479SOL    HW126336   0.808   2.822   1.616
 8479SOL    HW226337   0.670   2.872   1.545
 8480SOL     OW26338   4.655   4.188   0.536
 8480SOL    HW126339   4.589   4.258   0.561
 8480SOL    HW226340   4.727   4.183   0.606
 8481SOL     OW26341   4.134   2.212   3.419
 8481SOL    HW126342   4.103   2.243   3.509
 8481SOL    HW226343   4.230   2.234   3.407
 8482SOL     OW26344   4.400   0.965   0.412
 8482SOL    HW126345   4.352   0.913   0.483
 8482SOL    HW226346   4.398   0.913   0.326
 8483SOL     OW26347   3.176   5.191   3.602
 8483SOL    HW126348   3.142   5.284   3.590
 8483SOL    HW226349   3.099   5.129   3.615
 8484SOL     OW26350   5.636   5.893   3.823
 8484SOL    HW126351   5.571   5.937   3.885
 8484SOL    HW226352   5.589   5.863   3.741
 8485SOL     OW26353   2.890   3.002   0.371
 8485SOL    HW126354   2.893   3.100   0.350
 8485SOL    HW226355   2.893   2.989   0.471
 8486SOL     OW26356   1.021   1.338   2.854
 8486SOL    HW126357   0.987   1.359   2.762
 8486SOL    HW226358   0.955   1.281   2.902
 8487SOL     OW26359   6.703   1.614   5.856
 8487SOL    HW126360   6.726   1.559   5.775
 8487SOL    HW226361   6.611   1.651   5.846
 8488SOL     OW26362   4.939   4.537   1.560
 8488SOL    HW126363   4.897   4.504   1.645
 8488SOL    HW226364   4.996   4.616   1.580
 8489SOL     OW26365   5.102   1.278   1.879
 8489SOL    HW126366   5.081   1.223   1.798
 8489SOL    HW226367   5.165   1.227   1.938
 8490SOL     OW26368   2.266   0.314   6.898
 8490SOL    HW126369   2.237   0.407   6.876
 8490SOL    HW226370   2.258   0.298   6.996
 8491SOL     OW26371   3.313   5.181   2.462
 8491SOL    HW126372   3.295   5.231   2.377
 8491SOL    HW226373   3.236   5.194   2.525
 8492SOL     OW26374   6.857   5.783   4.476
 8492SOL    HW126375   6.859   5.830   4.564
 8492SOL    HW226376   6.884   5.847   4.404
 8493SOL     OW26377   3.901   0.619   0.001
 8493SOL    HW126378   3.838   0.633   6.947
 8493SOL    HW226379   3.934   0.707   0.034
 8494SOL     OW26380   6.702   5.114   2.288
 8494SOL    HW126381   6.645   5.164   2.353
 8494SOL    HW226382   6.676   5.017   2.289
 8495SOL     OW26383   6.506   5.506   0.521
 8495SOL    HW126384   6.524   5.417   0.562
 8495SOL    HW226385   6.563   5.516   0.439
 8496SOL     OW26386   5.295   2.542   2.375
 8496SOL    HW126387   5.212   2.558   2.322
 8496SOL    HW226388   5.327   2.449   2.360
 8497SOL     OW26389   6.209   0.962   3.747
 8497SOL    HW126390   6.252   0.912   3.672
 8497SOL    HW226391   6.110   0.948   3.745
 8498SOL     OW26392   4.865   0.422   4.509
 8498SOL    HW126393   4.798   0.362   4.554
 8498SOL    HW226394   4.823   0.512   4.492
 8499SOL     OW26395   6.580   6.373   6.172
 8499SOL    HW126396   6.606   6.397   6.265
 8499SOL    HW226397   6.624   6.436   6.108
 8500SOL     OW26398   1.428   1.069   4.800
 8500SOL    HW126399   1.340   1.105   4.832
 8500SOL    HW226400   1.439   1.090   4.703
 8501SOL     OW26401   1.165   2.302   6.193
 8501SOL    HW126402   1.157   2.207   6.162
 8501SOL    HW226403   1.227   2.352   6.132
 8502SOL     OW26404   0.664   2.852   6.812
 8502SOL    HW126405   0.724   2.776   6.838
 8502SOL    HW226406   0.719   2.932   6.789
 8503SOL     OW26407   5.665   0.206   4.183
 8503SOL    HW126408   5.580   0.228   4.231
 8503SOL    HW226409   5.701   0.289   4.140
 8504SOL     OW26410   1.632   5.877   1.998
 8504SOL    HW126411   1.534   5.891   1.983
 8504SOL    HW226412   1.646   5.792   2.049
 8505SOL     OW26413   5.271   3.275   2.639
 8505SOL    HW126414   5.284   3.333   2.720
 8505SOL    HW226415   5.231   3.188   2.668
 8506SOL     OW26416   2.085   0.124   6.792
 8506SOL    HW126417   2.119   0.034   6.821
 8506SOL    HW226418   2.152   0.194   6.816
 8507SOL     OW26419   4.202   6.325   5.458
 8507SOL    HW126420   4.180   6.247   5.517
 8507SOL    HW226421   4.300   6.324   5.437
 8508SOL     OW26422   3.476   1.724   6.973
 8508SOL    HW126423   3.548   1.677   6.923
 8508SOL    HW226424   3.411   1.657   7.009
 8509SOL     OW26425   5.684   1.037   3.676
 8509SOL    HW126426   5.684   1.129   3.716
 8509SOL    HW226427   5.589   1.009   3.660
 8510SOL     OW26428   6.618   1.940   4.569
 8510SOL    HW126429   6.536   1.943   4.512
 8510SOL    HW226430   6.674   1.862   4.542
 8511SOL     OW26431   5.652   2.739   2.034
 8511SOL    HW126432   5.640   2.665   1.968
 8511SOL    HW226433   5.717   2.712   2.104
 8512SOL     OW26434   1.777   0.242   4.842
 8512SOL    HW126435   1.706   0.202   4.901
 8512SOL    HW226436   1.865   0.241   4.889
 8513SOL     OW26437   4.982   5.880   6.170
 8513SOL    HW126438   4.953   5.903   6.078
 8513SOL    HW226439   4.942   5.946   6.235
 8514SOL     OW26440   2.400   6.021   3.765
 8514SOL    HW126441   2.437   6.093   3.823
 8514SOL    HW226442   2.316   5.985   3.806
 8515SOL     OW26443   4.982   2.180   0.837
 8515SOL    HW126444   4.942   2.246   0.899
 8515SOL    HW226445   5.081   2.178   0.850
 8516SOL     OW26446   6.856   1.907   2.141
 8516SOL    HW126447   6.950   1.931   2.164
 8516SOL    HW226448   6.798   1.989   2.149
 8517SOL     OW26449   2.400   3.051   6.777
 8517SOL    HW126450   2.418   2.988   6.852
 8517SOL    HW226451   2.355   3.002   6.702
 8518SOL     OW26452   3.618   5.261   0.330
 8518SOL    HW126453   3.674   5.179   0.314
 8518SOL    HW226454   3.677   5.342   0.330
 8519SOL     OW26455   0.936   4.994   2.956
 8519SOL    HW126456   1.003   5.033   2.894
 8519SOL    HW226457   0.938   5.043   3.043
 8520SOL     OW26458   3.615   0.809   0.564
 8520SOL    HW126459   3.709   0.781   0.585
 8520SOL    HW226460   3.552   0.737   0.591
 8521SOL     OW26461   0.821   6.345   6.393
 8521SOL    HW126462   0.918   6.327   6.378
 8521SOL    HW226463   0.810   6.436   6.434
 8522SOL     OW26464   1.848   5.887   5.077
 8522SOL    HW126465   1.830   5.985   5.080
 8522SOL    HW226466   1.904   5.860   5.155
 8523SOL     OW26467   1.391   0.130   6.820
 8523SOL    HW126468   1.388   0.093   6.913
 8523SOL    HW226469   1.439   0.217   6.820
 8524SOL     OW26470   1.265   2.730   6.351
 8524SOL    HW126471   1.261   2.751   6.253
 8524SOL    HW226472   1.242   2.633   6.365
 8525SOL     OW26473   5.535   3.103   2.657
 8525SOL    HW126474   5.522   3.141   2.566
 8525SOL    HW226475   5.477   3.151   2.722
 8526SOL     OW26476   1.979   2.714   2.284
 8526SOL    HW126477   1.980   2.813   2.299
 8526SOL    HW226478   1.898   2.690   2.230
 8527SOL     OW26479   4.252   0.736   4.440
 8527SOL    HW126480   4.226   0.639   4.431
 8527SOL    HW226481   4.333   0.753   4.384
 8528SOL     OW26482   4.773   2.697   6.752
 8528SOL    HW126483   4.859   2.744   6.772
 8528SOL    HW226484   4.713   2.758   6.701
 8529SOL     OW26485   0.173   4.743   0.373
 8529SOL    HW126486   0.242   4.781   0.434
 8529SOL    HW226487   0.170   4.796   0.288
 8530SOL     OW26488   1.624   3.396   5.405
 8530SOL    HW126489   1.631   3.485   5.360
 8530SOL    HW226490   1.590   3.408   5.498
 8531SOL     OW26491   4.405   4.816   2.793
 8531SOL    HW126492   4.314   4.820   2.752
 8531SOL    HW226493   4.429   4.906   2.830
 8532SOL     OW26494   1.558   4.096   5.755
 8532SOL    HW126495   1.645   4.083   5.708
 8532SOL    HW226496   1.492   4.029   5.722
 8533SOL     OW26497   3.470   0.300   5.260
 8533SOL    HW126498   3.556   0.347   5.241
 8533SOL    HW226499   3.448   0.310   5.357
 8534SOL     OW26500   1.563   2.649   3.131
 8534SOL    HW126501   1.594   2.720   3.067
 8534SOL    HW226502   1.524   2.572   3.079
 8535SOL     OW26503   0.088   2.287   4.274
 8535SOL    HW126504   0.110   2.350   4.348
 8535SOL    HW226505   0.023   2.218   4.306
 8536SOL     OW26506   0.227   1.675   5.779
 8536SOL    HW126507   0.221   1.733   5.697
 8536SOL    HW226508   0.282   1.594   5.758
 8537SOL     OW26509   5.709   0.649   1.662
 8537SOL    HW126510   5.724   0.748   1.664
 8537SOL    HW226511   5.678   0.618   1.752
 8538SOL     OW26512   5.974   1.369   4.536
 8538SOL    HW126513   5.920   1.357   4.619
 8538SOL    HW226514   5.933   1.317   4.461
 8539SOL     OW26515   6.745   3.334   2.521
 8539SOL    HW126516   6.789   3.254   2.562
 8539SOL    HW226517   6.711   3.393   2.594
 8540SOL     OW26518   4.528   0.346   0.346
 8540SOL    HW126519   4.524   0.270   0.410
 8540SOL    HW226520   4.569   0.426   0.391
 8541SOL     OW26521   3.163   0.063   5.121
 8541SOL    HW126522   3.107   0.047   5.202
 8541SOL    HW226523   3.200   0.156   5.125
 8542SOL     OW26524   1.198   4.711   6.398
 8542SOL    HW126525   1.195   4.662   6.311
 8542SOL    HW226526   1.119   4.772   6.405
 8543SOL     OW26527   2.357   1.965   6.325
 8543SOL    HW126528   2.423   1.896   6.295
 8543SOL    HW226529   2.281   1.968   6.260
 8544SOL     OW26530   5.627   4.195   5.464
 8544SOL    HW126531   5.575   4.224   5.384
 8544SOL    HW226532   5.722   4.181   5.438
 8545SOL     OW26533   3.034   0.489   6.819
 8545SOL    HW126534   2.994   0.451   6.903
 8545SOL    HW226535   3.110   0.431   6.789
 8546SOL     OW26536   5.092   0.298   1.482
 8546SOL    HW126537   5.144   0.217   1.455
 8546SOL    HW226538   4.994   0.279   1.470
 8547SOL     OW26539   5.970   5.758   5.372
 8547SOL    HW126540   5.975   5.782   5.469
 8547SOL    HW226541   5.994   5.838   5.317
 8548SOL     OW26542   0.366   2.940   5.505
 8548SOL    HW126543   0.439   3.003   5.479
 8548SOL    HW226544   0.283   2.991   5.526
 8549SOL     OW26545   1.957   0.111   3.707
 8549SOL    HW126546   1.956   0.179   3.781
 8549SOL    HW226547   1.929   0.022   3.743
 8550SOL     OW26548   6.643   4.266   6.605
 8550SOL    HW126549   6.698   4.221   6.536
 8550SOL    HW226550   6.689   4.260   6.694
 8551SOL     OW26551   1.709   1.188   6.232
 8551SOL    HW126552   1.672   1.211   6.322
 8551SOL    HW226553   1.726   1.272   6.180
 8552SOL     OW26554   3.006   1.809   3.737
 8552SOL    HW126555   3.076   1.827   3.667
 8552SOL    HW226556   2.999   1.888   3.798
 8553SOL     OW26557   5.063   3.956   7.006
 8553SOL    HW126558   5.131   3.897   0.026
 8553SOL    HW226559   4.984   3.902   6.977
 8554SOL     OW26560   1.989   1.513   1.263
 8554SOL    HW126561   1.906   1.478   1.307
 8554SOL    HW226562   1.971   1.603   1.223
 8555SOL     OW26563   4.043   1.637   3.754
 8555SOL    HW126564   4.070   1.586   3.835
 8555SOL    HW226565   4.088   1.726   3.754
 8556SOL     OW26566   1.670   6.371   0.172
 8556SOL    HW126567   1.717   6.429   0.106
 8556SOL    HW226568   1.724   6.289   0.189
 8557SOL     OW26569   0.316   0.392   6.861
 8557SOL    HW126570   0.331   0.425   6.954
 8557SOL    HW226571   0.296   0.294   6.863
 8558SOL     OW26572   3.418   6.067   4.782
 8558SOL    HW126573   3.416   6.018   4.695
 8558SOL    HW226574   3.432   6.002   4.856
 8559SOL     OW26575   1.500   4.820   3.030
 8559SOL    HW126576   1.495   4.720   3.022
 8559SOL    HW226577   1.596   4.849   3.025
 8560SOL     OW26578   3.078   4.547   1.194
 8560SOL    HW126579   3.030   4.460   1.187
 8560SOL    HW226580   3.044   4.599   1.272
 8561SOL     OW26581   4.788   0.693   2.326
 8561SOL    HW126582   4.881   0.722   2.349
 8561SOL    HW226583   4.791   0.635   2.245
 8562SOL     OW26584   4.911   1.608   6.598
 8562SOL    HW126585   4.934   1.511   6.590
 8562SOL    HW226586   4.849   1.620   6.676
 8563SOL     OW26587   2.281   5.192   2.304
 8563SOL    HW126588   2.244   5.111   2.349
 8563SOL    HW226589   2.325   5.251   2.372
 8564SOL     OW26590   4.277   0.279   7.016
 8564SOL    HW126591   4.189   0.312   0.028
 8564SOL    HW226592   4.346   0.351   0.004
 8565SOL     OW26593   2.161   4.593   0.679
 8565SOL    HW126594   2.251   4.637   0.680
 8565SOL    HW226595   2.093   4.657   0.642
 8566SOL     OW26596   3.545   1.363   2.523
 8566SOL    HW126597   3.498   1.285   2.563
 8566SOL    HW226598   3.513   1.377   2.429
 8567SOL     OW26599   2.177   3.015   2.059
 8567SOL    HW126600   2.080   2.992   2.072
 8567SOL    HW226601   2.223   3.014   2.148
 8568SOL     OW26602   5.702   0.150   6.346
 8568SOL    HW126603   5.719   0.233   6.293
 8568SOL    HW226604   5.674   0.175   6.438
 8569SOL     OW26605   4.435   2.441   6.397
 8569SOL    HW126606   4.432   2.415   6.301
 8569SOL    HW226607   4.524   2.416   6.435
 8570SOL     OW26608   1.823   2.807   2.694
 8570SOL    HW126609   1.854   2.761   2.611
 8570SOL    HW226610   1.875   2.774   2.773
 8571SOL     OW26611   1.510   0.979   3.109
 8571SOL    HW126612   1.427   1.002   3.058
 8571SOL    HW226613   1.587   1.031   3.073
 8572SOL     OW26614   3.079   4.710   5.635
 8572SOL    HW126615   3.040   4.749   5.718
 8572SOL    HW226616   3.115   4.619   5.654
 8573SOL     OW26617   4.010   6.260   0.378
 8573SOL    HW126618   4.100   6.235   0.414
 8573SOL    HW226619   3.975   6.186   0.321
 8574SOL     OW26620   5.530   0.684   4.664
 8574SOL    HW126621   5.461   0.661   4.732
 8574SOL    HW226622   5.620   0.656   4.698
 8575SOL     OW26623   3.508   5.986   3.456
 8575SOL    HW126624   3.428   5.989   3.516
 8575SOL    HW226625   3.565   6.068   3.471
 8576SOL     OW26626   1.540   4.596   3.518
 8576SOL    HW126627   1.477   4.565   3.447
 8576SOL    HW226628   1.580   4.684   3.491
 8577SOL     OW26629   1.486   1.909   0.581
 8577SOL    HW126630   1.471   1.879   0.487
 8577SOL    HW226631   1.581   1.894   0.606
 8578SOL     OW26632   0.110   6.475   6.309
 8578SOL    HW126633   0.195   6.449   6.263
 8578SOL    HW226634   0.039   6.408   6.288
 8579SOL     OW26635   3.219   6.562   2.547
 8579SOL    HW126636   3.207   6.471   2.507
 8579SOL    HW226637   3.272   6.554   2.631
 8580SOL     OW26638   2.108   0.390   1.395
 8580SOL    HW126639   2.055   0.475   1.398
 8580SOL    HW226640   2.205   0.411   1.382
 8581SOL     OW26641   3.453   4.866   1.362
 8581SOL    HW126642   3.355   4.880   1.375
 8581SOL    HW226643   3.468   4.790   1.299
 8582SOL     OW26644   3.835   4.727   6.175
 8582SOL    HW126645   3.747   4.746   6.218
 8582SOL    HW226646   3.857   4.630   6.185
 8583SOL     OW26647   4.497   0.504   2.468
 8583SOL    HW126648   4.435   0.462   2.535
 8583SOL    HW226649   4.445   0.566   2.409
 8584SOL     OW26650   6.628   1.534   4.931
 8584SOL    HW126651   6.662   1.573   4.845
 8584SOL    HW226652   6.531   1.556   4.941
 8585SOL     OW26653   5.037   2.277   2.464
 8585SOL    HW126654   4.945   2.278   2.504
 8585SOL    HW226655   5.034   2.318   2.373
 8586SOL     OW26656   6.599   5.810   0.426
 8586SOL    HW126657   6.578   5.868   0.504
 8586SOL    HW226658   6.521   5.809   0.363
 8587SOL     OW26659   1.016   1.863   7.017
 8587SOL    HW126660   1.033   1.886   6.921
 8587SOL    HW226661   0.944   1.793   7.022
 8588SOL     OW26662   1.983   1.582   6.740
 8588SOL    HW126663   1.959   1.674   6.707
 8588SOL    HW226664   2.066   1.550   6.694
 8589SOL     OW26665   6.583   2.398   6.561
 8589SOL    HW126666   6.642   2.447   6.626
 8589SOL    HW226667   6.568   2.305   6.594
 8590SOL     OW26668   1.278   1.531   4.364
 8590SOL    HW126669   1.315   1.485   4.445
 8590SOL    HW226670   1.330   1.504   4.283
 8591SOL     OW26671   6.490   4.452   6.700
 8591SOL    HW126672   6.558   4.392   6.656
 8591SOL    HW226673   6.398   4.423   6.673
 8592SOL     OW26674   1.010   1.574   5.819
 8592SOL    HW126675   0.940   1.617   5.762
 8592SOL    HW226676   1.085   1.639   5.834
 8593SOL     OW26677   3.960   1.426   0.247
 8593SOL    HW126678   3.988   1.517   0.278
 8593SOL    HW226679   3.967   1.423   0.147
 8594SOL     OW26680   6.395   2.928   5.367
 8594SOL    HW126681   6.442   2.901   5.451
 8594SOL    HW226682   6.441   3.008   5.328
 8595SOL     OW26683   6.138   6.862   2.648
 8595SOL    HW126684   6.103   6.872   2.555
 8595SOL    HW226685   6.221   6.806   2.647
 8596SOL     OW26686   1.024   1.552   4.046
 8596SOL    HW126687   1.093   1.619   4.017
 8596SOL    HW226688   1.020   1.550   4.146
 8597SOL     OW26689   5.934   3.360   6.814
 8597SOL    HW126690   5.912   3.454   6.789
 8597SOL    HW226691   5.859   3.321   6.868
 8598SOL     OW26692   5.914   6.623   4.363
 8598SOL    HW126693   5.996   6.640   4.417
 8598SOL    HW226694   5.937   6.563   4.286
 8599SOL     OW26695   0.443   3.348   3.968
 8599SOL    HW126696   0.515   3.279   3.966
 8599SOL    HW226697   0.475   3.428   4.019
 8600SOL     OW26698   4.452   2.309   0.896
 8600SOL    HW126699   4.535   2.308   0.952
 8600SOL    HW226700   4.446   2.397   0.847
 8601SOL     OW26701   0.838   6.742   3.173
 8601SOL    HW126702   0.772   6.792   3.117
 8601SOL    HW226703   0.859   6.654   3.129
 8602SOL     OW26704   2.670   6.354   5.060
 8602SOL    HW126705   2.766   6.381   5.048
 8602SOL    HW226706   2.664   6.254   5.066
 8603SOL     OW26707   0.078   0.072   0.015
 8603SOL    HW126708   0.178   0.082   0.013
 8603SOL    HW226709   0.037   0.144   6.983
 8604SOL     OW26710   0.056   4.431   6.118
 8604SOL    HW126711   0.146   4.387   6.122
 8604SOL    HW226712   0.063   4.517   6.069
 8605SOL     OW26713   6.751   5.199   4.386
 8605SOL    HW126714   6.765   5.297   4.371
 8605SOL    HW226715   6.825   5.148   4.341
 8606SOL     OW26716   1.777   2.295   0.437
 8606SOL    HW126717   1.845   2.367   0.455
 8606SOL    HW226718   1.736   2.266   0.523
 8607SOL     OW26719   2.624   4.153   1.318
 8607SOL    HW126720   2.601   4.149   1.415
 8607SOL    HW226721   2.561   4.216   1.272
 8608SOL     OW26722   2.142   5.026   2.865
 8608SOL    HW126723   2.123   5.118   2.899
 8608SOL    HW226724   2.110   4.959   2.932
 8609SOL     OW26725   4.620   1.331   4.449
 8609SOL    HW126726   4.535   1.363   4.408
 8609SOL    HW226727   4.698   1.370   4.398
 8610SOL     OW26728   6.964   5.863   3.363
 8610SOL    HW126729   6.935   5.906   3.448
 8610SOL    HW226730   6.928   5.770   3.359
 8611SOL     OW26731   3.318   1.573   5.084
 8611SOL    HW126732   3.416   1.560   5.077
 8611SOL    HW226733   3.278   1.576   4.992
 8612SOL     OW26734   3.771   4.097   3.868
 8612SOL    HW126735   3.775   4.123   3.965
 8612SOL    HW226736   3.715   4.163   3.819
 8613SOL     OW26737   3.962   2.884   1.834
 8613SOL    HW126738   3.971   2.903   1.932
 8613SOL    HW226739   3.901   2.951   1.793
 8614SOL     OW26740   1.657   1.720   2.652
 8614SOL    HW126741   1.587   1.689   2.717
 8614SOL    HW226742   1.613   1.749   2.568
 8615SOL     OW26743   3.934   1.502   4.459
 8615SOL    HW126744   3.961   1.594   4.487
 8615SOL    HW226745   3.853   1.474   4.511
 8616SOL     OW26746   4.588   4.370   3.076
 8616SOL    HW126747   4.507   4.422   3.101
 8616SOL    HW226748   4.598   4.371   2.976
 8617SOL     OW26749   2.955   0.383   3.764
 8617SOL    HW126750   3.047   0.405   3.732
 8617SOL    HW226751   2.960   0.308   3.830
 8618SOL     OW26752   5.729   4.674   0.548
 8618SOL    HW126753   5.663   4.670   0.473
 8618SOL    HW226754   5.777   4.761   0.546
 8619SOL     OW26755   4.783   5.188   0.751
 8619SOL    HW126756   4.745   5.260   0.809
 8619SOL    HW226757   4.826   5.118   0.809
 8620SOL     OW26758   1.846   0.472   4.660
 8620SOL    HW126759   1.914   0.492   4.730
 8620SOL    HW226760   1.766   0.429   4.701
 8621SOL     OW26761   5.563   2.736   1.423
 8621SOL    HW126762   5.655   2.728   1.386
 8621SOL    HW226763   5.514   2.649   1.410
 8622SOL     OW26764   6.562   5.266   2.698
 8622SOL    HW126765   6.503   5.219   2.763
 8622SOL    HW226766   6.580   5.359   2.731
 8623SOL     OW26767   0.817   3.453   3.679
 8623SOL    HW126768   0.792   3.360   3.651
 8623SOL    HW226769   0.755   3.519   3.636
 8624SOL     OW26770   2.983   3.860   5.020
 8624SOL    HW126771   2.924   3.939   5.037
 8624SOL    HW226772   3.000   3.812   5.106
 8625SOL     OW26773   4.097   2.869   5.527
 8625SOL    HW126774   4.193   2.896   5.524
 8625SOL    HW226775   4.054   2.907   5.610
 8626SOL     OW26776   4.168   4.352   0.882
 8626SOL    HW126777   4.112   4.347   0.965
 8626SOL    HW226778   4.205   4.262   0.861
 8627SOL     OW26779   1.778   0.856   1.693
 8627SOL    HW126780   1.873   0.869   1.719
 8627SOL    HW226781   1.718   0.881   1.769
 8628SOL     OW26782   0.619   6.127   0.769
 8628SOL    HW126783   0.618   6.186   0.688
 8628SOL    HW226784   0.547   6.155   0.832
 8629SOL     OW26785   0.025   6.555   5.833
 8629SOL    HW126786   0.110   6.586   5.875
 8629SOL    HW226787   0.045   6.518   5.742
 8630SOL     OW26788   5.489   3.180   2.401
 8630SOL    HW126789   5.390   3.189   2.386
 8630SOL    HW226790   5.525   3.107   2.343
 8631SOL     OW26791   2.349   0.063   0.263
 8631SOL    HW126792   2.433   0.009   0.252
 8631SOL    HW226793   2.279   0.028   0.200
 8632SOL     OW26794   5.209   5.000   5.649
 8632SOL    HW126795   5.221   4.902   5.633
 8632SOL    HW226796   5.280   5.033   5.712
 8633SOL     OW26797   5.496   4.134   6.200
 8633SOL    HW126798   5.490   4.231   6.225
 8633SOL    HW226799   5.582   4.118   6.150
 8634SOL     OW26800   4.524   3.698   0.275
 8634SOL    HW126801   4.515   3.728   0.370
 8634SOL    HW226802   4.439   3.654   0.246
 8635SOL     OW26803   5.545   2.175   5.917
 8635SOL    HW126804   5.484   2.122   5.857
 8635SOL    HW226805   5.558   2.127   6.003
 8636SOL     OW26806   5.092   0.581   1.499
 8636SOL    HW126807   5.088   0.487   1.466
 8636SOL    HW226808   5.094   0.582   1.599
 8637SOL     OW26809   1.445   1.858   0.309
 8637SOL    HW126810   1.517   1.861   0.240
 8637SOL    HW226811   1.389   1.941   0.301
 8638SOL     OW26812   4.700   2.346   4.240
 8638SOL    HW126813   4.741   2.349   4.331
 8638SOL    HW226814   4.609   2.305   4.246
 8639SOL     OW26815   3.381   3.912   0.017
 8639SOL    HW126816   3.292   3.956   0.033
 8639SOL    HW226817   3.368   3.830   6.983
 8640SOL     OW26818   2.854   3.327   1.439
 8640SOL    HW126819   2.844   3.353   1.343
 8640SOL    HW226820   2.820   3.234   1.452
 8641SOL     OW26821   4.391   6.373   2.503
 8641SOL    HW126822   4.470   6.420   2.465
 8641SOL    HW226823   4.313   6.382   2.441
 8642SOL     OW26824   1.020   5.880   3.854
 8642SOL    HW126825   0.971   5.831   3.926
 8642SOL    HW226826   0.968   5.876   3.769
 8643SOL     OW26827   4.082   6.126   1.045
 8643SOL    HW126828   4.064   6.225   1.047
 8643SOL    HW226829   4.145   6.103   1.119
 8644SOL     OW26830   6.450   1.932   6.685
 8644SOL    HW126831   6.487   1.933   6.778
 8644SOL    HW226832   6.428   1.838   6.659
 8645SOL     OW26833   5.764   4.312   2.490
 8645SOL    HW126834   5.792   4.408   2.501
 8645SOL    HW226835   5.828   4.253   2.540
 8646SOL     OW26836   0.365   2.220   5.036
 8646SOL    HW126837   0.374   2.189   5.131
 8646SOL    HW226838   0.327   2.146   4.980
 8647SOL     OW26839   2.484   5.524   1.940
 8647SOL    HW126840   2.487   5.498   1.843
 8647SOL    HW226841   2.391   5.513   1.974
 8648SOL     OW26842   5.281   5.075   0.232
 8648SOL    HW126843   5.263   5.142   0.304
 8648SOL    HW226844   5.197   5.026   0.209
 8649SOL     OW26845   4.725   0.587   1.245
 8649SOL    HW126846   4.716   0.672   1.296
 8649SOL    HW226847   4.674   0.595   1.159
 8650SOL     OW26848   2.179   6.347   4.622
 8650SOL    HW126849   2.229   6.308   4.699
 8650SOL    HW226850   2.113   6.280   4.587
 8651SOL     OW26851   3.492   1.879   1.310
 8651SOL    HW126852   3.463   1.794   1.266
 8651SOL    HW226853   3.451   1.886   1.400
 8652SOL     OW26854   0.857   2.941   3.611
 8652SOL    HW126855   0.835   2.851   3.648
 8652SOL    HW226856   0.875   2.933   3.513
 8653SOL     OW26857   6.944   1.576   6.162
 8653SOL    HW126858   7.011   1.611   6.227
 8653SOL    HW226859   6.854   1.569   6.205
 8654SOL     OW26860   0.626   4.691   1.887
 8654SOL    HW126861   0.573   4.774   1.874
 8654SOL    HW226862   0.604   4.625   1.815
 8655SOL     OW26863   0.688   0.548   5.047
 8655SOL    HW126864   0.726   0.504   4.967
 8655SOL    HW226865   0.591   0.525   5.056
 8656SOL     OW26866   4.981   6.888   1.008
 8656SOL    HW126867   4.933   6.847   0.931
 8656SOL    HW226868   5.077   6.902   0.984
 8657SOL     OW26869   4.788   1.086   3.196
 8657SOL    HW126870   4.702   1.110   3.242
 8657SOL    HW226871   4.811   0.991   3.217
 8658SOL     OW26872   6.497   4.196   0.741
 8658SOL    HW126873   6.450   4.115   0.775
 8658SOL    HW226874   6.586   4.205   0.787
 8659SOL     OW26875   4.502   0.942   2.588
 8659SOL    HW126876   4.474   0.861   2.639
 8659SOL    HW226877   4.546   1.008   2.649
 8660SOL     OW26878   6.354   3.924   1.429
 8660SOL    HW126879   6.298   3.853   1.385
 8660SOL    HW226880   6.301   4.009   1.434
 8661SOL     OW26881   6.216   4.047   2.628
 8661SOL    HW126882   6.266   4.069   2.545
 8661SOL    HW226883   6.165   3.962   2.614
 8662SOL     OW26884   2.136   4.278   3.425
 8662SOL    HW126885   2.099   4.328   3.504
 8662SOL    HW226886   2.071   4.209   3.396
 8663SOL     OW26887   3.957   5.532   2.417
 8663SOL    HW126888   3.869   5.486   2.421
 8663SOL    HW226889   3.947   5.620   2.372
 8664SOL     OW26890   3.451   5.952   4.015
 8664SOL    HW126891   3.420   5.867   4.056
 8664SOL    HW226892   3.373   6.010   3.993
 8665SOL     OW26893   5.922   2.631   6.471
 8665SOL    HW126894   5.868   2.697   6.523
 8665SOL    HW226895   6.009   2.614   6.519
 8666SOL     OW26896   4.584   6.702   2.666
 8666SOL    HW126897   4.489   6.732   2.675
 8666SOL    HW226898   4.631   6.759   2.599
 8667SOL     OW26899   5.255   2.075   3.551
 8667SOL    HW126900   5.221   2.021   3.475
 8667SOL    HW226901   5.347   2.044   3.576
 8668SOL     OW26902   5.021   2.450   4.693
 8668SOL    HW126903   5.058   2.482   4.606
 8668SOL    HW226904   4.975   2.525   4.740
 8669SOL     OW26905   6.162   5.979   5.648
 8669SOL    HW126906   6.135   6.072   5.621
 8669SOL    HW226907   6.081   5.925   5.668
 8670SOL     OW26908   6.139   4.244   6.044
 8670SOL    HW126909   6.134   4.338   6.077
 8670SOL    HW226910   6.092   4.183   6.107
 8671SOL     OW26911   6.926   2.030   3.012
 8671SOL    HW126912   6.943   2.087   3.092
 8671SOL    HW226913   6.842   2.060   2.967
 8672SOL     OW26914   0.592   0.816   3.270
 8672SOL    HW126915   0.494   0.831   3.284
 8672SOL    HW226916   0.607   0.767   3.184
 8673SOL     OW26917   0.894   1.387   1.433
 8673SOL    HW126918   0.962   1.435   1.489
 8673SOL    HW226919   0.888   1.430   1.343
 8674SOL     OW26920   6.790   4.292   3.604
 8674SOL    HW126921   6.851   4.216   3.626
 8674SOL    HW226922   6.698   4.271   3.636
 8675SOL     OW26923   3.804   1.968   5.410
 8675SOL    HW126924   3.848   1.942   5.497
 8675SOL    HW226925   3.778   1.886   5.360
 8676SOL     OW26926   5.544   1.445   0.743
 8676SOL    HW126927   5.527   1.346   0.750
 8676SOL    HW226928   5.631   1.460   0.696
 8677SOL     OW26929   2.436   6.419   5.977
 8677SOL    HW126930   2.375   6.437   6.055
 8677SOL    HW226931   2.467   6.506   5.938
 8678SOL     OW26932   1.398   1.891   1.144
 8678SOL    HW126933   1.381   1.981   1.185
 8678SOL    HW226934   1.384   1.896   1.045
 8679SOL     OW26935   1.178   1.507   5.091
 8679SOL    HW126936   1.245   1.524   5.163
 8679SOL    HW226937   1.226   1.488   5.005
 8680SOL     OW26938   6.453   0.972   6.660
 8680SOL    HW126939   6.492   0.887   6.625
 8680SOL    HW226940   6.526   1.033   6.689
 8681SOL     OW26941   5.196   6.022   1.471
 8681SOL    HW126942   5.103   6.002   1.501
 8681SOL    HW226943   5.245   6.069   1.543
 8682SOL     OW26944   1.683   1.180   1.264
 8682SOL    HW126945   1.724   1.204   1.351
 8682SOL    HW226946   1.612   1.247   1.240
 8683SOL     OW26947   1.919   4.261   4.622
 8683SOL    HW126948   1.939   4.357   4.600
 8683SOL    HW226949   1.890   4.254   4.717
 8684SOL     OW26950   1.210   3.423   4.152
 8684SOL    HW126951   1.138   3.491   4.167
 8684SOL    HW226952   1.169   3.337   4.123
 8685SOL     OW26953   5.129   2.231   5.179
 8685SOL    HW126954   5.150   2.311   5.235
 8685SOL    HW226955   5.158   2.248   5.085
 8686SOL     OW26956   0.741   5.555   2.931
 8686SOL    HW126957   0.730   5.652   2.913
 8686SOL    HW226958   0.651   5.511   2.934
 8687SOL     OW26959   5.408   3.965   5.408
 8687SOL    HW126960   5.451   3.951   5.498
 8687SOL    HW226961   5.453   4.041   5.361
 8688SOL     OW26962   0.229   3.956   6.073
 8688SOL    HW126963   0.220   4.054   6.093
 8688SOL    HW226964   0.312   3.941   6.020
 8689SOL     OW26965   4.172   3.898   6.988
 8689SOL    HW126966   4.120   3.947   6.918
 8689SOL    HW226967   4.168   3.950   0.051
 8690SOL     OW26968   1.568   2.486   2.763
 8690SOL    HW126969   1.505   2.461   2.837
 8690SOL    HW226970   1.652   2.432   2.772
 8691SOL     OW26971   3.332   2.681   5.276
 8691SOL    HW126972   3.284   2.599   5.244
 8691SOL    HW226973   3.429   2.661   5.287
 8692SOL     OW26974   4.345   2.056   4.907
 8692SOL    HW126975   4.260   2.030   4.862
 8692SOL    HW226976   4.422   2.044   4.845
 8693SOL     OW26977   6.385   6.609   6.594
 8693SOL    HW126978   6.311   6.643   6.536
 8693SOL    HW226979   6.382   6.509   6.597
 8694SOL     OW26980   6.268   3.462   4.468
 8694SOL    HW126981   6.193   3.505   4.519
 8694SOL    HW226982   6.250   3.363   4.460
 8695SOL     OW26983   3.686   4.277   5.810
 8695SOL    HW126984   3.614   4.321   5.864
 8695SOL    HW226985   3.660   4.276   5.713
 8696SOL     OW26986   2.927   5.456   5.648
 8696SOL    HW126987   2.940   5.504   5.561
 8696SOL    HW226988   2.857   5.503   5.702
 8697SOL     OW26989   1.364   3.655   5.688
 8697SOL    HW126990   1.301   3.714   5.637
 8697SOL    HW226991   1.438   3.625   5.628
 8698SOL     OW26992   5.376   5.504   5.337
 8698SOL    HW126993   5.290   5.553   5.351
 8698SOL    HW226994   5.444   5.566   5.299
 8699SOL     OW26995   1.435   2.932   6.646
 8699SOL    HW126996   1.472   2.904   6.557
 8699SOL    HW226997   1.386   2.855   6.687
 8700SOL     OW26998   0.973   6.866   4.940
 8700SOL    HW126999   0.974   6.945   4.878
 8700SOL    HW227000   0.917   6.887   5.020
 8701SOL     OW27001   0.574   2.627   0.551
 8701SOL    HW127002   0.611   2.543   0.591
 8701SOL    HW227003   0.587   2.703   0.615
 8702SOL     OW27004   5.460   5.141   1.948
 8702SOL    HW127005   5.446   5.239   1.940
 8702SOL    HW227006   5.404   5.106   2.023
 8703SOL     OW27007   2.677   5.563   1.248
 8703SOL    HW127008   2.752   5.557   1.314
 8703SOL    HW227009   2.640   5.472   1.231
 8704SOL     OW27010   0.925   0.460   4.405
 8704SOL    HW127011   0.922   0.536   4.470
 8704SOL    HW227012   0.959   0.378   4.451
 8705SOL     OW27013   4.581   2.666   6.952
 8705SOL    HW127014   4.652   2.659   6.881
 8705SOL    HW227015   4.491   2.652   6.910
 8706SOL     OW27016   4.617   2.741   6.322
 8706SOL    HW127017   4.579   2.748   6.414
 8706SOL    HW227018   4.543   2.743   6.255
 8707SOL     OW27019   2.060   1.863   5.072
 8707SOL    HW127020   1.977   1.919   5.075
 8707SOL    HW227021   2.119   1.894   4.998
 8708SOL     OW27022   6.029   2.160   1.362
 8708SOL    HW127023   6.123   2.156   1.327
 8708SOL    HW227024   5.991   2.251   1.347
 8709SOL     OW27025   6.736   0.108   5.908
 8709SOL    HW127026   6.680   0.179   5.865
 8709SOL    HW227027   6.753   0.131   6.003
 8710SOL     OW27028   2.479   1.003   3.055
 8710SOL    HW127029   2.551   1.071   3.071
 8710SOL    HW227030   2.517   0.911   3.063
 8711SOL     OW27031   1.642   0.661   1.546
 8711SOL    HW127032   1.598   0.714   1.474
 8711SOL    HW227033   1.688   0.723   1.609
 8712SOL     OW27034   1.591   3.751   5.868
 8712SOL    HW127035   1.509   3.757   5.812
 8712SOL    HW227036   1.584   3.672   5.929
 8713SOL     OW27037   0.207   5.207   1.895
 8713SOL    HW127038   0.269   5.237   1.968
 8713SOL    HW227039   0.204   5.277   1.823
 8714SOL     OW27040   0.226   5.880   6.849
 8714SOL    HW127041   0.151   5.906   6.911
 8714SOL    HW227042   0.188   5.833   6.769
 8715SOL     OW27043   2.164   3.104   1.460
 8715SOL    HW127044   2.222   3.023   1.468
 8715SOL    HW227045   2.161   3.151   1.549
 8716SOL     OW27046   6.638   6.675   1.644
 8716SOL    HW127047   6.633   6.774   1.650
 8716SOL    HW227048   6.618   6.646   1.550
 8717SOL     OW27049   2.930   4.149   0.831
 8717SOL    HW127050   3.014   4.195   0.858
 8717SOL    HW227051   2.902   4.179   0.740
 8718SOL     OW27052   2.385   4.285   6.660
 8718SOL    HW127053   2.478   4.249   6.655
 8718SOL    HW227054   2.373   4.358   6.593
 8719SOL     OW27055   3.978   0.274   5.433
 8719SOL    HW127056   4.029   0.318   5.508
 8719SOL    HW227057   3.925   0.197   5.470
 8720SOL     OW27058   6.700   4.829   5.034
 8720SOL    HW127059   6.689   4.736   5.071
 8720SOL    HW227060   6.610   4.869   5.017
 8721SOL     OW27061   0.569   0.522   6.588
 8721SOL    HW127062   0.552   0.450   6.520
 8721SOL    HW227063   0.634   0.489   6.656
 8722SOL     OW27064   3.323   1.673   1.273
 8722SOL    HW127065   3.318   1.630   1.183
 8722SOL    HW227066   3.230   1.692   1.306
 8723SOL     OW27067   4.019   0.592   2.161
 8723SOL    HW127068   3.994   0.519   2.225
 8723SOL    HW227069   3.959   0.671   2.175
 8724SOL     OW27070   3.950   1.026   4.677
 8724SOL    HW127071   3.875   1.036   4.611
 8724SOL    HW227072   3.994   0.937   4.664
 8725SOL     OW27073   0.150   6.559   3.761
 8725SOL    HW127074   0.164   6.654   3.789
 8725SOL    HW227075   0.080   6.518   3.819
 8726SOL     OW27076   0.199   0.733   1.025
 8726SOL    HW127077   0.260   0.658   1.052
 8726SOL    HW227078   0.202   0.745   0.926
 8727SOL     OW27079   4.346   5.617   6.292
 8727SOL    HW127080   4.420   5.595   6.229
 8727SOL    HW227081   4.317   5.712   6.277
 8728SOL     OW27082   0.080   0.456   3.351
 8728SOL    HW127083   0.128   0.475   3.436
 8728SOL    HW227084   0.014   0.528   3.333
 8729SOL     OW27085   3.936   6.521   6.462
 8729SOL    HW127086   3.974   6.429   6.463
 8729SOL    HW227087   4.005   6.585   6.429
 8730SOL     OW27088   4.282   5.339   1.860
 8730SOL    HW127089   4.327   5.410   1.914
 8730SOL    HW227090   4.285   5.252   1.909
 8731SOL     OW27091   0.381   1.793   3.341
 8731SOL    HW127092   0.469   1.766   3.304
 8731SOL    HW227093   0.317   1.812   3.266
 8732SOL     OW27094   5.985   6.705   0.322
 8732SOL    HW127095   5.961   6.781   0.262
 8732SOL    HW227096   5.921   6.630   0.308
 8733SOL     OW27097   6.445   5.305   1.868
 8733SOL    HW127098   6.527   5.362   1.862
 8733SOL    HW227099   6.459   5.232   1.934
 8734SOL     OW27100   0.336   3.659   2.216
 8734SOL    HW127101   0.379   3.743   2.183
 8734SOL    HW227102   0.397   3.581   2.202
 8735SOL     OW27103   1.000   3.574   5.642
 8735SOL    HW127104   0.966   3.628   5.565
 8735SOL    HW227105   1.048   3.493   5.608
 8736SOL     OW27106   1.289   6.193   3.652
 8736SOL    HW127107   1.300   6.122   3.721
 8736SOL    HW227108   1.279   6.150   3.562
 8737SOL     OW27109   1.943   6.588   6.967
 8737SOL    HW127110   1.920   6.491   6.978
 8737SOL    HW227111   1.970   6.626   0.033
 8738SOL     OW27112   1.224   2.804   3.541
 8738SOL    HW127113   1.190   2.883   3.591
 8738SOL    HW227114   1.248   2.831   3.447
 8739SOL     OW27115   5.072   3.986   5.767
 8739SOL    HW127116   5.152   4.039   5.740
 8739SOL    HW227117   5.099   3.919   5.837
 8740SOL     OW27118   2.523   0.822   5.161
 8740SOL    HW127119   2.553   0.759   5.089
 8740SOL    HW227120   2.435   0.791   5.198
 8741SOL     OW27121   0.992   0.536   2.452
 8741SOL    HW127122   0.897   0.513   2.430
 8741SOL    HW227123   1.038   0.455   2.488
 8742SOL     OW27124   2.989   1.515   2.843
 8742SOL    HW127125   2.907   1.501   2.899
 8742SOL    HW227126   3.065   1.543   2.901
 8743SOL     OW27127   0.202   1.906   1.600
 8743SOL    HW127128   0.287   1.855   1.595
 8743SOL    HW227129   0.135   1.867   1.536
 8744SOL     OW27130   3.397   4.524   6.531
 8744SOL    HW127131   3.422   4.534   6.435
 8744SOL    HW227132   3.472   4.482   6.581
 8745SOL     OW27133   5.479   1.083   5.573
 8745SOL    HW127134   5.567   1.065   5.530
 8745SOL    HW227135   5.471   1.027   5.656
 8746SOL     OW27136   4.520   5.562   5.043
 8746SOL    HW127137   4.567   5.571   5.130
 8746SOL    HW227138   4.423   5.582   5.055
 8747SOL     OW27139   6.980   0.605   1.690
 8747SOL    HW127140   6.923   0.611   1.772
 8747SOL    HW227141   6.935   0.653   1.615
 8748SOL     OW27142   0.055   1.718   3.674
 8748SOL    HW127143   0.130   1.654   3.656
 8748SOL    HW227144   0.092   1.808   3.696
 8749SOL     OW27145   2.577   1.142   4.090
 8749SOL    HW127146   2.538   1.077   4.155
 8749SOL    HW227147   2.671   1.116   4.068
 8750SOL     OW27148   4.125   3.317   6.862
 8750SOL    HW127149   4.200   3.384   6.862
 8750SOL    HW227150   4.038   3.365   6.867
 8751SOL     OW27151   1.471   6.128   1.340
 8751SOL    HW127152   1.476   6.050   1.402
 8751SOL    HW227153   1.492   6.212   1.390
 8752SOL     OW27154   5.830   3.392   6.479
 8752SOL    HW127155   5.774   3.419   6.558
 8752SOL    HW227156   5.776   3.330   6.421
 8753SOL     OW27157   2.375   3.104   0.532
 8753SOL    HW127158   2.293   3.083   0.479
 8753SOL    HW227159   2.381   3.041   0.610
 8754SOL     OW27160   2.218   5.016   6.664
 8754SOL    HW127161   2.295   4.999   6.603
 8754SOL    HW227162   2.215   4.945   6.735
 8755SOL     OW27163   6.908   2.771   1.835
 8755SOL    HW127164   6.851   2.729   1.906
 8755SOL    HW227165   7.004   2.747   1.851
 8756SOL     OW27166   1.536   1.660   2.108
 8756SOL    HW127167   1.507   1.752   2.083
 8756SOL    HW227168   1.514   1.643   2.204
 8757SOL     OW27169   5.647   6.219   5.318
 8757SOL    HW127170   5.560   6.187   5.279
 8757SOL    HW227171   5.646   6.319   5.322
 8758SOL     OW27172   3.550   5.418   4.962
 8758SOL    HW127173   3.540   5.491   5.029
 8758SOL    HW227174   3.632   5.364   4.982
 8759SOL     OW27175   6.078   0.914   0.508
 8759SOL    HW127176   6.076   0.960   0.419
 8759SOL    HW227177   5.986   0.880   0.529
 8760SOL     OW27178   2.441   2.560   4.071
 8760SOL    HW127179   2.436   2.642   4.014
 8760SOL    HW227180   2.424   2.585   4.166
 8761SOL     OW27181   5.503   1.145   2.831
 8761SOL    HW127182   5.497   1.223   2.769
 8761SOL    HW227183   5.508   1.178   2.925
 8762SOL     OW27184   1.688   4.765   3.345
 8762SOL    HW127185   1.698   4.665   3.345
 8762SOL    HW227186   1.779   4.807   3.354
 8763SOL     OW27187   0.962   1.050   6.234
 8763SOL    HW127188   0.864   1.050   6.252
 8763SOL    HW227189   0.978   1.051   6.135
 8764SOL     OW27190   2.778   4.966   5.251
 8764SOL    HW127191   2.713   5.008   5.315
 8764SOL    HW227192   2.843   4.910   5.301
 8765SOL     OW27193   5.128   0.701   4.381
 8765SOL    HW127194   5.158   0.781   4.433
 8765SOL    HW227195   5.187   0.623   4.404
 8766SOL     OW27196   4.886   5.900   5.907
 8766SOL    HW127197   4.800   5.853   5.929
 8766SOL    HW227198   4.909   5.883   5.811
 8767SOL     OW27199   2.121   1.059   4.095
 8767SOL    HW127200   2.128   1.092   4.002
 8767SOL    HW227201   2.198   1.093   4.149
 8768SOL     OW27202   5.864   1.458   6.674
 8768SOL    HW127203   5.858   1.544   6.623
 8768SOL    HW227204   5.781   1.405   6.660
 8769SOL     OW27205   6.475   0.331   0.133
 8769SOL    HW127206   6.394   0.283   0.098
 8769SOL    HW227207   6.557   0.279   0.110
 8770SOL     OW27208   5.123   3.223   0.317
 8770SOL    HW127209   5.065   3.148   0.347
 8770SOL    HW227210   5.150   3.278   0.397
 8771SOL     OW27211   0.428   3.643   0.269
 8771SOL    HW127212   0.475   3.726   0.238
 8771SOL    HW227213   0.457   3.621   0.362
 8772SOL     OW27214   6.001   7.004   4.445
 8772SOL    HW127215   6.053   0.046   4.500
 8772SOL    HW227216   5.904   7.012   4.466
 8773SOL     OW27217   0.015   1.213   4.171
 8773SOL    HW127218   6.971   1.144   4.199
 8773SOL    HW227219   0.018   1.286   4.239
 8774SOL     OW27220   1.916   1.882   1.115
 8774SOL    HW127221   1.896   1.908   1.021
 8774SOL    HW227222   1.835   1.840   1.156
 8775SOL     OW27223   5.893   2.337   4.247
 8775SOL    HW127224   5.872   2.375   4.156
 8775SOL    HW227225   5.808   2.314   4.294
 8776SOL     OW27226   4.390   3.060   0.421
 8776SOL    HW127227   4.352   2.989   0.481
 8776SOL    HW227228   4.413   3.141   0.475
 8777SOL     OW27229   0.448   2.043   3.482
 8777SOL    HW127230   0.407   1.970   3.427
 8777SOL    HW227231   0.381   2.077   3.547
 8778SOL     OW27232   2.992   4.760   0.006
 8778SOL    HW127233   3.004   4.771   0.104
 8778SOL    HW227234   3.031   4.838   6.981
 8779SOL     OW27235   4.723   5.047   4.178
 8779SOL    HW127236   4.693   5.033   4.084
 8779SOL    HW227237   4.817   5.082   4.178
 8780SOL     OW27238   5.953   4.999   3.999
 8780SOL    HW127239   5.910   5.018   4.087
 8780SOL    HW227240   5.899   5.040   3.926
 8781SOL     OW27241   3.552   0.289   1.421
 8781SOL    HW127242   3.546   0.346   1.503
 8781SOL    HW227243   3.482   0.218   1.425
 8782SOL     OW27244   5.352   2.082   1.375
 8782SOL    HW127245   5.300   2.005   1.412
 8782SOL    HW227246   5.350   2.158   1.440
 8783SOL     OW27247   5.384   3.794   4.593
 8783SOL    HW127248   5.429   3.727   4.651
 8783SOL    HW227249   5.286   3.796   4.614
 8784SOL     OW27250   5.618   0.527   1.212
 8784SOL    HW127251   5.548   0.473   1.258
 8784SOL    HW227252   5.681   0.466   1.164
 8785SOL     OW27253   0.211   4.938   5.927
 8785SOL    HW127254   0.196   5.003   5.852
 8785SOL    HW227255   0.189   4.982   6.014
 8786SOL     OW27256   4.681   1.581   2.446
 8786SOL    HW127257   4.645   1.663   2.400
 8786SOL    HW227258   4.774   1.599   2.477
 8787SOL     OW27259   3.666   6.281   0.879
 8787SOL    HW127260   3.571   6.249   0.875
 8787SOL    HW227261   3.676   6.347   0.953
 8788SOL     OW27262   0.373   6.943   4.248
 8788SOL    HW127263   0.380   6.933   4.347
 8788SOL    HW227264   0.391   6.854   4.205
 8789SOL     OW27265   6.634   3.201   5.917
 8789SOL    HW127266   6.540   3.228   5.937
 8789SOL    HW227267   6.652   3.212   5.819
 8790SOL     OW27268   5.444   3.364   5.938
 8790SOL    HW127269   5.424   3.331   5.846
 8790SOL    HW227270   5.441   3.287   6.002
 8791SOL     OW27271   4.043   5.769   5.294
 8791SOL    HW127272   4.077   5.682   5.258
 8791SOL    HW227273   4.119   5.821   5.332
 8792SOL     OW27274   5.097   4.982   1.114
 8792SOL    HW127275   5.181   5.012   1.159
 8792SOL    HW227276   5.018   5.018   1.164
 8793SOL     OW27277   6.989   4.740   4.365
 8793SOL    HW127278   6.975   4.716   4.461
 8793SOL    HW227279   0.059   4.777   4.354
 8794SOL     OW27280   0.204   0.679   2.378
 8794SOL    HW127281   0.260   0.730   2.313
 8794SOL    HW227282   0.261   0.614   2.428
 8795SOL     OW27283   1.408   6.145   6.227
 8795SOL    HW127284   1.368   6.231   6.194
 8795SOL    HW227285   1.335   6.087   6.264
 8796SOL     OW27286   6.744   3.656   3.354
 8796SOL    HW127287   6.780   3.584   3.414
 8796SOL    HW227288   6.690   3.615   3.281
 8797SOL     OW27289   4.879   7.014   4.115
 8797SOL    HW127290   4.927   6.932   4.082
 8797SOL    HW227291   4.819   6.988   4.191
 8798SOL     OW27292   3.012   6.312   5.554
 8798SOL    HW127293   3.055   6.247   5.617
 8798SOL    HW227294   2.939   6.361   5.602
 8799SOL     OW27295   1.240   5.412   2.762
 8799SOL    HW127296   1.325   5.452   2.795
 8799SOL    HW227297   1.256   5.364   2.676
 8800SOL     OW27298   6.772   5.591   5.633
 8800SOL    HW127299   6.772   5.629   5.541
 8800SOL    HW227300   6.860   5.546   5.651
 8801SOL     OW27301   5.968   2.967   5.469
 8801SOL    HW127302   5.991   2.950   5.565
 8801SOL    HW227303   6.041   3.020   5.427
 8802SOL     OW27304   1.126   6.575   6.188
 8802SOL    HW127305   1.035   6.600   6.221
 8802SOL    HW227306   1.191   6.646   6.215
 8803SOL     OW27307   6.111   6.776   6.857
 8803SOL    HW127308   6.082   6.801   6.764
 8803SOL    HW227309   6.175   6.699   6.852
 8804SOL     OW27310   1.859   6.303   2.683
 8804SOL    HW127311   1.775   6.315   2.631
 8804SOL    HW227312   1.924   6.249   2.630
 8805SOL     OW27313   5.607   5.290   3.299
 8805SOL    HW127314   5.576   5.283   3.204
 8805SOL    HW227315   5.562   5.368   3.343
 8806SOL     OW27316   2.122   0.684   0.861
 8806SOL    HW127317   2.029   0.693   0.826
 8806SOL    HW227318   2.186   0.728   0.798
 8807SOL     OW27319   5.041   2.488   1.451
 8807SOL    HW127320   4.942   2.501   1.448
 8807SOL    HW227321   5.083   2.534   1.372
 8808SOL     OW27322   2.004   2.666   0.153
 8808SOL    HW127323   1.906   2.677   0.137
 8808SOL    HW227324   2.045   2.620   0.074
 8809SOL     OW27325   0.090   4.097   2.730
 8809SOL    HW127326   0.057   4.069   2.820
 8809SOL    HW227327   0.015   4.137   2.678
 8810SOL     OW27328   0.842   1.227   6.434
 8810SOL    HW127329   0.837   1.187   6.525
 8810SOL    HW227330   0.927   1.197   6.389
 8811SOL     OW27331   3.703   5.734   2.589
 8811SOL    HW127332   3.632   5.774   2.531
 8811SOL    HW227333   3.712   5.636   2.569
 8812SOL     OW27334   4.724   1.474   6.203
 8812SOL    HW127335   4.665   1.457   6.124
 8812SOL    HW227336   4.814   1.435   6.186
 8813SOL     OW27337   1.923   4.145   3.288
 8813SOL    HW127338   1.831   4.117   3.261
 8813SOL    HW227339   1.951   4.225   3.236
 8814SOL     OW27340   4.823   0.550   5.727
 8814SOL    HW127341   4.799   0.631   5.672
 8814SOL    HW227342   4.914   0.563   5.765
 8815SOL     OW27343   5.881   1.681   6.894
 8815SOL    HW127344   5.873   1.780   6.896
 8815SOL    HW227345   5.883   1.650   6.799
 8816SOL     OW27346   1.158   6.674   4.623
 8816SOL    HW127347   1.199   6.654   4.712
 8816SOL    HW227348   1.226   6.657   4.551
 8817SOL     OW27349   1.620   2.843   3.452
 8817SOL    HW127350   1.652   2.841   3.547
 8817SOL    HW227351   1.534   2.892   3.447
 8818SOL     OW27352   1.223   0.723   4.631
 8818SOL    HW127353   1.301   0.781   4.654
 8818SOL    HW227354   1.156   0.727   4.705
 8819SOL     OW27355   5.438   4.292   5.911
 8819SOL    HW127356   5.385   4.338   5.982
 8819SOL    HW227357   5.530   4.331   5.909
 8820SOL     OW27358   2.936   0.462   4.779
 8820SOL    HW127359   2.937   0.542   4.838
 8820SOL    HW227360   2.944   0.379   4.835
 8821SOL     OW27361   0.012   4.500   6.525
 8821SOL    HW127362   0.074   4.515   6.602
 8821SOL    HW227363   0.056   4.529   6.440
 8822SOL     OW27364   6.640   6.874   4.188
 8822SOL    HW127365   6.641   6.825   4.275
 8822SOL    HW227366   6.545   6.898   4.164
 8823SOL     OW27367   4.441   1.242   2.946
 8823SOL    HW127368   4.508   1.173   2.919
 8823SOL    HW227369   4.449   1.322   2.886
 8824SOL     OW27370   1.807   0.782   2.154
 8824SOL    HW127371   1.888   0.823   2.196
 8824SOL    HW227372   1.777   0.838   2.076
 8825SOL     OW27373   6.818   5.625   0.466
 8825SOL    HW127374   6.861   5.596   0.381
 8825SOL    HW227375   6.739   5.684   0.445
 8826SOL     OW27376   1.480   4.072   0.710
 8826SOL    HW127377   1.430   3.990   0.682
 8826SOL    HW227378   1.486   4.136   0.634
 8827SOL     OW27379   4.151   0.219   2.101
 8827SOL    HW127380   4.117   0.274   2.025
 8827SOL    HW227381   4.181   0.280   2.175
 8828SOL     OW27382   3.105   3.127   6.090
 8828SOL    HW127383   3.069   3.039   6.062
 8828SOL    HW227384   3.201   3.134   6.063
 8829SOL     OW27385   6.824   1.443   2.002
 8829SOL    HW127386   6.791   1.500   1.927
 8829SOL    HW227387   6.921   1.421   1.988
 8830SOL     OW27388   3.062   0.843   3.245
 8830SOL    HW127389   2.970   0.809   3.266
 8830SOL    HW227390   3.128   0.768   3.251
 8831SOL     OW27391   0.049   2.579   2.377
 8831SOL    HW127392   0.044   2.660   2.319
 8831SOL    HW227393   0.143   2.547   2.382
 8832SOL     OW27394   5.657   0.936   3.984
 8832SOL    HW127395   5.692   0.972   3.898
 8832SOL    HW227396   5.694   0.845   4.000
 8833SOL     OW27397   4.179   2.893   1.310
 8833SOL    HW127398   4.176   2.981   1.357
 8833SOL    HW227399   4.274   2.865   1.297
 8834SOL     OW27400   5.453   4.385   5.313
 8834SOL    HW127401   5.391   4.346   5.245
 8834SOL    HW227402   5.399   4.434   5.382
 8835SOL     OW27403   7.000   0.632   5.833
 8835SOL    HW127404   6.984   0.535   5.852
 8835SOL    HW227405   0.048   0.668   5.895
 8836SOL     OW27406   4.969   1.929   0.982
 8836SOL    HW127407   4.872   1.915   1.002
 8836SOL    HW227408   4.983   2.023   0.951
 8837SOL     OW27409   4.775   0.135   0.749
 8837SOL    HW127410   4.775   0.083   0.834
 8837SOL    HW227411   4.793   0.231   0.768
 8838SOL     OW27412   1.126   3.724   2.590
 8838SOL    HW127413   1.189   3.789   2.548
 8838SOL    HW227414   1.038   3.768   2.606
 8839SOL     OW27415   5.026   5.384   3.337
 8839SOL    HW127416   4.972   5.360   3.256
 8839SOL    HW227417   5.048   5.301   3.388
 8840SOL     OW27418   6.899   0.749   1.478
 8840SOL    HW127419   6.870   0.746   1.382
 8840SOL    HW227420   6.866   0.833   1.520
 8841SOL     OW27421   3.260   1.291   1.056
 8841SOL    HW127422   3.168   1.299   1.094
 8841SOL    HW227423   3.267   1.208   1.001
 8842SOL     OW27424   3.275   2.930   4.301
 8842SOL    HW127425   3.195   2.985   4.276
 8842SOL    HW227426   3.316   2.967   4.385
 8843SOL     OW27427   2.312   5.559   6.484
 8843SOL    HW127428   2.373   5.552   6.563
 8843SOL    HW227429   2.366   5.564   6.401
 8844SOL     OW27430   3.950   2.151   5.921
 8844SOL    HW127431   3.941   2.231   5.980
 8844SOL    HW227432   3.859   2.118   5.895
 8845SOL     OW27433   7.017   4.735   1.648
 8845SOL    HW127434   6.951   4.785   1.704
 8845SOL    HW227435   0.078   4.720   1.700
 8846SOL     OW27436   6.250   4.205   4.680
 8846SOL    HW127437   6.307   4.227   4.759
 8846SOL    HW227438   6.219   4.289   4.636
 8847SOL     OW27439   2.625   1.758   3.418
 8847SOL    HW127440   2.659   1.711   3.499
 8847SOL    HW227441   2.644   1.856   3.427
 8848SOL     OW27442   3.586   1.624   1.061
 8848SOL    HW127443   3.493   1.588   1.059
 8848SOL    HW227444   3.625   1.620   0.969
 8849SOL     OW27445   2.561   4.979   4.517
 8849SOL    HW127446   2.571   4.885   4.484
 8849SOL    HW227447   2.583   4.982   4.615
 8850SOL     OW27448   2.868   0.814   1.709
 8850SOL    HW127449   2.812   0.742   1.668
 8850SOL    HW227450   2.839   0.903   1.673
 8851SOL     OW27451   0.083   4.752   2.235
 8851SOL    HW127452   0.050   4.701   2.314
 8851SOL    HW227453   0.171   4.795   2.257
 8852SOL     OW27454   4.625   2.715   4.860
 8852SOL    HW127455   4.558   2.667   4.918
 8852SOL    HW227456   4.595   2.712   4.765
 8853SOL     OW27457   4.346   1.254   5.822
 8853SOL    HW127458   4.370   1.297   5.735
 8853SOL    HW227459   4.274   1.186   5.808
 8854SOL     OW27460   1.044   2.026   6.780
 8854SOL    HW127461   1.113   2.002   6.712
 8854SOL    HW227462   1.072   2.109   6.828
 8855SOL     OW27463   6.213   5.013   6.915
 8855SOL    HW127464   6.230   5.111   6.905
 8855SOL    HW227465   6.246   4.965   6.834
 8856SOL     OW27466   5.500   0.992   4.214
 8856SOL    HW127467   5.567   0.943   4.158
 8856SOL    HW227468   5.479   1.080   4.171
 8857SOL     OW27469   0.125   2.740   4.203
 8857SOL    HW127470   0.066   2.808   4.159
 8857SOL    HW227471   0.138   2.765   4.299
 8858SOL     OW27472   0.224   3.403   6.373
 8858SOL    HW127473   0.128   3.432   6.364
 8858SOL    HW227474   0.279   3.446   6.301
 8859SOL     OW27475   2.396   5.176   5.146
 8859SOL    HW127476   2.353   5.210   5.229
 8859SOL    HW227477   2.419   5.253   5.086
 8860SOL     OW27478   0.951   2.416   2.009
 8860SOL    HW127479   0.987   2.494   1.957
 8860SOL    HW227480   0.877   2.373   1.959
 8861SOL     OW27481   3.334   3.681   0.242
 8861SOL    HW127482   3.359   3.586   0.220
 8861SOL    HW227483   3.376   3.743   0.175
 8862SOL     OW27484   6.314   2.494   4.168
 8862SOL    HW127485   6.280   2.409   4.207
 8862SOL    HW227486   6.276   2.506   4.077
 8863SOL     OW27487   2.161   5.448   5.193
 8863SOL    HW127488   2.137   5.387   5.118
 8863SOL    HW227489   2.088   5.447   5.261
 8864SOL     OW27490   0.935   2.535   6.617
 8864SOL    HW127491   0.887   2.621   6.596
 8864SOL    HW227492   1.022   2.556   6.662
 8865SOL     OW27493   3.354   2.551   6.017
 8865SOL    HW127494   3.283   2.522   6.082
 8865SOL    HW227495   3.314   2.615   5.952
 8866SOL     OW27496   3.825   6.421   4.452
 8866SOL    HW127497   3.914   6.467   4.452
 8866SOL    HW227498   3.774   6.448   4.534
 8867SOL     OW27499   0.340   3.039   3.688
 8867SOL    HW127500   0.322   3.031   3.786
 8867SOL    HW227501   0.263   3.087   3.644
 8868SOL     OW27502   3.860   3.876   0.040
 8868SOL    HW127503   3.892   3.852   0.132
 8868SOL    HW227504   3.933   3.859   6.997
 8869SOL     OW27505   5.375   2.696   3.904
 8869SOL    HW127506   5.390   2.670   3.809
 8869SOL    HW227507   5.409   2.788   3.920
 8870SOL     OW27508   4.301   1.255   0.413
 8870SOL    HW127509   4.322   1.158   0.419
 8870SOL    HW227510   4.347   1.304   0.487
 8871SOL     OW27511   2.425   2.200   4.478
 8871SOL    HW127512   2.503   2.257   4.504
 8871SOL    HW227513   2.425   2.116   4.532
 8872SOL     OW27514   2.195   3.001   4.587
 8872SOL    HW127515   2.096   2.999   4.575
 8872SOL    HW227516   2.220   3.083   4.640
 8873SOL     OW27517   0.086   5.678   4.588
 8873SOL    HW127518   7.015   5.700   4.560
 8873SOL    HW227519   0.136   5.762   4.605
 8874SOL     OW27520   2.556   0.975   0.563
 8874SOL    HW127521   2.655   0.960   0.564
 8874SOL    HW227522   2.533   1.050   0.625
 8875SOL     OW27523   1.859   2.238   4.384
 8875SOL    HW127524   1.885   2.151   4.427
 8875SOL    HW227525   1.891   2.239   4.289
 8876SOL     OW27526   1.844   0.001   4.682
 8876SOL    HW127527   1.797   0.080   4.721
 8876SOL    HW227528   1.834   6.945   4.742
 8877SOL     OW27529   2.829   6.714   4.953
 8877SOL    HW127530   2.787   6.665   4.877
 8877SOL    HW227531   2.921   6.743   4.927
 8878SOL     OW27532   6.215   4.399   6.691
 8878SOL    HW127533   6.179   4.478   6.740
 8878SOL    HW227534   6.231   4.324   6.756
 8879SOL     OW27535   5.066   6.468   5.193
 8879SOL    HW127536   5.032   6.523   5.268
 8879SOL    HW227537   5.046   6.513   5.106
 8880SOL     OW27538   0.102   4.957   5.129
 8880SOL    HW127539   0.098   5.010   5.044
 8880SOL    HW227540   0.050   5.005   5.200
 8881SOL     OW27541   6.314   0.530   1.034
 8881SOL    HW127542   6.291   0.440   1.072
 8881SOL    HW227543   6.412   0.535   1.018
 8882SOL     OW27544   5.640   1.808   6.308
 8882SOL    HW127545   5.693   1.750   6.371
 8882SOL    HW227546   5.558   1.759   6.279
 8883SOL     OW27547   6.758   1.244   5.742
 8883SOL    HW127548   6.675   1.277   5.698
 8883SOL    HW227549   6.735   1.181   5.816
 8884SOL     OW27550   6.875   6.826   6.325
 8884SOL    HW127551   6.911   6.791   6.412
 8884SOL    HW227552   6.786   6.784   6.307
 8885SOL     OW27553   5.126   3.977   1.842
 8885SOL    HW127554   5.150   3.945   1.934
 8885SOL    HW227555   5.088   3.901   1.789
 8886SOL     OW27556   3.073   0.061   6.648
 8886SOL    HW127557   3.133   7.005   6.642
 8886SOL    HW227558   3.072   0.110   6.561
 8887SOL     OW27559   2.576   1.523   1.502
 8887SOL    HW127560   2.572   1.613   1.458
 8887SOL    HW227561   2.612   1.533   1.595
 8888SOL     OW27562   2.866   1.618   2.270
 8888SOL    HW127563   2.933   1.546   2.254
 8888SOL    HW227564   2.854   1.672   2.187
 8889SOL     OW27565   3.621   0.110   4.840
 8889SOL    HW127566   3.552   0.182   4.834
 8889SOL    HW227567   3.703   0.145   4.884
 8890SOL     OW27568   0.926   5.220   4.673
 8890SOL    HW127569   0.873   5.211   4.757
 8890SOL    HW227570   0.930   5.132   4.626
 8891SOL     OW27571   4.034   2.595   6.247
 8891SOL    HW127572   4.008   2.684   6.285
 8891SOL    HW227573   4.011   2.523   6.312
 8892SOL     OW27574   1.563   6.379   2.226
 8892SOL    HW127575   1.507   6.408   2.148
 8892SOL    HW227576   1.608   6.292   2.204
 8893SOL     OW27577   0.650   1.200   0.982
 8893SOL    HW127578   0.715   1.253   0.928
 8893SOL    HW227579   0.616   1.123   0.928
 8894SOL     OW27580   3.823   2.410   6.018
 8894SOL    HW127581   3.792   2.391   6.112
 8894SOL    HW227582   3.907   2.464   6.021
 8895SOL     OW27583   0.947   6.526   2.306
 8895SOL    HW127584   0.945   6.596   2.234
 8895SOL    HW227585   1.035   6.479   2.305
 8896SOL     OW27586   1.301   3.094   4.852
 8896SOL    HW127587   1.351   3.021   4.898
 8896SOL    HW227588   1.240   3.140   4.917
 8897SOL     OW27589   1.598   2.444   1.663
 8897SOL    HW127590   1.529   2.494   1.611
 8897SOL    HW227591   1.557   2.411   1.749
 8898SOL     OW27592   5.459   3.861   3.984
 8898SOL    HW127593   5.384   3.905   4.032
 8898SOL    HW227594   5.471   3.903   3.894
 8899SOL     OW27595   1.639   4.347   6.856
 8899SOL    HW127596   1.705   4.309   6.921
 8899SOL    HW227597   1.579   4.411   6.903
 8900SOL     OW27598   5.839   1.929   4.043
 8900SOL    HW127599   5.910   1.997   4.060
 8900SOL    HW227600   5.866   1.873   3.964
 8901SOL     OW27601   1.921   6.789   2.816
 8901SOL    HW127602   1.858   6.718   2.782
 8901SOL    HW227603   1.870   6.852   2.874
 8902SOL     OW27604   1.606   5.657   5.910
 8902SOL    HW127605   1.629   5.578   5.855
 8902SOL    HW227606   1.689   5.709   5.931
 8903SOL     OW27607   2.491   1.345   3.176
 8903SOL    HW127608   2.477   1.433   3.221
 8903SOL    HW227609   2.406   1.294   3.175
 8904SOL     OW27610   1.232   6.805   3.220
 8904SOL    HW127611   1.174   6.762   3.151
 8904SOL    HW227612   1.217   6.904   3.218
 8905SOL     OW27613   2.666   4.032   5.335
 8905SOL    HW127614   2.615   4.012   5.250
 8905SOL    HW227615   2.603   4.030   5.412
 8906SOL     OW27616   6.943   5.688   5.955
 8906SOL    HW127617   6.879   5.762   5.934
 8906SOL    HW227618   0.010   5.709   5.917
 8907SOL     OW27619   3.383   2.830   5.573
 8907SOL    HW127620   3.351   2.810   5.480
 8907SOL    HW227621   3.480   2.854   5.569
 8908SOL     OW27622   0.563   2.809   1.209
 8908SOL    HW127623   0.587   2.872   1.135
 8908SOL    HW227624   0.601   2.718   1.188
 8909SOL     OW27625   2.393   0.486   6.391
 8909SOL    HW127626   2.308   0.477   6.339
 8909SOL    HW227627   2.466   0.519   6.331
 8910SOL     OW27628   3.252   3.372   6.664
 8910SOL    HW127629   3.185   3.412   6.601
 8910SOL    HW227630   3.339   3.363   6.616
 8911SOL     OW27631   3.765   2.071   4.165
 8911SOL    HW127632   3.680   2.113   4.134
 8911SOL    HW227633   3.745   1.997   4.229
 8912SOL     OW27634   4.777   2.852   5.772
 8912SOL    HW127635   4.869   2.813   5.771
 8912SOL    HW227636   4.734   2.838   5.683
 8913SOL     OW27637   5.341   3.663   1.281
 8913SOL    HW127638   5.381   3.576   1.252
 8913SOL    HW227639   5.257   3.646   1.333
 8914SOL     OW27640   4.149   1.936   4.759
 8914SOL    HW127641   4.124   1.959   4.665
 8914SOL    HW227642   4.149   1.837   4.770
 8915SOL     OW27643   1.376   4.705   2.705
 8915SOL    HW127644   1.409   4.654   2.784
 8915SOL    HW227645   1.291   4.664   2.673
 8916SOL     OW27646   6.597   3.308   2.288
 8916SOL    HW127647   6.651   3.328   2.371
 8916SOL    HW227648   6.506   3.278   2.315
 8917SOL     OW27649   5.897   5.133   6.747
 8917SOL    HW127650   5.901   5.035   6.729
 8917SOL    HW227651   5.989   5.172   6.743
 8918SOL     OW27652   4.985   5.444   6.313
 8918SOL    HW127653   5.070   5.398   6.288
 8918SOL    HW227654   4.908   5.398   6.268
 8919SOL     OW27655   2.658   4.836   1.011
 8919SOL    HW127656   2.716   4.755   1.005
 8919SOL    HW227657   2.713   4.918   0.994
 8920SOL     OW27658   6.445   5.690   5.592
 8920SOL    HW127659   6.482   5.731   5.509
 8920SOL    HW227660   6.383   5.615   5.567
 8921SOL     OW27661   1.598   0.101   4.198
 8921SOL    HW127662   1.656   0.028   4.235
 8921SOL    HW227663   1.610   0.105   4.099
 8922SOL     OW27664   0.346   4.391   6.704
 8922SOL    HW127665   0.440   4.358   6.712
 8922SOL    HW227666   0.282   4.315   6.714
 8923SOL     OW27667   2.249   4.242   5.717
 8923SOL    HW127668   2.291   4.323   5.674
 8923SOL    HW227669   2.300   4.160   5.690
 8924SOL     OW27670   2.391   5.205   5.543
 8924SOL    HW127671   2.369   5.177   5.636
 8924SOL    HW227672   2.384   5.305   5.536
 8925SOL     OW27673   0.087   6.581   2.205
 8925SOL    HW127674   0.179   6.548   2.183
 8925SOL    HW227675   0.065   6.659   2.146
 8926SOL     OW27676   5.485   1.910   0.873
 8926SOL    HW127677   5.446   1.904   0.965
 8926SOL    HW227678   5.559   1.977   0.873
 8927SOL     OW27679   2.552   1.885   4.930
 8927SOL    HW127680   2.605   1.962   4.963
 8927SOL    HW227681   2.531   1.824   5.006
 8928SOL     OW27682   0.397   0.120   5.635
 8928SOL    HW127683   0.322   0.092   5.695
 8928SOL    HW227684   0.429   0.211   5.663
 8929SOL     OW27685   5.768   3.368   3.637
 8929SOL    HW127686   5.868   3.381   3.642
 8929SOL    HW227687   5.731   3.427   3.566
 8930SOL     OW27688   0.838   4.750   5.308
 8930SOL    HW127689   0.869   4.656   5.298
 8930SOL    HW227690   0.781   4.758   5.390
 8931SOL     OW27691   4.689   1.391   0.660
 8931SOL    HW127692   4.602   1.345   0.677
 8931SOL    HW227693   4.724   1.430   0.745
 8932SOL     OW27694   6.949   6.938   0.200
 8932SOL    HW127695   6.863   6.940   0.149
 8932SOL    HW227696   7.016   6.996   0.154
 8933SOL     OW27697   1.421   0.540   5.116
 8933SOL    HW127698   1.396   0.443   5.127
 8933SOL    HW227699   1.377   0.593   5.188
 8934SOL     OW27700   3.541   6.135   2.816
 8934SOL    HW127701   3.474   6.062   2.798
 8934SOL    HW227702   3.631   6.095   2.832
 8935SOL     OW27703   5.548   2.462   3.432
 8935SOL    HW127704   5.495   2.387   3.393
 8935SOL    HW227705   5.528   2.546   3.382
 8936SOL     OW27706   1.217   5.177   1.988
 8936SOL    HW127707   1.315   5.158   1.981
 8936SOL    HW227708   1.194   5.196   2.084
 8937SOL     OW27709   4.883   6.767   4.402
 8937SOL    HW127710   4.935   6.851   4.391
 8937SOL    HW227711   4.946   6.689   4.407
 8938SOL     OW27712   6.108   0.550   1.706
 8938SOL    HW127713   6.160   0.479   1.755
 8938SOL    HW227714   6.020   0.512   1.678
 8939SOL     OW27715   6.936   3.034   3.336
 8939SOL    HW127716   6.968   2.982   3.415
 8939SOL    HW227717   6.994   3.114   3.322
 8940SOL     OW27718   6.612   2.766   0.841
 8940SOL    HW127719   6.636   2.863   0.845
 8940SOL    HW227720   6.512   2.757   0.849
 8941SOL     OW27721   4.196   2.884   1.698
 8941SOL    HW127722   4.211   2.797   1.651
 8941SOL    HW227723   4.110   2.881   1.749
 8942SOL     OW27724   5.571   4.743   4.541
 8942SOL    HW127725   5.609   4.687   4.615
 8942SOL    HW227726   5.499   4.692   4.494
 8943SOL     OW27727   4.611   3.863   6.901
 8943SOL    HW127728   4.593   3.895   6.808
 8943SOL    HW227729   4.703   3.825   6.906
 8944SOL     OW27730   5.986   5.556   4.835
 8944SOL    HW127731   6.084   5.550   4.853
 8944SOL    HW227732   5.937   5.577   4.919
 8945SOL     OW27733   5.417   4.549   4.387
 8945SOL    HW127734   5.325   4.526   4.420
 8945SOL    HW227735   5.474   4.467   4.388
 8946SOL     OW27736   5.008   1.435   5.235
 8946SOL    HW127737   5.051   1.515   5.193
 8946SOL    HW227738   4.998   1.363   5.166
 8947SOL     OW27739   1.871   5.582   6.418
 8947SOL    HW127740   1.898   5.644   6.345
 8947SOL    HW227741   1.935   5.504   6.420
 8948SOL     OW27742   6.169   1.130   2.818
 8948SOL    HW127743   6.141   1.100   2.727
 8948SOL    HW227744   6.268   1.142   2.820
 8949SOL     OW27745   3.850   6.872   0.423
 8949SOL    HW127746   3.808   6.906   0.507
 8949SOL    HW227747   3.782   6.825   0.368
 8950SOL     OW27748   4.125   3.566   0.406
 8950SOL    HW127749   4.100   3.471   0.421
 8950SOL    HW227750   4.189   3.572   0.329
 8951SOL     OW27751   2.224   1.469   4.321
 8951SOL    HW127752   2.247   1.554   4.275
 8951SOL    HW227753   2.125   1.455   4.319
 8952SOL     OW27754   1.476   3.751   4.274
 8952SOL    HW127755   1.518   3.693   4.345
 8952SOL    HW227756   1.542   3.820   4.244
 8953SOL     OW27757   1.227   4.614   1.111
 8953SOL    HW127758   1.150   4.672   1.139
 8953SOL    HW227759   1.197   4.518   1.109
 8954SOL     OW27760   1.645   5.108   5.358
 8954SOL    HW127761   1.665   5.039   5.288
 8954SOL    HW227762   1.717   5.107   5.427
 8955SOL     OW27763   5.572   2.480   4.646
 8955SOL    HW127764   5.491   2.461   4.591
 8955SOL    HW227765   5.544   2.517   4.735
 8956SOL     OW27766   0.801   5.440   6.609
 8956SOL    HW127767   0.727   5.455   6.674
 8956SOL    HW227768   0.801   5.344   6.580
 8957SOL     OW27769   0.664   5.781   3.385
 8957SOL    HW127770   0.623   5.692   3.367
 8957SOL    HW227771   0.758   5.783   3.351
 8958SOL     OW27772   1.494   3.236   5.151
 8958SOL    HW127773   1.506   3.137   5.147
 8958SOL    HW227774   1.559   3.275   5.216
 8959SOL     OW27775   6.729   2.422   3.272
 8959SOL    HW127776   6.708   2.518   3.256
 8959SOL    HW227777   6.740   2.375   3.185
 8960SOL     OW27778   5.200   4.765   3.263
 8960SOL    HW127779   5.148   4.732   3.184
 8960SOL    HW227780   5.296   4.774   3.239
 8961SOL     OW27781   2.013   0.627   5.364
 8961SOL    HW127782   1.964   0.714   5.358
 8961SOL    HW227783   2.055   0.618   5.454
 8962SOL     OW27784   0.167   6.077   2.616
 8962SOL    HW127785   0.079   6.123   2.628
 8962SOL    HW227786   0.213   6.070   2.705
 8963SOL     OW27787   5.053   6.885   4.642
 8963SOL    HW127788   5.047   6.803   4.585
 8963SOL    HW227789   4.993   6.874   4.722
 8964SOL     OW27790   1.362   3.179   3.923
 8964SOL    HW127791   1.279   3.173   3.979
 8964SOL    HW227792   1.391   3.087   3.896
 8965SOL     OW27793   3.773   6.121   6.461
 8965SOL    HW127794   3.719   6.196   6.499
 8965SOL    HW227795   3.712   6.048   6.431
 8966SOL     OW27796   4.394   5.411   5.490
 8966SOL    HW127797   4.358   5.376   5.403
 8966SOL    HW227798   4.412   5.509   5.481
 8967SOL     OW27799   3.224   0.081   4.061
 8967SOL    HW127800   3.209   7.006   4.047
 8967SOL    HW227801   3.202   0.105   4.156
 8968SOL     OW27802   4.044   5.313   2.185
 8968SOL    HW127803   4.128   5.321   2.239
 8968SOL    HW227804   3.965   5.309   2.246
 8969SOL     OW27805   1.070   0.790   2.405
 8969SOL    HW127806   0.974   0.815   2.389
 8969SOL    HW227807   1.078   0.691   2.410
 8970SOL     OW27808   1.980   0.654   4.222
 8970SOL    HW127809   2.027   0.691   4.142
 8970SOL    HW227810   1.891   0.698   4.232
 8971SOL     OW27811   3.766   5.046   0.341
 8971SOL    HW127812   3.830   5.008   0.274
 8971SOL    HW227813   3.724   4.971   0.393
 8972SOL     OW27814   5.946   4.273   0.699
 8972SOL    HW127815   5.899   4.189   0.672
 8972SOL    HW227816   6.012   4.252   0.771
 8973SOL     OW27817   1.339   2.667   3.275
 8973SOL    HW127818   1.275   2.742   3.254
 8973SOL    HW227819   1.417   2.671   3.213
 8974SOL     OW27820   2.245   4.169   4.742
 8974SOL    HW127821   2.254   4.082   4.789
 8974SOL    HW227822   2.280   4.242   4.801
 8975SOL     OW27823   6.587   5.879   6.050
 8975SOL    HW127824   6.671   5.909   6.005
 8975SOL    HW227825   6.538   5.816   5.989
 8976SOL     OW27826   6.332   6.478   2.029
 8976SOL    HW127827   6.425   6.512   2.027
 8976SOL    HW227828   6.305   6.449   1.937
 8977SOL     OW27829   6.955   4.904   6.424
 8977SOL    HW127830   6.859   4.916   6.402
 8977SOL    HW227831   7.003   4.865   6.345
 8978SOL     OW27832   5.883   5.915   6.709
 8978SOL    HW127833   5.817   5.840   6.715
 8978SOL    HW227834   5.893   5.957   6.800
 8979SOL     OW27835   1.045   4.759   5.688
 8979SOL    HW127836   1.120   4.817   5.656
 8979SOL    HW227837   1.053   4.746   5.787
 8980SOL     OW27838   3.303   0.193   6.072
 8980SOL    HW127839   3.360   0.117   6.102
 8980SOL    HW227840   3.207   0.169   6.081
 8981SOL     OW27841   4.574   3.382   6.914
 8981SOL    HW127842   4.595   3.406   7.008
 8981SOL    HW227843   4.502   3.442   6.879
 8982SOL     OW27844   0.402   1.735   1.562
 8982SOL    HW127845   0.405   1.662   1.630
 8982SOL    HW227846   0.476   1.800   1.580
 8983SOL     OW27847   1.079   6.644   2.082
 8983SOL    HW127848   1.068   6.669   1.986
 8983SOL    HW227849   1.146   6.570   2.090
 8984SOL     OW27850   6.476   0.331   3.874
 8984SOL    HW127851   6.501   0.249   3.822
 8984SOL    HW227852   6.540   0.342   3.950
 8985SOL     OW27853   4.831   2.440   0.741
 8985SOL    HW127854   4.845   2.444   0.840
 8985SOL    HW227855   4.876   2.359   0.704
 8986SOL     OW27856   0.094   5.153   0.253
 8986SOL    HW127857   0.110   5.087   0.327
 8986SOL    HW227858   0.167   5.221   0.253
 8987SOL     OW27859   2.392   0.197   2.066
 8987SOL    HW127860   2.371   0.099   2.064
 8987SOL    HW227861   2.454   0.216   2.142
 8988SOL     OW27862   1.841   5.549   2.172
 8988SOL    HW127863   1.893   5.634   2.175
 8988SOL    HW227864   1.744   5.569   2.166
 8989SOL     OW27865   5.563   1.727   2.653
 8989SOL    HW127866   5.470   1.691   2.646
 8989SOL    HW227867   5.628   1.651   2.648
 8990SOL     OW27868   3.278   0.923   1.535
 8990SOL    HW127869   3.288   0.832   1.575
 8990SOL    HW227870   3.198   0.926   1.476
 8991SOL     OW27871   2.014   2.230   0.769
 8991SOL    HW127872   1.926   2.191   0.799
 8991SOL    HW227873   2.026   2.214   0.671
 8992SOL     OW27874   1.148   4.101   6.983
 8992SOL    HW127875   1.078   4.097   6.911
 8992SOL    HW227876   1.108   4.072   0.047
 8993SOL     OW27877   6.245   3.691   3.819
 8993SOL    HW127878   6.313   3.661   3.887
 8993SOL    HW227879   6.291   3.712   3.733
 8994SOL     OW27880   1.032   4.760   3.062
 8994SOL    HW127881   1.082   4.781   3.146
 8994SOL    HW227882   1.025   4.843   3.006
 8995SOL     OW27883   2.138   3.936   4.868
 8995SOL    HW127884   2.198   3.981   4.935
 8995SOL    HW227885   2.160   3.838   4.864
 8996SOL     OW27886   0.682   3.764   2.244
 8996SOL    HW127887   0.666   3.767   2.343
 8996SOL    HW227888   0.756   3.700   2.225
 8997SOL     OW27889   4.166   1.774   5.604
 8997SOL    HW127890   4.189   1.778   5.701
 8997SOL    HW227891   4.067   1.782   5.593
 8998SOL     OW27892   0.892   2.386   6.249
 8998SOL    HW127893   0.878   2.338   6.335
 8998SOL    HW227894   0.982   2.364   6.212
 8999SOL     OW27895   6.133   1.098   4.500
 8999SOL    HW127896   6.060   1.119   4.434
 8999SOL    HW227897   6.092   1.064   4.585
 9000SOL     OW27898   3.186   3.962   0.646
 9000SOL    HW127899   3.243   3.898   0.593
 9000SOL    HW227900   3.172   4.046   0.594
 9001SOL     OW27901   1.447   4.280   3.568
 9001SOL    HW127902   1.414   4.198   3.615
 9001SOL    HW227903   1.395   4.360   3.598
 9002SOL     OW27904   5.220   4.669   5.523
 9002SOL    HW127905   5.291   4.663   5.593
 9002SOL    HW227906   5.259   4.706   5.439
 9003SOL     OW27907   5.540   2.383   6.128
 9003SOL    HW127908   5.530   2.301   6.071
 9003SOL    HW227909   5.454   2.434   6.128
 9004SOL     OW27910   4.219   5.889   1.237
 9004SOL    HW127911   4.128   5.851   1.251
 9004SOL    HW227912   4.219   5.986   1.262
 9005SOL     OW27913   4.921   2.114   3.058
 9005SOL    HW127914   4.933   2.108   2.959
 9005SOL    HW227915   5.010   2.126   3.103
 9006SOL     OW27916   1.603   6.224   0.956
 9006SOL    HW127917   1.619   6.183   0.867
 9006SOL    HW227918   1.505   6.242   0.968
 9007SOL     OW27919   2.773   6.474   4.486
 9007SOL    HW127920   2.757   6.405   4.557
 9007SOL    HW227921   2.743   6.439   4.398
 9008SOL     OW27922   6.460   4.705   2.394
 9008SOL    HW127923   6.416   4.693   2.305
 9008SOL    HW227924   6.405   4.661   2.465
 9009SOL     OW27925   3.827   6.563   0.936
 9009SOL    HW127926   3.807   6.602   0.846
 9009SOL    HW227927   3.747   6.569   0.994
 9010SOL     OW27928   0.914   6.404   4.731
 9010SOL    HW127929   0.936   6.417   4.828
 9010SOL    HW227930   0.997   6.381   4.680
 9011SOL     OW27931   4.439   2.054   0.673
 9011SOL    HW127932   4.483   2.144   0.668
 9011SOL    HW227933   4.451   2.017   0.765
 9012SOL     OW27934   6.642   5.736   1.554
 9012SOL    HW127935   6.607   5.800   1.622
 9012SOL    HW227936   6.666   5.650   1.600
 9013SOL     OW27937   5.323   6.100   3.655
 9013SOL    HW127938   5.238   6.053   3.635
 9013SOL    HW227939   5.381   6.101   3.573
 9014SOL     OW27940   2.633   1.013   0.895
 9014SOL    HW127941   2.654   0.926   0.939
 9014SOL    HW227942   2.704   1.080   0.918
 9015SOL     OW27943   6.979   1.007   5.231
 9015SOL    HW127944   6.948   1.089   5.280
 9015SOL    HW227945   0.055   1.013   5.215
 9016SOL     OW27946   6.469   6.091   6.677
 9016SOL    HW127947   6.514   6.027   6.615
 9016SOL    HW227948   6.537   6.153   6.717
 9017SOL     OW27949   6.692   3.259   3.420
 9017SOL    HW127950   6.650   3.173   3.449
 9017SOL    HW227951   6.630   3.335   3.440
 9018SOL     OW27952   3.732   2.242   5.354
 9018SOL    HW127953   3.656   2.280   5.301
 9018SOL    HW227954   3.723   2.142   5.360
 9019SOL     OW27955   1.932   0.448   1.140
 9019SOL    HW127956   1.936   0.522   1.206
 9019SOL    HW227957   1.926   0.361   1.187
 9020SOL     OW27958   0.734   4.999   3.622
 9020SOL    HW127959   0.751   4.951   3.708
 9020SOL    HW227960   0.636   4.994   3.600
 9021SOL     OW27961   6.793   5.657   4.784
 9021SOL    HW127962   6.784   5.723   4.858
 9021SOL    HW227963   6.875   5.601   4.800
 9022SOL     OW27964   3.143   0.710   0.059
 9022SOL    HW127965   3.211   0.694   0.131
 9022SOL    HW227966   3.053   0.723   0.101
 9023SOL     OW27967   3.064   3.155   3.407
 9023SOL    HW127968   3.041   3.176   3.312
 9023SOL    HW227969   3.125   3.076   3.410
 9024SOL     OW27970   1.814   6.821   0.406
 9024SOL    HW127971   1.757   6.888   0.453
 9024SOL    HW227972   1.761   6.738   0.390
 9025SOL     OW27973   5.960   4.867   0.771
 9025SOL    HW127974   6.000   4.912   0.852
 9025SOL    HW227975   5.897   4.795   0.801
 9026SOL     OW27976   3.514   3.038   5.299
 9026SOL    HW127977   3.488   2.964   5.238
 9026SOL    HW227978   3.555   3.000   5.382
 9027SOL     OW27979   2.007   2.678   3.133
 9027SOL    HW127980   1.943   2.602   3.119
 9027SOL    HW227981   1.956   2.761   3.157
 9028SOL     OW27982   2.602   4.578   4.694
 9028SOL    HW127983   2.527   4.520   4.662
 9028SOL    HW227984   2.677   4.576   4.627
 9029SOL     OW27985   5.200   5.528   2.814
 9029SOL    HW127986   5.132   5.583   2.863
 9029SOL    HW227987   5.270   5.497   2.878
 9030SOL     OW27988   2.662   1.091   1.678
 9030SOL    HW127989   2.697   1.168   1.732
 9030SOL    HW227990   2.564   1.080   1.695
 9031SOL     OW27991   2.605   6.922   6.725
 9031SOL    HW127992   2.609   6.833   6.770
 9031SOL    HW227993   2.560   6.913   6.637
 9032SOL     OW27994   1.909   1.392   1.891
 9032SOL    HW127995   2.004   1.421   1.875
 9032SOL    HW227996   1.880   1.423   1.981
 9033SOL     OW27997   0.934   3.377   2.458
 9033SOL    HW127998   0.838   3.405   2.459
 9033SOL    HW227999   0.986   3.441   2.401
 9034SOL     OW28000   2.786   6.500   5.991
 9034SOL    HW128001   2.845   6.484   5.912
 9034SOL    HW228002   2.702   6.546   5.961
 9035SOL     OW28003   6.805   1.354   4.721
 9035SOL    HW128004   6.711   1.387   4.710
 9035SOL    HW228005   6.842   1.389   4.807
 9036SOL     OW28006   1.581   2.033   5.220
 9036SOL    HW128007   1.488   2.063   5.199
 9036SOL    HW228008   1.577   1.948   5.272
 9037SOL     OW28009   1.989   3.644   6.036
 9037SOL    HW128010   1.955   3.648   5.941
 9037SOL    HW228011   1.961   3.727   6.084
 9038SOL     OW28012   5.709   6.450   5.589
 9038SOL    HW128013   5.688   6.448   5.491
 9038SOL    HW228014   5.786   6.511   5.606
 9039SOL     OW28015   2.172   5.437   5.669
 9039SOL    HW128016   2.113   5.507   5.629
 9039SOL    HW228017   2.256   5.479   5.703
 9040SOL     OW28018   2.208   1.038   2.620
 9040SOL    HW128019   2.240   1.007   2.531
 9040SOL    HW228020   2.274   1.012   2.690
 9041SOL     OW28021   1.799   3.300   0.018
 9041SOL    HW128022   1.742   3.359   6.983
 9041SOL    HW228023   1.866   3.355   0.067
 9042SOL     OW28024   2.724   5.210   3.977
 9042SOL    HW128025   2.630   5.187   3.955
 9042SOL    HW228026   2.777   5.127   3.992
 9043SOL     OW28027   6.865   2.176   6.382
 9043SOL    HW128028   6.894   2.255   6.436
 9043SOL    HW228029   6.834   2.103   6.443
 9044SOL     OW28030   6.316   5.681   0.485
 9044SOL    HW128031   6.240   5.625   0.521
 9044SOL    HW228032   6.401   5.629   0.491
 9045SOL     OW28033   3.509   6.616   4.168
 9045SOL    HW128034   3.581   6.547   4.178
 9045SOL    HW228035   3.550   6.702   4.135
 9046SOL     OW28036   3.544   3.820   4.879
 9046SOL    HW128037   3.449   3.800   4.903
 9046SOL    HW228038   3.559   3.798   4.783
 9047SOL     OW28039   1.392   4.738   4.930
 9047SOL    HW128040   1.458   4.732   4.855
 9047SOL    HW228041   1.432   4.787   5.007
 9048SOL     OW28042   1.114   2.965   4.697
 9048SOL    HW128043   1.147   2.893   4.635
 9048SOL    HW228044   1.190   3.001   4.750
 9049SOL     OW28045   5.010   5.638   6.038
 9049SOL    HW128046   4.980   5.692   6.116
 9049SOL    HW228047   5.054   5.698   5.971
 9050SOL     OW28048   0.550   5.251   6.064
 9050SOL    HW128049   0.645   5.270   6.040
 9050SOL    HW228050   0.546   5.170   6.123
 9051SOL     OW28051   5.174   6.535   6.053
 9051SOL    HW128052   5.232   6.523   5.972
 9051SOL    HW228053   5.207   6.475   6.126
 9052SOL     OW28054   2.003   5.146   5.193
 9052SOL    HW128055   2.093   5.154   5.152
 9052SOL    HW228056   1.996   5.059   5.243
 9053SOL     OW28057   3.187   1.527   3.613
 9053SOL    HW128058   3.239   1.606   3.644
 9053SOL    HW228059   3.241   1.444   3.627
 9054SOL     OW28060   3.049   0.385   0.931
 9054SOL    HW128061   2.953   0.409   0.945
 9054SOL    HW228062   3.099   0.466   0.901
 9055SOL     OW28063   1.579   2.002   3.549
 9055SOL    HW128064   1.602   2.097   3.528
 9055SOL    HW228065   1.654   1.942   3.518
 9056SOL     OW28066   5.417   1.440   3.083
 9056SOL    HW128067   5.508   1.397   3.079
 9056SOL    HW228068   5.420   1.528   3.036
 9057SOL     OW28069   4.830   6.040   6.343
 9057SOL    HW128070   4.753   6.067   6.284
 9057SOL    HW228071   4.840   6.107   6.416
 9058SOL     OW28072   1.487   3.217   4.710
 9058SOL    HW128073   1.490   3.166   4.624
 9058SOL    HW228074   1.401   3.199   4.757
 9059SOL     OW28075   0.307   1.549   2.422
 9059SOL    HW128076   0.366   1.483   2.376
 9059SOL    HW228077   0.220   1.556   2.374
 9060SOL     OW28078   0.546   5.006   1.194
 9060SOL    HW128079   0.447   5.016   1.200
 9060SOL    HW228080   0.573   4.915   1.227
 9061SOL     OW28081   5.641   4.740   2.193
 9061SOL    HW128082   5.582   4.745   2.112
 9061SOL    HW228083   5.675   4.646   2.203
 9062SOL     OW28084   0.548   5.451   3.407
 9062SOL    HW128085   0.639   5.426   3.373
 9062SOL    HW228086   0.531   5.402   3.493
 9063SOL     OW28087   3.721   1.430   1.776
 9063SOL    HW128088   3.806   1.379   1.768
 9063SOL    HW228089   3.711   1.465   1.869
 9064SOL     OW28090   1.046   5.009   3.894
 9064SOL    HW128091   1.123   4.980   3.837
 9064SOL    HW228092   1.006   4.929   3.939
 9065SOL     OW28093   2.456   4.486   5.307
 9065SOL    HW128094   2.446   4.473   5.209
 9065SOL    HW228095   2.553   4.499   5.329
 9066SOL     OW28096   4.961   4.579   5.427
 9066SOL    HW128097   4.977   4.497   5.372
 9066SOL    HW228098   5.045   4.606   5.474
 9067SOL     OW28099   0.771   6.727   4.162
 9067SOL    HW128100   0.735   6.775   4.242
 9067SOL    HW228101   0.848   6.670   4.189
 9068SOL     OW28102   5.000   6.905   5.045
 9068SOL    HW128103   5.034   6.902   5.139
 9068SOL    HW228104   5.011   6.815   5.002
 9069SOL     OW28105   4.984   1.498   1.532
 9069SOL    HW128106   4.935   1.499   1.619
 9069SOL    HW228107   4.929   1.542   1.462
 9070SOL     OW28108   1.470   2.231   6.330
 9070SOL    HW128109   1.393   2.215   6.392
 9070SOL    HW228110   1.435   2.254   6.239
 9071SOL     OW28111   5.030   1.740   5.506
 9071SOL    HW128112   4.956   1.788   5.459
 9071SOL    HW228113   5.117   1.758   5.460
 9072SOL     OW28114   4.831   1.129   2.447
 9072SOL    HW128115   4.768   1.071   2.396
 9072SOL    HW228116   4.911   1.148   2.391
 9073SOL     OW28117   4.494   0.936   6.461
 9073SOL    HW128118   4.526   0.953   6.555
 9073SOL    HW228119   4.462   1.021   6.421
 9074SOL     OW28120   1.758   0.091   2.020
 9074SOL    HW128121   1.825   0.160   1.993
 9074SOL    HW228122   1.805   0.005   2.041
 9075SOL     OW28123   6.396   6.404   1.354
 9075SOL    HW128124   6.354   6.315   1.373
 9075SOL    HW228125   6.485   6.389   1.310
 9076SOL     OW28126   6.574   0.788   2.349
 9076SOL    HW128127   6.630   0.738   2.415
 9076SOL    HW228128   6.613   0.879   2.333
 9077SOL     OW28129   6.104   1.601   5.917
 9077SOL    HW128130   6.166   1.523   5.912
 9077SOL    HW228131   6.151   1.679   5.959
 9078SOL     OW28132   5.218   5.890   6.566
 9078SOL    HW128133   5.302   5.854   6.608
 9078SOL    HW228134   5.171   5.816   6.519
 9079SOL     OW28135   1.327   0.706   6.635
 9079SOL    HW128136   1.253   0.646   6.666
 9079SOL    HW228137   1.336   0.783   6.699
 9080SOL     OW28138   5.682   3.505   1.638
 9080SOL    HW128139   5.617   3.581   1.633
 9080SOL    HW228140   5.653   3.440   1.708
 9081SOL     OW28141   4.434   1.858   0.511
 9081SOL    HW128142   4.444   1.939   0.569
 9081SOL    HW228143   4.486   1.871   0.427
 9082SOL     OW28144   3.118   5.887   5.604
 9082SOL    HW128145   3.164   5.804   5.638
 9082SOL    HW228146   3.019   5.876   5.613
 9083SOL     OW28147   4.146   5.467   6.140
 9083SOL    HW128148   4.187   5.487   6.228
 9083SOL    HW228149   4.057   5.512   6.133
 9084SOL     OW28150   0.297   2.792   5.737
 9084SOL    HW128151   0.313   2.800   5.639
 9084SOL    HW228152   0.228   2.722   5.755
 9085SOL     OW28153   2.804   5.195   6.843
 9085SOL    HW128154   2.798   5.206   6.743
 9085SOL    HW228155   2.810   5.098   6.865
 9086SOL     OW28156   6.755   4.331   0.719
 9086SOL    HW128157   6.682   4.356   0.654
 9086SOL    HW228158   6.768   4.405   0.784
 9087SOL     OW28159   5.993   0.859   1.302
 9087SOL    HW128160   6.013   0.875   1.399
 9087SOL    HW228161   6.059   0.794   1.264
 9088SOL     OW28162   6.576   6.789   0.749
 9088SOL    HW128163   6.507   6.829   0.810
 9088SOL    HW228164   6.666   6.823   0.774
 9089SOL     OW28165   4.967   5.727   3.680
 9089SOL    HW128166   5.010   5.683   3.601
 9089SOL    HW228167   4.985   5.825   3.677
 9090SOL     OW28168   5.870   6.216   4.818
 9090SOL    HW128169   5.818   6.166   4.748
 9090SOL    HW228170   5.844   6.184   4.909
 9091SOL     OW28171   2.076   1.724   1.610
 9091SOL    HW128172   2.080   1.736   1.710
 9091SOL    HW228173   1.991   1.676   1.586
 9092SOL     OW28174   1.116   6.950   5.249
 9092SOL    HW128175   1.166   6.917   5.168
 9092SOL    HW228176   1.125   6.884   5.323
 9093SOL     OW28177   2.579   5.116   0.744
 9093SOL    HW128178   2.501   5.121   0.808
 9093SOL    HW228179   2.548   5.141   0.653
 9094SOL     OW28180   0.393   5.305   2.100
 9094SOL    HW128181   0.434   5.258   2.178
 9094SOL    HW228182   0.448   5.386   2.077
 9095SOL     OW28183   3.264   3.413   6.951
 9095SOL    HW128184   3.288   3.408   6.854
 9095SOL    HW228185   3.170   3.447   6.960
 9096SOL     OW28186   5.717   2.414   2.808
 9096SOL    HW128187   5.734   2.365   2.722
 9096SOL    HW228188   5.665   2.497   2.789
 9097SOL     OW28189   1.202   4.221   6.639
 9097SOL    HW128190   1.148   4.303   6.618
 9097SOL    HW228191   1.180   4.149   6.574
 9098SOL     OW28192   3.844   3.943   2.093
 9098SOL    HW128193   3.833   3.938   2.192
 9098SOL    HW228194   3.769   3.996   2.053
 9099SOL     OW28195   2.466   3.673   1.184
 9099SOL    HW128196   2.401   3.670   1.108
 9099SOL    HW228197   2.554   3.635   1.155
 9100SOL     OW28198   0.791   3.320   0.986
 9100SOL    HW128199   0.729   3.373   1.044
 9100SOL    HW228200   0.775   3.222   1.000
 9101SOL     OW28201   1.901   2.500   1.996
 9101SOL    HW128202   1.856   2.564   2.057
 9101SOL    HW228203   1.838   2.425   1.973
 9102SOL     OW28204   3.538   5.626   2.017
 9102SOL    HW128205   3.555   5.531   1.990
 9102SOL    HW228206   3.441   5.637   2.039
 9103SOL     OW28207   6.949   3.913   0.710
 9103SOL    HW128208   6.965   4.003   0.751
 9103SOL    HW228209   6.951   3.843   0.781
 9104SOL     OW28210   4.275   6.664   1.467
 9104SOL    HW128211   4.327   6.590   1.509
 9104SOL    HW228212   4.337   6.726   1.419
 9105SOL     OW28213   1.527   1.600   6.737
 9105SOL    HW128214   1.450   1.544   6.769
 9105SOL    HW228215   1.608   1.580   6.793
 9106SOL     OW28216   5.654   4.917   6.989
 9106SOL    HW128217   5.686   4.865   6.910
 9106SOL    HW228218   5.589   4.987   6.959
 9107SOL     OW28219   3.612   0.092   0.806
 9107SOL    HW128220   3.638   0.128   0.895
 9107SOL    HW228221   3.514   0.070   0.807
 9108SOL     OW28222   4.277   5.273   5.274
 9108SOL    HW128223   4.298   5.277   5.176
 9108SOL    HW228224   4.215   5.196   5.292
 9109SOL     OW28225   3.339   2.059   3.897
 9109SOL    HW128226   3.381   2.062   3.806
 9109SOL    HW228227   3.252   2.108   3.896
 9110SOL     OW28228   2.028   4.009   4.024
 9110SOL    HW128229   2.088   4.078   4.065
 9110SOL    HW228230   1.943   4.053   3.995
 9111SOL     OW28231   3.929   4.356   1.357
 9111SOL    HW128232   3.954   4.283   1.420
 9111SOL    HW228233   3.922   4.320   1.264
 9112SOL     OW28234   0.317   4.497   1.959
 9112SOL    HW128235   0.318   4.404   1.922
 9112SOL    HW228236   0.346   4.494   2.055
 9113SOL     OW28237   5.332   0.083   0.267
 9113SOL    HW128238   5.342   0.125   0.177
 9113SOL    HW228239   5.235   0.068   0.287
 9114SOL     OW28240   2.409   4.843   2.205
 9114SOL    HW128241   2.458   4.757   2.215
 9114SOL    HW228242   2.430   4.884   2.116
 9115SOL     OW28243   1.154   4.630   4.788
 9115SOL    HW128244   1.227   4.632   4.857
 9115SOL    HW228245   1.150   4.718   4.741
 9116SOL     OW28246   6.746   1.668   6.731
 9116SOL    HW128247   6.720   1.588   6.785
 9116SOL    HW228248   6.673   1.689   6.666
 9117SOL     OW28249   6.426   2.807   6.488
 9117SOL    HW128250   6.478   2.748   6.427
 9117SOL    HW228251   6.433   2.902   6.458
 9118SOL     OW28252   6.897   6.430   1.227
 9118SOL    HW128253   6.919   6.488   1.305
 9118SOL    HW228254   6.919   6.478   1.142
 9119SOL     OW28255   5.512   0.479   2.182
 9119SOL    HW128256   5.437   0.450   2.242
 9119SOL    HW228257   5.478   0.486   2.088
 9120SOL     OW28258   5.788   1.224   5.869
 9120SOL    HW128259   5.859   1.266   5.926
 9120SOL    HW228260   5.700   1.233   5.914
 9121SOL     OW28261   0.425   2.298   5.622
 9121SOL    HW128262   0.371   2.382   5.626
 9121SOL    HW228263   0.477   2.287   5.707
 9122SOL     OW28264   1.816   2.357   2.840
 9122SOL    HW128265   1.796   2.401   2.927
 9122SOL    HW228266   1.912   2.373   2.816
 9123SOL     OW28267   2.706   6.109   6.272
 9123SOL    HW128268   2.644   6.107   6.350
 9123SOL    HW228269   2.765   6.189   6.278
 9124SOL     OW28270   6.726   5.754   5.264
 9124SOL    HW128271   6.815   5.708   5.273
 9124SOL    HW228272   6.655   5.687   5.245
 9125SOL     OW28273   5.070   3.971   3.790
 9125SOL    HW128274   5.069   4.021   3.877
 9125SOL    HW228275   5.125   4.020   3.724
 9126SOL     OW28276   5.953   0.935   1.775
 9126SOL    HW128277   5.865   0.959   1.735
 9126SOL    HW228278   5.948   0.942   1.874
 9127SOL     OW28279   5.335   0.442   6.295
 9127SOL    HW128280   5.257   0.490   6.334
 9127SOL    HW228281   5.315   0.344   6.291
 9128SOL     OW28282   3.503   1.843   5.262
 9128SOL    HW128283   3.500   1.900   5.180
 9128SOL    HW228284   3.594   1.804   5.272
 9129SOL     OW28285   1.956   2.572   6.577
 9129SOL    HW128286   1.932   2.506   6.648
 9129SOL    HW228287   2.047   2.552   6.543
 9130SOL     OW28288   6.503   4.899   0.551
 9130SOL    HW128289   6.463   4.877   0.640
 9130SOL    HW228290   6.451   4.851   0.480
 9131SOL     OW28291   0.692   4.139   4.170
 9131SOL    HW128292   0.642   4.195   4.105
 9131SOL    HW228293   0.632   4.112   4.245
 9132SOL     OW28294   6.849   3.470   3.493
 9132SOL    HW128295   6.802   3.381   3.496
 9132SOL    HW228296   6.948   3.455   3.495
 9133SOL     OW28297   2.222   4.123   1.224
 9133SOL    HW128298   2.253   4.218   1.233
 9133SOL    HW228299   2.299   4.061   1.240
 9134SOL     OW28300   3.457   6.625   6.947
 9134SOL    HW128301   3.418   6.717   6.945
 9134SOL    HW228302   3.493   6.606   0.016
 9135SOL     OW28303   6.696   6.639   2.834
 9135SOL    HW128304   6.703   6.656   2.735
 9135SOL    HW228305   6.600   6.633   2.860
 9136SOL     OW28306   4.613   5.355   5.953
 9136SOL    HW128307   4.660   5.432   5.911
 9136SOL    HW228308   4.649   5.269   5.916
 9137SOL     OW28309   5.211   1.548   1.204
 9137SOL    HW128310   5.187   1.500   1.120
 9137SOL    HW228311   5.153   1.629   1.214
 9138SOL     OW28312   6.126   4.813   6.076
 9138SOL    HW128313   6.156   4.726   6.115
 9138SOL    HW228314   6.203   4.876   6.074
 9139SOL     OW28315   3.032   0.789   6.161
 9139SOL    HW128316   3.092   0.758   6.087
 9139SOL    HW228317   3.087   0.810   6.242
 9140SOL     OW28318   6.237   2.363   3.141
 9140SOL    HW128319   6.307   2.358   3.069
 9140SOL    HW228320   6.280   2.354   3.230
 9141SOL     OW28321   5.419   0.260   5.944
 9141SOL    HW128322   5.457   0.234   5.855
 9141SOL    HW228323   5.485   0.237   6.016
 9142SOL     OW28324   0.164   3.200   5.333
 9142SOL    HW128325   0.210   3.198   5.421
 9142SOL    HW228326   0.216   3.146   5.267
 9143SOL     OW28327   4.669   3.467   0.157
 9143SOL    HW128328   4.763   3.498   0.143
 9143SOL    HW228329   4.623   3.526   0.222
 9144SOL     OW28330   2.091   6.188   5.957
 9144SOL    HW128331   2.115   6.092   5.964
 9144SOL    HW228332   2.115   6.235   6.043
 9145SOL     OW28333   0.569   4.540   0.514
 9145SOL    HW128334   0.472   4.522   0.499
 9145SOL    HW228335   0.609   4.467   0.569
 9146SOL     OW28336   5.445   2.493   1.344
 9146SOL    HW128337   5.392   2.423   1.390
 9146SOL    HW228338   5.521   2.450   1.295
 9147SOL     OW28339   4.685   6.377   3.769
 9147SOL    HW128340   4.630   6.434   3.707
 9147SOL    HW228341   4.624   6.318   3.823
 9148SOL     OW28342   5.449   6.462   2.788
 9148SOL    HW128343   5.404   6.406   2.719
 9148SOL    HW228344   5.487   6.404   2.859
 9149SOL     OW28345   4.906   3.006   4.030
 9149SOL    HW128346   4.905   3.105   4.023
 9149SOL    HW228347   4.873   2.966   3.945
 9150SOL     OW28348   4.454   6.539   3.124
 9150SOL    HW128349   4.546   6.577   3.118
 9150SOL    HW228350   4.437   6.480   3.045
 9151SOL     OW28351   1.274   4.047   1.697
 9151SOL    HW128352   1.352   4.025   1.756
 9151SOL    HW228353   1.193   3.999   1.729
 9152SOL     OW28354   2.567   5.874   3.629
 9152SOL    HW128355   2.602   5.822   3.707
 9152SOL    HW228356   2.499   5.940   3.661
 9153SOL     OW28357   1.373   2.433   6.972
 9153SOL    HW128358   1.348   2.408   6.878
 9153SOL    HW228359   1.320   2.514   6.999
 9154SOL     OW28360   2.881   5.778   6.875
 9154SOL    HW128361   2.834   5.734   6.952
 9154SOL    HW228362   2.831   5.758   6.790
 9155SOL     OW28363   1.951   3.608   6.729
 9155SOL    HW128364   1.974   3.660   6.647
 9155SOL    HW228365   1.915   3.518   6.703
 9156SOL     OW28366   3.256   2.353   1.290
 9156SOL    HW128367   3.331   2.301   1.330
 9156SOL    HW228368   3.176   2.294   1.281
 9157SOL     OW28369   5.936   4.500   5.356
 9157SOL    HW128370   5.928   4.406   5.321
 9157SOL    HW228371   5.940   4.563   5.278
 9158SOL     OW28372   0.195   3.742   4.568
 9158SOL    HW128373   0.237   3.754   4.658
 9158SOL    HW228374   0.097   3.757   4.574
 9159SOL     OW28375   0.151   5.562   3.302
 9159SOL    HW128376   0.231   5.520   3.259
 9159SOL    HW228377   0.156   5.661   3.294
 9160SOL     OW28378   0.390   6.867   5.910
 9160SOL    HW128379   0.485   6.891   5.890
 9160SOL    HW228380   0.333   6.889   5.830
 9161SOL     OW28381   4.756   4.124   4.921
 9161SOL    HW128382   4.769   4.057   4.994
 9161SOL    HW228383   4.683   4.187   4.947
 9162SOL     OW28384   5.277   2.540   2.864
 9162SOL    HW128385   5.222   2.513   2.785
 9162SOL    HW228386   5.219   2.548   2.945
 9163SOL     OW28387   2.358   2.806   3.902
 9163SOL    HW128388   2.261   2.808   3.879
 9163SOL    HW228389   2.384   2.895   3.941
 9164SOL     OW28390   2.941   0.742   6.777
 9164SOL    HW128391   2.955   0.772   6.871
 9164SOL    HW228392   2.972   0.648   6.767
 9165SOL     OW28393   6.275   0.559   5.869
 9165SOL    HW128394   6.208   0.580   5.941
 9165SOL    HW228395   6.278   0.460   5.854
 9166SOL     OW28396   4.690   6.299   1.098
 9166SOL    HW128397   4.675   6.359   1.019
 9166SOL    HW228398   4.760   6.231   1.076
 9167SOL     OW28399   1.586   3.404   5.671
 9167SOL    HW128400   1.502   3.357   5.699
 9167SOL    HW228401   1.644   3.417   5.751
 9168SOL     OW28402   2.319   0.073   5.833
 9168SOL    HW128403   2.297   0.147   5.896
 9168SOL    HW228404   2.254   7.020   5.845
 9169SOL     OW28405   0.028   0.671   4.914
 9169SOL    HW128406   0.005   0.689   5.009
 9169SOL    HW228407   0.122   0.701   4.896
 9170SOL     OW28408   0.291   5.061   6.603
 9170SOL    HW128409   0.336   4.971   6.603
 9170SOL    HW228410   0.350   5.127   6.650
 9171SOL     OW28411   3.295   5.496   0.201
 9171SOL    HW128412   3.388   5.517   0.231
 9171SOL    HW228413   3.286   5.514   0.103
 9172SOL     OW28414   3.447   1.390   4.593
 9172SOL    HW128415   3.388   1.450   4.539
 9172SOL    HW228416   3.393   1.313   4.627
 9173SOL     OW28417   5.668   4.608   4.750
 9173SOL    HW128418   5.738   4.539   4.734
 9173SOL    HW228419   5.581   4.564   4.773
 9174SOL     OW28420   6.145   3.999   0.288
 9174SOL    HW128421   6.132   4.085   0.337
 9174SOL    HW228422   6.056   3.963   0.260
 9175SOL     OW28423   2.714   6.417   5.321
 9175SOL    HW128424   2.759   6.338   5.363
 9175SOL    HW228425   2.698   6.398   5.224
 9176SOL     OW28426   1.606   0.894   5.418
 9176SOL    HW128427   1.638   0.799   5.420
 9176SOL    HW228428   1.681   0.953   5.390
 9177SOL     OW28429   1.159   4.168   4.091
 9177SOL    HW128430   1.118   4.091   4.042
 9177SOL    HW228431   1.238   4.203   4.040
 9178SOL     OW28432   2.427   4.704   0.638
 9178SOL    HW128433   2.439   4.781   0.575
 9178SOL    HW228434   2.428   4.738   0.732
 9179SOL     OW28435   2.327   5.027   4.203
 9179SOL    HW128436   2.293   5.111   4.246
 9179SOL    HW228437   2.258   4.992   4.139
 9180SOL     OW28438   6.037   2.475   3.580
 9180SOL    HW128439   5.969   2.514   3.518
 9180SOL    HW228440   6.017   2.378   3.594
 9181SOL     OW28441   4.526   2.312   3.010
 9181SOL    HW128442   4.624   2.329   3.012
 9181SOL    HW228443   4.493   2.296   3.104
 9182SOL     OW28444   2.755   6.841   2.276
 9182SOL    HW128445   2.658   6.843   2.252
 9182SOL    HW228446   2.803   6.778   2.215
 9183SOL     OW28447   5.289   5.909   0.460
 9183SOL    HW128448   5.354   5.852   0.511
 9183SOL    HW228449   5.211   5.853   0.433
 9184SOL     OW28450   5.202   0.758   0.585
 9184SOL    HW128451   5.300   0.777   0.586
 9184SOL    HW228452   5.153   0.837   0.549
 9185SOL     OW28453   4.229   0.211   5.796
 9185SOL    HW128454   4.253   0.125   5.841
 9185SOL    HW228455   4.300   0.279   5.814
 9186SOL     OW28456   6.488   1.272   4.642
 9186SOL    HW128457   6.424   1.265   4.718
 9186SOL    HW228458   6.484   1.365   4.604
 9187SOL     OW28459   2.255   6.844   1.325
 9187SOL    HW128460   2.275   6.940   1.346
 9187SOL    HW228461   2.274   6.787   1.405
 9188SOL     OW28462   2.392   6.208   1.328
 9188SOL    HW128463   2.479   6.234   1.368
 9188SOL    HW228464   2.327   6.185   1.401
 9189SOL     OW28465   5.418   6.068   2.841
 9189SOL    HW128466   5.467   6.148   2.808
 9189SOL    HW228467   5.470   6.026   2.916
 9190SOL     OW28468   1.861   5.414   0.091
 9190SOL    HW128469   1.918   5.388   0.013
 9190SOL    HW228470   1.919   5.444   0.167
 9191SOL     OW28471   6.176   0.917   4.954
 9191SOL    HW128472   6.270   0.895   4.980
 9191SOL    HW228473   6.125   0.833   4.938
 9192SOL     OW28474   0.223   4.207   4.634
 9192SOL    HW128475   0.316   4.181   4.662
 9192SOL    HW228476   0.158   4.146   4.680
 9193SOL     OW28477   4.129   4.043   0.202
 9193SOL    HW128478   4.199   4.098   0.246
 9193SOL    HW228479   4.051   4.102   0.178
 9194SOL     OW28480   3.515   0.690   3.560
 9194SOL    HW128481   3.416   0.687   3.547
 9194SOL    HW228482   3.561   0.694   3.471
 9195SOL     OW28483   1.918   2.365   4.101
 9195SOL    HW128484   1.909   2.278   4.054
 9195SOL    HW228485   1.917   2.440   4.034
 9196SOL     OW28486   4.057   1.140   5.130
 9196SOL    HW128487   4.119   1.061   5.122
 9196SOL    HW228488   4.096   1.218   5.081
 9197SOL     OW28489   1.864   4.241   1.608
 9197SOL    HW128490   1.816   4.253   1.521
 9197SOL    HW228491   1.867   4.328   1.657
 9198SOL     OW28492   6.369   5.326   5.123
 9198SOL    HW128493   6.282   5.277   5.129
 9198SOL    HW228494   6.365   5.408   5.180
 9199SOL     OW28495   0.595   3.305   6.529
 9199SOL    HW128496   0.669   3.367   6.554
 9199SOL    HW228497   0.587   3.301   6.430
 9200SOL     OW28498   2.131   6.753   1.106
 9200SOL    HW128499   2.175   6.773   1.019
 9200SOL    HW228500   2.186   6.791   1.181
 9201SOL     OW28501   0.815   3.156   0.295
 9201SOL    HW128502   0.839   3.061   0.311
 9201SOL    HW228503   0.814   3.174   0.197
 9202SOL     OW28504   2.255   6.741   3.716
 9202SOL    HW128505   2.234   6.720   3.812
 9202SOL    HW228506   2.175   6.724   3.659
 9203SOL     OW28507   0.031   5.093   6.773
 9203SOL    HW128508   0.091   5.052   6.705
 9203SOL    HW228509   0.055   5.059   6.864
 9204SOL     OW28510   4.706   2.081   6.744
 9204SOL    HW128511   4.795   2.127   6.740
 9204SOL    HW228512   4.636   2.146   6.773
 9205SOL     OW28513   6.496   4.359   2.689
 9205SOL    HW128514   6.527   4.433   2.629
 9205SOL    HW228515   6.575   4.316   2.732
 9206SOL     OW28516   3.440   5.208   1.062
 9206SOL    HW128517   3.471   5.138   0.997
 9206SOL    HW228518   3.489   5.195   1.149
 9207SOL     OW28519   4.451   5.087   0.093
 9207SOL    HW128520   4.396   5.080   0.176
 9207SOL    HW228521   4.391   5.085   0.013
 9208SOL     OW28522   5.892   3.967   4.612
 9208SOL    HW128523   5.941   3.976   4.698
 9208SOL    HW228524   5.926   4.034   4.546
 9209SOL     OW28525   3.000   1.410   0.166
 9209SOL    HW128526   3.047   1.494   0.193
 9209SOL    HW228527   2.964   1.364   0.247
 9210SOL     OW28528   6.131   1.587   3.231
 9210SOL    HW128529   6.081   1.631   3.157
 9210SOL    HW228530   6.066   1.552   3.299
 9211SOL     OW28531   6.991   2.921   4.032
 9211SOL    HW128532   6.962   3.016   4.021
 9211SOL    HW228533   6.913   2.866   4.063
 9212SOL     OW28534   4.020   5.223   4.308
 9212SOL    HW128535   3.936   5.241   4.359
 9212SOL    HW228536   4.099   5.233   4.369
 9213SOL     OW28537   6.165   3.089   5.340
 9213SOL    HW128538   6.185   3.186   5.323
 9213SOL    HW228539   6.240   3.033   5.306
 9214SOL     OW28540   6.565   5.349   5.878
 9214SOL    HW128541   6.468   5.328   5.892
 9214SOL    HW228542   6.575   5.448   5.864
 9215SOL     OW28543   0.804   2.081   0.482
 9215SOL    HW128544   0.839   1.988   0.474
 9215SOL    HW228545   0.726   2.093   0.420
 9216SOL     OW28546   3.015   0.211   3.194
 9216SOL    HW128547   2.987   0.294   3.242
 9216SOL    HW228548   3.104   0.181   3.230
 9217SOL     OW28549   0.215   0.832   6.254
 9217SOL    HW128550   0.210   0.776   6.336
 9217SOL    HW228551   0.292   0.895   6.261
 9218SOL     OW28552   3.593   6.475   0.143
 9218SOL    HW128553   3.516   6.432   0.096
 9218SOL    HW228554   3.655   6.405   0.177
 9219SOL     OW28555   0.879   2.889   0.347
 9219SOL    HW128556   0.895   2.862   0.252
 9219SOL    HW228557   0.966   2.893   0.396
 9220SOL     OW28558   3.472   6.438   1.375
 9220SOL    HW128559   3.565   6.467   1.396
 9220SOL    HW228560   3.463   6.421   1.277
 9221SOL     OW28561   3.755   0.508   3.963
 9221SOL    HW128562   3.673   0.477   3.915
 9221SOL    HW228563   3.769   0.606   3.945
 9222SOL     OW28564   2.240   0.598   6.877
 9222SOL    HW128565   2.191   0.626   6.959
 9222SOL    HW228566   2.302   0.671   6.849
 9223SOL     OW28567   1.914   2.105   4.850
 9223SOL    HW128568   1.957   2.029   4.801
 9223SOL    HW228569   1.984   2.164   4.889
 9224SOL     OW28570   2.767   5.665   4.216
 9224SOL    HW128571   2.780   5.755   4.175
 9224SOL    HW228572   2.672   5.637   4.204
 9225SOL     OW28573   2.998   6.520   6.799
 9225SOL    HW128574   3.062   6.506   6.875
 9225SOL    HW228575   3.046   6.508   6.712
 9226SOL     OW28576   5.205   6.417   1.694
 9226SOL    HW128577   5.196   6.317   1.684
 9226SOL    HW228578   5.267   6.452   1.625
 9227SOL     OW28579   1.243   4.981   3.683
 9227SOL    HW128580   1.174   5.014   3.619
 9227SOL    HW228581   1.334   5.001   3.648
 9228SOL     OW28582   1.511   1.014   5.660
 9228SOL    HW128583   1.524   0.966   5.573
 9228SOL    HW228584   1.556   1.104   5.655
 9229SOL     OW28585   1.777   5.536   4.195
 9229SOL    HW128586   1.712   5.460   4.187
 9229SOL    HW228587   1.868   5.499   4.217
 9230SOL     OW28588   5.694   0.290   2.304
 9230SOL    HW128589   5.751   0.242   2.237
 9230SOL    HW228590   5.633   0.353   2.256
 9231SOL     OW28591   1.929   3.180   4.244
 9231SOL    HW128592   1.974   3.251   4.298
 9231SOL    HW228593   1.973   3.092   4.260
 9232SOL     OW28594   3.563   5.015   0.882
 9232SOL    HW128595   3.472   4.973   0.881
 9232SOL    HW228596   3.574   5.072   0.800
 9233SOL     OW28597   5.949   5.310   1.640
 9233SOL    HW128598   5.975   5.387   1.581
 9233SOL    HW228599   5.989   5.323   1.731
 9234SOL     OW28600   2.921   5.560   3.873
 9234SOL    HW128601   2.842   5.508   3.841
 9234SOL    HW228602   2.905   5.594   3.965
 9235SOL     OW28603   1.836   1.770   3.078
 9235SOL    HW128604   1.889   1.823   3.012
 9235SOL    HW228605   1.883   1.684   3.097
 9236SOL     OW28606   3.647   4.290   5.469
 9236SOL    HW128607   3.559   4.281   5.516
 9236SOL    HW228608   3.665   4.208   5.416
 9237SOL     OW28609   1.520   4.334   4.751
 9237SOL    HW128610   1.501   4.298   4.660
 9237SOL    HW228611   1.550   4.259   4.810
 9238SOL     OW28612   4.346   2.454   6.135
 9238SOL    HW128613   4.246   2.453   6.140
 9238SOL    HW228614   4.377   2.542   6.100
 9239SOL     OW28615   0.112   3.962   1.033
 9239SOL    HW128616   0.038   3.909   0.992
 9239SOL    HW228617   0.075   4.047   1.071
 9240SOL     OW28618   5.770   1.783   0.560
 9240SOL    HW128619   5.671   1.779   0.572
 9240SOL    HW228620   5.810   1.693   0.576
 9241SOL     OW28621   6.864   5.584   6.706
 9241SOL    HW128622   6.912   5.498   6.688
 9241SOL    HW228623   6.814   5.576   6.793
 9242SOL     OW28624   0.462   5.905   0.914
 9242SOL    HW128625   0.512   5.977   0.961
 9242SOL    HW228626   0.523   5.828   0.896
 9243SOL     OW28627   6.518   5.596   3.526
 9243SOL    HW128628   6.552   5.569   3.616
 9243SOL    HW228629   6.593   5.591   3.459
 9244SOL     OW28630   4.417   5.746   6.692
 9244SOL    HW128631   4.459   5.824   6.645
 9244SOL    HW228632   4.376   5.685   6.625
 9245SOL     OW28633   1.329   5.323   2.464
 9245SOL    HW128634   1.420   5.342   2.498
 9245SOL    HW228635   1.311   5.225   2.470
 9246SOL     OW28636   6.227   4.655   3.627
 9246SOL    HW128637   6.134   4.686   3.646
 9246SOL    HW228638   6.282   4.662   3.711
 9247SOL     OW28639   0.846   0.801   2.689
 9247SOL    HW128640   0.749   0.821   2.677
 9247SOL    HW228641   0.900   0.878   2.657
 9248SOL     OW28642   2.591   2.653   5.483
 9248SOL    HW128643   2.676   2.691   5.447
 9248SOL    HW228644   2.572   2.694   5.572
 9249SOL     OW28645   5.211   1.796   5.294
 9249SOL    HW128646   5.173   1.731   5.228
 9249SOL    HW228647   5.145   1.870   5.310
 9250SOL     OW28648   4.885   3.921   4.403
 9250SOL    HW128649   4.895   3.935   4.501
 9250SOL    HW228650   4.914   3.829   4.379
 9251SOL     OW28651   3.841   1.486   2.835
 9251SOL    HW128652   3.882   1.493   2.744
 9251SOL    HW228653   3.913   1.487   2.904
 9252SOL     OW28654   6.953   7.019   4.703
 9252SOL    HW128655   6.854   0.010   4.710
 9252SOL    HW228656   7.000   0.068   4.754
 9253SOL     OW28657   3.032   6.088   6.420
 9253SOL    HW128658   3.103   6.017   6.414
 9253SOL    HW228659   2.952   6.051   6.465
 9254SOL     OW28660   5.336   3.414   1.169
 9254SOL    HW128661   5.318   3.464   1.084
 9254SOL    HW228662   5.251   3.374   1.203
 9255SOL     OW28663   5.306   3.092   0.155
 9255SOL    HW128664   5.381   3.061   0.213
 9255SOL    HW228665   5.262   3.172   0.197
 9256SOL     OW28666   4.157   4.880   2.699
 9256SOL    HW128667   4.061   4.866   2.724
 9256SOL    HW228668   4.162   4.928   2.612
 9257SOL     OW28669   1.080   4.140   2.322
 9257SOL    HW128670   1.062   4.110   2.416
 9257SOL    HW228671   1.077   4.061   2.261
 9258SOL     OW28672   3.475   3.169   3.975
 9258SOL    HW128673   3.527   3.243   3.932
 9258SOL    HW228674   3.381   3.170   3.940
 9259SOL     OW28675   0.952   2.699   1.427
 9259SOL    HW128676   0.958   2.599   1.419
 9259SOL    HW228677   0.870   2.731   1.381
 9260SOL     OW28678   4.777   2.177   5.387
 9260SOL    HW128679   4.717   2.137   5.456
 9260SOL    HW228680   4.723   2.221   5.316
 9261SOL     OW28681   4.143   0.324   6.562
 9261SOL    HW128682   4.098   0.390   6.623
 9261SOL    HW228683   4.238   0.352   6.547
 9262SOL     OW28684   5.941   1.916   5.908
 9262SOL    HW128685   5.941   1.909   6.008
 9262SOL    HW228686   5.924   1.826   5.868
 9263SOL     OW28687   5.659   4.554   1.517
 9263SOL    HW128688   5.722   4.529   1.591
 9263SOL    HW228689   5.607   4.473   1.490
 9264SOL     OW28690   6.305   3.771   0.229
 9264SOL    HW128691   6.249   3.854   0.234
 9264SOL    HW228692   6.276   3.717   0.150
 9265SOL     OW28693   2.935   2.032   0.689
 9265SOL    HW128694   2.893   1.979   0.763
 9265SOL    HW228695   2.864   2.086   0.643
 9266SOL     OW28696   2.569   6.004   3.174
 9266SOL    HW128697   2.538   6.090   3.133
 9266SOL    HW228698   2.612   6.023   3.262
 9267SOL     OW28699   0.383   3.745   4.074
 9267SOL    HW128700   0.311   3.767   4.140
 9267SOL    HW228701   0.425   3.657   4.099
 9268SOL     OW28702   0.925   6.447   2.959
 9268SOL    HW128703   1.018   6.452   2.923
 9268SOL    HW228704   0.887   6.356   2.939
 9269SOL     OW28705   3.156   2.468   0.085
 9269SOL    HW128706   3.189   2.507   7.022
 9269SOL    HW228707   3.131   2.541   0.148
 9270SOL     OW28708   6.114   6.819   5.742
 9270SOL    HW128709   6.056   6.872   5.681
 9270SOL    HW228710   6.192   6.782   5.690
 9271SOL     OW28711   1.722   6.164   1.215
 9271SOL    HW128712   1.641   6.168   1.273
 9271SOL    HW228713   1.695   6.158   1.119
 9272SOL     OW28714   3.343   4.333   6.162
 9272SOL    HW128715   3.252   4.291   6.160
 9272SOL    HW228716   3.407   4.276   6.110
 9273SOL     OW28717   4.344   5.767   3.566
 9273SOL    HW128718   4.443   5.754   3.575
 9273SOL    HW228719   4.297   5.707   3.631
 9274SOL     OW28720   5.568   2.299   6.491
 9274SOL    HW128721   5.584   2.336   6.399
 9274SOL    HW228722   5.538   2.204   6.484
 9275SOL     OW28723   1.110   1.142   7.009
 9275SOL    HW128724   1.061   1.188   6.936
 9275SOL    HW228725   1.203   1.119   6.978
 9276SOL     OW28726   2.751   4.760   4.497
 9276SOL    HW128727   2.815   4.809   4.438
 9276SOL    HW228728   2.767   4.784   4.592
 9277SOL     OW28729   3.740   3.109   0.204
 9277SOL    HW128730   3.819   3.086   0.259
 9277SOL    HW228731   3.656   3.098   0.258
 9278SOL     OW28732   1.463   1.808   4.154
 9278SOL    HW128733   1.544   1.861   4.131
 9278SOL    HW228734   1.385   1.869   4.168
 9279SOL     OW28735   4.129   0.701   1.909
 9279SOL    HW128736   4.065   0.680   1.983
 9279SOL    HW228737   4.186   0.779   1.936
 9280SOL     OW28738   1.319   0.097   3.700
 9280SOL    HW128739   1.299   0.134   3.791
 9280SOL    HW228740   1.254   0.024   3.679
 9281SOL     OW28741   2.512   2.876   1.236
 9281SOL    HW128742   2.510   2.777   1.226
 9281SOL    HW228743   2.448   2.904   1.307
 9282SOL     OW28744   5.115   2.061   4.326
 9282SOL    HW128745   5.194   2.064   4.264
 9282SOL    HW228746   5.079   2.153   4.338
 9283SOL     OW28747   5.855   1.921   3.148
 9283SOL    HW128748   5.953   1.940   3.134
 9283SOL    HW228749   5.809   1.919   3.060
 9284SOL     OW28750   3.943   4.874   0.209
 9284SOL    HW128751   3.973   4.866   0.113
 9284SOL    HW228752   3.888   4.794   0.232
 9285SOL     OW28753   5.924   3.032   6.968
 9285SOL    HW128754   5.827   3.021   6.989
 9285SOL    HW228755   5.976   2.958   7.010
 9286SOL     OW28756   5.378   6.896   6.007
 9286SOL    HW128757   5.459   6.839   6.020
 9286SOL    HW228758   5.360   6.906   5.909
 9287SOL     OW28759   3.402   5.621   1.331
 9287SOL    HW128760   3.468   5.585   1.398
 9287SOL    HW228761   3.440   5.610   1.239
 9288SOL     OW28762   4.141   1.375   6.021
 9288SOL    HW128763   4.079   1.445   5.987
 9288SOL    HW228764   4.220   1.367   5.959
 9289SOL     OW28765   4.648   2.040   2.599
 9289SOL    HW128766   4.664   1.981   2.679
 9289SOL    HW228767   4.566   2.094   2.614
 9290SOL     OW28768   4.210   1.815   5.055
 9290SOL    HW128769   4.222   1.729   5.006
 9290SOL    HW228770   4.252   1.889   5.002
 9291SOL     OW28771   1.886   0.536   5.034
 9291SOL    HW128772   1.787   0.552   5.034
 9291SOL    HW228773   1.912   0.496   4.946
 9292SOL     OW28774   6.700   3.225   6.415
 9292SOL    HW128775   6.682   3.230   6.513
 9292SOL    HW228776   6.761   3.148   6.396
 9293SOL     OW28777   5.286   4.511   0.875
 9293SOL    HW128778   5.368   4.464   0.911
 9293SOL    HW228779   5.304   4.609   0.870
 9294SOL     OW28780   3.831   5.926   0.051
 9294SOL    HW128781   3.862   5.927   6.978
 9294SOL    HW228782   3.742   5.972   0.058
 9295SOL     OW28783   5.130   1.687   3.153
 9295SOL    HW128784   5.041   1.705   3.110
 9295SOL    HW228785   5.140   1.589   3.171
 9296SOL     OW28786   6.321   6.483   6.128
 9296SOL    HW128787   6.398   6.420   6.116
 9296SOL    HW228788   6.293   6.519   6.039
 9297SOL     OW28789   0.157   0.498   1.509
 9297SOL    HW128790   0.146   0.475   1.412
 9297SOL    HW228791   0.067   0.502   1.553
 9298SOL     OW28792   2.491   6.084   5.593
 9298SOL    HW128793   2.580   6.042   5.576
 9298SOL    HW228794   2.438   6.087   5.508
 9299SOL     OW28795   1.498   2.797   4.100
 9299SOL    HW128796   1.557   2.762   4.028
 9299SOL    HW228797   1.520   2.893   4.117
 9300SOL     OW28798   6.351   4.813   4.789
 9300SOL    HW128799   6.397   4.763   4.716
 9300SOL    HW228800   6.409   4.888   4.820
 9301SOL     OW28801   4.965   4.356   3.209
 9301SOL    HW128802   5.052   4.367   3.258
 9301SOL    HW228803   4.982   4.359   3.110
 9302SOL     OW28804   2.428   2.726   3.606
 9302SOL    HW128805   2.402   2.713   3.702
 9302SOL    HW228806   2.518   2.685   3.590
 9303SOL     OW28807   4.094   6.747   0.821
 9303SOL    HW128808   4.097   6.780   0.727
 9303SOL    HW228809   4.037   6.665   0.826
 9304SOL     OW28810   3.480   4.098   0.310
 9304SOL    HW128811   3.452   4.083   0.405
 9304SOL    HW228812   3.537   4.022   0.280
 9305SOL     OW28813   5.783   1.882   1.603
 9305SOL    HW128814   5.870   1.848   1.640
 9305SOL    HW228815   5.782   1.981   1.607
 9306SOL     OW28816   0.700   4.809   4.407
 9306SOL    HW128817   0.704   4.840   4.312
 9306SOL    HW228818   0.731   4.714   4.413
 9307SOL     OW28819   1.580   2.748   0.907
 9307SOL    HW128820   1.526   2.673   0.946
 9307SOL    HW228821   1.638   2.713   0.834
 9308SOL     OW28822   0.532   3.787   1.059
 9308SOL    HW128823   0.623   3.758   1.029
 9308SOL    HW228824   0.542   3.861   1.126
 9309SOL     OW28825   3.673   4.854   5.439
 9309SOL    HW128826   3.582   4.830   5.403
 9309SOL    HW228827   3.698   4.790   5.511
 9310SOL     OW28828   4.469   6.393   5.784
 9310SOL    HW128829   4.566   6.414   5.780
 9310SOL    HW228830   4.416   6.468   5.743
 9311SOL     OW28831   5.831   4.487   1.145
 9311SOL    HW128832   5.806   4.392   1.167
 9311SOL    HW228833   5.763   4.549   1.183
 9312SOL     OW28834   1.923   4.797   0.132
 9312SOL    HW128835   2.014   4.807   0.173
 9312SOL    HW228836   1.914   4.705   0.094
 9313SOL     OW28837   6.817   0.780   2.122
 9313SOL    HW128838   6.763   0.864   2.136
 9313SOL    HW228839   6.910   0.796   2.153
 9314SOL     OW28840   3.904   5.556   6.262
 9314SOL    HW128841   3.824   5.537   6.206
 9314SOL    HW228842   3.916   5.483   6.329
 9315SOL     OW28843   6.269   0.272   5.571
 9315SOL    HW128844   6.273   0.177   5.538
 9315SOL    HW228845   6.204   0.323   5.515
 9316SOL     OW28846   4.377   5.909   4.642
 9316SOL    HW128847   4.304   5.974   4.664
 9316SOL    HW228848   4.410   5.866   4.726
 9317SOL     OW28849   5.858   5.916   3.060
 9317SOL    HW128850   5.918   5.863   3.120
 9317SOL    HW228851   5.913   5.960   2.989
 9318SOL     OW28852   6.647   0.881   5.985
 9318SOL    HW128853   6.622   0.784   5.991
 9318SOL    HW228854   6.706   0.905   6.061
 9319SOL     OW28855   0.308   2.996   6.361
 9319SOL    HW128856   0.375   2.922   6.354
 9319SOL    HW228857   0.325   3.048   6.444
 9320SOL     OW28858   3.694   2.306   5.633
 9320SOL    HW128859   3.607   2.355   5.625
 9320SOL    HW228860   3.725   2.280   5.542
 9321SOL     OW28861   6.092   0.183   2.384
 9321SOL    HW128862   6.162   0.181   2.455
 9321SOL    HW228863   6.125   0.134   2.304
 9322SOL     OW28864   0.109   6.189   6.137
 9322SOL    HW128865   0.138   6.101   6.175
 9322SOL    HW228866   0.017   6.180   6.099
 9323SOL     OW28867   1.306   6.970   5.570
 9323SOL    HW128868   1.291   6.894   5.507
 9323SOL    HW228869   1.339   6.935   5.658
 9324SOL     OW28870   1.860   5.012   0.549
 9324SOL    HW128871   1.773   4.986   0.591
 9324SOL    HW228872   1.887   5.103   0.581
 9325SOL     OW28873   5.067   1.773   1.198
 9325SOL    HW128874   5.154   1.822   1.194
 9325SOL    HW228875   5.022   1.778   1.108
 9326SOL     OW28876   2.839   0.180   0.510
 9326SOL    HW128877   2.825   0.203   0.414
 9326SOL    HW228878   2.931   0.143   0.523
 9327SOL     OW28879   4.830   6.977   3.519
 9327SOL    HW128880   4.898   6.904   3.523
 9327SOL    HW228881   4.856   0.027   3.583
 9328SOL     OW28882   3.841   1.581   6.904
 9328SOL    HW128883   3.921   1.522   6.892
 9328SOL    HW228884   3.820   1.626   6.817
 9329SOL     OW28885   6.585   3.076   3.030
 9329SOL    HW128886   6.487   3.092   3.023
 9329SOL    HW228887   6.606   2.984   2.997
 9330SOL     OW28888   0.156   6.496   0.368
 9330SOL    HW128889   0.057   6.480   0.366
 9330SOL    HW228890   0.175   6.582   0.415
 9331SOL     OW28891   0.458   1.170   6.639
 9331SOL    HW128892   0.383   1.234   6.623
 9331SOL    HW228893   0.422   1.089   6.685
 9332SOL     OW28894   3.151   4.089   3.452
 9332SOL    HW128895   3.104   4.060   3.535
 9332SOL    HW228896   3.094   4.065   3.372
 9333SOL     OW28897   5.289   3.834   0.501
 9333SOL    HW128898   5.279   3.907   0.569
 9333SOL    HW228899   5.361   3.858   0.436
 9334SOL     OW28900   3.429   0.265   3.136
 9334SOL    HW128901   3.415   0.169   3.111
 9334SOL    HW228902   3.517   0.296   3.100
 9335SOL     OW28903   1.500   1.848   6.574
 9335SOL    HW128904   1.527   1.939   6.605
 9335SOL    HW228905   1.515   1.782   6.648
 9336SOL     OW28906   2.818   6.379   6.240
 9336SOL    HW128907   2.794   6.425   6.325
 9336SOL    HW228908   2.792   6.437   6.162
 9337SOL     OW28909   5.216   0.557   2.617
 9337SOL    HW128910   5.137   0.507   2.583
 9337SOL    HW228911   5.197   0.591   2.709
 9338SOL     OW28912   4.035   0.371   1.922
 9338SOL    HW128913   4.051   0.470   1.931
 9338SOL    HW228914   4.039   0.345   1.826
 9339SOL     OW28915   5.750   6.996   1.115
 9339SOL    HW128916   5.788   0.027   1.040
 9339SOL    HW228917   5.765   0.022   1.201
 9340SOL     OW28918   5.093   3.443   5.586
 9340SOL    HW128919   5.155   3.516   5.612
 9340SOL    HW228920   5.145   3.361   5.561
 9341SOL     OW28921   1.298   5.769   6.642
 9341SOL    HW128922   1.251   5.684   6.662
 9341SOL    HW228923   1.232   5.839   6.615
 9342SOL     OW28924   2.409   0.298   4.794
 9342SOL    HW128925   2.480   0.359   4.758
 9342SOL    HW228926   2.389   0.323   4.889
 9343SOL     OW28927   6.102   4.967   4.730
 9343SOL    HW128928   6.191   4.922   4.738
 9343SOL    HW228929   6.115   5.060   4.694
 9344SOL     OW28930   5.236   6.174   0.523
 9344SOL    HW128931   5.277   6.084   0.506
 9344SOL    HW228932   5.305   6.245   0.508
 9345SOL     OW28933   6.360   2.798   2.871
 9345SOL    HW128934   6.273   2.773   2.829
 9345SOL    HW228935   6.435   2.777   2.809
 9346SOL     OW28936   5.803   0.260   1.141
 9346SOL    HW128937   5.726   0.227   1.195
 9346SOL    HW228938   5.877   0.290   1.202
 9347SOL     OW28939   1.879   5.864   1.168
 9347SOL    HW128940   1.862   5.766   1.178
 9347SOL    HW228941   1.914   5.900   1.255
 9348SOL     OW28942   4.107   6.217   0.781
 9348SOL    HW128943   4.094   6.180   0.873
 9348SOL    HW228944   4.134   6.313   0.786
 9349SOL     OW28945   0.645   6.799   2.284
 9349SOL    HW128946   0.679   6.830   2.373
 9349SOL    HW228947   0.708   6.828   2.212
 9350SOL     OW28948   0.488   2.806   6.363
 9350SOL    HW128949   0.569   2.748   6.352
 9350SOL    HW228950   0.426   2.764   6.429
 9351SOL     OW28951   3.123   2.307   6.560
 9351SOL    HW128952   3.118   2.309   6.460
 9351SOL    HW228953   3.168   2.223   6.589
 9352SOL     OW28954   2.577   3.968   6.973
 9352SOL    HW128955   2.492   4.020   6.964
 9352SOL    HW228956   2.564   3.875   6.938
 9353SOL     OW28957   1.390   5.464   2.051
 9353SOL    HW128958   1.324   5.476   2.124
 9353SOL    HW228959   1.343   5.455   1.963
 9354SOL     OW28960   6.227   2.303   6.725
 9354SOL    HW128961   6.217   2.284   6.627
 9354SOL    HW228962   6.274   2.390   6.738
 9355SOL     OW28963   0.308   1.694   4.902
 9355SOL    HW128964   0.300   1.775   4.845
 9355SOL    HW228965   0.217   1.655   4.919
 9356SOL     OW28966   4.302   0.115   1.906
 9356SOL    HW128967   4.323   0.018   1.917
 9356SOL    HW228968   4.238   0.143   1.977
 9357SOL     OW28969   0.798   2.056   6.894
 9357SOL    HW128970   0.880   2.038   6.840
 9357SOL    HW228971   0.819   2.048   6.991
 9358SOL     OW28972   0.942   3.648   2.161
 9358SOL    HW128973   1.014   3.631   2.229
 9358SOL    HW228974   0.931   3.567   2.103
 9359SOL     OW28975   2.008   6.305   5.653
 9359SOL    HW128976   2.056   6.294   5.740
 9359SOL    HW228977   2.063   6.266   5.579
 9360SOL     OW28978   1.419   6.807   6.496
 9360SOL    HW128979   1.319   6.799   6.503
 9360SOL    HW228980   1.443   6.839   6.404
 9361SOL     OW28981   2.051   6.127   4.121
 9361SOL    HW128982   2.147   6.146   4.140
 9361SOL    HW228983   2.042   6.096   4.026
 9362SOL     OW28984   2.241   0.482   2.681
 9362SOL    HW128985   2.297   0.400   2.695
 9362SOL    HW228986   2.232   0.532   2.767
 9363SOL     OW28987   2.920   5.304   2.555
 9363SOL    HW128988   2.902   5.210   2.526
 9363SOL    HW228989   2.862   5.366   2.503
 9364SOL     OW28990   1.690   2.081   2.136
 9364SOL    HW128991   1.753   2.004   2.141
 9364SOL    HW228992   1.599   2.047   2.112
 9365SOL     OW28993   3.197   1.872   4.293
 9365SOL    HW128994   3.155   1.910   4.376
 9365SOL    HW228995   3.256   1.795   4.317
 9366SOL     OW28996   3.542   5.851   0.553
 9366SOL    HW128997   3.543   5.759   0.591
 9366SOL    HW228998   3.484   5.853   0.471
 9367SOL     OW28999   5.490   0.290   0.992
 9367SOL    HW129000   5.567   0.284   0.928
 9367SOL    HW229001   5.508   0.233   1.072
 9368SOL     OW29002   3.614   0.860   2.443
 9368SOL    HW129003   3.694   0.919   2.430
 9368SOL    HW229004   3.619   0.817   2.533
 9369SOL     OW29005   1.001   4.908   6.383
 9369SOL    HW129006   0.950   4.955   6.311
 9369SOL    HW229007   0.937   4.872   6.451
 9370SOL     OW29008   4.703   2.075   4.512
 9370SOL    HW129009   4.749   2.162   4.494
 9370SOL    HW229010   4.690   2.065   4.611
 9371SOL     OW29011   3.319   6.126   1.324
 9371SOL    HW129012   3.354   6.043   1.282
 9371SOL    HW229013   3.292   6.191   1.253
 9372SOL     OW29014   4.950   6.986   1.868
 9372SOL    HW129015   4.866   7.022   1.827
 9372SOL    HW229016   4.998   6.931   1.800
 9373SOL     OW29017   6.788   1.608   0.354
 9373SOL    HW129018   6.785   1.577   0.449
 9373SOL    HW229019   6.850   1.549   0.302
 9374SOL     OW29020   0.595   5.036   5.756
 9374SOL    HW129021   0.636   5.122   5.725
 9374SOL    HW229022   0.524   5.055   5.824
 9375SOL     OW29023   0.383   1.869   6.436
 9375SOL    HW129024   0.316   1.821   6.492
 9375SOL    HW229025   0.465   1.813   6.425
 9376SOL     OW29026   2.110   3.713   2.118
 9376SOL    HW129027   2.127   3.735   2.214
 9376SOL    HW229028   2.159   3.630   2.094
 9377SOL     OW29029   2.111   6.063   2.781
 9377SOL    HW129030   2.174   6.131   2.745
 9377SOL    HW229031   2.052   6.029   2.707
 9378SOL     OW29032   3.623   0.430   3.679
 9378SOL    HW129033   3.559   0.370   3.725
 9378SOL    HW229034   3.576   0.513   3.648
 9379SOL     OW29035   4.461   6.245   4.626
 9379SOL    HW129036   4.416   6.322   4.580
 9379SOL    HW229037   4.397   6.170   4.636
 9380SOL     OW29038   4.920   5.770   6.914
 9380SOL    HW129039   4.914   5.684   6.864
 9380SOL    HW229040   4.889   5.756   7.008
 9381SOL     OW29041   5.793   2.156   5.320
 9381SOL    HW129042   5.706   2.108   5.310
 9381SOL    HW229043   5.864   2.091   5.346
 9382SOL     OW29044   3.393   0.331   4.203
 9382SOL    HW129045   3.307   0.378   4.224
 9382SOL    HW229046   3.460   0.351   4.276
 9383SOL     OW29047   4.835   3.831   3.655
 9383SOL    HW129048   4.896   3.908   3.671
 9383SOL    HW229049   4.754   3.863   3.607
 9384SOL     OW29050   1.637   0.380   2.009
 9384SOL    HW129051   1.732   0.349   1.998
 9384SOL    HW229052   1.624   0.414   2.102
 9385SOL     OW29053   4.398   1.477   3.427
 9385SOL    HW129054   4.367   1.430   3.344
 9385SOL    HW229055   4.475   1.427   3.466
 9386SOL     OW29056   3.941   6.315   5.815
 9386SOL    HW129057   3.866   6.344   5.756
 9386SOL    HW229058   3.989   6.396   5.849
 9387SOL     OW29059   3.613   2.275   6.614
 9387SOL    HW129060   3.593   2.325   6.699
 9387SOL    HW229061   3.633   2.179   6.635
 9388SOL     OW29062   1.944   6.533   4.564
 9388SOL    HW129063   1.964   6.630   4.546
 9388SOL    HW229064   2.021   6.492   4.613
 9389SOL     OW29065   3.157   5.048   1.677
 9389SOL    HW129066   3.239   4.993   1.661
 9389SOL    HW229067   3.095   5.040   1.600
 9390SOL     OW29068   4.532   5.215   5.588
 9390SOL    HW129069   4.619   5.245   5.628
 9390SOL    HW229070   4.478   5.295   5.563
 9391SOL     OW29071   1.535   6.503   4.546
 9391SOL    HW129072   1.470   6.502   4.623
 9391SOL    HW229073   1.528   6.417   4.496
 9392SOL     OW29074   5.490   4.627   2.932
 9392SOL    HW129075   5.480   4.623   2.833
 9392SOL    HW229076   5.584   4.648   2.956
 9393SOL     OW29077   2.872   6.638   5.407
 9393SOL    HW129078   2.827   6.555   5.374
 9393SOL    HW229079   2.821   6.718   5.375
 9394SOL     OW29080   4.752   6.759   0.871
 9394SOL    HW129081   4.699   6.813   0.937
 9394SOL    HW229082   4.722   6.781   0.778
 9395SOL     OW29083   2.376   2.202   0.673
 9395SOL    HW129084   2.304   2.192   0.604
 9395SOL    HW229085   2.380   2.120   0.729
 9396SOL     OW29086   1.099   6.290   6.390
 9396SOL    HW129087   1.100   6.287   6.490
 9396SOL    HW229088   1.060   6.205   6.354
 9397SOL     OW29089   4.043   0.704   6.684
 9397SOL    HW129090   4.123   0.764   6.688
 9397SOL    HW229091   4.052   0.632   6.753
 9398SOL     OW29092   0.190   1.469   6.845
 9398SOL    HW129093   0.196   1.414   6.762
 9398SOL    HW229094   0.282   1.487   6.880
 9399SOL     OW29095   2.068   2.718   3.833
 9399SOL    HW129096   2.041   2.785   3.902
 9399SOL    HW229097   2.071   2.762   3.743
 9400SOL     OW29098   5.787   1.506   0.602
 9400SOL    HW129099   5.885   1.490   0.594
 9400SOL    HW229100   5.746   1.507   0.510
 9401SOL     OW29101   0.125   1.665   2.977
 9401SOL    HW129102   0.103   1.658   2.880
 9401SOL    HW229103   0.208   1.613   2.996
 9402SOL     OW29104   1.387   5.902   3.318
 9402SOL    HW129105   1.447   5.843   3.265
 9402SOL    HW229106   1.330   5.847   3.378
 9403SOL     OW29107   6.259   2.891   1.876
 9403SOL    HW129108   6.269   2.925   1.970
 9403SOL    HW229109   6.228   2.796   1.878
 9404SOL     OW29110   1.993   3.352   0.905
 9404SOL    HW129111   1.899   3.319   0.895
 9404SOL    HW229112   1.994   3.452   0.902
 9405SOL     OW29113   0.342   5.029   5.555
 9405SOL    HW129114   0.317   4.950   5.499
 9405SOL    HW229115   0.269   5.049   5.620
 9406SOL     OW29116   6.878   2.802   0.060
 9406SOL    HW129117   6.801   2.863   0.076
 9406SOL    HW229118   6.943   2.846   7.021
 9407SOL     OW29119   1.317   5.043   5.253
 9407SOL    HW129120   1.248   4.971   5.254
 9407SOL    HW229121   1.384   5.024   5.182
 9408SOL     OW29122   6.558   4.457   4.487
 9408SOL    HW129123   6.459   4.467   4.499
 9408SOL    HW229124   6.602   4.450   4.577
 9409SOL     OW29125   0.118   5.302   2.190
 9409SOL    HW129126   0.203   5.276   2.145
 9409SOL    HW229127   0.138   5.368   2.263
 9410SOL     OW29128   4.225   1.035   1.273
 9410SOL    HW129129   4.224   1.079   1.363
 9410SOL    HW229130   4.318   1.002   1.254
 9411SOL     OW29131   2.910   3.355   3.918
 9411SOL    HW129132   2.872   3.445   3.898
 9411SOL    HW229133   2.902   3.297   3.836
 9412SOL     OW29134   6.251   6.748   1.628
 9412SOL    HW129135   6.269   6.744   1.529
 9412SOL    HW229136   6.157   6.778   1.643
 9413SOL     OW29137   4.212   4.715   3.609
 9413SOL    HW129138   4.177   4.621   3.610
 9413SOL    HW229139   4.312   4.714   3.604
 9414SOL     OW29140   1.722   1.903   4.111
 9414SOL    HW129141   1.732   1.852   4.026
 9414SOL    HW229142   1.796   1.880   4.174
 9415SOL     OW29143   3.938   1.317   2.172
 9415SOL    HW129144   3.875   1.301   2.248
 9415SOL    HW229145   3.970   1.229   2.136
 9416SOL     OW29146   6.502   5.271   6.557
 9416SOL    HW129147   6.556   5.317   6.627
 9416SOL    HW229148   6.550   5.189   6.526
 9417SOL     OW29149   4.049   6.218   1.751
 9417SOL    HW129150   4.072   6.256   1.661
 9417SOL    HW229151   4.123   6.158   1.781
 9418SOL     OW29152   3.219   2.126   4.568
 9418SOL    HW129153   3.272   2.122   4.653
 9418SOL    HW229154   3.168   2.042   4.557
 9419SOL     OW29155   2.288   2.941   6.492
 9419SOL    HW129156   2.359   2.878   6.523
 9419SOL    HW229157   2.298   2.957   6.394
 9420SOL     OW29158   6.036   4.064   6.906
 9420SOL    HW129159   6.008   3.997   6.975
 9420SOL    HW229160   6.131   4.092   6.924
 9421SOL     OW29161   3.436   6.156   5.432
 9421SOL    HW129162   3.462   6.128   5.525
 9421SOL    HW229163   3.344   6.122   5.411
 9422SOL     OW29164   2.623   5.734   4.581
 9422SOL    HW129165   2.605   5.646   4.535
 9422SOL    HW229166   2.714   5.767   4.553
 9423SOL     OW29167   4.824   4.987   3.883
 9423SOL    HW129168   4.850   4.916   3.818
 9423SOL    HW229169   4.786   5.066   3.835
 9424SOL     OW29170   5.543   0.711   4.389
 9424SOL    HW129171   5.560   0.729   4.486
 9424SOL    HW229172   5.613   0.757   4.334
 9425SOL     OW29173   6.888   5.349   0.743
 9425SOL    HW129174   6.859   5.441   0.767
 9425SOL    HW229175   6.872   5.288   0.821
 9426SOL     OW29176   6.833   2.223   6.705
 9426SOL    HW129177   6.898   2.204   6.780
 9426SOL    HW229178   6.752   2.165   6.716
 9427SOL     OW29179   4.100   5.245   3.167
 9427SOL    HW129180   4.142   5.171   3.115
 9427SOL    HW229181   4.170   5.312   3.193
 9428SOL     OW29182   6.725   6.859   5.976
 9428SOL    HW129183   6.726   6.959   5.986
 9428SOL    HW229184   6.812   6.828   5.938
 9429SOL     OW29185   2.433   1.879   3.902
 9429SOL    HW129186   2.465   1.855   3.994
 9429SOL    HW229187   2.353   1.823   3.880
 9430SOL     OW29188   0.024   1.890   4.491
 9430SOL    HW129189   6.993   1.969   4.519
 9430SOL    HW229190   0.096   1.918   4.428
 9431SOL     OW29191   0.157   5.117   5.731
 9431SOL    HW129192   0.065   5.091   5.701
 9431SOL    HW229193   0.163   5.217   5.737
 9432SOL     OW29194   6.555   1.137   3.903
 9432SOL    HW129195   6.576   1.048   3.863
 9432SOL    HW229196   6.456   1.148   3.909
 9433SOL     OW29197   4.504   5.618   2.785
 9433SOL    HW129198   4.481   5.715   2.785
 9433SOL    HW229199   4.448   5.569   2.852
 9434SOL     OW29200   5.338   5.318   4.353
 9434SOL    HW129201   5.290   5.235   4.380
 9434SOL    HW229202   5.326   5.333   4.255
 9435SOL     OW29203   0.267   2.814   2.064
 9435SOL    HW129204   0.297   2.849   2.153
 9435SOL    HW229205   0.346   2.793   2.008
 9436SOL     OW29206   1.682   0.274   3.253
 9436SOL    HW129207   1.743   0.259   3.331
 9436SOL    HW229208   1.736   0.277   3.169
 9437SOL     OW29209   6.262   5.585   4.863
 9437SOL    HW129210   6.277   5.683   4.874
 9437SOL    HW229211   6.330   5.548   4.799
 9438SOL     OW29212   3.859   6.015   2.489
 9438SOL    HW129213   3.906   5.938   2.531
 9438SOL    HW229214   3.804   5.983   2.412
 9439SOL     OW29215   1.276   3.123   0.942
 9439SOL    HW129216   1.292   3.185   0.865
 9439SOL    HW229217   1.190   3.074   0.929
 9440SOL     OW29218   2.257   5.229   3.228
 9440SOL    HW129219   2.202   5.202   3.307
 9440SOL    HW229220   2.197   5.254   3.152
 9441SOL     OW29221   0.175   6.070   4.967
 9441SOL    HW129222   0.224   6.123   5.037
 9441SOL    HW229223   0.121   6.132   4.911
 9442SOL     OW29224   4.485   3.782   0.593
 9442SOL    HW129225   4.391   3.794   0.561
 9442SOL    HW229226   4.546   3.838   0.538
 9443SOL     OW29227   1.750   4.294   3.082
 9443SOL    HW129228   1.725   4.340   3.167
 9443SOL    HW229229   1.848   4.306   3.066
 9444SOL     OW29230   1.007   4.475   6.863
 9444SOL    HW129231   1.067   4.396   6.851
 9444SOL    HW229232   1.001   4.525   6.776
 9445SOL     OW29233   0.010   1.252   4.641
 9445SOL    HW129234   6.953   1.305   4.671
 9445SOL    HW229235   0.025   1.177   4.706
 9446SOL     OW29236   6.083   5.072   3.004
 9446SOL    HW129237   6.179   5.060   3.029
 9446SOL    HW229238   6.069   5.042   2.910
 9447SOL     OW29239   5.034   4.519   2.324
 9447SOL    HW129240   5.006   4.443   2.266
 9447SOL    HW229241   5.013   4.605   2.279
 9448SOL     OW29242   5.833   0.436   5.163
 9448SOL    HW129243   5.906   0.503   5.174
 9448SOL    HW229244   5.811   0.425   5.066
 9449SOL     OW29245   6.004   6.871   1.568
 9449SOL    HW129246   5.984   6.956   1.617
 9449SOL    HW229247   5.921   6.816   1.561
 9450SOL     OW29248   1.879   5.630   3.952
 9450SOL    HW129249   1.829   5.594   4.030
 9450SOL    HW229250   1.968   5.665   3.982
 9451SOL     OW29251   3.216   6.262   6.491
 9451SOL    HW129252   3.132   6.214   6.466
 9451SOL    HW229253   3.276   6.269   6.411
 9452SOL     OW29254   6.841   4.206   0.339
 9452SOL    HW129255   6.869   4.128   0.283
 9452SOL    HW229256   6.764   4.179   0.397
 9453SOL     OW29257   4.839   5.813   2.687
 9453SOL    HW129258   4.770   5.742   2.671
 9453SOL    HW229259   4.801   5.902   2.661
 9454SOL     OW29260   5.202   3.348   0.546
 9454SOL    HW129261   5.274   3.417   0.554
 9454SOL    HW229262   5.120   3.380   0.592
 9455SOL     OW29263   3.239   2.088   2.478
 9455SOL    HW129264   3.182   2.069   2.558
 9455SOL    HW229265   3.190   2.148   2.416
 9456SOL     OW29266   6.837   3.357   1.635
 9456SOL    HW129267   6.932   3.373   1.605
 9456SOL    HW229268   6.776   3.420   1.587
 9457SOL     OW29269   0.293   5.452   3.874
 9457SOL    HW129270   0.375   5.396   3.886
 9457SOL    HW229271   0.301   5.505   3.789
 9458SOL     OW29272   6.069   3.405   0.498
 9458SOL    HW129273   6.143   3.382   0.561
 9458SOL    HW229274   6.030   3.493   0.524
 9459SOL     OW29275   4.446   4.753   5.345
 9459SOL    HW129276   4.522   4.730   5.406
 9459SOL    HW229277   4.436   4.853   5.340
 9460SOL     OW29278   1.572   1.940   3.078
 9460SOL    HW129279   1.643   1.964   3.144
 9460SOL    HW229280   1.614   1.931   2.987
 9461SOL     OW29281   0.867   2.293   2.460
 9461SOL    HW129282   0.777   2.283   2.502
 9461SOL    HW229283   0.867   2.372   2.399
 9462SOL     OW29284   1.548   1.669   4.426
 9462SOL    HW129285   1.591   1.748   4.382
 9462SOL    HW229286   1.539   1.594   4.360
 9463SOL     OW29287   5.556   5.398   0.932
 9463SOL    HW129288   5.631   5.462   0.911
 9463SOL    HW229289   5.536   5.342   0.851
 9464SOL     OW29290   1.068   0.703   1.201
 9464SOL    HW129291   0.986   0.719   1.256
 9464SOL    HW229292   1.046   0.719   1.104
 9465SOL     OW29293   6.391   4.435   0.859
 9465SOL    HW129294   6.320   4.451   0.792
 9465SOL    HW229295   6.458   4.370   0.824
 9466SOL     OW29296   3.301   4.900   5.823
 9466SOL    HW129297   3.398   4.878   5.818
 9466SOL    HW229298   3.267   4.921   5.731
 9467SOL     OW29299   2.282   3.691   0.983
 9467SOL    HW129300   2.234   3.778   0.972
 9467SOL    HW229301   2.336   3.672   0.902
 9468SOL     OW29302   6.489   1.805   0.670
 9468SOL    HW129303   6.580   1.842   0.651
 9468SOL    HW229304   6.462   1.830   0.763
 9469SOL     OW29305   1.255   6.450   1.308
 9469SOL    HW129306   1.166   6.427   1.267
 9469SOL    HW229307   1.262   6.407   1.398
 9470SOL     OW29308   3.607   4.324   0.422
 9470SOL    HW129309   3.604   4.271   0.507
 9470SOL    HW229310   3.603   4.261   0.344
 9471SOL     OW29311   6.261   3.538   4.953
 9471SOL    HW129312   6.174   3.583   4.933
 9471SOL    HW229313   6.264   3.450   4.905
 9472SOL     OW29314   1.439   3.335   6.095
 9472SOL    HW129315   1.402   3.333   6.188
 9472SOL    HW229316   1.500   3.414   6.085
 9473SOL     OW29317   3.247   4.643   0.223
 9473SOL    HW129318   3.165   4.678   0.268
 9473SOL    HW229319   3.226   4.621   0.128
 9474SOL     OW29320   5.819   2.754   1.301
 9474SOL    HW129321   5.835   2.837   1.354
 9474SOL    HW229322   5.838   2.772   1.204
 9475SOL     OW29323   4.834   3.839   6.065
 9475SOL    HW129324   4.799   3.794   5.983
 9475SOL    HW229325   4.804   3.789   6.146
 9476SOL     OW29326   3.932   4.104   6.183
 9476SOL    HW129327   3.939   4.004   6.189
 9476SOL    HW229328   3.843   4.128   6.146
 9477SOL     OW29329   2.156   3.941   1.016
 9477SOL    HW129330   2.058   3.940   0.996
 9477SOL    HW229331   2.173   4.000   1.095
 9478SOL     OW29332   5.485   2.330   0.203
 9478SOL    HW129333   5.405   2.378   0.167
 9478SOL    HW229334   5.456   2.258   0.265
 9479SOL     OW29335   3.668   0.932   1.727
 9479SOL    HW129336   3.649   1.029   1.740
 9479SOL    HW229337   3.762   0.912   1.753
 9480SOL     OW29338   6.394   6.682   0.105
 9480SOL    HW129339   6.342   6.642   0.180
 9480SOL    HW229340   6.376   6.631   0.021
 9481SOL     OW29341   4.181   0.774   3.484
 9481SOL    HW129342   4.214   0.787   3.390
 9481SOL    HW229343   4.083   0.755   3.482
 9482SOL     OW29344   6.238   6.399   0.065
 9482SOL    HW129345   6.335   6.381   0.080
 9482SOL    HW229346   6.199   6.442   0.147
 9483SOL     OW29347   6.819   0.288   1.019
 9483SOL    HW129348   6.906   0.255   1.056
 9483SOL    HW229349   6.836   0.346   0.940
 9484SOL     OW29350   3.892   6.227   5.331
 9484SOL    HW129351   3.866   6.320   5.359
 9484SOL    HW229352   3.828   6.194   5.262
 9485SOL     OW29353   6.630   1.336   0.106
 9485SOL    HW129354   6.560   1.265   0.112
 9485SOL    HW229355   6.594   1.421   0.143
 9486SOL     OW29356   5.140   5.667   0.398
 9486SOL    HW129357   5.177   5.588   0.447
 9486SOL    HW229358   5.103   5.638   0.310
 9487SOL     OW29359   2.949   3.416   3.443
 9487SOL    HW129360   2.971   3.321   3.422
 9487SOL    HW229361   2.929   3.426   3.540
 9488SOL     OW29362   1.313   1.498   0.807
 9488SOL    HW129363   1.374   1.575   0.826
 9488SOL    HW229364   1.339   1.455   0.720
 9489SOL     OW29365   5.260   3.854   0.136
 9489SOL    HW129366   5.229   3.771   0.183
 9489SOL    HW229367   5.269   3.929   0.203
 9490SOL     OW29368   5.846   4.065   4.239
 9490SOL    HW129369   5.749   4.063   4.213
 9490SOL    HW229370   5.902   4.041   4.160
 9491SOL     OW29371   4.978   6.422   3.080
 9491SOL    HW129372   4.923   6.436   2.997
 9491SOL    HW229373   5.066   6.468   3.070
 9492SOL     OW29374   4.741   2.614   4.276
 9492SOL    HW129375   4.832   2.614   4.236
 9492SOL    HW229376   4.694   2.528   4.256
 9493SOL     OW29377   4.204   6.959   2.760
 9493SOL    HW129378   4.253   0.020   2.781
 9493SOL    HW229379   4.107   6.969   2.784
 9494SOL     OW29380   5.485   2.311   1.981
 9494SOL    HW129381   5.449   2.228   1.939
 9494SOL    HW229382   5.540   2.285   2.061
 9495SOL     OW29383   0.732   1.390   2.432
 9495SOL    HW129384   0.653   1.342   2.394
 9495SOL    HW229385   0.741   1.480   2.390
 9496SOL     OW29386   4.934   2.081   1.839
 9496SOL    HW129387   4.975   2.000   1.880
 9496SOL    HW229388   4.896   2.139   1.911
 9497SOL     OW29389   5.018   4.939   4.823
 9497SOL    HW129390   4.998   4.882   4.902
 9497SOL    HW229391   5.116   4.949   4.812
 9498SOL     OW29392   0.336   5.741   4.029
 9498SOL    HW129393   0.364   5.799   4.105
 9498SOL    HW229394   0.240   5.713   4.042
 9499SOL     OW29395   6.346   5.846   5.828
 9499SOL    HW129396   6.417   5.831   5.759
 9499SOL    HW229397   6.271   5.898   5.787
 9500SOL     OW29398   3.971   1.261   0.916
 9500SOL    HW129399   4.063   1.234   0.946
 9500SOL    HW229400   3.916   1.283   0.997
 9501SOL     OW29401   1.385   2.876   4.977
 9501SOL    HW129402   1.423   2.899   5.067
 9501SOL    HW229403   1.381   2.776   4.967
 9502SOL     OW29404   5.684   4.730   5.099
 9502SOL    HW129405   5.759   4.719   5.164
 9502SOL    HW229406   5.597   4.728   5.147
 9503SOL     OW29407   0.842   2.647   6.896
 9503SOL    HW129408   0.793   2.561   6.910
 9503SOL    HW229409   0.932   2.627   6.858
 9504SOL     OW29410   6.518   5.152   2.085
 9504SOL    HW129411   6.612   5.177   2.111
 9504SOL    HW229412   6.485   5.080   2.146
 9505SOL     OW29413   4.117   5.025   5.368
 9505SOL    HW129414   4.078   5.070   5.448
 9505SOL    HW229415   4.055   4.953   5.337
 9506SOL     OW29416   2.866   1.456   0.943
 9506SOL    HW129417   2.829   1.531   0.997
 9506SOL    HW229418   2.925   1.493   0.871
 9507SOL     OW29419   5.466   0.287   1.897
 9507SOL    HW129420   5.442   0.202   1.942
 9507SOL    HW229421   5.403   0.304   1.822
 9508SOL     OW29422   5.369   1.954   2.840
 9508SOL    HW129423   5.369   2.053   2.855
 9508SOL    HW229424   5.459   1.917   2.860
 9509SOL     OW29425   6.515   0.031   3.275
 9509SOL    HW129426   6.553   0.124   3.279
 9509SOL    HW229427   6.489   0.002   3.367
 9510SOL     OW29428   1.084   2.305   3.291
 9510SOL    HW129429   1.100   2.394   3.334
 9510SOL    HW229430   1.133   2.301   3.204
 9511SOL     OW29431   1.958   1.532   0.773
 9511SOL    HW129432   2.003   1.463   0.716
 9511SOL    HW229433   2.025   1.603   0.798
 9512SOL     OW29434   6.502   1.987   1.126
 9512SOL    HW129435   6.537   2.077   1.150
 9512SOL    HW229436   6.447   1.951   1.202
 9513SOL     OW29437   4.160   5.089   6.666
 9513SOL    HW129438   4.080   5.138   6.632
 9513SOL    HW229439   4.186   5.018   6.601
 9514SOL     OW29440   3.122   3.200   0.251
 9514SOL    HW129441   3.175   3.145   0.187
 9514SOL    HW229442   3.073   3.272   0.202
 9515SOL     OW29443   1.403   5.057   4.172
 9515SOL    HW129444   1.325   5.119   4.185
 9515SOL    HW229445   1.441   5.071   4.081
 9516SOL     OW29446   6.556   3.759   0.459
 9516SOL    HW129447   6.653   3.738   0.468
 9516SOL    HW229448   6.509   3.683   0.415
 9517SOL     OW29449   0.839   5.114   0.413
 9517SOL    HW129450   0.808   5.062   0.492
 9517SOL    HW229451   0.911   5.064   0.366
 9518SOL     OW29452   1.235   1.336   0.127
 9518SOL    HW129453   1.176   1.256   0.116
 9518SOL    HW229454   1.179   1.417   0.143
 9519SOL     OW29455   1.225   2.554   5.044
 9519SOL    HW129456   1.321   2.581   5.034
 9519SOL    HW229457   1.168   2.611   4.984
 9520SOL     OW29458   3.593   6.444   1.937
 9520SOL    HW129459   3.677   6.402   1.902
 9520SOL    HW229460   3.521   6.436   1.868
 9521SOL     OW29461   5.406   5.618   4.177
 9521SOL    HW129462   5.407   5.715   4.154
 9521SOL    HW229463   5.371   5.605   4.269
 9522SOL     OW29464   3.651   5.820   0.901
 9522SOL    HW129465   3.661   5.752   0.829
 9522SOL    HW229466   3.735   5.873   0.909
 9523SOL     OW29467   3.671   5.538   4.527
 9523SOL    HW129468   3.711   5.534   4.435
 9523SOL    HW229469   3.575   5.563   4.520
 9524SOL     OW29470   4.057   3.020   0.776
 9524SOL    HW129471   4.050   3.115   0.805
 9524SOL    HW229472   4.100   2.966   0.848
 9525SOL     OW29473   3.263   0.870   6.891
 9525SOL    HW129474   3.358   0.877   6.921
 9525SOL    HW229475   3.217   0.799   6.944
 9526SOL     OW29476   5.631   5.242   2.370
 9526SOL    HW129477   5.588   5.330   2.348
 9526SOL    HW229478   5.680   5.208   2.290
 9527SOL     OW29479   6.710   2.154   1.896
 9527SOL    HW129480   6.764   2.122   1.819
 9527SOL    HW229481   6.626   2.196   1.863
 9528SOL     OW29482   6.869   1.091   2.370
 9528SOL    HW129483   6.936   1.018   2.357
 9528SOL    HW229484   6.916   1.174   2.401
 9529SOL     OW29485   0.836   3.627   5.844
 9529SOL    HW129486   0.900   3.614   5.769
 9529SOL    HW229487   0.869   3.700   5.904
 9530SOL     OW29488   1.159   2.103   3.880
 9530SOL    HW129489   1.200   2.079   3.792
 9530SOL    HW229490   1.160   2.203   3.891
 9531SOL     OW29491   3.636   6.595   2.584
 9531SOL    HW129492   3.572   6.611   2.509
 9531SOL    HW229493   3.728   6.622   2.555
 9532SOL     OW29494   1.974   0.542   2.037
 9532SOL    HW129495   2.015   0.496   2.116
 9532SOL    HW229496   1.929   0.626   2.067
 9533SOL     OW29497   1.868   0.816   5.051
 9533SOL    HW129498   1.771   0.814   5.027
 9533SOL    HW229499   1.901   0.722   5.062
 9534SOL     OW29500   4.892   2.639   4.822
 9534SOL    HW129501   4.802   2.679   4.839
 9534SOL    HW229502   4.947   2.703   4.769
 9535SOL     OW29503   2.265   1.643   5.801
 9535SOL    HW129504   2.187   1.589   5.833
 9535SOL    HW229505   2.334   1.583   5.761
 9536SOL     OW29506   1.823   6.492   5.560
 9536SOL    HW129507   1.910   6.443   5.568
 9536SOL    HW229508   1.786   6.479   5.469
 9537SOL     OW29509   2.921   6.810   0.849
 9537SOL    HW129510   2.932   6.907   0.826
 9537SOL    HW229511   2.929   6.798   0.948
 9538SOL     OW29512   6.510   3.000   3.953
 9538SOL    HW129513   6.565   3.079   3.929
 9538SOL    HW229514   6.558   2.916   3.927
 9539SOL     OW29515   0.901   6.012   0.933
 9539SOL    HW129516   0.878   5.988   0.838
 9539SOL    HW229517   0.983   5.961   0.960
 9540SOL     OW29518   4.889   4.377   4.912
 9540SOL    HW129519   4.873   4.413   4.820
 9540SOL    HW229520   4.840   4.291   4.924
 9541SOL     OW29521   2.130   2.465   3.713
 9541SOL    HW129522   2.091   2.550   3.749
 9541SOL    HW229523   2.056   2.404   3.683
 9542SOL     OW29524   5.012   3.694   4.291
 9542SOL    HW129525   5.022   3.622   4.359
 9542SOL    HW229526   5.091   3.692   4.229
 9543SOL     OW29527   5.183   2.030   2.455
 9543SOL    HW129528   5.102   1.971   2.456
 9543SOL    HW229529   5.154   2.126   2.461
 9544SOL     OW29530   3.706   1.759   1.997
 9544SOL    HW129531   3.699   1.859   1.992
 9544SOL    HW229532   3.802   1.732   1.993
 9545SOL     OW29533   6.909   0.211   4.076
 9545SOL    HW129534   6.883   0.288   4.134
 9545SOL    HW229535   6.828   0.157   4.054
 9546SOL     OW29536   3.121   5.276   0.622
 9546SOL    HW129537   3.021   5.281   0.624
 9546SOL    HW229538   3.149   5.181   0.610
 9547SOL     OW29539   0.138   6.278   3.401
 9547SOL    HW129540   0.191   6.204   3.444
 9547SOL    HW229541   0.199   6.353   3.377
 9548SOL     OW29542   4.616   6.145   2.765
 9548SOL    HW129543   4.678   6.184   2.833
 9548SOL    HW229544   4.545   6.212   2.743
 9549SOL     OW29545   2.619   6.062   0.696
 9549SOL    HW129546   2.574   5.977   0.724
 9549SOL    HW229547   2.572   6.140   0.738
 9550SOL     OW29548   0.943   1.860   0.466
 9550SOL    HW129549   0.997   1.823   0.542
 9550SOL    HW229550   0.948   1.798   0.388
 9551SOL     OW29551   1.928   6.239   4.890
 9551SOL    HW129552   1.893   6.277   4.805
 9551SOL    HW229553   1.858   6.245   4.961
 9552SOL     OW29554   1.129   5.350   3.354
 9552SOL    HW129555   1.195   5.288   3.312
 9552SOL    HW229556   1.074   5.394   3.283
 9553SOL     OW29557   5.783   4.288   4.644
 9553SOL    HW129558   5.853   4.257   4.579
 9553SOL    HW229559   5.805   4.253   4.735
 9554SOL     OW29560   2.137   1.591   2.173
 9554SOL    HW129561   2.084   1.633   2.099
 9554SOL    HW229562   2.145   1.656   2.249
 9555SOL     OW29563   6.978   2.281   0.134
 9555SOL    HW129564   6.911   2.331   0.188
 9555SOL    HW229565   0.017   2.231   0.195
 9556SOL     OW29566   1.767   1.818   1.918
 9556SOL    HW129567   1.772   1.826   2.017
 9556SOL    HW229568   1.709   1.890   1.881
 9557SOL     OW29569   5.633   1.673   1.695
 9557SOL    HW129570   5.539   1.681   1.662
 9557SOL    HW229571   5.690   1.740   1.649
 9558SOL     OW29572   6.536   5.285   2.443
 9558SOL    HW129573   6.554   5.279   2.541
 9558SOL    HW229574   6.440   5.263   2.426
 9559SOL     OW29575   6.551   3.067   2.580
 9559SOL    HW129576   6.639   3.110   2.562
 9559SOL    HW229577   6.548   2.976   2.538
 9560SOL     OW29578   3.334   1.588   4.048
 9560SOL    HW129579   3.335   1.646   3.967
 9560SOL    HW229580   3.270   1.626   4.115
 9561SOL     OW29581   3.958   0.131   1.147
 9561SOL    HW129582   4.044   0.096   1.185
 9561SOL    HW229583   3.890   0.139   1.220
 9562SOL     OW29584   5.988   5.674   3.211
 9562SOL    HW129585   5.985   5.715   3.302
 9562SOL    HW229586   5.938   5.588   3.212
 9563SOL     OW29587   6.592   5.791   6.795
 9563SOL    HW129588   6.512   5.833   6.753
 9563SOL    HW229589   6.675   5.818   6.746
 9564SOL     OW29590   2.456   0.038   6.917
 9564SOL    HW129591   2.426   0.133   6.911
 9564SOL    HW229592   2.522   0.019   6.845
 9565SOL     OW29593   3.841   5.829   4.248
 9565SOL    HW129594   3.870   5.868   4.335
 9565SOL    HW229595   3.872   5.886   4.173
 9566SOL     OW29596   2.951   4.914   5.039
 9566SOL    HW129597   2.934   4.816   5.028
 9566SOL    HW229598   2.907   4.946   5.123
 9567SOL     OW29599   6.132   5.431   5.840
 9567SOL    HW129600   6.119   5.515   5.892
 9567SOL    HW229601   6.104   5.446   5.745
 9568SOL     OW29602   4.810   3.854   6.702
 9568SOL    HW129603   4.841   3.761   6.725
 9568SOL    HW229604   4.870   3.921   6.747
 9569SOL     OW29605   6.383   0.881   0.727
 9569SOL    HW129606   6.441   0.959   0.701
 9569SOL    HW229607   6.441   0.801   0.744
 9570SOL     OW29608   0.354   0.487   0.098
 9570SOL    HW129609   0.389   0.443   0.181
 9570SOL    HW229610   0.427   0.539   0.055
 9571SOL     OW29611   2.443   4.002   0.495
 9571SOL    HW129612   2.469   4.059   0.417
 9571SOL    HW229613   2.459   3.906   0.473
 9572SOL     OW29614   1.689   4.893   1.022
 9572SOL    HW129615   1.634   4.973   1.048
 9572SOL    HW229616   1.628   4.822   0.986
 9573SOL     OW29617   0.679   2.341   1.378
 9573SOL    HW129618   0.751   2.334   1.309
 9573SOL    HW229619   0.591   2.319   1.337
 9574SOL     OW29620   2.298   1.962   5.452
 9574SOL    HW129621   2.354   1.921   5.525
 9574SOL    HW229622   2.302   2.061   5.460
 9575SOL     OW29623   5.246   0.782   1.678
 9575SOL    HW129624   5.192   0.719   1.735
 9575SOL    HW229625   5.311   0.729   1.624
 9576SOL     OW29626   3.465   1.969   5.815
 9576SOL    HW129627   3.439   1.906   5.888
 9576SOL    HW229628   3.495   1.917   5.735
 9577SOL     OW29629   0.768   6.135   3.193
 9577SOL    HW129630   0.802   6.211   3.248
 9577SOL    HW229631   0.669   6.126   3.205
 9578SOL     OW29632   5.801   3.793   1.999
 9578SOL    HW129633   5.857   3.713   1.979
 9578SOL    HW229634   5.750   3.778   2.084
 9579SOL     OW29635   1.047   6.395   2.668
 9579SOL    HW129636   1.032   6.493   2.680
 9579SOL    HW229637   1.093   6.359   2.749
 9580SOL     OW29638   4.263   3.836   6.187
 9580SOL    HW129639   4.345   3.835   6.129
 9580SOL    HW229640   4.289   3.865   6.279
 9581SOL     OW29641   1.513   4.765   6.412
 9581SOL    HW129642   1.566   4.688   6.376
 9581SOL    HW229643   1.416   4.742   6.411
 9582SOL     OW29644   4.247   5.462   4.707
 9582SOL    HW129645   4.209   5.505   4.625
 9582SOL    HW229646   4.298   5.530   4.760
 9583SOL     OW29647   2.314   4.358   2.036
 9583SOL    HW129648   2.219   4.389   2.032
 9583SOL    HW229649   2.375   4.437   2.036
 9584SOL     OW29650   5.956   5.482   6.757
 9584SOL    HW129651   5.958   5.542   6.837
 9584SOL    HW229652   6.017   5.404   6.772
 9585SOL     OW29653   6.503   0.158   4.536
 9585SOL    HW129654   6.583   0.118   4.581
 9585SOL    HW229655   6.465   0.231   4.593
 9586SOL     OW29656   5.655   3.487   3.415
 9586SOL    HW129657   5.689   3.485   3.321
 9586SOL    HW229658   5.645   3.582   3.445
 9587SOL     OW29659   5.203   6.428   2.256
 9587SOL    HW129660   5.151   6.342   2.251
 9587SOL    HW229661   5.300   6.407   2.268
 9588SOL     OW29662   6.753   0.696   2.596
 9588SOL    HW129663   6.704   0.666   2.678
 9588SOL    HW229664   6.850   0.675   2.606
 9589SOL     OW29665   2.358   1.187   6.254
 9589SOL    HW129666   2.411   1.192   6.170
 9589SOL    HW229667   2.406   1.237   6.327
 9590SOL     OW29668   6.937   4.530   4.861
 9590SOL    HW129669   6.958   4.612   4.915
 9590SOL    HW229670   6.921   4.453   4.922
 9591SOL     OW29671   1.709   4.731   2.430
 9591SOL    HW129672   1.656   4.648   2.413
 9591SOL    HW229673   1.729   4.775   2.343
 9592SOL     OW29674   5.345   5.387   2.278
 9592SOL    HW129675   5.279   5.398   2.352
 9592SOL    HW229676   5.426   5.442   2.297
 9593SOL     OW29677   1.324   2.548   4.235
 9593SOL    HW129678   1.227   2.573   4.232
 9593SOL    HW229679   1.379   2.631   4.226
 9594SOL     OW29680   6.288   6.830   2.031
 9594SOL    HW129681   6.235   6.756   2.073
 9594SOL    HW229682   6.302   6.903   2.098
 9595SOL     OW29683   0.909   4.127   4.581
 9595SOL    HW129684   0.910   4.202   4.516
 9595SOL    HW229685   0.878   4.160   4.670
 9596SOL     OW29686   4.603   5.656   3.582
 9596SOL    HW129687   4.649   5.653   3.670
 9596SOL    HW229688   4.660   5.611   3.513
 9597SOL     OW29689   1.957   4.056   1.244
 9597SOL    HW129690   1.919   4.015   1.161
 9597SOL    HW229691   2.049   4.090   1.225
 9598SOL     OW29692   6.817   5.189   5.910
 9598SOL    HW129693   6.727   5.229   5.923
 9598SOL    HW229694   6.885   5.244   5.959
 9599SOL     OW29695   5.426   2.194   4.680
 9599SOL    HW129696   5.479   2.119   4.641
 9599SOL    HW229697   5.344   2.209   4.626
 9600SOL     OW29698   1.683   6.361   6.680
 9600SOL    HW129699   1.702   6.291   6.749
 9600SOL    HW229700   1.586   6.385   6.683
 9601SOL     OW29701   0.946   5.395   5.789
 9601SOL    HW129702   1.018   5.350   5.737
 9601SOL    HW229703   0.969   5.492   5.801
 9602SOL     OW29704   1.639   5.689   0.636
 9602SOL    HW129705   1.550   5.726   0.611
 9602SOL    HW229706   1.697   5.764   0.671
 9603SOL     OW29707   1.447   5.126   4.545
 9603SOL    HW129708   1.438   5.068   4.626
 9603SOL    HW229709   1.451   5.222   4.572
 9604SOL     OW29710   0.043   0.470   0.613
 9604SOL    HW129711   0.116   0.403   0.601
 9604SOL    HW229712   0.042   0.534   0.537
 9605SOL     OW29713   2.044   5.720   6.213
 9605SOL    HW129714   2.105   5.759   6.283
 9605SOL    HW229715   1.998   5.794   6.164
 9606SOL     OW29716   6.650   6.690   4.413
 9606SOL    HW129717   6.734   6.699   4.466
 9606SOL    HW229718   6.644   6.598   4.374
 9607SOL     OW29719   0.318   2.967   1.759
 9607SOL    HW129720   0.259   2.916   1.696
 9607SOL    HW229721   0.384   2.904   1.801
 9608SOL     OW29722   0.224   6.085   3.127
 9608SOL    HW129723   0.166   6.165   3.142
 9608SOL    HW229724   0.203   6.015   3.195
 9609SOL     OW29725   2.023   2.458   3.350
 9609SOL    HW129726   1.960   2.390   3.313
 9609SOL    HW229727   1.978   2.510   3.422
 9610SOL     OW29728   3.090   1.651   6.251
 9610SOL    HW129729   3.156   1.725   6.262
 9610SOL    HW229730   3.110   1.600   6.168
 9611SOL     OW29731   6.134   6.264   1.116
 9611SOL    HW129732   6.053   6.254   1.174
 9611SOL    HW229733   6.215   6.238   1.169
 9612SOL     OW29734   5.588   3.398   2.650
 9612SOL    HW129735   5.629   3.322   2.702
 9612SOL    HW229736   5.572   3.369   2.556
 9613SOL     OW29737   5.346   6.415   5.823
 9613SOL    HW129738   5.434   6.379   5.853
 9613SOL    HW229739   5.326   6.382   5.730
 9614SOL     OW29740   3.052   3.346   2.346
 9614SOL    HW129741   3.039   3.422   2.411
 9614SOL    HW229742   3.023   3.375   2.255
 9615SOL     OW29743   0.957   6.236   3.910
 9615SOL    HW129744   0.959   6.222   3.811
 9615SOL    HW229745   0.895   6.311   3.933
 9616SOL     OW29746   2.678   3.435   1.648
 9616SOL    HW129747   2.651   3.525   1.682
 9616SOL    HW229748   2.727   3.445   1.562
 9617SOL     OW29749   0.825   3.338   3.225
 9617SOL    HW129750   0.863   3.430   3.219
 9617SOL    HW229751   0.882   3.274   3.174
 9618SOL     OW29752   3.800   5.646   0.075
 9618SOL    HW129753   3.813   5.745   0.079
 9618SOL    HW229754   3.823   5.613   7.006
 9619SOL     OW29755   1.678   6.903   1.125
 9619SOL    HW129756   1.645   6.810   1.142
 9619SOL    HW229757   1.765   6.898   1.076
 9620SOL     OW29758   3.879   1.798   0.037
 9620SOL    HW129759   3.857   1.714   7.009
 9620SOL    HW229760   3.826   1.801   0.122
 9621SOL     OW29761   1.001   1.961   1.911
 9621SOL    HW129762   0.986   1.862   1.899
 9621SOL    HW229763   0.998   1.983   2.008
 9622SOL     OW29764   6.647   6.731   6.203
 9622SOL    HW129765   6.649   6.762   6.108
 9622SOL    HW229766   6.554   6.739   6.238
 9623SOL     OW29767   4.363   6.527   6.452
 9623SOL    HW129768   4.268   6.552   6.433
 9623SOL    HW229769   4.407   6.602   6.502
 9624SOL     OW29770   4.676   4.985   5.030
 9624SOL    HW129771   4.681   5.078   4.993
 9624SOL    HW229772   4.667   4.989   5.130
 9625SOL     OW29773   4.830   3.365   5.608
 9625SOL    HW129774   4.829   3.392   5.704
 9625SOL    HW229775   4.894   3.289   5.596
 9626SOL     OW29776   2.359   2.580   5.789
 9626SOL    HW129777   2.404   2.583   5.878
 9626SOL    HW229778   2.390   2.657   5.733
 9627SOL     OW29779   0.832   5.168   6.497
 9627SOL    HW129780   0.823   5.100   6.570
 9627SOL    HW229781   0.859   5.122   6.412
 9628SOL     OW29782   6.082   1.627   6.306
 9628SOL    HW129783   6.119   1.545   6.261
 9628SOL    HW229784   5.983   1.631   6.291
 9629SOL     OW29785   0.100   5.974   4.546
 9629SOL    HW129786   0.005   5.973   4.577
 9629SOL    HW229787   0.160   5.984   4.625
 9630SOL     OW29788   5.771   6.767   6.245
 9630SOL    HW129789   5.803   6.819   6.324
 9630SOL    HW229790   5.823   6.793   6.164
 9631SOL     OW29791   3.425   0.612   0.709
 9631SOL    HW129792   3.453   0.539   0.646
 9631SOL    HW229793   3.472   0.600   0.796
 9632SOL     OW29794   3.118   5.679   2.376
 9632SOL    HW129795   3.140   5.634   2.463
 9632SOL    HW229796   3.131   5.615   2.301
 9633SOL     OW29797   3.311   3.056   2.984
 9633SOL    HW129798   3.339   3.091   3.073
 9633SOL    HW229799   3.212   3.069   2.972
 9634SOL     OW29800   5.594   5.250   3.019
 9634SOL    HW129801   5.682   5.211   3.049
 9634SOL    HW229802   5.550   5.187   2.955
 9635SOL     OW29803   0.503   5.309   4.428
 9635SOL    HW129804   0.477   5.332   4.522
 9635SOL    HW229805   0.566   5.378   4.394
 9636SOL     OW29806   4.925   3.280   3.960
 9636SOL    HW129807   4.900   3.338   4.037
 9636SOL    HW229808   4.863   3.297   3.883
 9637SOL     OW29809   2.207   2.833   0.251
 9637SOL    HW129810   2.203   2.887   0.166
 9637SOL    HW229811   2.132   2.767   0.251
 9638SOL     OW29812   6.356   5.022   5.239
 9638SOL    HW129813   6.277   4.994   5.184
 9638SOL    HW229814   6.323   5.064   5.324
 9639SOL     OW29815   4.067   1.819   2.306
 9639SOL    HW129816   3.976   1.857   2.290
 9639SOL    HW229817   4.063   1.719   2.294
 9640SOL     OW29818   4.712   7.016   3.065
 9640SOL    HW129819   4.801   0.039   3.078
 9640SOL    HW229820   4.724   6.938   3.004
 9641SOL     OW29821   6.487   4.118   2.916
 9641SOL    HW129822   6.400   4.098   2.959
 9641SOL    HW229823   6.496   4.064   2.832
 9642SOL     OW29824   1.189   0.747   4.318
 9642SOL    HW129825   1.202   0.742   4.417
 9642SOL    HW229826   1.258   0.806   4.278
 9643SOL     OW29827   4.804   4.897   4.577
 9643SOL    HW129828   4.900   4.891   4.550
 9643SOL    HW229829   4.793   4.973   4.641
 9644SOL     OW29830   1.434   5.549   4.192
 9644SOL    HW129831   1.494   5.470   4.179
 9644SOL    HW229832   1.438   5.579   4.287
 9645SOL     OW29833   0.178   5.069   6.169
 9645SOL    HW129834   0.165   5.077   6.268
 9645SOL    HW229835   0.227   5.150   6.136
 9646SOL     OW29836   3.352   5.661   6.003
 9646SOL    HW129837   3.350   5.602   5.922
 9646SOL    HW229838   3.360   5.605   6.085
 9647SOL     OW29839   6.441   6.933   3.535
 9647SOL    HW129840   6.541   6.935   3.535
 9647SOL    HW229841   6.410   6.841   3.561
 9648SOL     OW29842   3.725   1.988   0.971
 9648SOL    HW129843   3.729   2.088   0.966
 9648SOL    HW229844   3.701   1.961   1.064
 9649SOL     OW29845   0.985   5.905   6.874
 9649SOL    HW129846   0.938   5.856   6.800
 9649SOL    HW229847   1.008   5.997   6.843
 9650SOL     OW29848   6.698   4.777   4.203
 9650SOL    HW129849   6.723   4.851   4.265
 9650SOL    HW229850   6.719   4.804   4.109
 9651SOL     OW29851   4.291   1.608   0.472
 9651SOL    HW129852   4.357   1.680   0.491
 9651SOL    HW229853   4.299   1.535   0.540
 9652SOL     OW29854   0.047   3.651   0.373
 9652SOL    HW129855   0.074   3.736   0.418
 9652SOL    HW229856   0.064   3.659   0.274
 9653SOL     OW29857   4.151   4.571   6.383
 9653SOL    HW129858   4.144   4.533   6.291
 9653SOL    HW229859   4.114   4.664   6.384
 9654SOL     OW29860   3.743   3.602   3.017
 9654SOL    HW129861   3.747   3.529   3.085
 9654SOL    HW229862   3.795   3.574   2.936
 9655SOL     OW29863   4.092   1.461   1.449
 9655SOL    HW129864   4.041   1.432   1.530
 9655SOL    HW229865   4.189   1.466   1.471
 9656SOL     OW29866   5.786   4.045   0.636
 9656SOL    HW129867   5.764   4.025   0.541
 9656SOL    HW229868   5.702   4.064   0.686
 9657SOL     OW29869   5.999   4.336   3.598
 9657SOL    HW129870   5.988   4.380   3.688
 9657SOL    HW229871   5.919   4.279   3.579
 9658SOL     OW29872   4.811   2.346   3.042
 9658SOL    HW129873   4.845   2.405   3.116
 9658SOL    HW229874   4.861   2.259   3.044
 9659SOL     OW29875   2.443   3.604   0.776
 9659SOL    HW129876   2.409   3.629   0.686
 9659SOL    HW229877   2.453   3.504   0.781
 9660SOL     OW29878   1.366   5.979   1.825
 9660SOL    HW129879   1.328   5.886   1.831
 9660SOL    HW229880   1.361   6.022   1.915
 9661SOL     OW29881   5.153   4.782   0.909
 9661SOL    HW129882   5.112   4.850   0.970
 9661SOL    HW229883   5.157   4.818   0.816
 9662SOL     OW29884   5.663   5.425   6.034
 9662SOL    HW129885   5.698   5.333   6.048
 9662SOL    HW229886   5.719   5.490   6.085
 9663SOL     OW29887   0.763   5.195   3.384
 9663SOL    HW129888   0.799   5.163   3.472
 9663SOL    HW229889   0.760   5.118   3.320
 9664SOL     OW29890   4.804   4.039   2.815
 9664SOL    HW129891   4.767   4.103   2.747
 9664SOL    HW229892   4.779   4.070   2.907
 9665SOL     OW29893   6.119   5.821   6.790
 9665SOL    HW129894   6.182   5.783   6.722
 9665SOL    HW229895   6.033   5.845   6.745
 9666SOL     OW29896   5.837   3.271   0.878
 9666SOL    HW129897   5.922   3.316   0.905
 9666SOL    HW229898   5.855   3.173   0.864
 9667SOL     OW29899   5.974   5.973   6.288
 9667SOL    HW129900   5.903   5.917   6.329
 9667SOL    HW229901   5.948   5.996   6.194
 9668SOL     OW29902   0.273   0.402   5.986
 9668SOL    HW129903   0.314   0.397   6.077
 9668SOL    HW229904   0.259   0.498   5.962
 9669SOL     OW29905   3.904   0.606   0.373
 9669SOL    HW129906   3.824   0.566   0.329
 9669SOL    HW229907   3.884   0.622   0.470
 9670SOL     OW29908   6.987   6.941   6.861
 9670SOL    HW129909   0.003   6.998   6.932
 9670SOL    HW229910   7.022   6.848   6.870
 9671SOL     OW29911   1.050   5.432   6.493
 9671SOL    HW129912   0.955   5.446   6.520
 9671SOL    HW229913   1.060   5.343   6.449
 9672SOL     OW29914   1.127   3.180   4.097
 9672SOL    HW129915   1.156   3.085   4.110
 9672SOL    HW229916   1.029   3.182   4.077
 9673SOL     OW29917   2.047   4.107   0.604
 9673SOL    HW129918   2.085   4.194   0.635
 9673SOL    HW229919   2.084   4.085   0.514
 9674SOL     OW29920   2.458   5.890   4.058
 9674SOL    HW129921   2.454   5.803   4.107
 9674SOL    HW229922   2.546   5.933   4.073
 9675SOL     OW29923   5.082   3.342   0.816
 9675SOL    HW129924   4.989   3.351   0.780
 9675SOL    HW229925   5.099   3.415   0.883
 9676SOL     OW29926   0.442   2.966   6.974
 9676SOL    HW129927   0.407   3.056   6.948
 9676SOL    HW229928   0.524   2.945   6.920
 9677SOL     OW29929   0.116   5.183   1.042
 9677SOL    HW129930   0.086   5.249   1.112
 9677SOL    HW229931   0.037   5.155   0.987
 9678SOL     OW29932   3.730   3.767   5.155
 9678SOL    HW129933   3.704   3.837   5.089
 9678SOL    HW229934   3.658   3.757   5.224
 9679SOL     OW29935   2.137   1.728   4.545
 9679SOL    HW129936   2.180   1.680   4.622
 9679SOL    HW229937   2.208   1.760   4.483
 9680SOL     OW29938   4.978   5.962   1.627
 9680SOL    HW129939   4.998   5.957   1.725
 9680SOL    HW229940   4.900   6.023   1.612
 9681SOL     OW29941   1.639   1.368   2.431
 9681SOL    HW129942   1.658   1.316   2.348
 9681SOL    HW229943   1.602   1.307   2.501
 9682SOL     OW29944   4.658   5.693   5.590
 9682SOL    HW129945   4.571   5.703   5.541
 9682SOL    HW229946   4.643   5.639   5.673
 9683SOL     OW29947   3.452   6.409   2.176
 9683SOL    HW129948   3.518   6.355   2.228
 9683SOL    HW229949   3.495   6.443   2.093
 9684SOL     OW29950   0.381   3.278   6.015
 9684SOL    HW129951   0.371   3.364   6.065
 9684SOL    HW229952   0.380   3.202   6.079
 9685SOL     OW29953   3.718   4.109   1.643
 9685SOL    HW129954   3.694   4.206   1.641
 9685SOL    HW229955   3.811   4.097   1.609
 9686SOL     OW29956   6.515   2.194   5.502
 9686SOL    HW129957   6.515   2.290   5.530
 9686SOL    HW229958   6.563   2.139   5.570
 9687SOL     OW29959   5.762   1.205   2.628
 9687SOL    HW129960   5.788   1.138   2.697
 9687SOL    HW229961   5.673   1.244   2.651
 9688SOL     OW29962   0.269   5.044   1.249
 9688SOL    HW129963   0.224   5.132   1.232
 9688SOL    HW229964   0.255   5.018   1.345
 9689SOL     OW29965   1.935   6.024   0.957
 9689SOL    HW129966   1.919   5.963   1.035
 9689SOL    HW229967   1.967   6.113   0.990
 9690SOL     OW29968   6.453   5.166   4.604
 9690SOL    HW129969   6.473   5.112   4.523
 9690SOL    HW229970   6.470   5.111   4.686
 9691SOL     OW29971   3.142   4.091   1.792
 9691SOL    HW129972   3.072   4.161   1.773
 9691SOL    HW229973   3.219   4.103   1.729
 9692SOL     OW29974   5.300   5.086   1.345
 9692SOL    HW129975   5.343   5.086   1.435
 9692SOL    HW229976   5.353   5.145   1.283
 9693SOL     OW29977   5.317   3.565   4.917
 9693SOL    HW129978   5.330   3.469   4.891
 9693SOL    HW229979   5.390   3.620   4.877
 9694SOL     OW29980   3.444   6.628   2.385
 9694SOL    HW129981   3.361   6.629   2.440
 9694SOL    HW229982   3.433   6.564   2.309
 9695SOL     OW29983   1.180   2.086   3.438
 9695SOL    HW129984   1.083   2.063   3.445
 9695SOL    HW229985   1.190   2.175   3.394
 9696SOL     OW29986   5.858   2.267   2.592
 9696SOL    HW129987   5.922   2.220   2.531
 9696SOL    HW229988   5.764   2.236   2.573
 9697SOL     OW29989   1.670   6.788   0.812
 9697SOL    HW129990   1.638   6.697   0.785
 9697SOL    HW229991   1.592   6.850   0.818
 9698SOL     OW29992   5.888   3.001   1.408
 9698SOL    HW129993   5.906   2.985   1.505
 9698SOL    HW229994   5.840   3.088   1.397
 9699SOL     OW29995   1.125   5.332   0.564
 9699SOL    HW129996   1.134   5.276   0.646
 9699SOL    HW229997   1.201   5.396   0.559
 9700SOL     OW29998   5.225   0.539   5.294
 9700SOL    HW129999   5.185   0.542   5.203
 9700SOL    HW230000   5.227   0.631   5.333
 9701SOL     OW30001   4.543   3.530   6.379
 9701SOL    HW130002   4.549   3.453   6.443
 9701SOL    HW230003   4.481   3.506   6.304
 9702SOL     OW30004   3.506   3.711   1.431
 9702SOL    HW130005   3.492   3.686   1.527
 9702SOL    HW230006   3.429   3.678   1.376
 9703SOL     OW30007   0.148   4.075   4.285
 9703SOL    HW130008   0.178   4.131   4.362
 9703SOL    HW230009   0.209   4.090   4.207
 9704SOL     OW30010   1.890   4.104   2.755
 9704SOL    HW130011   1.907   4.006   2.762
 9704SOL    HW230012   1.810   4.119   2.696
 9705SOL     OW30013   6.283   3.208   5.702
 9705SOL    HW130014   6.214   3.135   5.706
 9705SOL    HW230015   6.325   3.219   5.792
 9706SOL     OW30016   0.857   1.256   1.758
 9706SOL    HW130017   0.944   1.290   1.793
 9706SOL    HW230018   0.873   1.201   1.676
 9707SOL     OW30019   0.750   4.949   2.179
 9707SOL    HW130020   0.806   5.000   2.244
 9707SOL    HW230021   0.730   5.006   2.100
 9708SOL     OW30022   2.723   0.250   2.580
 9708SOL    HW130023   2.660   0.316   2.539
 9708SOL    HW230024   2.769   0.292   2.658
 9709SOL     OW30025   4.763   2.159   1.358
 9709SOL    HW130026   4.852   2.197   1.332
 9709SOL    HW230027   4.721   2.217   1.428
 9710SOL     OW30028   6.679   5.272   3.676
 9710SOL    HW130029   6.683   5.369   3.702
 9710SOL    HW230030   6.607   5.259   3.608
 9711SOL     OW30031   3.762   0.224   0.083
 9711SOL    HW130032   3.806   0.180   0.162
 9711SOL    HW230033   3.731   0.155   0.019
 9712SOL     OW30034   5.577   1.742   6.688
 9712SOL    HW130035   5.488   1.700   6.705
 9712SOL    HW230036   5.599   1.805   6.762
 9713SOL     OW30037   1.132   6.694   3.486
 9713SOL    HW130038   1.176   6.677   3.397
 9713SOL    HW230039   1.142   6.613   3.544
 9714SOL     OW30040   2.234   4.642   4.701
 9714SOL    HW130041   2.241   4.728   4.649
 9714SOL    HW230042   2.273   4.568   4.647
 9715SOL     OW30043   6.294   3.418   6.966
 9715SOL    HW130044   6.297   3.334   7.019
 9715SOL    HW230045   6.282   3.397   6.870
 9716SOL     OW30046   2.413   5.278   6.310
 9716SOL    HW130047   2.490   5.277   6.247
 9716SOL    HW230048   2.330   5.308   6.262
 9717SOL     OW30049   4.074   1.454   5.399
 9717SOL    HW130050   4.131   1.414   5.471
 9717SOL    HW230051   4.116   1.437   5.310
 9718SOL     OW30052   3.853   3.118   6.957
 9718SOL    HW130053   3.865   3.023   6.928
 9718SOL    HW230054   3.834   3.121   0.032
 9719SOL     OW30055   4.503   6.775   5.469
 9719SOL    HW130056   4.570   6.843   5.440
 9719SOL    HW230057   4.420   6.821   5.499
 9720SOL     OW30058   2.149   3.471   3.369
 9720SOL    HW130059   2.093   3.531   3.426
 9720SOL    HW230060   2.244   3.503   3.369
 9721SOL     OW30061   1.139   1.478   0.492
 9721SOL    HW130062   1.090   1.491   0.578
 9721SOL    HW230063   1.227   1.434   0.510
 9722SOL     OW30064   4.139   3.116   5.345
 9722SOL    HW130065   4.070   3.183   5.373
 9722SOL    HW230066   4.094   3.040   5.298
 9723SOL     OW30067   6.869   6.310   4.622
 9723SOL    HW130068   6.870   6.276   4.528
 9723SOL    HW230069   6.781   6.290   4.665
 9724SOL     OW30070   1.441   5.367   6.921
 9724SOL    HW130071   1.465   5.446   6.864
 9724SOL    HW230072   1.342   5.362   6.933
 9725SOL     OW30073   3.771   5.129   5.647
 9725SOL    HW130074   3.734   5.167   5.731
 9725SOL    HW230075   3.701   5.129   5.576
 9726SOL     OW30076   6.464   1.558   4.348
 9726SOL    HW130077   6.563   1.570   4.341
 9726SOL    HW230078   6.429   1.522   4.262
 9727SOL     OW30079   0.490   1.039   0.203
 9727SOL    HW130080   0.530   1.128   0.221
 9727SOL    HW230081   0.562   0.970   0.201
 9728SOL     OW30082   4.547   1.184   5.256
 9728SOL    HW130083   4.602   1.261   5.288
 9728SOL    HW230084   4.473   1.166   5.321
 9729SOL     OW30085   0.445   4.940   3.577
 9729SOL    HW130086   0.397   5.020   3.540
 9729SOL    HW230087   0.417   4.925   3.672
 9730SOL     OW30088   0.225   3.991   3.094
 9730SOL    HW130089   0.157   3.930   3.052
 9730SOL    HW230090   0.224   3.977   3.193
 9731SOL     OW30091   5.018   3.293   2.153
 9731SOL    HW130092   5.060   3.333   2.071
 9731SOL    HW230093   5.026   3.357   2.229
 9732SOL     OW30094   1.733   2.954   3.029
 9732SOL    HW130095   1.780   2.971   2.942
 9732SOL    HW230096   1.645   3.000   3.029
 9733SOL     OW30097   6.840   4.563   2.112
 9733SOL    HW130098   6.792   4.635   2.161
 9733SOL    HW230099   6.893   4.603   2.037
 9734SOL     OW30100   6.157   6.083   6.089
 9734SOL    HW130101   6.116   6.056   6.175
 9734SOL    HW230102   6.128   6.175   6.065
 9735SOL     OW30103   0.976   2.923   1.700
 9735SOL    HW130104   0.941   2.981   1.627
 9735SOL    HW230105   0.964   2.970   1.788
 9736SOL     OW30106   5.231   2.312   4.902
 9736SOL    HW130107   5.308   2.361   4.861
 9736SOL    HW230108   5.179   2.264   4.830
 9737SOL     OW30109   5.920   2.555   2.571
 9737SOL    HW130110   5.826   2.574   2.542
 9737SOL    HW230111   5.929   2.458   2.593
 9738SOL     OW30112   2.148   6.127   1.923
 9738SOL    HW130113   2.197   6.100   2.006
 9738SOL    HW230114   2.104   6.046   1.884
 9739SOL     OW30115   5.940   6.936   0.118
 9739SOL    HW130116   5.993   6.906   0.039
 9739SOL    HW230117   5.883   7.014   0.093
 9740SOL     OW30118   6.315   0.786   2.459
 9740SOL    HW130119   6.406   0.779   2.419
 9740SOL    HW230120   6.299   0.706   2.518
 9741SOL     OW30121   2.719   1.263   4.340
 9741SOL    HW130122   2.670   1.307   4.265
 9741SOL    HW230123   2.802   1.220   4.304
 9742SOL     OW30124   3.754   1.893   5.879
 9742SOL    HW130125   3.786   1.849   5.962
 9742SOL    HW230126   3.654   1.890   5.876
 9743SOL     OW30127   5.676   3.376   4.001
 9743SOL    HW130128   5.592   3.322   3.993
 9743SOL    HW230129   5.660   3.469   3.968
 9744SOL     OW30130   1.857   0.453   3.938
 9744SOL    HW130131   1.822   0.421   4.026
 9744SOL    HW230132   1.797   0.420   3.865
 9745SOL     OW30133   6.867   0.749   5.490
 9745SOL    HW130134   6.922   0.674   5.454
 9745SOL    HW230135   6.812   0.717   5.567
 9746SOL     OW30136   4.174   5.964   6.569
 9746SOL    HW130137   4.255   5.924   6.526
 9746SOL    HW230138   4.099   5.898   6.566
 9747SOL     OW30139   2.493   2.048   2.744
 9747SOL    HW130140   2.559   2.064   2.818
 9747SOL    HW230141   2.430   1.976   2.771
 9748SOL     OW30142   1.322   1.058   3.557
 9748SOL    HW130143   1.361   1.110   3.481
 9748SOL    HW230144   1.245   1.003   3.525
 9749SOL     OW30145   0.216   1.188   2.119
 9749SOL    HW130146   0.261   1.224   2.038
 9749SOL    HW230147   0.217   1.088   2.116
 9750SOL     OW30148   0.164   4.170   3.733
 9750SOL    HW130149   0.255   4.193   3.767
 9750SOL    HW230150   0.098   4.178   3.808
 9751SOL     OW30151   2.784   0.680   1.279
 9751SOL    HW130152   2.837   0.759   1.310
 9751SOL    HW230153   2.739   0.702   1.192
 9752SOL     OW30154   2.947   3.202   6.894
 9752SOL    HW130155   2.939   3.302   6.894
 9752SOL    HW230156   2.856   3.161   6.892
 9753SOL     OW30157   6.894   5.945   4.697
 9753SOL    HW130158   6.812   5.996   4.726
 9753SOL    HW230159   6.939   5.906   4.777
 9754SOL     OW30160   3.194   1.270   1.390
 9754SOL    HW130161   3.191   1.171   1.397
 9754SOL    HW230162   3.145   1.300   1.308
 9755SOL     OW30163   3.173   4.361   6.536
 9755SOL    HW130164   3.263   4.406   6.534
 9755SOL    HW230165   3.185   4.262   6.534
 9756SOL     OW30166   5.883   0.134   5.997
 9756SOL    HW130167   5.895   0.213   5.937
 9756SOL    HW230168   5.788   0.129   6.027
 9757SOL     OW30169   5.464   4.023   3.755
 9757SOL    HW130170   5.429   4.104   3.802
 9757SOL    HW230171   5.446   4.032   3.657
 9758SOL     OW30172   1.912   0.465   1.789
 9758SOL    HW130173   1.914   0.490   1.886
 9758SOL    HW230174   1.976   0.522   1.738
 9759SOL     OW30175   0.130   1.026   0.869
 9759SOL    HW130176   0.157   0.965   0.795
 9759SOL    HW230177   0.083   0.973   0.940
 9760SOL     OW30178   4.613   1.470   0.070
 9760SOL    HW130179   4.572   1.385   0.037
 9760SOL    HW230180   4.545   1.523   0.121
 9761SOL     OW30181   1.362   2.421   1.345
 9761SOL    HW130182   1.281   2.439   1.399
 9761SOL    HW230183   1.405   2.336   1.376
 9762SOL     OW30184   2.631   1.686   5.592
 9762SOL    HW130185   2.652   1.688   5.494
 9762SOL    HW230186   2.557   1.750   5.611
 9763SOL     OW30187   6.113   0.888   0.786
 9763SOL    HW130188   6.033   0.885   0.726
 9763SOL    HW230189   6.195   0.903   0.731
 9764SOL     OW30190   6.140   2.541   2.269
 9764SOL    HW130191   6.232   2.552   2.234
 9764SOL    HW230192   6.124   2.606   2.344
 9765SOL     OW30193   6.430   0.573   1.651
 9765SOL    HW130194   6.442   0.661   1.604
 9765SOL    HW230195   6.490   0.570   1.730
 9766SOL     OW30196   2.604   1.585   4.441
 9766SOL    HW130197   2.516   1.558   4.481
 9766SOL    HW230198   2.678   1.540   4.490
 9767SOL     OW30199   2.243   3.337   5.968
 9767SOL    HW130200   2.232   3.408   6.037
 9767SOL    HW230201   2.186   3.359   5.888
 9768SOL     OW30202   6.145   2.790   1.318
 9768SOL    HW130203   6.052   2.769   1.287
 9768SOL    HW230204   6.152   2.888   1.337
 9769SOL     OW30205   2.976   1.840   5.338
 9769SOL    HW130206   3.074   1.848   5.319
 9769SOL    HW230207   2.934   1.931   5.335
 9770SOL     OW30208   2.971   2.312   6.224
 9770SOL    HW130209   2.932   2.242   6.283
 9770SOL    HW230210   3.015   2.270   6.145
 9771SOL     OW30211   3.204   6.158   2.997
 9771SOL    HW130212   3.300   6.158   3.026
 9771SOL    HW230213   3.178   6.066   2.966
 9772SOL     OW30214   1.003   0.004   1.199
 9772SOL    HW130215   0.924   7.010   1.257
 9772SOL    HW230216   1.029   0.100   1.205
 9773SOL     OW30217   4.881   4.876   1.983
 9773SOL    HW130218   4.801   4.827   1.948
 9773SOL    HW230219   4.866   4.975   1.975
 9774SOL     OW30220   0.958   5.474   4.931
 9774SOL    HW130221   0.889   5.542   4.908
 9774SOL    HW230222   0.913   5.387   4.950
 9775SOL     OW30223   2.175   1.538   3.360
 9775SOL    HW130224   2.134   1.542   3.451
 9775SOL    HW230225   2.257   1.595   3.358
 9776SOL     OW30226   1.439   5.908   6.848
 9776SOL    HW130227   1.529   5.939   6.819
 9776SOL    HW230228   1.382   5.892   6.767
 9777SOL     OW30229   4.427   0.788   5.465
 9777SOL    HW130230   4.389   0.697   5.450
 9777SOL    HW230231   4.405   0.818   5.558
 9778SOL     OW30232   0.230   3.013   4.036
 9778SOL    HW130233   0.143   2.968   4.054
 9778SOL    HW230234   0.214   3.108   4.010
 9779SOL     OW30235   1.667   1.179   3.833
 9779SOL    HW130236   1.648   1.102   3.893
 9779SOL    HW230237   1.702   1.256   3.888
 9780SOL     OW30238   1.473   2.699   2.023
 9780SOL    HW130239   1.447   2.715   1.928
 9780SOL    HW230240   1.439   2.774   2.080
 9781SOL     OW30241   1.808   2.464   3.108
 9781SOL    HW130242   1.759   2.512   3.181
 9781SOL    HW230243   1.829   2.371   3.138
 9782SOL     OW30244   0.240   2.203   1.354
 9782SOL    HW130245   0.238   2.154   1.266
 9782SOL    HW230246   0.310   2.274   1.351
 9783SOL     OW30247   3.578   1.517   2.971
 9783SOL    HW130248   3.656   1.489   2.916
 9783SOL    HW230249   3.543   1.438   3.022
 9784SOL     OW30250   1.611   1.345   6.475
 9784SOL    HW130251   1.601   1.370   6.571
 9784SOL    HW230252   1.598   1.425   6.418
 9785SOL     OW30253   0.573   2.678   4.219
 9785SOL    HW130254   0.557   2.747   4.290
 9785SOL    HW230255   0.534   2.710   4.133
 9786SOL     OW30256   2.510   4.449   1.182
 9786SOL    HW130257   2.555   4.536   1.200
 9786SOL    HW230258   2.411   4.461   1.185
 9787SOL     OW30259   3.454   3.351   3.062
 9787SOL    HW130260   3.533   3.292   3.049
 9787SOL    HW230261   3.455   3.389   3.154
 9788SOL     OW30262   5.582   6.758   1.533
 9788SOL    HW130263   5.590   6.854   1.508
 9788SOL    HW230264   5.671   6.713   1.526
 9789SOL     OW30265   3.786   0.649   6.782
 9789SOL    HW130266   3.871   0.691   6.751
 9789SOL    HW230267   3.735   0.616   6.703
 9790SOL     OW30268   0.635   4.393   4.311
 9790SOL    HW130269   0.569   4.417   4.382
 9790SOL    HW230270   0.617   4.300   4.279
 9791SOL     OW30271   1.768   6.455   1.013
 9791SOL    HW130272   1.858   6.456   0.967
 9791SOL    HW230273   1.720   6.370   0.989
 9792SOL     OW30274   4.019   6.514   0.554
 9792SOL    HW130275   4.060   6.444   0.613
 9792SOL    HW230276   3.986   6.471   0.470
 9793SOL     OW30277   5.114   1.413   3.476
 9793SOL    HW130278   5.136   1.427   3.380
 9793SOL    HW230279   5.185   1.456   3.533
 9794SOL     OW30280   4.748   4.657   4.747
 9794SOL    HW130281   4.767   4.733   4.684
 9794SOL    HW230282   4.649   4.643   4.752
 9795SOL     OW30283   1.698   3.452   3.328
 9795SOL    HW130284   1.701   3.510   3.247
 9795SOL    HW230285   1.647   3.499   3.400
 9796SOL     OW30286   3.197   3.492   3.601
 9796SOL    HW130287   3.118   3.551   3.582
 9796SOL    HW230288   3.219   3.497   3.698
 9797SOL     OW30289   3.218   6.119   6.916
 9797SOL    HW130290   3.169   6.168   6.988
 9797SOL    HW230291   3.243   6.183   6.843
 9798SOL     OW30292   1.192   3.552   0.303
 9798SOL    HW130293   1.119   3.621   0.300
 9798SOL    HW230294   1.160   3.469   0.258
 9799SOL     OW30295   2.816   0.128   6.805
 9799SOL    HW130296   2.788   0.036   6.777
 9799SOL    HW230297   2.915   0.132   6.813
 9800SOL     OW30298   6.373   3.760   4.720
 9800SOL    HW130299   6.431   3.713   4.653
 9800SOL    HW230300   6.402   3.733   4.812
 9801SOL     OW30301   6.115   5.731   0.053
 9801SOL    HW130302   6.170   5.782   0.120
 9801SOL    HW230303   6.137   5.762   6.983
 9802SOL     OW30304   4.290   4.778   0.149
 9802SOL    HW130305   4.383   4.786   0.111
 9802SOL    HW230306   4.281   4.836   0.229
 9803SOL     OW30307   0.557   3.739   6.658
 9803SOL    HW130308   0.462   3.718   6.635
 9803SOL    HW230309   0.559   3.814   6.724
 9804SOL     OW30310   0.217   5.246   2.498
 9804SOL    HW130311   0.229   5.237   2.597
 9804SOL    HW230312   0.129   5.206   2.471
 9805SOL     OW30313   0.980   6.135   3.614
 9805SOL    HW130314   1.077   6.155   3.623
 9805SOL    HW230315   0.968   6.046   3.569
 9806SOL     OW30316   3.312   2.313   6.303
 9806SOL    HW130317   3.321   2.260   6.219
 9806SOL    HW230318   3.324   2.253   6.382
 9807SOL     OW30319   3.195   4.032   2.418
 9807SOL    HW130320   3.226   4.094   2.346
 9807SOL    HW230321   3.105   3.995   2.395
 9808SOL     OW30322   4.396   5.997   3.437
 9808SOL    HW130323   4.365   5.925   3.499
 9808SOL    HW230324   4.459   6.058   3.486
 9809SOL     OW30325   0.220   3.400   0.946
 9809SOL    HW130326   0.201   3.308   0.911
 9809SOL    HW230327   0.247   3.460   0.870
 9810SOL     OW30328   2.000   1.691   6.320
 9810SOL    HW130329   1.989   1.592   6.330
 9810SOL    HW230330   2.087   1.710   6.273
 9811SOL     OW30331   6.292   3.936   3.953
 9811SOL    HW130332   6.261   3.844   3.929
 9811SOL    HW230333   6.356   3.931   4.029
 9812SOL     OW30334   3.166   5.820   4.794
 9812SOL    HW130335   3.160   5.909   4.748
 9812SOL    HW230336   3.076   5.793   4.828
 9813SOL     OW30337   4.624   2.314   1.080
 9813SOL    HW130338   4.638   2.413   1.081
 9813SOL    HW230339   4.660   2.275   1.166
 9814SOL     OW30340   5.849   1.126   0.072
 9814SOL    HW130341   5.881   1.212   0.032
 9814SOL    HW230342   5.868   1.050   0.009
 9815SOL     OW30343   4.213   2.294   4.739
 9815SOL    HW130344   4.260   2.349   4.670
 9815SOL    HW230345   4.114   2.298   4.724
 9816SOL     OW30346   1.290   0.063   0.128
 9816SOL    HW130347   1.255   0.119   0.203
 9816SOL    HW230348   1.381   0.029   0.150
 9817SOL     OW30349   7.013   6.599   3.351
 9817SOL    HW130350   6.938   6.628   3.411
 9817SOL    HW230351   0.020   6.677   3.296
 9818SOL     OW30352   6.816   2.784   4.662
 9818SOL    HW130353   6.750   2.772   4.587
 9818SOL    HW230354   6.801   2.873   4.705
 9819SOL     OW30355   4.040   1.681   3.117
 9819SOL    HW130356   4.098   1.760   3.137
 9819SOL    HW230357   3.991   1.654   3.200
 9820SOL     OW30358   4.170   4.164   6.127
 9820SOL    HW130359   4.076   4.137   6.146
 9820SOL    HW230360   4.183   4.176   6.029
 9821SOL     OW30361   5.922   6.016   6.985
 9821SOL    HW130362   5.874   6.049   0.044
 9821SOL    HW230363   5.990   6.084   6.958
 9822SOL     OW30364   0.568   0.221   2.967
 9822SOL    HW130365   0.593   0.169   3.048
 9822SOL    HW230366   0.530   0.159   2.898
 9823SOL     OW30367   3.179   1.050   1.793
 9823SOL    HW130368   3.174   1.002   1.706
 9823SOL    HW230369   3.218   1.141   1.779
 9824SOL     OW30370   1.693   4.395   5.059
 9824SOL    HW130371   1.606   4.347   5.071
 9824SOL    HW230372   1.748   4.348   4.990
 9825SOL     OW30373   3.672   4.658   5.686
 9825SOL    HW130374   3.712   4.587   5.628
 9825SOL    HW230375   3.707   4.647   5.780
 9826SOL     OW30376   4.537   0.053   5.926
 9826SOL    HW130377   4.460   0.110   5.952
 9826SOL    HW230378   4.505   6.983   5.908
 9827SOL     OW30379   1.027   3.688   4.785
 9827SOL    HW130380   1.064   3.765   4.837
 9827SOL    HW230381   1.084   3.672   4.704
 9828SOL     OW30382   4.237   2.271   0.321
 9828SOL    HW130383   4.251   2.327   0.239
 9828SOL    HW230384   4.305   2.198   0.324
 9829SOL     OW30385   2.122   5.925   0.062
 9829SOL    HW130386   2.066   5.876   7.018
 9829SOL    HW230387   2.103   5.890   0.154
 9830SOL     OW30388   6.112   1.151   1.696
 9830SOL    HW130389   6.081   1.062   1.731
 9830SOL    HW230390   6.169   1.196   1.764
 9831SOL     OW30391   0.655   6.818   1.633
 9831SOL    HW130392   0.611   6.798   1.721
 9831SOL    HW230393   0.679   6.732   1.589
 9832SOL     OW30394   4.638   5.354   2.029
 9832SOL    HW130395   4.652   5.375   1.932
 9832SOL    HW230396   4.591   5.430   2.073
 9833SOL     OW30397   3.644   4.070   5.026
 9833SOL    HW130398   3.600   4.072   4.936
 9833SOL    HW230399   3.743   4.078   5.015
 9834SOL     OW30400   1.171   3.670   5.334
 9834SOL    HW130401   1.226   3.666   5.250
 9834SOL    HW230402   1.129   3.580   5.350
 9835SOL     OW30403   5.149   1.318   4.465
 9835SOL    HW130404   5.220   1.351   4.403
 9835SOL    HW230405   5.092   1.394   4.494
 9836SOL     OW30406   5.334   4.380   3.328
 9836SOL    HW130407   5.390   4.396   3.247
 9836SOL    HW230408   5.279   4.297   3.315
 9837SOL     OW30409   2.426   6.740   4.142
 9837SOL    HW130410   2.433   6.669   4.213
 9837SOL    HW230411   2.364   6.709   4.070
 9838SOL     OW30412   0.849   0.171   6.177
 9838SOL    HW130413   0.764   0.118   6.171
 9838SOL    HW230414   0.845   0.247   6.113
 9839SOL     OW30415   6.502   1.415   1.763
 9839SOL    HW130416   6.573   1.346   1.755
 9839SOL    HW230417   6.413   1.371   1.775
 9840SOL     OW30418   0.125   0.354   0.919
 9840SOL    HW130419   0.178   0.411   0.855
 9840SOL    HW230420   0.048   0.407   0.954
 9841SOL     OW30421   1.512   3.968   4.768
 9841SOL    HW130422   1.441   3.930   4.709
 9841SOL    HW230423   1.580   4.014   4.712
 9842SOL     OW30424   3.042   3.193   3.133
 9842SOL    HW130425   3.062   3.285   3.097
 9842SOL    HW230426   3.021   3.132   3.057
 9843SOL     OW30427   7.004   1.712   1.190
 9843SOL    HW130428   6.999   1.783   1.120
 9843SOL    HW230429   6.953   1.632   1.160
 9844SOL     OW30430   5.132   0.122   2.298
 9844SOL    HW130431   5.045   0.125   2.347
 9844SOL    HW230432   5.131   0.045   2.233
 9845SOL     OW30433   2.212   1.993   4.129
 9845SOL    HW130434   2.244   2.080   4.167
 9845SOL    HW230435   2.190   2.005   4.032
 9846SOL     OW30436   3.098   4.001   3.154
 9846SOL    HW130437   3.124   4.048   3.070
 9846SOL    HW230438   3.034   3.927   3.133
 9847SOL     OW30439   1.814   3.127   6.627
 9847SOL    HW130440   1.719   3.118   6.657
 9847SOL    HW230441   1.873   3.139   6.707
 9848SOL     OW30442   4.593   3.158   6.759
 9848SOL    HW130443   4.680   3.125   6.723
 9848SOL    HW230444   4.608   3.243   6.810
 9849SOL     OW30445   6.579   6.810   6.603
 9849SOL    HW130446   6.497   6.753   6.595
 9849SOL    HW230447   6.655   6.754   6.635
 9850SOL     OW30448   4.367   6.784   3.042
 9850SOL    HW130449   4.313   6.843   3.102
 9850SOL    HW230450   4.422   6.721   3.097
 9851SOL     OW30451   4.491   2.050   5.142
 9851SOL    HW130452   4.426   2.051   5.065
 9851SOL    HW230453   4.520   2.143   5.162
 9852SOL     OW30454   4.985   1.897   3.827
 9852SOL    HW130455   5.000   1.865   3.921
 9852SOL    HW230456   4.892   1.876   3.799
 9853SOL     OW30457   5.501   4.405   2.236
 9853SOL    HW130458   5.560   4.418   2.316
 9853SOL    HW230459   5.410   4.378   2.267
 9854SOL     OW30460   5.550   5.516   4.715
 9854SOL    HW130461   5.545   5.416   4.719
 9854SOL    HW230462   5.618   5.544   4.648
 9855SOL     OW30463   0.795   4.295   1.078
 9855SOL    HW130464   0.818   4.349   1.159
 9855SOL    HW230465   0.851   4.212   1.077
 9856SOL     OW30466   3.778   3.634   0.690
 9856SOL    HW130467   3.839   3.555   0.685
 9856SOL    HW230468   3.744   3.644   0.783
 9857SOL     OW30469   5.318   2.392   3.092
 9857SOL    HW130470   5.373   2.476   3.104
 9857SOL    HW230471   5.355   2.339   3.017
 9858SOL     OW30472   5.138   0.953   2.194
 9858SOL    HW130473   5.180   0.988   2.278
 9858SOL    HW230474   5.183   0.993   2.115
 9859SOL     OW30475   6.015   0.332   1.301
 9859SOL    HW130476   6.014   0.408   1.366
 9859SOL    HW230477   6.107   0.325   1.260
 9860SOL     OW30478   7.015   0.441   2.361
 9860SOL    HW130479   0.035   0.523   2.322
 9860SOL    HW230480   0.061   0.386   2.407
 9861SOL     OW30481   4.035   5.906   4.436
 9861SOL    HW130482   3.993   5.997   4.439
 9861SOL    HW230483   4.127   5.914   4.398
 9862SOL     OW30484   2.312   3.395   0.432
 9862SOL    HW130485   2.395   3.357   0.391
 9862SOL    HW230486   2.280   3.333   0.503
 9863SOL     OW30487   3.591   0.277   2.795
 9863SOL    HW130488   3.687   0.263   2.768
 9863SOL    HW230489   3.541   0.191   2.782
 9864SOL     OW30490   4.259   5.336   4.115
 9864SOL    HW130491   4.209   5.266   4.064
 9864SOL    HW230492   4.305   5.293   4.193
 9865SOL     OW30493   0.730   0.055   3.652
 9865SOL    HW130494   0.791   0.130   3.625
 9865SOL    HW230495   0.710   7.021   3.572
 9866SOL     OW30496   4.862   4.011   4.697
 9866SOL    HW130497   4.786   4.019   4.761
 9866SOL    HW230498   4.948   4.007   4.749
 9867SOL     OW30499   4.337   1.394   0.668
 9867SOL    HW130500   4.375   1.399   0.760
 9867SOL    HW230501   4.237   1.401   0.673
 9868SOL     OW30502   0.291   4.355   0.184
 9868SOL    HW130503   0.206   4.402   0.207
 9868SOL    HW230504   0.357   4.421   0.147
 9869SOL     OW30505   1.933   3.610   3.197
 9869SOL    HW130506   2.011   3.563   3.156
 9869SOL    HW230507   1.922   3.580   3.292
 9870SOL     OW30508   4.904   5.437   3.068
 9870SOL    HW130509   4.807   5.456   3.082
 9870SOL    HW230510   4.945   5.512   3.016
 9871SOL     OW30511   1.945   0.591   5.983
 9871SOL    HW130512   2.017   0.658   6.002
 9871SOL    HW230513   1.987   0.507   5.948
 9872SOL     OW30514   2.851   4.887   3.280
 9872SOL    HW130515   2.798   4.971   3.293
 9872SOL    HW230516   2.821   4.841   3.196
 9873SOL     OW30517   2.223   3.438   0.141
 9873SOL    HW130518   2.158   3.362   0.146
 9873SOL    HW230519   2.280   3.439   0.222
 9874SOL     OW30520   0.629   2.060   3.261
 9874SOL    HW130521   0.578   2.055   3.347
 9874SOL    HW230522   0.568   2.039   3.184
 9875SOL     OW30523   0.005   0.654   2.613
 9875SOL    HW130524   0.001   0.555   2.627
 9875SOL    HW230525   0.060   0.674   2.533
 9876SOL     OW30526   6.078   0.582   2.652
 9876SOL    HW130527   5.998   0.573   2.593
 9876SOL    HW230528   6.079   0.507   2.717
 9877SOL     OW30529   3.090   6.718   2.263
 9877SOL    HW130530   3.047   6.736   2.174
 9877SOL    HW230531   3.078   6.798   2.322
 9878SOL     OW30532   1.784   5.405   5.810
 9878SOL    HW130533   1.717   5.393   5.883
 9878SOL    HW230534   1.866   5.351   5.830
 9879SOL     OW30535   5.022   5.393   4.674
 9879SOL    HW130536   5.013   5.348   4.764
 9879SOL    HW230537   5.089   5.467   4.681
 9880SOL     OW30538   1.378   2.289   5.350
 9880SOL    HW130539   1.309   2.362   5.348
 9880SOL    HW230540   1.335   2.202   5.328
 9881SOL     OW30541   1.160   2.282   5.057
 9881SOL    HW130542   1.245   2.234   5.036
 9881SOL    HW230543   1.178   2.380   5.069
 9882SOL     OW30544   0.919   2.407   4.011
 9882SOL    HW130545   0.972   2.353   4.077
 9882SOL    HW230546   0.887   2.347   3.938
 9883SOL     OW30547   1.543   0.492   1.792
 9883SOL    HW130548   1.617   0.505   1.726
 9883SOL    HW230549   1.580   0.454   1.876
 9884SOL     OW30550   4.277   1.026   3.565
 9884SOL    HW130551   4.365   1.048   3.608
 9884SOL    HW230552   4.276   0.930   3.539
 9885SOL     OW30553   6.450   4.295   4.909
 9885SOL    HW130554   6.402   4.360   4.968
 9885SOL    HW230555   6.449   4.205   4.952
 9886SOL     OW30556   0.865   4.796   2.606
 9886SOL    HW130557   0.859   4.717   2.544
 9886SOL    HW230558   0.877   4.879   2.552
 9887SOL     OW30559   4.033   0.913   0.328
 9887SOL    HW130560   4.023   0.928   0.230
 9887SOL    HW230561   4.006   0.819   0.350
 9888SOL     OW30562   0.105   3.890   0.505
 9888SOL    HW130563   0.028   3.913   0.564
 9888SOL    HW230564   0.124   3.966   0.443
 9889SOL     OW30565   6.725   5.271   1.229
 9889SOL    HW130566   6.648   5.266   1.165
 9889SOL    HW230567   6.740   5.366   1.256
 9890SOL     OW30568   1.361   2.242   0.880
 9890SOL    HW130569   1.436   2.308   0.884
 9890SOL    HW230570   1.343   2.216   0.785
 9891SOL     OW30571   6.139   2.620   0.593
 9891SOL    HW130572   6.154   2.696   0.529
 9891SOL    HW230573   6.065   2.562   0.559
 9892SOL     OW30574   6.792   5.325   0.470
 9892SOL    HW130575   6.857   5.349   0.543
 9892SOL    HW230576   6.830   5.353   0.382
 9893SOL     OW30577   1.916   0.743   0.668
 9893SOL    HW130578   1.946   0.773   0.577
 9893SOL    HW230579   1.831   0.791   0.692
 9894SOL     OW30580   1.669   1.815   1.240
 9894SOL    HW130581   1.572   1.830   1.220
 9894SOL    HW230582   1.683   1.816   1.339
 9895SOL     OW30583   5.589   3.347   5.170
 9895SOL    HW130584   5.497   3.364   5.205
 9895SOL    HW230585   5.655   3.350   5.246
 9896SOL     OW30586   6.303   6.574   6.889
 9896SOL    HW130587   6.278   6.495   6.946
 9896SOL    HW230588   6.385   6.552   6.836
 9897SOL     OW30589   5.727   6.148   3.071
 9897SOL    HW130590   5.683   6.154   3.161
 9897SOL    HW230591   5.775   6.061   3.064
 9898SOL     OW30592   2.409   6.629   6.310
 9898SOL    HW130593   2.499   6.608   6.349
 9898SOL    HW230594   2.350   6.669   6.380
 9899SOL     OW30595   0.220   5.984   0.777
 9899SOL    HW130596   0.295   5.967   0.841
 9899SOL    HW230597   0.227   5.922   0.699
 9900SOL     OW30598   1.685   3.658   3.132
 9900SOL    HW130599   1.667   3.701   3.044
 9900SOL    HW230600   1.783   3.656   3.149
 9901SOL     OW30601   2.839   2.092   5.671
 9901SOL    HW130602   2.903   2.130   5.604
 9901SOL    HW230603   2.851   2.139   5.758
 9902SOL     OW30604   2.419   4.785   6.607
 9902SOL    HW130605   2.476   4.853   6.654
 9902SOL    HW230606   2.339   4.765   6.663
 9903SOL     OW30607   4.602   1.503   3.146
 9903SOL    HW130608   4.525   1.440   3.161
 9903SOL    HW230609   4.567   1.597   3.146
 9904SOL     OW30610   1.245   3.134   6.563
 9904SOL    HW130611   1.269   3.050   6.610
 9904SOL    HW230612   1.277   3.130   6.469
 9905SOL     OW30613   3.351   1.105   0.559
 9905SOL    HW130614   3.448   1.129   0.556
 9905SOL    HW230615   3.300   1.178   0.606
 9906SOL     OW30616   3.219   2.917   2.517
 9906SOL    HW130617   3.205   2.818   2.513
 9906SOL    HW230618   3.152   2.963   2.458
 9907SOL     OW30619   6.556   0.783   1.241
 9907SOL    HW130620   6.511   0.858   1.193
 9907SOL    HW230621   6.529   0.783   1.337
 9908SOL     OW30622   5.353   2.299   3.360
 9908SOL    HW130623   5.311   2.217   3.398
 9908SOL    HW230624   5.320   2.313   3.267
 9909SOL     OW30625   4.009   6.640   4.009
 9909SOL    HW130626   3.999   6.696   3.927
 9909SOL    HW230627   4.039   6.549   3.983
 9910SOL     OW30628   1.258   3.923   2.446
 9910SOL    HW130629   1.211   3.893   2.363
 9910SOL    HW230630   1.208   3.999   2.487
 9911SOL     OW30631   3.682   0.136   1.764
 9911SOL    HW130632   3.698   0.232   1.790
 9911SOL    HW230633   3.660   0.082   1.845
 9912SOL     OW30634   4.317   2.163   1.098
 9912SOL    HW130635   4.361   2.205   1.019
 9912SOL    HW230636   4.336   2.218   1.180
 9913SOL     OW30637   6.009   3.788   0.025
 9913SOL    HW130638   5.944   3.845   0.075
 9913SOL    HW230639   5.996   3.692   0.049
 9914SOL     OW30640   0.085   3.228   4.680
 9914SOL    HW130641   0.125   3.293   4.616
 9914SOL    HW230642   7.009   3.246   4.689
 9915SOL     OW30643   4.550   0.897   3.071
 9915SOL    HW130644   4.569   0.884   3.168
 9915SOL    HW230645   4.496   0.819   3.037
 9916SOL     OW30646   2.229   2.447   3.158
 9916SOL    HW130647   2.315   2.495   3.177
 9916SOL    HW230648   2.157   2.485   3.217
 9917SOL     OW30649   6.003   3.471   0.060
 9917SOL    HW130650   6.086   3.418   0.039
 9917SOL    HW230651   5.936   3.412   0.105
 9918SOL     OW30652   3.833   1.809   2.663
 9918SOL    HW130653   3.797   1.744   2.596
 9918SOL    HW230654   3.851   1.896   2.619
 9919SOL     OW30655   6.189   5.791   1.969
 9919SOL    HW130656   6.271   5.782   1.912
 9919SOL    HW230657   6.118   5.837   1.917
 9920SOL     OW30658   4.838   1.377   1.915
 9920SOL    HW130659   4.778   1.302   1.885
 9920SOL    HW230660   4.931   1.343   1.926
 9921SOL     OW30661   4.318   6.118   6.126
 9921SOL    HW130662   4.304   6.201   6.074
 9921SOL    HW230663   4.303   6.136   6.223
 9922SOL     OW30664   1.165   5.286   0.166
 9922SOL    HW130665   1.250   5.332   0.192
 9922SOL    HW230666   1.110   5.269   0.248
 9923SOL     OW30667   4.800   5.066   6.321
 9923SOL    HW130668   4.899   5.054   6.313
 9923SOL    HW230669   4.762   5.089   6.232
 9924SOL     OW30670   0.143   2.057   4.740
 9924SOL    HW130671   0.070   2.086   4.802
 9924SOL    HW230672   0.128   1.962   4.713
 9925SOL     OW30673   6.753   3.812   3.823
 9925SOL    HW130674   6.847   3.840   3.840
 9925SOL    HW230675   6.693   3.853   3.892
 9926SOL     OW30676   2.615   3.794   0.176
 9926SOL    HW130677   2.703   3.751   0.156
 9926SOL    HW230678   2.606   3.877   0.121
 9927SOL     OW30679   6.087   7.010   2.147
 9927SOL    HW130680   6.063   6.935   2.084
 9927SOL    HW230681   6.038   6.998   2.233
 9928SOL     OW30682   4.995   5.152   1.754
 9928SOL    HW130683   5.081   5.101   1.756
 9928SOL    HW230684   4.975   5.188   1.845
 9929SOL     OW30685   1.985   5.526   5.378
 9929SOL    HW130686   1.921   5.468   5.327
 9929SOL    HW230687   1.945   5.553   5.465
 9930SOL     OW30688   6.215   0.417   4.572
 9930SOL    HW130689   6.311   0.426   4.596
 9930SOL    HW230690   6.202   0.441   4.475
 9931SOL     OW30691   0.900   4.468   5.265
 9931SOL    HW130692   0.930   4.390   5.320
 9931SOL    HW230693   0.935   4.458   5.172
 9932SOL     OW30694   1.874   6.364   6.471
 9932SOL    HW130695   1.822   6.370   6.556
 9932SOL    HW230696   1.856   6.275   6.428
 9933SOL     OW30697   1.918   4.713   2.622
 9933SOL    HW130698   1.851   4.763   2.567
 9933SOL    HW230699   1.870   4.646   2.680
 9934SOL     OW30700   6.153   1.987   5.741
 9934SOL    HW130701   6.227   2.038   5.786
 9934SOL    HW230702   6.093   1.949   5.810
 9935SOL     OW30703   2.830   0.967   0.598
 9935SOL    HW130704   2.819   1.031   0.674
 9935SOL    HW230705   2.912   0.912   0.613
 9936SOL     OW30706   6.824   4.892   4.772
 9936SOL    HW130707   6.768   4.862   4.849
 9936SOL    HW230708   6.854   4.986   4.787
 9937SOL     OW30709   6.131   2.338   5.394
 9937SOL    HW130710   6.200   2.396   5.437
 9937SOL    HW230711   6.120   2.365   5.298
 9938SOL     OW30712   6.788   6.045   3.183
 9938SOL    HW130713   6.868   5.985   3.177
 9938SOL    HW230714   6.817   6.136   3.214
 9939SOL     OW30715   3.281   2.842   0.517
 9939SOL    HW130716   3.264   2.744   0.529
 9939SOL    HW230717   3.380   2.857   0.505
 9940SOL     OW30718   0.509   0.704   1.220
 9940SOL    HW130719   0.467   0.623   1.179
 9940SOL    HW230720   0.602   0.682   1.250
 9941SOL     OW30721   3.250   4.161   5.135
 9941SOL    HW130722   3.164   4.201   5.167
 9941SOL    HW230723   3.235   4.116   5.047
 9942SOL     OW30724   1.980   6.265   2.953
 9942SOL    HW130725   1.920   6.236   2.879
 9942SOL    HW230726   2.035   6.187   2.983
 9943SOL     OW30727   0.307   5.955   6.195
 9943SOL    HW130728   0.373   6.023   6.229
 9943SOL    HW230729   0.355   5.869   6.177
 9944SOL     OW30730   1.882   4.319   6.476
 9944SOL    HW130731   1.820   4.359   6.543
 9944SOL    HW230732   1.842   4.329   6.385
 9945SOL     OW30733   6.683   5.302   0.189
 9945SOL    HW130734   6.707   5.238   0.117
 9945SOL    HW230735   6.628   5.255   0.258
 9946SOL     OW30736   5.573   1.403   5.258
 9946SOL    HW130737   5.659   1.395   5.308
 9946SOL    HW230738   5.499   1.363   5.312
 9947SOL     OW30739   6.892   4.139   6.084
 9947SOL    HW130740   6.909   4.229   6.123
 9947SOL    HW230741   6.860   4.150   5.989
 9948SOL     OW30742   4.814   5.111   4.749
 9948SOL    HW130743   4.800   5.180   4.820
 9948SOL    HW230744   4.894   5.056   4.771
 9949SOL     OW30745   5.518   4.980   3.786
 9949SOL    HW130746   5.447   5.032   3.834
 9949SOL    HW230747   5.480   4.943   3.701
 9950SOL     OW30748   5.850   6.197   5.503
 9950SOL    HW130749   5.798   6.175   5.420
 9950SOL    HW230750   5.819   6.285   5.539
 9951SOL     OW30751   6.599   2.113   3.904
 9951SOL    HW130752   6.643   2.028   3.934
 9951SOL    HW230753   6.623   2.187   3.967
 9952SOL     OW30754   6.554   3.563   0.896
 9952SOL    HW130755   6.512   3.622   0.827
 9952SOL    HW230756   6.606   3.491   0.851
 9953SOL     OW30757   6.253   2.456   4.590
 9953SOL    HW130758   6.292   2.537   4.634
 9953SOL    HW230759   6.156   2.469   4.574
 9954SOL     OW30760   5.827   6.008   6.074
 9954SOL    HW130761   5.793   5.927   6.026
 9954SOL    HW230762   5.806   6.090   6.019
 9955SOL     OW30763   6.684   4.562   5.157
 9955SOL    HW130764   6.684   4.506   5.240
 9955SOL    HW230765   6.719   4.507   5.081
 9956SOL     OW30766   1.962   0.232   1.950
 9956SOL    HW130767   2.027   0.169   1.908
 9956SOL    HW230768   1.960   0.318   1.899
 9957SOL     OW30769   6.239   5.692   3.107
 9957SOL    HW130770   6.141   5.700   3.125
 9957SOL    HW230771   6.283   5.646   3.184
 9958SOL     OW30772   3.844   5.316   0.092
 9958SOL    HW130773   3.940   5.293   0.075
 9958SOL    HW230774   3.836   5.368   0.177
 9959SOL     OW30775   4.147   3.713   5.865
 9959SOL    HW130776   4.217   3.664   5.916
 9959SOL    HW230777   4.185   3.799   5.830
 9960SOL     OW30778   6.599   0.232   2.622
 9960SOL    HW130779   6.674   0.225   2.557
 9960SOL    HW230780   6.557   0.142   2.635
 9961SOL     OW30781   2.116   5.709   4.089
 9961SOL    HW130782   2.175   5.633   4.116
 9961SOL    HW230783   2.102   5.770   4.167
 9962SOL     OW30784   6.036   6.848   3.889
 9962SOL    HW130785   5.953   6.879   3.935
 9962SOL    HW230786   6.099   6.926   3.878
 9963SOL     OW30787   3.162   2.548   0.562
 9963SOL    HW130788   3.128   2.457   0.588
 9963SOL    HW230789   3.238   2.537   0.497
 9964SOL     OW30790   5.101   5.753   4.453
 9964SOL    HW130791   5.054   5.754   4.541
 9964SOL    HW230792   5.199   5.742   4.467
 9965SOL     OW30793   4.101   6.531   6.852
 9965SOL    HW130794   4.122   6.475   6.772
 9965SOL    HW230795   4.165   6.607   6.857
 9966SOL     OW30796   1.262   4.912   1.727
 9966SOL    HW130797   1.313   4.896   1.811
 9966SOL    HW230798   1.164   4.909   1.747
 9967SOL     OW30799   1.080   5.593   1.979
 9967SOL    HW130800   1.129   5.529   2.038
 9967SOL    HW230801   1.026   5.542   1.912
 9968SOL     OW30802   3.650   4.067   2.421
 9968SOL    HW130803   3.581   4.085   2.491
 9968SOL    HW230804   3.616   4.092   2.331
 9969SOL     OW30805   1.469   3.708   2.613
 9969SOL    HW130806   1.426   3.773   2.550
 9969SOL    HW230807   1.519   3.639   2.561
 9970SOL     OW30808   5.004   4.114   1.550
 9970SOL    HW130809   5.088   4.147   1.594
 9970SOL    HW230810   4.957   4.190   1.507
 9971SOL     OW30811   1.267   4.873   1.055
 9971SOL    HW130812   1.267   4.775   1.075
 9971SOL    HW230813   1.241   4.887   0.959
 9972SOL     OW30814   5.697   4.358   1.704
 9972SOL    HW130815   5.665   4.378   1.796
 9972SOL    HW230816   5.625   4.308   1.654
 9973SOL     OW30817   5.470   1.641   3.317
 9973SOL    HW130818   5.476   1.542   3.325
 9973SOL    HW230819   5.448   1.666   3.222
 9974SOL     OW30820   1.174   1.095   3.280
 9974SOL    HW130821   1.134   1.174   3.325
 9974SOL    HW230822   1.158   1.013   3.334
 9975SOL     OW30823   6.889   2.854   0.571
 9975SOL    HW130824   6.884   2.885   0.666
 9975SOL    HW230825   6.825   2.778   0.557
 9976SOL     OW30826   0.673   0.119   5.557
 9976SOL    HW130827   0.717   0.115   5.467
 9976SOL    HW230828   0.575   0.102   5.547
 9977SOL     OW30829   6.038   4.986   5.447
 9977SOL    HW130830   6.115   4.922   5.444
 9977SOL    HW230831   6.063   5.070   5.399
 9978SOL     OW30832   0.570   2.103   4.747
 9978SOL    HW130833   0.569   2.196   4.709
 9978SOL    HW230834   0.642   2.095   4.815
 9979SOL     OW30835   6.139   4.435   4.578
 9979SOL    HW130836   6.085   4.462   4.499
 9979SOL    HW230837   6.101   4.475   4.661
 9980SOL     OW30838   3.302   0.284   6.673
 9980SOL    HW130839   3.374   0.329   6.726
 9980SOL    HW230840   3.289   0.333   6.586
 9981SOL     OW30841   3.510   1.499   3.488
 9981SOL    HW130842   3.475   1.591   3.504
 9981SOL    HW230843   3.455   1.433   3.540
 9982SOL     OW30844   6.738   5.793   3.717
 9982SOL    HW130845   6.711   5.873   3.663
 9982SOL    HW230846   6.678   5.786   3.797
 9983SOL     OW30847   6.674   1.274   2.704
 9983SOL    HW130848   6.724   1.316   2.629
 9983SOL    HW230849   6.701   1.178   2.713
 9984SOL     OW30850   2.287   1.889   6.561
 9984SOL    HW130851   2.234   1.964   6.599
 9984SOL    HW230852   2.327   1.918   6.474
 9985SOL     OW30853   2.108   0.850   1.636
 9985SOL    HW130854   2.100   0.752   1.620
 9985SOL    HW230855   2.107   0.868   1.735
 9986SOL     OW30856   5.793   3.956   5.000
 9986SOL    HW130857   5.788   3.893   4.923
 9986SOL    HW230858   5.816   3.905   5.083
 9987SOL     OW30859   5.659   3.506   5.974
 9987SOL    HW130860   5.646   3.600   6.005
 9987SOL    HW230861   5.570   3.464   5.955
 9988SOL     OW30862   6.608   6.691   5.132
 9988SOL    HW130863   6.616   6.741   5.218
 9988SOL    HW230864   6.586   6.595   5.151
 9989SOL     OW30865   0.270   3.006   4.322
 9989SOL    HW130866   0.305   3.093   4.357
 9989SOL    HW230867   0.281   3.003   4.222
 9990SOL     OW30868   1.057   5.004   3.238
 9990SOL    HW130869   1.128   4.936   3.252
 9990SOL    HW230870   1.037   5.049   3.325
 9991SOL     OW30871   3.033   2.224   4.396
 9991SOL    HW130872   3.104   2.203   4.463
 9991SOL    HW230873   3.029   2.323   4.381
 9992SOL     OW30874   5.982   5.041   6.184
 9992SOL    HW130875   5.958   5.013   6.277
 9992SOL    HW230876   6.017   4.962   6.133
 9993SOL     OW30877   2.262   1.821   1.439
 9993SOL    HW130878   2.225   1.764   1.512
 9993SOL    HW230879   2.309   1.762   1.373
 9994SOL     OW30880   5.788   4.693   3.416
 9994SOL    HW130881   5.849   4.772   3.421
 9994SOL    HW230882   5.824   4.627   3.351
 9995SOL     OW30883   5.070   1.428   4.057
 9995SOL    HW130884   5.043   1.372   3.979
 9995SOL    HW230885   5.168   1.449   4.051
 9996SOL     OW30886   3.479   4.446   0.102
 9996SOL    HW130887   3.565   4.411   0.064
 9996SOL    HW230888   3.497   4.491   0.189
 9997SOL     OW30889   2.967   1.276   5.696
 9997SOL    HW130890   2.988   1.184   5.664
 9997SOL    HW230891   3.037   1.339   5.662
 9998SOL     OW30892   6.137   5.046   5.078
 9998SOL    HW130893   6.064   5.092   5.129
 9998SOL    HW230894   6.097   4.976   5.018
 9999SOL     OW30895   6.060   2.667   5.615
 9999SOL    HW130896   6.008   2.736   5.565
 9999SOL    HW230897   6.143   2.707   5.653
10000SOL     OW30898   0.251   2.593   0.183
10000SOL    HW130899   0.236   2.515   0.243
10000SOL    HW230900   0.178   2.660   0.195
10001SOL     OW30901   4.991   0.807   1.988
10001SOL    HW130902   5.038   0.843   2.069
10001SOL    HW230903   4.931   0.877   1.950
10002SOL     OW30904   1.016   6.973   1.969
10002SOL    HW130905   0.957   0.000   1.905
10002SOL    HW230906   1.109   6.972   1.934
10003SOL     OW30907   3.659   2.137   3.725
10003SOL    HW130908   3.717   2.143   3.644
10003SOL    HW230909   3.693   2.199   3.796
10004SOL     OW30910   0.186   2.294   3.413
10004SOL    HW130911   0.116   2.276   3.344
10004SOL    HW230912   0.147   2.280   3.504
10005SOL     OW30913   5.161   0.619   2.871
10005SOL    HW130914   5.121   0.687   2.933
10005SOL    HW230915   5.204   0.547   2.925
10006SOL     OW30916   4.063   0.065   4.914
10006SOL    HW130917   4.112   0.137   4.865
10006SOL    HW230918   4.112   7.001   4.905
10007SOL     OW30919   0.581   3.029   4.587
10007SOL    HW130920   0.680   3.013   4.580
10007SOL    HW230921   0.532   2.962   4.532
10008SOL     OW30922   3.101   0.759   4.407
10008SOL    HW130923   3.170   0.707   4.457
10008SOL    HW230924   3.144   0.804   4.328
10009SOL     OW30925   2.176   3.898   1.915
10009SOL    HW130926   2.144   3.869   2.005
10009SOL    HW230927   2.263   3.853   1.894
10010SOL     OW30928   1.948   1.414   0.198
10010SOL    HW130929   1.984   1.338   0.145
10010SOL    HW230930   2.012   1.491   0.195
10011SOL     OW30931   6.606   6.744   5.422
10011SOL    HW130932   6.556   6.673   5.473
10011SOL    HW230933   6.593   6.832   5.467
10012SOL     OW30934   5.880   1.273   4.095
10012SOL    HW130935   5.804   1.337   4.104
10012SOL    HW230936   5.957   1.317   4.049
10013SOL     OW30937   7.010   0.465   2.937
10013SOL    HW130938   6.988   0.557   2.904
10013SOL    HW230939   0.005   0.405   2.859
10014SOL     OW30940   0.481   4.362   6.246
10014SOL    HW130941   0.504   4.308   6.166
10014SOL    HW230942   0.437   4.304   6.315
10015SOL     OW30943   2.266   4.778   6.837
10015SOL    HW130944   2.270   4.805   6.933
10015SOL    HW230945   2.199   4.705   6.825
10016SOL     OW30946   2.526   1.224   6.606
10016SOL    HW130947   2.617   1.182   6.603
10016SOL    HW230948   2.518   1.293   6.534
10017SOL     OW30949   2.499   1.957   4.586
10017SOL    HW130950   2.472   1.874   4.636
10017SOL    HW230951   2.598   1.964   4.585
10018SOL     OW30952   5.083   0.739   5.649
10018SOL    HW130953   4.985   0.746   5.633
10018SOL    HW230954   5.101   0.718   5.745
10019SOL     OW30955   1.530   0.686   3.056
10019SOL    HW130956   1.545   0.630   3.137
10019SOL    HW230957   1.510   0.780   3.083
10020SOL     OW30958   1.259   2.898   1.175
10020SOL    HW130959   1.190   2.943   1.232
10020SOL    HW230960   1.325   2.852   1.233
10021SOL     OW30961   0.184   3.744   1.173
10021SOL    HW130962   0.160   3.827   1.122
10021SOL    HW230963   0.188   3.765   1.270
10022SOL     OW30964   1.468   2.175   6.657
10022SOL    HW130965   1.384   2.182   6.602
10022SOL    HW230966   1.529   2.251   6.635
10023SOL     OW30967   6.345   3.452   0.613
10023SOL    HW130968   6.395   3.474   0.529
10023SOL    HW230969   6.369   3.519   0.683
10024SOL     OW30970   1.430   4.397   4.161
10024SOL    HW130971   1.352   4.444   4.202
10024SOL    HW230972   1.430   4.412   4.062
10025SOL     OW30973   1.907   1.086   1.548
10025SOL    HW130974   1.912   1.105   1.646
10025SOL    HW230975   1.955   1.001   1.528
10026SOL     OW30976   6.412   0.689   3.131
10026SOL    HW130977   6.327   0.720   3.173
10026SOL    HW230978   6.479   0.764   3.134
10027SOL     OW30979   5.697   3.529   4.991
10027SOL    HW130980   5.679   3.462   5.063
10027SOL    HW230981   5.760   3.599   5.025
10028SOL     OW30982   1.701   1.027   0.446
10028SOL    HW130983   1.732   0.942   0.403
10028SOL    HW230984   1.712   1.103   0.382
10029SOL     OW30985   5.549   1.815   3.812
10029SOL    HW130986   5.505   1.902   3.794
10029SOL    HW230987   5.583   1.776   3.727
10030SOL     OW30988   1.375   0.362   4.086
10030SOL    HW130989   1.358   0.438   4.023
10030SOL    HW230990   1.458   0.380   4.139
10031SOL     OW30991   6.438   4.262   3.390
10031SOL    HW130992   6.494   4.201   3.446
10031SOL    HW230993   6.377   4.315   3.449
10032SOL     OW30994   2.844   1.412   5.209
10032SOL    HW130995   2.874   1.430   5.302
10032SOL    HW230996   2.880   1.483   5.148
10033SOL     OW30997   5.640   3.183   4.661
10033SOL    HW130998   5.674   3.108   4.605
10033SOL    HW230999   5.643   3.268   4.608
10034SOL     OW31000   5.138   0.196   5.187
10034SOL    HW131001   5.234   0.203   5.162
10034SOL    HW231002   5.083   0.175   5.106
10035SOL     OW31003   0.412   5.392   1.256
10035SOL    HW131004   0.488   5.457   1.254
10035SOL    HW231005   0.397   5.356   1.164
10036SOL     OW31006   6.692   1.829   0.081
10036SOL    HW131007   6.750   1.764   0.031
10036SOL    HW231008   6.750   1.892   0.132
10037SOL     OW31009   0.556   0.258   6.910
10037SOL    HW131010   0.599   0.336   6.864
10037SOL    HW231011   0.599   0.173   6.878
10038SOL     OW31012   6.610   6.767   1.123
10038SOL    HW131013   6.541   6.770   1.051
10038SOL    HW231014   6.661   6.853   1.125
10039SOL     OW31015   3.453   0.386   3.946
10039SOL    HW131016   3.465   0.303   3.891
10039SOL    HW231017   3.421   0.360   4.037
10040SOL     OW31018   0.019   3.343   1.138
10040SOL    HW131019   6.963   3.365   1.080
10040SOL    HW231020   0.104   3.364   1.089
10041SOL     OW31021   2.076   6.432   0.393
10041SOL    HW131022   2.078   6.332   0.394
10041SOL    HW231023   2.169   6.467   0.385
10042SOL     OW31024   6.694   2.045   2.877
10042SOL    HW131025   6.627   2.104   2.832
10042SOL    HW231026   6.652   1.956   2.896
10043SOL     OW31027   0.142   1.843   6.013
10043SOL    HW131028   0.145   1.776   6.088
10043SOL    HW231029   0.153   1.795   5.926
10044SOL     OW31030   3.237   2.435   5.636
10044SOL    HW131031   3.193   2.445   5.547
10044SOL    HW231032   3.173   2.462   5.708
10045SOL     OW31033   3.702   1.140   0.771
10045SOL    HW131034   3.796   1.108   0.779
10045SOL    HW231035   3.672   1.132   0.676
10046SOL     OW31036   2.005   5.165   1.537
10046SOL    HW131037   2.077   5.225   1.573
10046SOL    HW231038   1.934   5.153   1.606
10047SOL     OW31039   0.709   3.393   0.007
10047SOL    HW131040   0.632   3.425   6.974
10047SOL    HW231041   0.721   3.294   7.017
10048SOL     OW31042   5.930   6.335   3.053
10048SOL    HW131043   5.845   6.285   3.068
10048SOL    HW231044   5.925   6.386   2.967
10049SOL     OW31045   0.034   0.960   5.615
10049SOL    HW131046   7.013   0.875   5.584
10049SOL    HW231047   6.998   1.038   5.594
10050SOL     OW31048   6.273   3.103   6.175
10050SOL    HW131049   6.346   3.104   6.244
10050SOL    HW231050   6.200   3.166   6.203
10051SOL     OW31051   1.522   3.313   3.729
10051SOL    HW131052   1.461   3.307   3.808
10051SOL    HW231053   1.561   3.222   3.711
10052SOL     OW31054   1.147   0.339   2.805
10052SOL    HW131055   1.070   0.314   2.864
10052SOL    HW231056   1.141   0.436   2.781
10053SOL     OW31057   5.455   5.262   4.741
10053SOL    HW131058   5.395   5.218   4.808
10053SOL    HW231059   5.444   5.218   4.652
10054SOL     OW31060   6.062   4.050   4.827
10054SOL    HW131061   6.121   4.106   4.769
10054SOL    HW231062   6.014   4.108   4.892
10055SOL     OW31063   0.508   2.105   6.394
10055SOL    HW131064   0.435   2.039   6.409
10055SOL    HW231065   0.518   2.122   6.296
10056SOL     OW31066   6.389   2.877   4.157
10056SOL    HW131067   6.432   2.918   4.077
10056SOL    HW231068   6.459   2.840   4.217
10057SOL     OW31069   5.769   5.072   5.775
10057SOL    HW131070   5.867   5.078   5.795
10057SOL    HW231071   5.717   5.081   5.860
10058SOL     OW31072   6.921   4.004   5.031
10058SOL    HW131073   7.014   3.986   5.064
10058SOL    HW231074   6.862   3.926   5.053
10059SOL     OW31075   6.628   0.510   6.727
10059SOL    HW131076   6.566   0.456   6.670
10059SOL    HW231077   6.670   0.451   6.796
10060SOL     OW31078   2.512   2.255   2.171
10060SOL    HW131079   2.574   2.273   2.248
10060SOL    HW231080   2.563   2.213   2.096
10061SOL     OW31081   3.891   0.385   2.662
10061SOL    HW131082   3.856   0.477   2.645
10061SOL    HW231083   3.938   0.352   2.581
10062SOL     OW31084   5.755   0.521   4.433
10062SOL    HW131085   5.826   0.564   4.378
10062SOL    HW231086   5.665   0.548   4.397
10063SOL     OW31087   1.505   2.935   5.238
10063SOL    HW131088   1.459   2.856   5.278
10063SOL    HW231089   1.594   2.949   5.281
10064SOL     OW31090   2.958   6.639   0.637
10064SOL    HW131091   3.036   6.584   0.607
10064SOL    HW231092   2.981   6.685   0.723
10065SOL     OW31093   0.923   1.710   1.870
10065SOL    HW131094   0.986   1.631   1.874
10065SOL    HW231095   0.829   1.677   1.870
10066SOL     OW31096   6.371   3.554   3.448
10066SOL    HW131097   6.330   3.503   3.524
10066SOL    HW231098   6.429   3.627   3.485
10067SOL     OW31099   6.508   2.619   5.100
10067SOL    HW131100   6.567   2.618   5.180
10067SOL    HW231101   6.564   2.637   5.018
10068SOL     OW31102   2.054   2.819   2.855
10068SOL    HW131103   2.120   2.842   2.784
10068SOL    HW231104   2.099   2.769   2.929
10069SOL     OW31105   3.012   5.091   0.921
10069SOL    HW131106   2.916   5.110   0.944
10069SOL    HW231107   3.017   5.046   0.832
10070SOL     OW31108   3.686   6.754   5.781
10070SOL    HW131109   3.658   6.710   5.867
10070SOL    HW231110   3.625   6.831   5.763
10071SOL     OW31111   6.488   0.071   3.753
10071SOL    HW131112   6.580   0.061   3.789
10071SOL    HW231113   6.478   0.016   3.670
10072SOL     OW31114   6.093   3.025   1.673
10072SOL    HW131115   6.157   3.090   1.632
10072SOL    HW231116   6.130   2.991   1.760
10073SOL     OW31117   0.234   4.407   4.180
10073SOL    HW131118   0.193   4.342   4.116
10073SOL    HW231119   0.183   4.403   4.267
10074SOL     OW31120   1.164   5.056   0.030
10074SOL    HW131121   1.167   5.136   0.090
10074SOL    HW231122   1.084   5.000   0.054
10075SOL     OW31123   1.630   3.520   1.905
10075SOL    HW131124   1.695   3.447   1.926
10075SOL    HW231125   1.600   3.512   1.810
10076SOL     OW31126   4.959   5.570   4.285
10076SOL    HW131127   4.996   5.633   4.354
10076SOL    HW231128   4.860   5.565   4.295
10077SOL     OW31129   4.993   3.357   6.499
10077SOL    HW131130   5.077   3.305   6.488
10077SOL    HW231131   4.925   3.324   6.432
10078SOL     OW31132   6.352   5.795   5.091
10078SOL    HW131133   6.412   5.861   5.138
10078SOL    HW231134   6.313   5.838   5.010
10079SOL     OW31135   4.748   2.692   3.499
10079SOL    HW131136   4.780   2.777   3.456
10079SOL    HW231137   4.820   2.657   3.559
10080SOL     OW31138   4.687   1.139   5.777
10080SOL    HW131139   4.724   1.227   5.745
10080SOL    HW231140   4.666   1.082   5.697
10081SOL     OW31141   1.823   4.079   0.734
10081SOL    HW131142   1.908   4.083   0.682
10081SOL    HW231143   1.755   4.025   0.684
10082SOL     OW31144   1.409   4.836   0.743
10082SOL    HW131145   1.395   4.754   0.687
10082SOL    HW231146   1.320   4.871   0.774
10083SOL     OW31147   3.581   4.935   3.280
10083SOL    HW131148   3.619   4.843   3.271
10083SOL    HW231149   3.612   4.977   3.365
10084SOL     OW31150   1.096   1.579   4.818
10084SOL    HW131151   1.066   1.655   4.876
10084SOL    HW231152   1.054   1.588   4.728
10085SOL     OW31153   4.988   6.939   0.330
10085SOL    HW131154   5.019   6.848   0.306
10085SOL    HW231155   4.934   6.936   0.414
10086SOL     OW31156   6.811   6.374   3.682
10086SOL    HW131157   6.745   6.446   3.661
10086SOL    HW231158   6.820   6.313   3.603
10087SOL     OW31159   1.122   6.811   5.829
10087SOL    HW131160   1.210   6.843   5.864
10087SOL    HW231161   1.129   6.714   5.807
10088SOL     OW31162   0.587   2.564   0.277
10088SOL    HW131163   0.508   2.589   0.221
10088SOL    HW231164   0.578   2.606   0.368
10089SOL     OW31165   3.828   1.804   1.659
10089SOL    HW131166   3.840   1.756   1.745
10089SOL    HW231167   3.813   1.738   1.586
10090SOL     OW31168   2.482   5.864   2.961
10090SOL    HW131169   2.525   5.899   3.044
10090SOL    HW231170   2.382   5.867   2.971
10091SOL     OW31171   6.736   4.399   5.356
10091SOL    HW131172   6.655   4.341   5.355
10091SOL    HW231173   6.816   4.344   5.380
10092SOL     OW31174   0.862   1.907   3.370
10092SOL    HW131175   0.847   1.937   3.464
10092SOL    HW231176   0.779   1.923   3.317
10093SOL     OW31177   4.809   4.503   5.659
10093SOL    HW131178   4.740   4.468   5.596
10093SOL    HW231179   4.852   4.584   5.620
10094SOL     OW31180   3.201   1.908   0.715
10094SOL    HW131181   3.114   1.952   0.692
10094SOL    HW231182   3.271   1.978   0.726
10095SOL     OW31183   4.479   2.909   5.294
10095SOL    HW131184   4.566   2.890   5.247
10095SOL    HW231185   4.457   3.006   5.286
10096SOL     OW31186   5.662   2.613   2.428
10096SOL    HW131187   5.591   2.682   2.442
10096SOL    HW231188   5.710   2.632   2.342
10097SOL     OW31189   0.704   1.046   6.644
10097SOL    HW131190   0.664   0.954   6.639
10097SOL    HW231191   0.631   1.114   6.648
10098SOL     OW31192   2.669   5.445   3.838
10098SOL    HW131193   2.697   5.362   3.887
10098SOL    HW231194   2.612   5.419   3.760
10099SOL     OW31195   0.689   5.106   1.406
10099SOL    HW131196   0.621   5.130   1.475
10099SOL    HW231197   0.643   5.083   1.320
10100SOL     OW31198   5.026   5.447   4.040
10100SOL    HW131199   4.941   5.420   3.994
10100SOL    HW231200   5.005   5.513   4.113
10101SOL     OW31201   0.194   2.807   1.588
10101SOL    HW131202   0.196   2.708   1.576
10101SOL    HW231203   0.215   2.851   1.501
10102SOL     OW31204   6.713   5.559   3.342
10102SOL    HW131205   6.690   5.579   3.247
10102SOL    HW231206   6.794   5.500   3.345
10103SOL     OW31207   6.451   6.094   6.227
10103SOL    HW131208   6.493   6.181   6.200
10103SOL    HW231209   6.511   6.019   6.201
10104SOL     OW31210   1.902   0.432   4.374
10104SOL    HW131211   1.943   0.502   4.317
10104SOL    HW231212   1.841   0.475   4.441
10105SOL     OW31213   3.158   0.677   5.936
10105SOL    HW131214   3.257   0.686   5.924
10105SOL    HW231215   3.111   0.748   5.885
10106SOL     OW31216   5.513   5.082   1.535
10106SOL    HW131217   5.546   4.989   1.554
10106SOL    HW231218   5.591   5.143   1.520
10107SOL     OW31219   5.269   4.322   0.096
10107SOL    HW131220   5.290   4.370   0.011
10107SOL    HW231221   5.176   4.347   0.125
10108SOL     OW31222   1.993   2.512   0.489
10108SOL    HW131223   2.048   2.526   0.571
10108SOL    HW231224   2.052   2.491   0.411
10109SOL     OW31225   1.224   2.143   1.808
10109SOL    HW131226   1.141   2.190   1.776
10109SOL    HW231227   1.199   2.054   1.846
10110SOL     OW31228   5.165   5.973   2.731
10110SOL    HW131229   5.252   6.003   2.770
10110SOL    HW231230   5.089   6.019   2.778
10111SOL     OW31231   1.245   2.868   1.847
10111SOL    HW131232   1.218   2.843   1.754
10111SOL    HW231233   1.193   2.948   1.876
10112SOL     OW31234   6.924   2.273   2.803
10112SOL    HW131235   7.003   2.212   2.802
10112SOL    HW231236   6.888   2.282   2.710
10113SOL     OW31237   0.263   0.936   5.793
10113SOL    HW131238   0.210   0.933   5.708
10113SOL    HW231239   0.274   1.031   5.822
10114SOL     OW31240   5.377   1.633   1.586
10114SOL    HW131241   5.294   1.589   1.618
10114SOL    HW231242   5.418   1.578   1.513
10115SOL     OW31243   3.274   2.737   6.242
10115SOL    HW131244   3.345   2.800   6.212
10115SOL    HW231245   3.314   2.664   6.297
10116SOL     OW31246   6.807   0.340   5.200
10116SOL    HW131247   6.825   0.436   5.179
10116SOL    HW231248   6.866   0.283   5.143
10117SOL     OW31249   5.844   5.150   3.152
10117SOL    HW131250   5.918   5.117   3.093
10117SOL    HW231251   5.877   5.159   3.246
10118SOL     OW31252   4.311   5.435   3.465
10118SOL    HW131253   4.394   5.477   3.427
10118SOL    HW231254   4.246   5.507   3.490
10119SOL     OW31255   0.264   5.552   4.999
10119SOL    HW131256   0.244   5.648   5.019
10119SOL    HW231257   0.192   5.514   4.942
10120SOL     OW31258   1.937   3.088   2.861
10120SOL    HW131259   1.992   3.024   2.807
10120SOL    HW231260   1.986   3.112   2.944
10121SOL     OW31261   6.537   5.014   1.046
10121SOL    HW131262   6.451   4.977   1.081
10121SOL    HW231263   6.534   5.113   1.050
10122SOL     OW31264   1.683   0.372   3.753
10122SOL    HW131265   1.589   0.357   3.723
10122SOL    HW231266   1.723   0.447   3.700
10123SOL     OW31267   6.670   5.340   6.771
10123SOL    HW131268   6.676   5.428   6.819
10123SOL    HW231269   6.655   5.267   6.838
10124SOL     OW31270   1.946   5.146   2.689
10124SOL    HW131271   1.960   5.128   2.592
10124SOL    HW231272   2.009   5.091   2.743
10125SOL     OW31273   1.945   1.166   4.742
10125SOL    HW131274   1.907   1.195   4.830
10125SOL    HW231275   1.913   1.073   4.721
10126SOL     OW31276   6.236   6.243   6.331
10126SOL    HW131277   6.188   6.296   6.261
10126SOL    HW231278   6.312   6.193   6.290
10127SOL     OW31279   2.588   0.001   5.823
10127SOL    HW131280   2.499   0.046   5.814
10127SOL    HW231281   2.590   6.943   5.765
10128SOL     OW31282   3.292   2.683   6.885
10128SOL    HW131283   3.288   2.696   6.984
10128SOL    HW231284   3.214   2.728   6.842
10129SOL     OW31285   6.155   1.777   4.757
10129SOL    HW131286   6.078   1.733   4.804
10129SOL    HW231287   6.190   1.852   4.813
10130SOL     OW31288   1.132   0.875   3.420
10130SOL    HW131289   1.161   0.813   3.347
10130SOL    HW231290   1.080   0.824   3.488
10131SOL     OW31291   1.560   6.239   3.790
10131SOL    HW131292   1.511   6.280   3.867
10131SOL    HW231293   1.626   6.172   3.825
10132SOL     OW31294   6.378   0.225   1.506
10132SOL    HW131295   6.394   0.141   1.453
10132SOL    HW231296   6.317   0.205   1.582
10133SOL     OW31297   5.357   6.126   0.242
10133SOL    HW131298   5.372   6.209   0.296
10133SOL    HW231299   5.427   6.059   0.264
10134SOL     OW31300   6.914   6.441   2.325
10134SOL    HW131301   7.001   6.476   2.289
10134SOL    HW231302   6.848   6.430   2.251
10135SOL     OW31303   6.311   0.148   2.597
10135SOL    HW131304   6.349   0.064   2.637
10135SOL    HW231305   6.295   0.215   2.669
10136SOL     OW31306   4.905   2.103   3.374
10136SOL    HW131307   4.860   2.035   3.432
10136SOL    HW231308   4.877   2.089   3.279
10137SOL     OW31309   6.306   5.154   5.477
10137SOL    HW131310   6.262   5.097   5.546
10137SOL    HW231311   6.404   5.158   5.494
10138SOL     OW31312   0.317   2.587   1.174
10138SOL    HW131313   0.247   2.658   1.179
10138SOL    HW231314   0.386   2.612   1.107
10139SOL     OW31315   2.540   3.288   6.704
10139SOL    HW131316   2.544   3.321   6.798
10139SOL    HW231317   2.501   3.196   6.703
10140SOL     OW31318   0.722   6.565   5.820
10140SOL    HW131319   0.629   6.582   5.788
10140SOL    HW231320   0.786   6.626   5.773
10141SOL     OW31321   2.053   2.522   4.329
10141SOL    HW131322   2.020   2.519   4.423
10141SOL    HW231323   2.015   2.445   4.277
10142SOL     OW31324   4.267   6.564   3.820
10142SOL    HW131325   4.237   6.570   3.725
10142SOL    HW231326   4.217   6.490   3.866
10143SOL     OW31327   5.206   2.819   6.613
10143SOL    HW131328   5.190   2.720   6.616
10143SOL    HW231329   5.289   2.841   6.664
10144SOL     OW31330   3.588   6.411   6.818
10144SOL    HW131331   3.688   6.414   6.823
10144SOL    HW231332   3.549   6.482   6.877
10145SOL     OW31333   5.327   6.816   6.296
10145SOL    HW131334   5.235   6.783   6.273
10145SOL    HW231335   5.362   6.874   6.223
10146SOL     OW31336   0.198   3.008   5.088
10146SOL    HW131337   0.196   2.992   4.989
10146SOL    HW231338   0.154   2.931   5.134
10147SOL     OW31339   4.179   5.919   5.729
10147SOL    HW131340   4.234   5.866   5.794
10147SOL    HW231341   4.133   5.857   5.666
10148SOL     OW31342   0.457   4.134   0.494
10148SOL    HW131343   0.371   4.136   0.443
10148SOL    HW231344   0.440   4.157   0.590
10149SOL     OW31345   3.492   3.826   0.955
10149SOL    HW131346   3.519   3.850   1.048
10149SOL    HW231347   3.398   3.789   0.956
10150SOL     OW31348   4.433   4.338   0.669
10150SOL    HW131349   4.461   4.348   0.764
10150SOL    HW231350   4.375   4.257   0.660
10151SOL     OW31351   5.899   6.870   6.026
10151SOL    HW131352   5.879   6.844   5.931
10151SOL    HW231353   5.888   6.969   6.036
10152SOL     OW31354   4.293   0.350   2.328
10152SOL    HW131355   4.379   0.301   2.341
10152SOL    HW231356   4.310   0.449   2.327
10153SOL     OW31357   4.649   4.467   2.400
10153SOL    HW131358   4.558   4.434   2.376
10153SOL    HW231359   4.642   4.554   2.449
10154SOL     OW31360   4.604   5.781   5.941
10154SOL    HW131361   4.604   5.741   6.033
10154SOL    HW231362   4.525   5.841   5.931
10155SOL     OW31363   4.630   1.550   4.640
10155SOL    HW131364   4.693   1.533   4.716
10155SOL    HW231365   4.619   1.467   4.586
10156SOL     OW31366   4.466   2.125   0.293
10156SOL    HW131367   4.528   2.150   0.220
10156SOL    HW231368   4.489   2.033   0.327
10157SOL     OW31369   0.484   4.184   1.327
10157SOL    HW131370   0.544   4.126   1.272
10157SOL    HW231371   0.405   4.131   1.358
10158SOL     OW31372   6.345   4.749   0.390
10158SOL    HW131373   6.300   4.783   0.308
10158SOL    HW231374   6.408   4.675   0.366
10159SOL     OW31375   3.450   2.979   2.256
10159SOL    HW131376   3.433   3.057   2.315
10159SOL    HW231377   3.519   3.003   2.188
10160SOL     OW31378   0.508   4.955   2.513
10160SOL    HW131379   0.551   4.919   2.596
10160SOL    HW231380   0.539   4.902   2.434
10161SOL     OW31381   5.517   3.304   4.867
10161SOL    HW131382   5.571   3.257   4.798
10161SOL    HW231383   5.571   3.314   4.950
10162SOL     OW31384   1.743   2.687   2.138
10162SOL    HW131385   1.694   2.735   2.210
10162SOL    HW231386   1.687   2.687   2.054
10163SOL     OW31387   2.569   6.090   5.084
10163SOL    HW131388   2.510   6.061   5.010
10163SOL    HW231389   2.517   6.144   5.150
10164SOL     OW31390   0.982   1.422   3.810
10164SOL    HW131391   1.008   1.507   3.764
10164SOL    HW231392   0.994   1.432   3.909
10165SOL     OW31393   0.552   3.538   4.112
10165SOL    HW131394   0.627   3.537   4.047
10165SOL    HW231395   0.587   3.516   4.203
10166SOL     OW31396   2.258   0.108   1.366
10166SOL    HW131397   2.298   0.180   1.422
10166SOL    HW231398   2.243   0.142   1.273
10167SOL     OW31399   2.225   1.481   6.655
10167SOL    HW131400   2.250   1.532   6.573
10167SOL    HW231401   2.303   1.478   6.717
10168SOL     OW31402   6.576   0.286   6.570
10168SOL    HW131403   6.526   0.325   6.493
10168SOL    HW231404   6.610   0.196   6.546
10169SOL     OW31405   4.836   3.852   3.985
10169SOL    HW131406   4.828   3.790   3.907
10169SOL    HW231407   4.928   3.844   4.024
10170SOL     OW31408   5.244   5.230   6.706
10170SOL    HW131409   5.182   5.217   6.783
10170SOL    HW231410   5.255   5.328   6.688
10171SOL     OW31411   1.610   4.728   5.322
10171SOL    HW131412   1.649   4.695   5.236
10171SOL    HW231413   1.674   4.709   5.396
10172SOL     OW31414   5.990   0.589   2.990
10172SOL    HW131415   6.023   0.678   2.957
10172SOL    HW231416   6.027   0.516   2.933
10173SOL     OW31417   3.803   3.951   4.818
10173SOL    HW131418   3.763   4.034   4.780
10173SOL    HW231419   3.733   3.880   4.823
10174SOL     OW31420   4.881   5.192   2.009
10174SOL    HW131421   4.948   5.193   2.083
10174SOL    HW231422   4.792   5.221   2.044
10175SOL     OW31423   0.209   0.232   4.120
10175SOL    HW131424   0.141   0.159   4.118
10175SOL    HW231425   0.301   0.193   4.114
10176SOL     OW31426   6.839   1.513   5.370
10176SOL    HW131427   6.923   1.564   5.388
10176SOL    HW231428   6.792   1.553   5.292
10177SOL     OW31429   2.495   1.042   3.355
10177SOL    HW131430   2.471   0.969   3.418
10177SOL    HW231431   2.447   1.028   3.268
10178SOL     OW31432   0.804   1.543   1.199
10178SOL    HW131433   0.754   1.594   1.129
10178SOL    HW231434   0.889   1.591   1.220
10179SOL     OW31435   0.930   3.641   0.695
10179SOL    HW131436   0.949   3.718   0.634
10179SOL    HW231437   0.917   3.558   0.640
10180SOL     OW31438   4.491   6.792   5.932
10180SOL    HW131439   4.441   6.734   5.868
10180SOL    HW231440   4.450   6.785   6.023
10181SOL     OW31441   5.862   3.240   2.611
10181SOL    HW131442   5.830   3.289   2.529
10181SOL    HW231443   5.882   3.306   2.683
10182SOL     OW31444   4.853   1.690   1.344
10182SOL    HW131445   4.946   1.715   1.317
10182SOL    HW231446   4.787   1.752   1.302
10183SOL     OW31447   6.365   1.201   6.096
10183SOL    HW131448   6.335   1.127   6.156
10183SOL    HW231449   6.436   1.168   6.034
10184SOL     OW31450   5.737   1.712   5.847
10184SOL    HW131451   5.776   1.713   5.755
10184SOL    HW231452   5.659   1.775   5.851
10185SOL     OW31453   3.862   5.562   1.641
10185SOL    HW131454   3.862   5.639   1.705
10185SOL    HW231455   3.954   5.523   1.636
10186SOL     OW31456   3.610   3.293   6.209
10186SOL    HW131457   3.643   3.203   6.236
10186SOL    HW231458   3.653   3.363   6.266
10187SOL     OW31459   2.060   4.489   5.652
10187SOL    HW131460   2.063   4.566   5.588
10187SOL    HW231461   2.153   4.457   5.670
10188SOL     OW31462   3.041   0.008   6.134
10188SOL    HW131463   3.103   6.976   6.190
10188SOL    HW231464   2.951   6.986   6.133
10189SOL     OW31465   1.391   1.611   5.716
10189SOL    HW131466   1.456   1.672   5.762
10189SOL    HW231467   1.326   1.576   5.783
10190SOL     OW31468   4.342   5.132   1.362
10190SOL    HW131469   4.421   5.087   1.319
10190SOL    HW231470   4.331   5.098   1.455
10191SOL     OW31471   5.305   6.943   6.667
10191SOL    HW131472   5.206   6.945   6.672
10191SOL    HW231473   5.337   6.848   6.658
10192SOL     OW31474   1.750   1.552   3.749
10192SOL    HW131475   1.820   1.559   3.679
10192SOL    HW231476   1.785   1.499   3.826
10193SOL     OW31477   3.932   3.242   3.711
10193SOL    HW131478   3.933   3.142   3.704
10193SOL    HW231479   3.979   3.269   3.795
10194SOL     OW31480   3.044   0.404   2.995
10194SOL    HW131481   3.077   0.328   3.051
10194SOL    HW231482   3.113   0.428   2.926
10195SOL     OW31483   4.668   6.367   2.919
10195SOL    HW131484   4.719   6.414   2.847
10195SOL    HW231485   4.573   6.353   2.889
10196SOL     OW31486   6.438   2.606   4.388
10196SOL    HW131487   6.426   2.568   4.296
10196SOL    HW231488   6.359   2.583   4.445
10197SOL     OW31489   5.213   0.428   2.028
10197SOL    HW131490   5.191   0.433   2.126
10197SOL    HW231491   5.172   0.345   1.989
10198SOL     OW31492   2.405   7.000   0.811
10198SOL    HW131493   2.335   0.033   0.767
10198SOL    HW231494   2.495   0.019   0.799
10199SOL     OW31495   1.065   1.566   0.892
10199SOL    HW131496   1.062   1.563   0.992
10199SOL    HW231497   1.158   1.586   0.862
10200SOL     OW31498   5.562   4.069   5.170
10200SOL    HW131499   5.626   4.079   5.094
10200SOL    HW231500   5.483   4.128   5.155
10201SOL     OW31501   1.404   5.051   2.930
10201SOL    HW131502   1.438   4.961   2.957
10201SOL    HW231503   1.461   5.089   2.857
10202SOL     OW31504   0.387   3.044   2.531
10202SOL    HW131505   0.320   3.115   2.553
10202SOL    HW231506   0.478   3.085   2.526
10203SOL     OW31507   0.909   3.440   2.015
10203SOL    HW131508   0.829   3.389   1.983
10203SOL    HW231509   0.992   3.402   1.974
10204SOL     OW31510   3.189   4.920   4.496
10204SOL    HW131511   3.260   4.899   4.428
10204SOL    HW231512   3.192   5.018   4.518
10205SOL     OW31513   4.597   1.050   2.836
10205SOL    HW131514   4.654   1.018   2.912
10205SOL    HW231515   4.649   1.116   2.781
10206SOL     OW31516   4.812   7.012   5.978
10206SOL    HW131517   4.720   0.024   5.963
10206SOL    HW231518   4.873   0.065   6.003
10207SOL     OW31519   4.593   0.492   2.839
10207SOL    HW131520   4.522   0.507   2.907
10207SOL    HW231521   4.601   0.573   2.781
10208SOL     OW31522   5.857   4.040   5.388
10208SOL    HW131523   5.854   4.029   5.487
10208SOL    HW231524   5.851   3.950   5.345
10209SOL     OW31525   5.292   0.146   6.494
10209SOL    HW131526   5.314   0.059   6.539
10209SOL    HW231527   5.377   0.195   6.474
10210SOL     OW31528   5.146   5.504   1.687
10210SOL    HW131529   5.178   5.599   1.686
10210SOL    HW231530   5.093   5.487   1.770
10211SOL     OW31531   3.861   5.490   5.092
10211SOL    HW131532   3.944   5.477   5.147
10211SOL    HW231533   3.839   5.405   5.044
10212SOL     OW31534   6.155   6.772   5.201
10212SOL    HW131535   6.238   6.825   5.219
10212SOL    HW231536   6.141   6.765   5.102
10213SOL     OW31537   5.691   0.482   3.417
10213SOL    HW131538   5.641   0.568   3.409
10213SOL    HW231539   5.756   0.474   3.341
10214SOL     OW31540   6.944   0.057   2.086
10214SOL    HW131541   0.018   0.045   2.107
10214SOL    HW231542   6.909   0.138   2.134
10215SOL     OW31543   3.947   2.964   0.333
10215SOL    HW131544   3.956   2.866   0.318
10215SOL    HW231545   3.896   2.981   0.417
10216SOL     OW31546   4.738   0.231   1.535
10216SOL    HW131547   4.646   0.209   1.567
10216SOL    HW231548   4.790   0.147   1.522
10217SOL     OW31549   2.940   1.511   5.445
10217SOL    HW131550   2.926   1.604   5.410
10217SOL    HW231551   3.027   1.506   5.493
10218SOL     OW31552   1.837   2.330   1.121
10218SOL    HW131553   1.916   2.305   1.065
10218SOL    HW231554   1.858   2.414   1.171
10219SOL     OW31555   0.989   3.742   0.179
10219SOL    HW131556   0.902   3.763   0.224
10219SOL    HW231557   0.979   3.661   0.122
10220SOL     OW31558   4.174   2.192   0.835
10220SOL    HW131559   4.274   2.200   0.833
10220SOL    HW231560   4.148   2.116   0.894
10221SOL     OW31561   3.043   0.693   5.233
10221SOL    HW131562   3.112   0.754   5.192
10221SOL    HW231563   3.089   0.621   5.284
10222SOL     OW31564   1.480   5.633   5.628
10222SOL    HW131565   1.506   5.723   5.592
10222SOL    HW231566   1.418   5.645   5.705
10223SOL     OW31567   6.944   4.661   0.263
10223SOL    HW131568   6.864   4.690   0.315
10223SOL    HW231569   0.004   4.691   0.311
10224SOL     OW31570   1.856   6.665   4.165
10224SOL    HW131571   1.776   6.716   4.136
10224SOL    HW231572   1.828   6.582   4.213
10225SOL     OW31573   6.096   6.360   4.627
10225SOL    HW131574   6.074   6.358   4.529
10225SOL    HW231575   6.071   6.273   4.669
10226SOL     OW31576   0.813   1.847   1.250
10226SOL    HW131577   0.884   1.796   1.298
10226SOL    HW231578   0.796   1.806   1.160
10227SOL     OW31579   5.697   5.431   6.417
10227SOL    HW131580   5.702   5.442   6.318
10227SOL    HW231581   5.770   5.485   6.460
10228SOL     OW31582   0.716   4.532   3.000
10228SOL    HW131583   0.719   4.626   2.966
10228SOL    HW231584   0.647   4.481   2.950
10229SOL     OW31585   1.594   0.437   2.274
10229SOL    HW131586   1.675   0.480   2.313
10229SOL    HW231587   1.524   0.427   2.345
10230SOL     OW31588   6.692   6.916   3.918
10230SOL    HW131589   6.782   6.933   3.878
10230SOL    HW231590   6.699   6.916   4.018
10231SOL     OW31591   5.080   6.968   4.328
10231SOL    HW131592   5.081   7.020   4.242
10231SOL    HW231593   5.167   6.920   4.338
10232SOL     OW31594   3.676   2.045   4.833
10232SOL    HW131595   3.659   1.947   4.823
10232SOL    HW231596   3.725   2.062   4.918
10233SOL     OW31597   4.510   0.938   5.994
10233SOL    HW131598   4.514   0.862   5.928
10233SOL    HW231599   4.601   0.977   6.006
10234SOL     OW31600   5.675   6.140   1.839
10234SOL    HW131601   5.769   6.162   1.813
10234SOL    HW231602   5.623   6.115   1.757
10235SOL     OW31603   5.168   1.249   6.283
10235SOL    HW131604   5.222   1.325   6.246
10235SOL    HW231605   5.229   1.175   6.311
10236SOL     OW31606   2.096   5.799   2.578
10236SOL    HW131607   2.085   5.721   2.518
10236SOL    HW231608   2.151   5.869   2.532
10237SOL     OW31609   6.587   2.699   2.739
10237SOL    HW131610   6.587   2.600   2.728
10237SOL    HW231611   6.574   2.743   2.650
10238SOL     OW31612   5.155   4.875   4.264
10238SOL    HW131613   5.134   4.885   4.167
10238SOL    HW231614   5.077   4.834   4.311
10239SOL     OW31615   0.161   4.216   3.475
10239SOL    HW131616   0.187   4.130   3.430
10239SOL    HW231617   0.192   4.215   3.570
10240SOL     OW31618   6.951   4.067   3.565
10240SOL    HW131619   6.964   4.012   3.482
10240SOL    HW231620   7.019   4.141   3.566
10241SOL     OW31621   2.439   1.009   2.747
10241SOL    HW131622   2.518   1.068   2.734
10241SOL    HW231623   2.426   0.993   2.845
10242SOL     OW31624   0.546   6.169   6.120
10242SOL    HW131625   0.539   6.118   6.035
10242SOL    HW231626   0.625   6.231   6.115
10243SOL     OW31627   1.499   5.723   2.444
10243SOL    HW131628   1.454   5.687   2.526
10243SOL    HW231629   1.462   5.813   2.422
10244SOL     OW31630   2.458   6.577   6.649
10244SOL    HW131631   2.410   6.516   6.712
10244SOL    HW231632   2.390   6.629   6.597
10245SOL     OW31633   2.171   2.127   6.914
10245SOL    HW131634   2.139   2.070   6.839
10245SOL    HW231635   2.237   2.075   6.969
10246SOL     OW31636   3.932   3.498   4.303
10246SOL    HW131637   4.021   3.452   4.304
10246SOL    HW231638   3.861   3.436   4.335
10247SOL     OW31639   1.200   5.551   5.470
10247SOL    HW131640   1.214   5.452   5.477
10247SOL    HW231641   1.270   5.598   5.524
10248SOL     OW31642   4.459   0.173   1.581
10248SOL    HW131643   4.425   0.264   1.556
10248SOL    HW231644   4.441   0.155   1.678
10249SOL     OW31645   4.092   1.410   0.007
10249SOL    HW131646   4.169   1.361   0.047
10249SOL    HW231647   4.064   1.364   6.945
10250SOL     OW31648   6.676   0.761   6.985
10250SOL    HW131649   6.609   0.687   6.975
10250SOL    HW231650   6.688   0.807   6.897
10251SOL     OW31651   3.391   4.286   6.847
10251SOL    HW131652   3.351   4.376   6.831
10251SOL    HW231653   3.432   4.283   6.938
10252SOL     OW31654   6.878   5.266   1.994
10252SOL    HW131655   6.803   5.330   1.981
10252SOL    HW231656   6.926   5.252   1.908
10253SOL     OW31657   3.544   5.250   6.222
10253SOL    HW131658   3.554   5.150   6.220
10253SOL    HW231659   3.618   5.291   6.169
10254SOL     OW31660   2.708   2.044   5.061
10254SOL    HW131661   2.740   2.102   4.986
10254SOL    HW231662   2.657   2.100   5.127
10255SOL     OW31663   2.968   5.507   2.820
10255SOL    HW131664   2.881   5.513   2.770
10255SOL    HW231665   2.958   5.445   2.897
10256SOL     OW31666   5.841   6.336   0.009
10256SOL    HW131667   5.774   6.365   6.963
10256SOL    HW231668   5.930   6.322   6.988
10257SOL     OW31669   1.660   6.094   6.084
10257SOL    HW131670   1.576   6.082   6.138
10257SOL    HW231671   1.678   6.192   6.071
10258SOL     OW31672   4.258   0.828   3.240
10258SOL    HW131673   4.260   0.892   3.163
10258SOL    HW231674   4.351   0.803   3.265
10259SOL     OW31675   0.759   4.279   2.783
10259SOL    HW131676   0.681   4.326   2.826
10259SOL    HW231677   0.727   4.196   2.738
10260SOL     OW31678   0.751   6.976   1.366
10260SOL    HW131679   0.655   6.980   1.396
10260SOL    HW231680   0.807   0.008   1.428
10261SOL     OW31681   1.335   6.381   1.820
10261SOL    HW131682   1.343   6.478   1.796
10261SOL    HW231683   1.268   6.338   1.760
10262SOL     OW31684   1.520   5.329   5.216
10262SOL    HW131685   1.505   5.244   5.267
10262SOL    HW231686   1.459   5.332   5.137
10263SOL     OW31687   6.131   2.237   6.486
10263SOL    HW131688   6.091   2.292   6.412
10263SOL    HW231689   6.175   2.156   6.447
10264SOL     OW31690   0.234   6.879   6.539
10264SOL    HW131691   0.328   6.887   6.575
10264SOL    HW231692   0.178   6.952   6.578
10265SOL     OW31693   4.199   1.882   1.808
10265SOL    HW131694   4.124   1.891   1.742
10265SOL    HW231695   4.285   1.908   1.765
10266SOL     OW31696   3.637   4.063   6.377
10266SOL    HW131697   3.610   3.985   6.434
10266SOL    HW231698   3.693   4.126   6.430
10267SOL     OW31699   6.636   1.949   6.319
10267SOL    HW131700   6.548   1.902   6.330
10267SOL    HW231701   6.705   1.903   6.375
10268SOL     OW31702   6.581   4.959   1.866
10268SOL    HW131703   6.591   5.041   1.922
10268SOL    HW231704   6.669   4.938   1.822
10269SOL     OW31705   2.766   2.898   5.857
10269SOL    HW131706   2.848   2.867   5.904
10269SOL    HW231707   2.738   2.987   5.892
10270SOL     OW31708   2.170   5.734   0.583
10270SOL    HW131709   2.254   5.680   0.577
10270SOL    HW231710   2.193   5.831   0.575
10271SOL     OW31711   4.460   4.896   0.847
10271SOL    HW131712   4.447   4.967   0.916
10271SOL    HW231713   4.545   4.847   0.865
10272SOL     OW31714   0.702   0.924   6.095
10272SOL    HW131715   0.667   0.945   6.186
10272SOL    HW231716   0.627   0.893   6.036
10273SOL     OW31717   4.700   6.309   4.530
10273SOL    HW131718   4.616   6.292   4.582
10273SOL    HW231719   4.678   6.328   4.435
10274SOL     OW31720   1.481   6.258   5.578
10274SOL    HW131721   1.443   6.282   5.668
10274SOL    HW231722   1.572   6.220   5.590
10275SOL     OW31723   1.279   6.425   2.065
10275SOL    HW131724   1.302   6.404   1.970
10275SOL    HW231725   1.231   6.347   2.106
10276SOL     OW31726   6.300   5.431   6.584
10276SOL    HW131727   6.244   5.401   6.507
10276SOL    HW231728   6.380   5.371   6.593
10277SOL     OW31729   2.053   5.639   3.630
10277SOL    HW131730   2.020   5.554   3.669
10277SOL    HW231731   1.982   5.679   3.572
10278SOL     OW31732   5.825   0.348   5.790
10278SOL    HW131733   5.769   0.408   5.847
10278SOL    HW231734   5.890   0.403   5.736
10279SOL     OW31735   3.751   0.030   3.777
10279SOL    HW131736   3.757   7.017   3.684
10279SOL    HW231737   3.655   0.045   3.801
10280SOL     OW31738   2.563   3.785   6.494
10280SOL    HW131739   2.531   3.839   6.416
10280SOL    HW231740   2.608   3.702   6.461
10281SOL     OW31741   4.368   0.185   3.954
10281SOL    HW131742   4.387   0.099   4.003
10281SOL    HW231743   4.367   0.261   4.019
10282SOL     OW31744   0.656   1.698   4.540
10282SOL    HW131745   0.662   1.680   4.442
10282SOL    HW231746   0.611   1.621   4.585
10283SOL     OW31747   0.826   3.896   6.541
10283SOL    HW131748   0.744   3.904   6.599
10283SOL    HW231749   0.843   3.800   6.521
10284SOL     OW31750   5.359   2.861   5.638
10284SOL    HW131751   5.445   2.812   5.623
10284SOL    HW231752   5.307   2.864   5.552
10285SOL     OW31753   6.120   6.734   0.901
10285SOL    HW131754   6.145   6.713   0.806
10285SOL    HW231755   6.189   6.697   0.963
10286SOL     OW31756   4.176   0.923   3.797
10286SOL    HW131757   4.200   0.962   3.708
10286SOL    HW231758   4.078   0.903   3.799
10287SOL     OW31759   3.044   5.806   1.684
10287SOL    HW131760   3.088   5.716   1.685
10287SOL    HW231761   3.014   5.829   1.777
10288SOL     OW31762   5.531   6.646   4.279
10288SOL    HW131763   5.460   6.582   4.250
10288SOL    HW231764   5.552   6.631   4.376
10289SOL     OW31765   2.992   0.612   1.910
10289SOL    HW131766   2.998   0.659   1.998
10289SOL    HW231767   2.938   0.667   1.846
10290SOL     OW31768   3.124   4.014   2.072
10290SOL    HW131769   3.213   3.970   2.084
10290SOL    HW231770   3.132   4.088   2.005
10291SOL     OW31771   3.789   0.107   5.516
10291SOL    HW131772   3.691   0.086   5.517
10291SOL    HW231773   3.827   0.089   5.607
10292SOL     OW31774   0.365   0.991   4.690
10292SOL    HW131775   0.418   1.039   4.759
10292SOL    HW231776   0.411   0.999   4.601
10293SOL     OW31777   2.250   6.220   3.572
10293SOL    HW131778   2.326   6.284   3.567
10293SOL    HW231779   2.164   6.271   3.583
10294SOL     OW31780   5.760   1.757   3.363
10294SOL    HW131781   5.837   1.820   3.353
10294SOL    HW231782   5.783   1.670   3.320
10295SOL     OW31783   0.815   5.327   6.022
10295SOL    HW131784   0.882   5.292   6.087
10295SOL    HW231785   0.860   5.348   5.936
10296SOL     OW31786   6.352   2.209   0.665
10296SOL    HW131787   6.303   2.203   0.578
10296SOL    HW231788   6.444   2.244   0.650
10297SOL     OW31789   2.086   5.356   4.726
10297SOL    HW131790   2.121   5.268   4.691
10297SOL    HW231791   2.064   5.347   4.823
10298SOL     OW31792   4.838   3.302   3.694
10298SOL    HW131793   4.862   3.226   3.634
10298SOL    HW231794   4.845   3.388   3.642
10299SOL     OW31795   5.142   4.648   2.786
10299SOL    HW131796   5.144   4.614   2.880
10299SOL    HW231797   5.169   4.744   2.784
10300SOL     OW31798   1.426   4.571   2.966
10300SOL    HW131799   1.328   4.561   2.952
10300SOL    HW231800   1.472   4.485   2.943
10301SOL     OW31801   5.560   1.262   1.263
10301SOL    HW131802   5.613   1.236   1.182
10301SOL    HW231803   5.620   1.264   1.343
10302SOL     OW31804   1.845   5.331   3.308
10302SOL    HW131805   1.842   5.279   3.223
10302SOL    HW231806   1.895   5.417   3.293
10303SOL     OW31807   3.207   2.863   1.186
10303SOL    HW131808   3.277   2.934   1.202
10303SOL    HW231809   3.231   2.781   1.238
10304SOL     OW31810   6.131   6.587   3.894
10304SOL    HW131811   6.108   6.684   3.893
10304SOL    HW231812   6.227   6.575   3.922
10305SOL     OW31813   1.745   5.660   0.944
10305SOL    HW131814   1.778   5.739   0.892
10305SOL    HW231815   1.664   5.686   0.996
10306SOL     OW31816   4.534   5.616   7.005
10306SOL    HW131817   4.593   5.631   6.926
10306SOL    HW231818   4.590   5.589   0.061
10307SOL     OW31819   2.419   1.444   5.398
10307SOL    HW131820   2.475   1.457   5.480
10307SOL    HW231821   2.323   1.455   5.421
10308SOL     OW31822   3.384   5.670   4.074
10308SOL    HW131823   3.384   5.608   3.996
10308SOL    HW231824   3.293   5.669   4.117
10309SOL     OW31825   0.216   6.593   3.497
10309SOL    HW131826   0.125   6.581   3.457
10309SOL    HW231827   0.211   6.574   3.595
10310SOL     OW31828   4.059   3.393   3.909
10310SOL    HW131829   4.000   3.473   3.898
10310SOL    HW231830   4.057   3.363   4.004
10311SOL     OW31831   0.167   6.115   0.157
10311SOL    HW131832   0.225   6.195   0.142
10311SOL    HW231833   0.182   6.080   0.250
10312SOL     OW31834   2.002   4.584   1.170
10312SOL    HW131835   1.924   4.584   1.109
10312SOL    HW231836   1.989   4.516   1.243
10313SOL     OW31837   5.261   6.440   3.453
10313SOL    HW131838   5.166   6.443   3.484
10313SOL    HW231839   5.278   6.517   3.391
10314SOL     OW31840   6.636   5.838   0.029
10314SOL    HW131841   6.585   5.769   0.081
10314SOL    HW231842   6.621   5.824   6.954
10315SOL     OW31843   6.092   5.783   4.611
10315SOL    HW131844   6.037   5.706   4.577
10315SOL    HW231845   6.115   5.767   4.707
10316SOL     OW31846   6.908   4.216   2.578
10316SOL    HW131847   6.951   4.286   2.521
10316SOL    HW231848   6.834   4.171   2.526
10317SOL     OW31849   3.749   4.728   0.781
10317SOL    HW131850   3.796   4.658   0.727
10317SOL    HW231851   3.708   4.795   0.719
10318SOL     OW31852   6.569   5.990   2.016
10318SOL    HW131853   6.472   6.005   2.034
10318SOL    HW231854   6.624   6.037   2.085
10319SOL     OW31855   5.758   6.857   3.745
10319SOL    HW131856   5.673   6.908   3.730
10319SOL    HW231857   5.816   6.866   3.664
10320SOL     OW31858   5.349   6.516   1.501
10320SOL    HW131859   5.319   6.445   1.436
10320SOL    HW231860   5.426   6.566   1.462
10321SOL     OW31861   3.856   5.763   4.636
10321SOL    HW131862   3.912   5.813   4.570
10321SOL    HW231863   3.774   5.728   4.591
10322SOL     OW31864   6.344   2.655   0.252
10322SOL    HW131865   6.393   2.590   0.309
10322SOL    HW231866   6.403   2.734   0.234
10323SOL     OW31867   6.090   2.956   4.965
10323SOL    HW131868   6.031   2.948   5.046
10323SOL    HW231869   6.043   2.917   4.886
10324SOL     OW31870   2.939   3.597   3.651
10324SOL    HW131871   2.937   3.666   3.578
10324SOL    HW231872   2.936   3.642   3.740
10325SOL     OW31873   0.837   3.757   2.626
10325SOL    HW131874   0.838   3.660   2.651
10325SOL    HW231875   0.749   3.781   2.587
10326SOL     OW31876   5.437   1.738   1.161
10326SOL    HW131877   5.407   1.663   1.220
10326SOL    HW231878   5.477   1.701   1.077
10327SOL     OW31879   0.227   0.786   4.093
10327SOL    HW131880   0.274   0.835   4.167
10327SOL    HW231881   0.274   0.804   4.007
10328SOL     OW31882   6.101   2.668   2.010
10328SOL    HW131883   6.072   2.572   2.003
10328SOL    HW231884   6.021   2.727   2.001
10329SOL     OW31885   4.070   6.749   2.392
10329SOL    HW131886   4.160   6.721   2.356
10329SOL    HW231887   4.046   6.838   2.355
10330SOL     OW31888   3.990   5.314   1.431
10330SOL    HW131889   4.050   5.392   1.416
10330SOL    HW231890   3.988   5.292   1.529
10331SOL     OW31891   5.904   0.536   3.610
10331SOL    HW131892   5.818   0.531   3.558
10331SOL    HW231893   5.969   0.469   3.574
10332SOL     OW31894   0.274   2.466   6.375
10332SOL    HW131895   0.373   2.468   6.363
10332SOL    HW231896   0.252   2.474   6.473
10333SOL     OW31897   4.631   4.341   4.759
10333SOL    HW131898   4.607   4.321   4.854
10333SOL    HW231899   4.592   4.430   4.733
10334SOL     OW31900   1.117   4.341   5.389
10334SOL    HW131901   1.109   4.245   5.361
10334SOL    HW231902   1.214   4.365   5.398
10335SOL     OW31903   2.139   5.313   2.095
10335SOL    HW131904   2.203   5.277   2.163
10335SOL    HW231905   2.045   5.301   2.127
10336SOL     OW31906   4.458   0.014   2.911
10336SOL    HW131907   4.533   0.008   2.977
10336SOL    HW231908   4.412   6.948   2.904
10337SOL     OW31909   0.191   5.319   5.081
10337SOL    HW131910   0.238   5.403   5.053
10337SOL    HW231911   0.229   5.288   5.168
10338SOL     OW31912   3.816   5.610   3.311
10338SOL    HW131913   3.746   5.629   3.381
10338SOL    HW231914   3.882   5.685   3.309
10339SOL     OW31915   3.589   5.599   0.673
10339SOL    HW131916   3.503   5.550   0.659
10339SOL    HW231917   3.664   5.534   0.681
10340SOL     OW31918   2.161   6.982   0.129
10340SOL    HW131919   2.207   6.978   0.040
10340SOL    HW231920   2.115   6.895   0.147
10341SOL     OW31921   1.938   1.162   2.472
10341SOL    HW131922   1.873   1.088   2.489
10341SOL    HW231923   1.949   1.218   2.554
10342SOL     OW31924   2.451   6.525   4.341
10342SOL    HW131925   2.536   6.475   4.323
10342SOL    HW231926   2.373   6.463   4.329
10343SOL     OW31927   2.198   3.158   4.808
10343SOL    HW131928   2.112   3.123   4.845
10343SOL    HW231929   2.274   3.107   4.848
10344SOL     OW31930   3.963   4.391   5.739
10344SOL    HW131931   3.882   4.333   5.749
10344SOL    HW231932   4.042   4.345   5.782
10345SOL     OW31933   1.782   2.034   6.411
10345SOL    HW131934   1.771   2.133   6.422
10345SOL    HW231935   1.739   2.005   6.325
10346SOL     OW31936   5.057   5.481   0.189
10346SOL    HW131937   5.001   5.398   0.190
10346SOL    HW231938   5.109   5.485   0.104
10347SOL     OW31939   5.153   2.136   1.669
10347SOL    HW131940   5.061   2.131   1.707
10347SOL    HW231941   5.206   2.057   1.701
10348SOL     OW31942   6.979   5.463   5.711
10348SOL    HW131943   6.936   5.433   5.797
10348SOL    HW231944   0.051   5.490   5.729
10349SOL     OW31945   0.274   1.416   0.535
10349SOL    HW131946   0.215   1.380   0.462
10349SOL    HW231947   0.224   1.415   0.622
10350SOL     OW31948   2.202   4.043   4.488
10350SOL    HW131949   2.117   3.990   4.486
10350SOL    HW231950   2.205   4.096   4.573
10351SOL     OW31951   4.609   4.369   5.033
10351SOL    HW131952   4.517   4.408   5.025
10351SOL    HW231953   4.672   4.439   5.066
10352SOL     OW31954   5.475   1.423   0.005
10352SOL    HW131955   5.379   1.424   6.999
10352SOL    HW231956   5.508   1.328   0.006
10353SOL     OW31957   6.801   2.406   3.524
10353SOL    HW131958   6.760   2.402   3.433
10353SOL    HW231959   6.728   2.406   3.593
10354SOL     OW31960   6.990   3.147   1.314
10354SOL    HW131961   6.944   3.063   1.287
10354SOL    HW231962   6.993   3.210   1.237
10355SOL     OW31963   0.283   1.636   0.884
10355SOL    HW131964   0.377   1.656   0.856
10355SOL    HW231965   0.275   1.645   0.983
10356SOL     OW31966   6.200   3.477   6.030
10356SOL    HW131967   6.140   3.426   6.092
10356SOL    HW231968   6.144   3.530   5.966
10357SOL     OW31969   0.601   2.276   5.827
10357SOL    HW131970   0.698   2.297   5.832
10357SOL    HW231971   0.563   2.269   5.919
10358SOL     OW31972   0.840   2.065   3.016
10358SOL    HW131973   0.880   2.133   2.955
10358SOL    HW231974   0.751   2.096   3.048
10359SOL     OW31975   6.497   2.522   1.863
10359SOL    HW131976   6.412   2.524   1.811
10359SOL    HW231977   6.479   2.550   1.957
10360SOL     OW31978   6.176   4.506   1.955
10360SOL    HW131979   6.256   4.542   1.908
10360SOL    HW231980   6.097   4.565   1.935
10361SOL     OW31981   0.421   1.502   1.709
10361SOL    HW131982   0.468   1.425   1.666
10361SOL    HW231983   0.323   1.481   1.717
10362SOL     OW31984   1.211   5.566   1.567
10362SOL    HW131985   1.162   5.641   1.524
10362SOL    HW231986   1.309   5.574   1.547
10363SOL     OW31987   5.543   4.026   6.497
10363SOL    HW131988   5.468   3.998   6.556
10363SOL    HW231989   5.510   4.039   6.404
10364SOL     OW31990   5.884   4.549   2.246
10364SOL    HW131991   5.948   4.513   2.314
10364SOL    HW231992   5.921   4.533   2.154
10365SOL     OW31993   5.487   5.665   0.041
10365SOL    HW131994   5.521   5.675   6.970
10365SOL    HW231995   5.409   5.602   0.041
10366SOL     OW31996   2.717   5.978   3.438
10366SOL    HW131997   2.797   5.921   3.419
10366SOL    HW231998   2.656   5.930   3.501
10367SOL     OW31999   5.843   0.395   1.653
10367SOL    HW132000   5.785   0.362   1.727
10367SOL    HW232001   5.807   0.482   1.619
10368SOL     OW32002   2.322   6.227   2.404
10368SOL    HW132003   2.380   6.252   2.326
10368SOL    HW232004   2.305   6.309   2.460
10369SOL     OW32005   2.924   0.349   6.217
10369SOL    HW132006   2.928   0.430   6.276
10369SOL    HW232007   2.837   0.302   6.232
10370SOL     OW32008   0.799   0.656   6.049
10370SOL    HW132009   0.734   0.651   6.125
10370SOL    HW232010   0.780   0.736   5.993
10371SOL     OW32011   3.987   5.519   3.122
10371SOL    HW132012   3.995   5.419   3.124
10371SOL    HW232013   3.927   5.548   3.197
10372SOL     OW32014   2.840   6.468   1.816
10372SOL    HW132015   2.795   6.386   1.853
10372SOL    HW232016   2.932   6.476   1.855
10373SOL     OW32017   0.337   1.451   5.662
10373SOL    HW132018   0.250   1.470   5.617
10373SOL    HW232019   0.342   1.355   5.687
10374SOL     OW32020   3.932   5.443   3.509
10374SOL    HW132021   3.886   5.493   3.582
10374SOL    HW232022   3.992   5.506   3.458
10375SOL     OW32023   2.512   4.099   0.256
10375SOL    HW132024   2.418   4.078   0.230
10375SOL    HW232025   2.532   4.195   0.235
10376SOL     OW32026   1.703   4.467   3.329
10376SOL    HW132027   1.605   4.471   3.348
10376SOL    HW232028   1.743   4.388   3.376
10377SOL     OW32029   1.793   0.629   2.389
10377SOL    HW132030   1.751   0.683   2.462
10377SOL    HW232031   1.775   0.673   2.301
10378SOL     OW32032   0.237   4.657   4.049
10378SOL    HW132033   0.311   4.650   3.983
10378SOL    HW232034   0.232   4.574   4.104
10379SOL     OW32035   1.520   6.557   4.220
10379SOL    HW132036   1.592   6.527   4.283
10379SOL    HW232037   1.448   6.488   4.216
10380SOL     OW32038   2.430   2.196   4.777
10380SOL    HW132039   2.499   2.135   4.739
10380SOL    HW232040   2.453   2.290   4.756
10381SOL     OW32041   4.281   5.092   2.026
10381SOL    HW132042   4.181   5.084   2.022
10381SOL    HW232043   4.319   5.010   2.068
10382SOL     OW32044   3.929   5.762   2.276
10382SOL    HW132045   3.976   5.710   2.204
10382SOL    HW232046   3.903   5.852   2.240
10383SOL     OW32047   1.712   3.767   0.349
10383SOL    HW132048   1.622   3.776   0.306
10383SOL    HW232049   1.764   3.851   0.334
10384SOL     OW32050   5.816   6.607   1.551
10384SOL    HW132051   5.846   6.555   1.631
10384SOL    HW232052   5.834   6.555   1.468
10385SOL     OW32053   4.594   4.888   6.555
10385SOL    HW132054   4.670   4.952   6.545
10385SOL    HW232055   4.631   4.795   6.560
10386SOL     OW32056   6.819   1.128   0.221
10386SOL    HW132057   6.805   1.203   0.157
10386SOL    HW232058   6.759   1.052   0.197
10387SOL     OW32059   5.176   2.893   2.169
10387SOL    HW132060   5.098   2.883   2.106
10387SOL    HW232061   5.247   2.827   2.145
10388SOL     OW32062   2.765   0.710   6.023
10388SOL    HW132063   2.853   0.717   6.070
10388SOL    HW232064   2.778   0.666   5.935
10389SOL     OW32065   0.890   3.433   0.363
10389SOL    HW132066   0.844   3.348   0.337
10389SOL    HW232067   0.856   3.508   0.307
10390SOL     OW32068   2.224   2.326   1.962
10390SOL    HW132069   2.313   2.312   1.921
10390SOL    HW232070   2.215   2.422   1.991
10391SOL     OW32071   5.721   6.759   4.605
10391SOL    HW132072   5.786   6.684   4.596
10391SOL    HW232073   5.751   6.837   4.550
10392SOL     OW32074   6.922   4.571   4.136
10392SOL    HW132075   6.945   4.635   4.063
10392SOL    HW232076   6.931   4.616   4.225
10393SOL     OW32077   1.405   4.188   3.269
10393SOL    HW132078   1.387   4.253   3.343
10393SOL    HW232079   1.337   4.199   3.198
10394SOL     OW32080   3.330   6.339   4.308
10394SOL    HW132081   3.374   6.413   4.256
10394SOL    HW232082   3.393   6.262   4.315
10395SOL     OW32083   0.200   0.231   0.503
10395SOL    HW132084   0.293   0.261   0.525
10395SOL    HW232085   0.178   0.150   0.556
10396SOL     OW32086   3.075   1.757   4.788
10396SOL    HW132087   2.998   1.790   4.842
10396SOL    HW232088   3.076   1.657   4.789
10397SOL     OW32089   3.080   2.025   2.682
10397SOL    HW132090   3.106   2.066   2.769
10397SOL    HW232091   3.109   1.930   2.679
10398SOL     OW32092   6.946   2.512   1.306
10398SOL    HW132093   6.978   2.419   1.326
10398SOL    HW232094   6.939   2.564   1.392
10399SOL     OW32095   6.558   3.741   1.712
10399SOL    HW132096   6.467   3.716   1.743
10399SOL    HW232097   6.568   3.841   1.716
10400SOL     OW32098   3.986   0.012   0.892
10400SOL    HW132099   3.964   0.063   0.975
10400SOL    HW232100   3.943   6.944   0.897
10401SOL     OW32101   6.965   0.192   5.058
10401SOL    HW132102   6.971   0.231   4.966
10401SOL    HW232103   6.963   0.093   5.053
10402SOL     OW32104   6.793   2.768   4.141
10402SOL    HW132105   6.723   2.813   4.195
10402SOL    HW232106   6.838   2.697   4.196
10403SOL     OW32107   2.911   0.628   3.049
10403SOL    HW132108   2.924   0.538   3.007
10403SOL    HW232109   2.992   0.684   3.033
10404SOL     OW32110   0.337   6.330   6.140
10404SOL    HW132111   0.247   6.286   6.139
10404SOL    HW232112   0.408   6.260   6.132
10405SOL     OW32113   0.028   1.423   5.906
10405SOL    HW132114   6.975   1.368   5.871
10405SOL    HW232115   0.000   1.469   5.990
10406SOL     OW32116   3.263   4.786   1.658
10406SOL    HW132117   3.253   4.833   1.571
10406SOL    HW232118   3.176   4.743   1.682
10407SOL     OW32119   2.916   6.650   0.149
10407SOL    HW132120   2.867   6.675   0.232
10407SOL    HW232121   3.010   6.682   0.154
10408SOL     OW32122   4.208   0.290   0.373
10408SOL    HW132123   4.292   0.320   0.329
10408SOL    HW232124   4.176   0.362   0.435
10409SOL     OW32125   6.215   4.781   0.657
10409SOL    HW132126   6.238   4.750   0.565
10409SOL    HW232127   6.158   4.713   0.702
10410SOL     OW32128   5.749   0.971   0.326
10410SOL    HW132129   5.756   0.911   0.406
10410SOL    HW232130   5.830   0.959   0.269
10411SOL     OW32131   2.715   5.104   3.409
10411SOL    HW132132   2.745   5.070   3.498
10411SOL    HW232133   2.618   5.083   3.396
10412SOL     OW32134   5.914   0.751   0.959
10412SOL    HW132135   5.985   0.687   0.931
10412SOL    HW232136   5.956   0.835   0.993
10413SOL     OW32137   6.290   1.903   1.290
10413SOL    HW132138   6.234   1.839   1.238
10413SOL    HW232139   6.271   1.997   1.260
10414SOL     OW32140   5.137   2.553   4.992
10414SOL    HW132141   5.050   2.564   4.944
10414SOL    HW232142   5.177   2.464   4.969
10415SOL     OW32143   0.771   6.003   6.121
10415SOL    HW132144   0.679   6.039   6.132
10415SOL    HW232145   0.767   5.903   6.113
10416SOL     OW32146   5.938   2.908   4.736
10416SOL    HW132147   5.869   2.942   4.671
10416SOL    HW232148   5.934   2.809   4.741
10417SOL     OW32149   2.520   4.524   3.983
10417SOL    HW132150   2.531   4.472   3.898
10417SOL    HW232151   2.581   4.604   3.981
10418SOL     OW32152   0.831   4.197   4.867
10418SOL    HW132153   0.810   4.106   4.903
10418SOL    HW232154   0.749   4.253   4.868
10419SOL     OW32155   0.781   1.037   0.744
10419SOL    HW132156   0.851   1.095   0.700
10419SOL    HW232157   0.823   0.952   0.774
10420SOL     OW32158   6.890   2.968   2.829
10420SOL    HW132159   6.943   3.037   2.780
10420SOL    HW232160   6.907   2.976   2.927
10421SOL     OW32161   1.436   0.530   3.824
10421SOL    HW132162   1.385   0.465   3.768
10421SOL    HW232163   1.439   0.619   3.777
10422SOL     OW32164   6.598   2.489   5.597
10422SOL    HW132165   6.649   2.539   5.668
10422SOL    HW232166   6.620   2.527   5.507
10423SOL     OW32167   4.785   4.594   4.270
10423SOL    HW132168   4.790   4.497   4.248
10423SOL    HW232169   4.770   4.647   4.187
10424SOL     OW32170   5.195   1.467   6.972
10424SOL    HW132171   5.138   1.545   6.948
10424SOL    HW232172   5.180   1.442   0.045
10425SOL     OW32173   1.379   5.718   2.709
10425SOL    HW132174   1.394   5.796   2.770
10425SOL    HW232175   1.442   5.644   2.733
10426SOL     OW32176   6.489   4.015   0.355
10426SOL    HW132177   6.469   3.920   0.379
10426SOL    HW232178   6.585   4.035   0.378
10427SOL     OW32179   5.100   2.415   0.404
10427SOL    HW132180   5.034   2.384   0.335
10427SOL    HW232181   5.109   2.514   0.398
10428SOL     OW32182   4.072   0.681   4.902
10428SOL    HW132183   4.145   0.683   4.969
10428SOL    HW232184   4.105   0.717   4.814
10429SOL     OW32185   6.719   6.131   1.475
10429SOL    HW132186   6.631   6.110   1.519
10429SOL    HW232187   6.722   6.091   1.384
10430SOL     OW32188   4.217   6.196   3.326
10430SOL    HW132189   4.251   6.279   3.369
10430SOL    HW232190   4.266   6.117   3.362
10431SOL     OW32191   2.692   0.332   5.250
10431SOL    HW132192   2.595   0.309   5.250
10431SOL    HW232193   2.704   0.429   5.234
10432SOL     OW32194   5.946   0.578   4.045
10432SOL    HW132195   6.012   0.644   4.009
10432SOL    HW232196   5.967   0.487   4.010
10433SOL     OW32197   2.107   6.374   1.068
10433SOL    HW132198   2.075   6.416   0.984
10433SOL    HW232199   2.147   6.444   1.128
10434SOL     OW32200   3.240   0.177   3.537
10434SOL    HW132201   3.179   0.106   3.500
10434SOL    HW232202   3.250   0.250   3.469
10435SOL     OW32203   5.739   6.429   6.059
10435SOL    HW132204   5.808   6.502   6.053
10435SOL    HW232205   5.751   6.378   6.143
10436SOL     OW32206   1.047   5.505   4.277
10436SOL    HW132207   1.095   5.424   4.244
10436SOL    HW232208   0.961   5.478   4.321
10437SOL     OW32209   6.571   5.157   5.607
10437SOL    HW132210   6.556   5.206   5.693
10437SOL    HW232211   6.591   5.061   5.627
10438SOL     OW32212   5.312   6.544   0.340
10438SOL    HW132213   5.276   6.625   0.386
10438SOL    HW232214   5.240   6.503   0.284
10439SOL     OW32215   3.977   0.165   5.721
10439SOL    HW132216   3.938   0.215   5.798
10439SOL    HW232217   4.072   0.140   5.742
10440SOL     OW32218   1.047   6.613   0.966
10440SOL    HW132219   1.032   6.627   1.064
10440SOL    HW232220   1.142   6.587   0.951
10441SOL     OW32221   5.253   1.595   6.551
10441SOL    HW132222   5.283   1.669   6.490
10441SOL    HW232223   5.179   1.629   6.610
10442SOL     OW32224   3.535   5.577   5.590
10442SOL    HW132225   3.456   5.518   5.573
10442SOL    HW232226   3.604   5.560   5.519
10443SOL     OW32227   6.035   3.742   4.785
10443SOL    HW132228   5.993   3.831   4.770
10443SOL    HW232229   6.133   3.749   4.768
10444SOL     OW32230   3.790   5.254   4.972
10444SOL    HW132231   3.777   5.155   4.966
10444SOL    HW232232   3.838   5.287   4.891
10445SOL     OW32233   6.834   5.636   4.116
10445SOL    HW132234   6.756   5.686   4.154
10445SOL    HW232235   6.807   5.542   4.097
10446SOL     OW32236   0.807   4.826   6.569
10446SOL    HW132237   0.773   4.742   6.613
10446SOL    HW232238   0.808   4.900   6.635
10447SOL     OW32239   6.798   1.986   1.316
10447SOL    HW132240   6.726   2.000   1.383
10447SOL    HW232241   6.867   1.923   1.353
10448SOL     OW32242   3.904   3.932   1.837
10448SOL    HW132243   3.824   3.970   1.790
10448SOL    HW232244   3.882   3.915   1.933
10449SOL     OW32245   2.496   5.605   4.162
10449SOL    HW132246   2.520   5.509   4.155
10449SOL    HW232247   2.428   5.618   4.235
10450SOL     OW32248   0.080   1.724   0.404
10450SOL    HW132249   0.179   1.711   0.411
10450SOL    HW232250   0.048   1.692   0.315
10451SOL     OW32251   2.440   4.524   3.100
10451SOL    HW132252   2.442   4.426   3.118
10451SOL    HW232253   2.513   4.569   3.152
10452SOL     OW32254   0.665   3.176   3.893
10452SOL    HW132255   0.621   3.086   3.896
10452SOL    HW232256   0.695   3.196   3.800
10453SOL     OW32257   5.465   5.721   1.292
10453SOL    HW132258   5.372   5.751   1.312
10453SOL    HW232259   5.518   5.797   1.255
10454SOL     OW32260   5.194   3.147   2.341
10454SOL    HW132261   5.121   3.210   2.315
10454SOL    HW232262   5.193   3.067   2.280
10455SOL     OW32263   0.669   4.889   4.134
10455SOL    HW132264   0.571   4.876   4.120
10455SOL    HW232265   0.698   4.974   4.090
10456SOL     OW32266   3.664   6.102   1.130
10456SOL    HW132267   3.716   6.168   1.183
10456SOL    HW232268   3.697   6.102   1.035
10457SOL     OW32269   4.158   3.553   3.321
10457SOL    HW132270   4.174   3.509   3.409
10457SOL    HW232271   4.124   3.646   3.336
10458SOL     OW32272   1.369   6.486   1.034
10458SOL    HW132273   1.365   6.492   1.134
10458SOL    HW232274   1.332   6.398   1.005
10459SOL     OW32275   6.280   5.214   2.359
10459SOL    HW132276   6.221   5.238   2.436
10459SOL    HW232277   6.256   5.269   2.279
10460SOL     OW32278   2.475   5.162   2.103
10460SOL    HW132279   2.555   5.198   2.152
10460SOL    HW232280   2.399   5.152   2.166
10461SOL     OW32281   3.081   0.199   6.398
10461SOL    HW132282   3.106   0.293   6.419
10461SOL    HW232283   3.024   0.197   6.315
10462SOL     OW32284   6.231   0.704   1.220
10462SOL    HW132285   6.273   0.656   1.143
10462SOL    HW232286   6.226   0.643   1.298
10463SOL     OW32287   2.920   4.536   0.454
10463SOL    HW132288   2.857   4.516   0.529
10463SOL    HW232289   2.919   4.461   0.388
10464SOL     OW32290   5.095   0.580   0.793
10464SOL    HW132291   5.119   0.655   0.731
10464SOL    HW232292   5.178   0.543   0.835
10465SOL     OW32293   6.923   5.288   6.287
10465SOL    HW132294   6.963   5.333   6.207
10465SOL    HW232295   6.997   5.252   6.345
10466SOL     OW32296   4.786   5.996   5.222
10466SOL    HW132297   4.828   6.085   5.200
10466SOL    HW232298   4.691   5.996   5.192
10467SOL     OW32299   2.710   1.733   5.341
10467SOL    HW132300   2.808   1.752   5.348
10467SOL    HW232301   2.659   1.819   5.345
10468SOL     OW32302   3.114   6.835   3.958
10468SOL    HW132303   3.065   6.835   4.046
10468SOL    HW232304   3.139   6.741   3.935
10469SOL     OW32305   1.665   4.453   0.625
10469SOL    HW132306   1.727   4.415   0.694
10469SOL    HW232307   1.718   4.489   0.548
10470SOL     OW32308   3.080   1.588   4.227
10470SOL    HW132309   3.039   1.581   4.318
10470SOL    HW232310   3.010   1.618   4.161
10471SOL     OW32311   2.986   3.679   1.493
10471SOL    HW132312   3.020   3.610   1.558
10471SOL    HW232313   2.906   3.643   1.445
10472SOL     OW32314   3.407   0.944   1.951
10472SOL    HW132315   3.359   1.018   1.904
10472SOL    HW232316   3.414   0.865   1.890
10473SOL     OW32317   5.498   5.882   0.234
10473SOL    HW132318   5.505   5.829   0.149
10473SOL    HW232319   5.411   5.861   0.278
10474SOL     OW32320   3.646   0.605   4.476
10474SOL    HW132321   3.646   0.660   4.393
10474SOL    HW232322   3.708   0.645   4.543
10475SOL     OW32323   4.076   0.373   1.246
10475SOL    HW132324   4.121   0.321   1.318
10475SOL    HW232325   4.058   0.314   1.168
10476SOL     OW32326   0.124   5.448   6.566
10476SOL    HW132327   0.160   5.426   6.476
10476SOL    HW232328   0.050   5.384   6.589
10477SOL     OW32329   5.795   4.214   4.942
10477SOL    HW132330   5.808   4.119   4.969
10477SOL    HW232331   5.845   4.274   5.006
10478SOL     OW32332   0.026   6.172   1.280
10478SOL    HW132333   0.077   6.196   1.363
10478SOL    HW232334   6.988   6.247   1.255
10479SOL     OW32335   1.778   3.362   2.905
10479SOL    HW132336   1.810   3.281   2.856
10479SOL    HW232337   1.780   3.441   2.844
10480SOL     OW32338   5.528   6.826   2.121
10480SOL    HW132339   5.559   6.838   2.215
10480SOL    HW232340   5.436   6.787   2.121
10481SOL     OW32341   1.633   0.669   5.011
10481SOL    HW132342   1.581   0.622   5.083
10481SOL    HW232343   1.572   0.728   4.959
10482SOL     OW32344   0.957   6.134   4.856
10482SOL    HW132345   0.911   6.205   4.803
10482SOL    HW232346   0.972   6.167   4.950
10483SOL     OW32347   0.147   5.537   0.153
10483SOL    HW132348   0.190   5.541   0.243
10483SOL    HW232349   0.216   5.550   0.082
10484SOL     OW32350   0.092   0.913   1.728
10484SOL    HW132351   0.002   0.905   1.685
10484SOL    HW232352   0.158   0.856   1.678
10485SOL     OW32353   3.295   3.750   3.399
10485SOL    HW132354   3.343   3.680   3.347
10485SOL    HW232355   3.303   3.730   3.497
10486SOL     OW32356   6.088   6.224   5.409
10486SOL    HW132357   6.088   6.301   5.347
10486SOL    HW232358   5.996   6.210   5.446
10487SOL     OW32359   4.276   2.306   1.533
10487SOL    HW132360   4.244   2.356   1.614
10487SOL    HW232361   4.200   2.255   1.494
10488SOL     OW32362   6.937   2.037   5.334
10488SOL    HW132363   6.982   2.122   5.361
10488SOL    HW232364   6.854   2.058   5.281
10489SOL     OW32365   6.011   4.410   4.278
10489SOL    HW132366   5.995   4.506   4.301
10489SOL    HW232367   6.036   4.404   4.181
10490SOL     OW32368   5.803   6.107   6.514
10490SOL    HW132369   5.761   6.025   6.474
10490SOL    HW232370   5.861   6.081   6.591
10491SOL     OW32371   1.513   3.045   6.049
10491SOL    HW132372   1.551   3.137   6.063
10491SOL    HW232373   1.418   3.043   6.080
10492SOL     OW32374   4.081   0.416   0.592
10492SOL    HW132375   4.002   0.365   0.626
10492SOL    HW232376   4.065   0.514   0.605
10493SOL     OW32377   4.165   5.696   0.463
10493SOL    HW132378   4.211   5.754   0.396
10493SOL    HW232379   4.186   5.600   0.443
10494SOL     OW32380   0.444   4.283   5.385
10494SOL    HW132381   0.520   4.344   5.411
10494SOL    HW232382   0.395   4.323   5.308
10495SOL     OW32383   0.673   6.394   6.702
10495SOL    HW132384   0.679   6.297   6.724
10495SOL    HW232385   0.701   6.448   6.782
10496SOL     OW32386   0.045   4.006   5.539
10496SOL    HW132387   0.042   4.094   5.586
10496SOL    HW232388   6.976   3.965   5.537
10497SOL     OW32389   2.598   6.385   1.046
10497SOL    HW132390   2.544   6.365   1.128
10497SOL    HW232391   2.546   6.358   0.965
10498SOL     OW32392   4.564   5.387   0.603
10498SOL    HW132393   4.513   5.301   0.616
10498SOL    HW232394   4.662   5.368   0.606
10499SOL     OW32395   5.847   4.883   2.092
10499SOL    HW132396   5.830   4.956   2.025
10499SOL    HW232397   5.760   4.851   2.129
10500SOL     OW32398   6.600   3.920   4.971
10500SOL    HW132399   6.609   3.948   4.875
10500SOL    HW232400   6.555   3.832   4.975
10501SOL     OW32401   2.855   5.290   2.957
10501SOL    HW132402   2.772   5.321   2.910
10501SOL    HW232403   2.855   5.324   3.051
10502SOL     OW32404   3.414   4.151   2.543
10502SOL    HW132405   3.378   4.214   2.611
10502SOL    HW232406   3.339   4.097   2.505
10503SOL     OW32407   5.690   2.511   6.554
10503SOL    HW132408   5.763   2.504   6.486
10503SOL    HW232409   5.638   2.425   6.557
10504SOL     OW32410   1.681   2.885   6.208
10504SOL    HW132411   1.631   2.937   6.139
10504SOL    HW232412   1.762   2.843   6.166
10505SOL     OW32413   5.474   6.565   1.246
10505SOL    HW132414   5.509   6.474   1.228
10505SOL    HW232415   5.386   6.577   1.200
10506SOL     OW32416   1.026   2.466   0.549
10506SOL    HW132417   0.989   2.527   0.619
10506SOL    HW232418   1.092   2.516   0.493
10507SOL     OW32419   1.208   5.146   5.920
10507SOL    HW132420   1.211   5.046   5.914
10507SOL    HW232421   1.261   5.177   5.999
10508SOL     OW32422   0.962   5.459   5.304
10508SOL    HW132423   1.041   5.516   5.280
10508SOL    HW232424   0.971   5.370   5.259
10509SOL     OW32425   4.519   2.572   3.607
10509SOL    HW132426   4.469   2.633   3.669
10509SOL    HW232427   4.589   2.624   3.558
10510SOL     OW32428   5.453   5.430   3.820
10510SOL    HW132429   5.422   5.519   3.787
10510SOL    HW232430   5.383   5.390   3.880
10511SOL     OW32431   3.808   1.953   2.265
10511SOL    HW132432   3.842   2.028   2.209
10511SOL    HW232433   3.711   1.967   2.286
10512SOL     OW32434   4.188   1.297   4.966
10512SOL    HW132435   4.159   1.321   4.874
10512SOL    HW232436   4.262   1.230   4.962
10513SOL     OW32437   5.203   3.020   1.363
10513SOL    HW132438   5.291   3.023   1.315
10513SOL    HW232439   5.220   3.028   1.462
10514SOL     OW32440   0.613   3.296   1.812
10514SOL    HW132441   0.560   3.225   1.857
10514SOL    HW232442   0.554   3.375   1.792
10515SOL     OW32443   2.039   2.520   5.139
10515SOL    HW132444   2.081   2.480   5.058
10515SOL    HW232445   2.016   2.616   5.121
10516SOL     OW32446   4.081   2.483   1.246
10516SOL    HW132447   4.035   2.459   1.160
10516SOL    HW232448   4.167   2.433   1.252
10517SOL     OW32449   0.858   2.627   3.281
10517SOL    HW132450   0.921   2.551   3.266
10517SOL    HW232451   0.782   2.597   3.339
10518SOL     OW32452   0.933   5.044   2.429
10518SOL    HW132453   0.887   5.098   2.500
10518SOL    HW232454   1.032   5.053   2.439
10519SOL     OW32455   3.394   6.210   0.912
10519SOL    HW132456   3.361   6.195   1.005
10519SOL    HW232457   3.316   6.213   0.849
10520SOL     OW32458   6.782   1.933   4.858
10520SOL    HW132459   6.864   1.971   4.900
10520SOL    HW232460   6.722   2.008   4.830
10521SOL     OW32461   6.550   2.845   1.372
10521SOL    HW132462   6.558   2.872   1.468
10521SOL    HW232463   6.463   2.877   1.335
10522SOL     OW32464   4.970   2.290   3.856
10522SOL    HW132465   4.969   2.252   3.764
10522SOL    HW232466   5.063   2.316   3.880
10523SOL     OW32467   6.902   4.785   3.125
10523SOL    HW132468   6.844   4.859   3.159
10523SOL    HW232469   6.990   4.822   3.096
10524SOL     OW32470   6.380   6.317   5.126
10524SOL    HW132471   6.459   6.262   5.151
10524SOL    HW232472   6.308   6.259   5.088
10525SOL     OW32473   5.198   1.986   4.622
10525SOL    HW132474   5.220   1.892   4.649
10525SOL    HW232475   5.174   1.988   4.525
10526SOL     OW32476   1.523   5.079   0.274
10526SOL    HW132477   1.572   4.992   0.269
10526SOL    HW232478   1.586   5.154   0.255
10527SOL     OW32479   0.656   0.297   4.605
10527SOL    HW132480   0.592   0.327   4.534
10527SOL    HW232481   0.735   0.254   4.562
10528SOL     OW32482   1.008   4.032   5.582
10528SOL    HW132483   0.925   4.088   5.586
10528SOL    HW232484   1.088   4.092   5.592
10529SOL     OW32485   1.285   6.035   0.676
10529SOL    HW132486   1.211   6.102   0.687
10529SOL    HW232487   1.249   5.943   0.692
10530SOL     OW32488   0.239   6.005   0.415
10530SOL    HW132489   0.264   5.920   0.463
10530SOL    HW232490   0.255   6.083   0.475
10531SOL     OW32491   2.890   3.167   5.255
10531SOL    HW132492   2.876   3.138   5.161
10531SOL    HW232493   2.842   3.105   5.317
10532SOL     OW32494   5.571   6.206   6.644
10532SOL    HW132495   5.577   6.125   6.702
10532SOL    HW232496   5.634   6.196   6.566
10533SOL     OW32497   2.698   5.688   3.355
10533SOL    HW132498   2.664   5.594   3.363
10533SOL    HW232499   2.662   5.730   3.272
10534SOL     OW32500   1.557   6.314   3.503
10534SOL    HW132501   1.514   6.293   3.591
10534SOL    HW232502   1.562   6.413   3.491
10535SOL     OW32503   3.445   2.068   3.031
10535SOL    HW132504   3.524   2.042   3.087
10535SOL    HW232505   3.473   2.075   2.935
10536SOL     OW32506   5.665   1.491   4.132
10536SOL    HW132507   5.566   1.476   4.130
10536SOL    HW232508   5.684   1.588   4.142
10537SOL     OW32509   4.266   0.147   3.699
10537SOL    HW132510   4.336   0.147   3.770
10537SOL    HW232511   4.183   0.189   3.734
10538SOL     OW32512   6.172   3.150   2.879
10538SOL    HW132513   6.189   3.083   2.951
10538SOL    HW232514   6.253   3.156   2.820
10539SOL     OW32515   6.733   0.595   3.210
10539SOL    HW132516   6.673   0.605   3.290
10539SOL    HW232517   6.828   0.608   3.238
10540SOL     OW32518   2.366   3.670   5.984
10540SOL    HW132519   2.449   3.686   6.039
10540SOL    HW232520   2.294   3.633   6.043
10541SOL     OW32521   3.258   3.070   5.368
10541SOL    HW132522   3.356   3.071   5.352
10541SOL    HW232523   3.219   3.160   5.347
10542SOL     OW32524   4.931   6.755   4.024
10542SOL    HW132525   4.935   6.655   4.028
10542SOL    HW232526   4.889   6.783   3.937
10543SOL     OW32527   0.435   3.622   5.369
10543SOL    HW132528   0.472   3.556   5.434
10543SOL    HW232529   0.406   3.704   5.419
10544SOL     OW32530   1.674   1.175   2.991
10544SOL    HW132531   1.763   1.205   3.026
10544SOL    HW232532   1.681   1.160   2.892
10545SOL     OW32533   2.004   1.923   2.891
10545SOL    HW132534   2.056   1.882   2.816
10545SOL    HW232535   2.052   2.004   2.924
10546SOL     OW32536   3.104   6.925   0.292
10546SOL    HW132537   3.021   6.954   0.244
10546SOL    HW232538   3.148   6.851   0.240
10547SOL     OW32539   4.292   0.309   5.065
10547SOL    HW132540   4.381   0.323   5.110
10547SOL    HW232541   4.226   0.276   5.132
10548SOL     OW32542   0.416   4.851   4.463
10548SOL    HW132543   0.364   4.778   4.505
10548SOL    HW232544   0.512   4.822   4.452
10549SOL     OW32545   6.963   0.784   1.029
10549SOL    HW132546   0.031   0.742   1.035
10549SOL    HW232547   6.900   0.734   1.088
10550SOL     OW32548   4.755   5.649   3.799
10550SOL    HW132549   4.739   5.711   3.876
10550SOL    HW232550   4.841   5.674   3.754
10551SOL     OW32551   2.809   1.664   6.204
10551SOL    HW132552   2.806   1.667   6.104
10551SOL    HW232553   2.904   1.665   6.235
10552SOL     OW32554   3.067   1.195   4.482
10552SOL    HW132555   2.997   1.200   4.411
10552SOL    HW232556   3.154   1.168   4.442
10553SOL     OW32557   0.379   4.816   0.550
10553SOL    HW132558   0.435   4.772   0.620
10553SOL    HW232559   0.435   4.836   0.470
10554SOL     OW32560   6.610   5.476   2.238
10554SOL    HW132561   6.567   5.556   2.279
10554SOL    HW232562   6.581   5.394   2.288
10555SOL     OW32563   3.708   2.706   0.758
10555SOL    HW132564   3.696   2.805   0.756
10555SOL    HW232565   3.797   2.683   0.717
10556SOL     OW32566   2.713   1.460   2.929
10556SOL    HW132567   2.651   1.518   2.983
10556SOL    HW232568   2.660   1.387   2.885
10557SOL     OW32569   2.167   4.168   4.247
10557SOL    HW132570   2.217   4.130   4.325
10557SOL    HW232571   2.073   4.188   4.274
10558SOL     OW32572   2.799   5.413   4.781
10558SOL    HW132573   2.714   5.399   4.730
10558SOL    HW232574   2.785   5.388   4.877
10559SOL     OW32575   4.381   6.647   6.735
10559SOL    HW132576   4.416   6.555   6.714
10559SOL    HW232577   4.421   6.679   6.820
10560SOL     OW32578   5.924   6.785   2.033
10560SOL    HW132579   5.865   6.815   1.958
10560SOL    HW232580   5.873   6.722   2.092
10561SOL     OW32581   5.680   4.291   0.194
10561SOL    HW132582   5.675   4.310   0.096
10561SOL    HW232583   5.597   4.325   0.239
10562SOL     OW32584   4.149   6.436   2.366
10562SOL    HW132585   4.200   6.510   2.323
10562SOL    HW232586   4.145   6.358   2.304
10563SOL     OW32587   0.531   0.143   1.184
10563SOL    HW132588   0.506   0.095   1.268
10563SOL    HW232589   0.585   0.083   1.126
10564SOL     OW32590   5.711   5.422   3.920
10564SOL    HW132591   5.625   5.456   3.881
10564SOL    HW232592   5.698   5.398   4.016
10565SOL     OW32593   0.498   6.600   5.671
10565SOL    HW132594   0.453   6.687   5.692
10565SOL    HW232595   0.524   6.598   5.575
10566SOL     OW32596   2.533   3.355   6.964
10566SOL    HW132597   2.535   3.340   0.040
10566SOL    HW232598   2.563   3.448   6.944
10567SOL     OW32599   0.886   2.299   6.513
10567SOL    HW132600   0.801   2.257   6.544
10567SOL    HW232601   0.895   2.390   6.555
10568SOL     OW32602   5.082   2.346   5.664
10568SOL    HW132603   5.083   2.246   5.659
10568SOL    HW232604   5.009   2.381   5.605
10569SOL     OW32605   5.587   6.501   0.677
10569SOL    HW132606   5.620   6.518   0.770
10569SOL    HW232607   5.558   6.587   0.636
10570SOL     OW32608   1.221   4.710   3.730
10570SOL    HW132609   1.123   4.691   3.724
10570SOL    HW232610   1.237   4.806   3.708
10571SOL     OW32611   6.510   4.448   5.966
10571SOL    HW132612   6.418   4.409   5.969
10571SOL    HW232613   6.564   4.410   6.041
10572SOL     OW32614   6.098   4.178   0.931
10572SOL    HW132615   6.184   4.197   0.979
10572SOL    HW232616   6.043   4.115   0.986
10573SOL     OW32617   5.420   0.963   3.687
10573SOL    HW132618   5.333   0.987   3.731
10573SOL    HW232619   5.417   0.868   3.658
10574SOL     OW32620   6.493   2.536   3.808
10574SOL    HW132621   6.400   2.571   3.797
10574SOL    HW232622   6.559   2.608   3.788
10575SOL     OW32623   6.281   0.285   1.149
10575SOL    HW132624   6.351   0.272   1.219
10575SOL    HW232625   6.281   0.207   1.086
10576SOL     OW32626   1.875   4.757   4.104
10576SOL    HW132627   1.898   4.663   4.129
10576SOL    HW232628   1.863   4.762   4.005
10577SOL     OW32629   3.922   5.711   0.582
10577SOL    HW132630   3.857   5.786   0.570
10577SOL    HW232631   4.010   5.737   0.541
10578SOL     OW32632   6.969   3.575   4.257
10578SOL    HW132633   6.908   3.653   4.248
10578SOL    HW232634   0.007   3.570   4.178
10579SOL     OW32635   1.507   3.441   0.053
10579SOL    HW132636   1.583   3.419   0.114
10579SOL    HW232637   1.461   3.524   0.086
10580SOL     OW32638   6.584   6.492   6.966
10580SOL    HW132639   6.631   6.568   6.922
10580SOL    HW232640   6.633   6.407   6.949
10581SOL     OW32641   5.340   6.765   2.717
10581SOL    HW132642   5.365   6.692   2.653
10581SOL    HW232643   5.403   6.763   2.795
10582SOL     OW32644   5.663   4.650   6.143
10582SOL    HW132645   5.602   4.718   6.185
10582SOL    HW232646   5.661   4.661   6.044
10583SOL     OW32647   3.057   1.048   5.465
10583SOL    HW132648   3.147   1.073   5.429
10583SOL    HW232649   2.986   1.086   5.406
10584SOL     OW32650   0.821   0.232   5.048
10584SOL    HW132651   0.793   0.306   4.986
10584SOL    HW232652   0.915   0.247   5.077
10585SOL     OW32653   0.641   6.982   4.925
10585SOL    HW132654   0.619   0.038   4.868
10585SOL    HW232655   0.677   7.014   5.013
10586SOL     OW32656   4.096   4.284   5.351
10586SOL    HW132657   4.004   4.298   5.314
10586SOL    HW232658   4.163   4.326   5.289
10587SOL     OW32659   2.216   5.961   5.348
10587SOL    HW132660   2.298   5.911   5.321
10587SOL    HW232661   2.186   6.019   5.273
10588SOL     OW32662   0.963   3.603   4.118
10588SOL    HW132663   0.880   3.593   4.063
10588SOL    HW232664   0.948   3.672   4.189
10589SOL     OW32665   5.369   5.746   3.714
10589SOL    HW132666   5.303   5.813   3.746
10589SOL    HW232667   5.382   5.756   3.615
10590SOL     OW32668   0.685   5.471   2.468
10590SOL    HW132669   0.742   5.519   2.535
10590SOL    HW232670   0.722   5.484   2.376
10591SOL     OW32671   0.197   2.538   1.555
10591SOL    HW132672   0.217   2.522   1.458
10591SOL    HW232673   0.129   2.471   1.586
10592SOL     OW32674   6.282   2.263   4.806
10592SOL    HW132675   6.314   2.312   4.887
10592SOL    HW232676   6.346   2.278   4.731
10593SOL     OW32677   3.444   5.639   2.977
10593SOL    HW132678   3.539   5.647   3.010
10593SOL    HW232679   3.440   5.572   2.903
10594SOL     OW32680   3.023   0.129   3.907
10594SOL    HW132681   3.108   0.112   3.956
10594SOL    HW232682   3.009   0.057   3.839
10595SOL     OW32683   6.242   6.589   0.309
10595SOL    HW132684   6.148   6.620   0.323
10595SOL    HW232685   6.273   6.539   0.390
10596SOL     OW32686   5.290   2.894   6.988
10596SOL    HW132687   5.304   2.979   0.015
10596SOL    HW232688   5.354   2.889   6.911
10597SOL     OW32689   2.190   0.956   6.238
10597SOL    HW132690   2.277   1.006   6.243
10597SOL    HW232691   2.117   1.014   6.273
10598SOL     OW32692   2.393   2.225   6.244
10598SOL    HW132693   2.385   2.128   6.269
10598SOL    HW232694   2.463   2.268   6.301
10599SOL     OW32695   6.524   2.659   6.277
10599SOL    HW132696   6.523   2.559   6.268
10599SOL    HW232697   6.521   2.700   6.186
10600SOL     OW32698   2.792   1.895   0.872
10600SOL    HW132699   2.706   1.856   0.903
10600SOL    HW232700   2.849   1.917   0.951
10601SOL     OW32701   0.875   6.784   5.934
10601SOL    HW132702   0.964   6.794   5.888
10601SOL    HW232703   0.878   6.834   6.021
10602SOL     OW32704   7.018   0.168   1.192
10602SOL    HW132705   0.062   0.174   1.266
10602SOL    HW232706   6.958   0.089   1.207
10603SOL     OW32707   5.032   6.961   2.587
10603SOL    HW132708   5.060   6.961   2.683
10603SOL    HW232709   4.953   7.021   2.575
10604SOL     OW32710   5.794   6.470   4.721
10604SOL    HW132711   5.819   6.375   4.738
10604SOL    HW232712   5.816   6.526   4.801
10605SOL     OW32713   2.431   2.228   1.434
10605SOL    HW132714   2.393   2.316   1.409
10605SOL    HW232715   2.362   2.174   1.482
10606SOL     OW32716   6.102   0.542   0.849
10606SOL    HW132717   6.161   0.582   0.919
10606SOL    HW232718   6.155   0.524   0.766
10607SOL     OW32719   3.465   4.087   6.663
10607SOL    HW132720   3.430   4.141   6.741
10607SOL    HW232721   3.388   4.052   6.611
10608SOL     OW32722   5.702   3.772   3.007
10608SOL    HW132723   5.672   3.745   2.915
10608SOL    HW232724   5.634   3.833   3.048
10609SOL     OW32725   4.190   1.781   6.712
10609SOL    HW132726   4.184   1.734   6.624
10609SOL    HW232727   4.228   1.718   6.781
10610SOL     OW32728   0.497   0.559   3.874
10610SOL    HW132729   0.397   0.565   3.866
10610SOL    HW232730   0.534   0.519   3.790
10611SOL     OW32731   3.776   5.262   4.399
10611SOL    HW132732   3.722   5.299   4.324
10611SOL    HW232733   3.734   5.178   4.432
10612SOL     OW32734   5.717   1.310   3.737
10612SOL    HW132735   5.782   1.354   3.798
10612SOL    HW232736   5.746   1.323   3.642
10613SOL     OW32737   5.717   7.011   4.469
10613SOL    HW132738   5.685   6.975   4.382
10613SOL    HW232739   5.641   7.017   4.534
10614SOL     OW32740   4.238   0.938   6.065
10614SOL    HW132741   4.183   0.855   6.071
10614SOL    HW232742   4.334   0.914   6.051
10615SOL     OW32743   1.435   1.916   6.286
10615SOL    HW132744   1.454   2.014   6.279
10615SOL    HW232745   1.421   1.892   6.382
10616SOL     OW32746   2.434   6.698   0.121
10616SOL    HW132747   2.523   6.654   0.104
10616SOL    HW232748   2.449   6.794   0.144
10617SOL     OW32749   2.451   3.302   1.671
10617SOL    HW132750   2.384   3.362   1.716
10617SOL    HW232751   2.536   3.352   1.656
10618SOL     OW32752   1.137   5.132   4.925
10618SOL    HW132753   1.204   5.098   4.859
10618SOL    HW232754   1.148   5.231   4.935
10619SOL     OW32755   1.174   2.282   3.037
10619SOL    HW132756   1.193   2.186   3.056
10619SOL    HW232757   1.168   2.297   2.939
10620SOL     OW32758   3.051   1.034   6.692
10620SOL    HW132759   3.119   1.005   6.758
10620SOL    HW232760   2.974   0.970   6.693
10621SOL     OW32761   0.413   3.566   3.148
10621SOL    HW132762   0.313   3.566   3.146
10621SOL    HW232763   0.445   3.601   3.236
10622SOL     OW32764   4.389   2.820   0.293
10622SOL    HW132765   4.321   2.840   0.223
10622SOL    HW232766   4.420   2.905   0.335
10623SOL     OW32767   5.482   6.026   5.857
10623SOL    HW132768   5.537   5.945   5.836
10623SOL    HW232769   5.509   6.063   5.946
10624SOL     OW32770   0.263   2.691   5.451
10624SOL    HW132771   0.261   2.790   5.440
10624SOL    HW232772   0.314   2.650   5.375
10625SOL     OW32773   6.101   4.592   6.901
10625SOL    HW132774   6.052   4.506   6.894
10625SOL    HW232775   6.130   4.606   6.996
10626SOL     OW32776   4.793   3.299   1.255
10626SOL    HW132777   4.743   3.340   1.331
10626SOL    HW232778   4.728   3.259   1.190
10627SOL     OW32779   5.925   5.751   5.655
10627SOL    HW132780   5.842   5.794   5.620
10627SOL    HW232781   5.936   5.772   5.752
10628SOL     OW32782   3.909   6.880   1.697
10628SOL    HW132783   3.849   6.801   1.706
10628SOL    HW232784   3.946   6.904   1.786
10629SOL     OW32785   2.316   5.276   4.327
10629SOL    HW132786   2.327   5.293   4.425
10629SOL    HW232787   2.244   5.335   4.291
10630SOL     OW32788   3.787   0.609   2.458
10630SOL    HW132789   3.794   0.537   2.389
10630SOL    HW232790   3.759   0.694   2.414
10631SOL     OW32791   4.160   6.349   6.635
10631SOL    HW132792   4.255   6.322   6.653
10631SOL    HW232793   4.100   6.270   6.643
10632SOL     OW32794   4.033   5.813   3.177
10632SOL    HW132795   4.002   5.755   3.101
10632SOL    HW232796   3.992   5.904   3.169
10633SOL     OW32797   1.669   3.090   1.832
10633SOL    HW132798   1.671   3.090   1.931
10633SOL    HW232799   1.578   3.119   1.800
10634SOL     OW32800   0.129   3.782   6.560
10634SOL    HW132801   0.044   3.730   6.556
10634SOL    HW232802   0.134   3.843   6.481
10635SOL     OW32803   2.256   4.296   6.047
10635SOL    HW132804   2.265   4.321   5.951
10635SOL    HW232805   2.191   4.358   6.092
10636SOL     OW32806   6.834   2.088   5.905
10636SOL    HW132807   6.911   2.123   5.958
10636SOL    HW232808   6.812   1.996   5.936
10637SOL     OW32809   2.903   0.881   0.019
10637SOL    HW132810   2.966   0.958   0.016
10637SOL    HW232811   2.860   0.876   0.109
10638SOL     OW32812   0.188   5.401   1.690
10638SOL    HW132813   0.279   5.375   1.656
10638SOL    HW232814   0.187   5.498   1.711
10639SOL     OW32815   1.801   4.538   0.969
10639SOL    HW132816   1.704   4.559   0.956
10639SOL    HW232817   1.834   4.486   0.891
10640SOL     OW32818   4.296   6.906   3.634
10640SOL    HW132819   4.349   6.861   3.705
10640SOL    HW232820   4.273   6.999   3.663
10641SOL     OW32821   1.636   0.924   3.360
10641SOL    HW132822   1.672   1.015   3.382
10641SOL    HW232823   1.587   0.927   3.273
10642SOL     OW32824   5.823   1.991   6.496
10642SOL    HW132825   5.826   2.048   6.414
10642SOL    HW232826   5.861   2.042   6.573
10643SOL     OW32827   1.563   5.033   5.637
10643SOL    HW132828   1.554   5.049   5.539
10643SOL    HW232829   1.556   4.935   5.656
10644SOL     OW32830   6.945   2.210   3.247
10644SOL    HW132831   6.889   2.226   3.327
10644SOL    HW232832   6.991   2.294   3.221
10645SOL     OW32833   2.603   2.438   3.611
10645SOL    HW132834   2.599   2.443   3.711
10645SOL    HW232835   2.510   2.437   3.573
10646SOL     OW32836   4.994   0.784   4.146
10646SOL    HW132837   4.993   0.699   4.199
10646SOL    HW232838   5.089   0.811   4.129
10647SOL     OW32839   4.083   4.834   4.769
10647SOL    HW132840   4.128   4.920   4.743
10647SOL    HW232841   4.142   4.783   4.832
10648SOL     OW32842   5.139   5.656   5.266
10648SOL    HW132843   5.159   5.752   5.288
10648SOL    HW232844   5.042   5.646   5.245
10649SOL     OW32845   6.428   3.557   2.709
10649SOL    HW132846   6.346   3.593   2.754
10649SOL    HW232847   6.416   3.562   2.610
10650SOL     OW32848   0.263   0.559   4.416
10650SOL    HW132849   0.287   0.623   4.490
10650SOL    HW232850   0.336   0.491   4.408
10651SOL     OW32851   3.706   6.368   5.688
10651SOL    HW132852   3.648   6.381   5.769
10651SOL    HW232853   3.681   6.283   5.643
10652SOL     OW32854   2.014   6.859   6.861
10652SOL    HW132855   1.999   6.761   6.876
10652SOL    HW232856   2.110   6.881   6.879
10653SOL     OW32857   4.513   6.497   4.836
10653SOL    HW132858   4.447   6.449   4.777
10653SOL    HW232859   4.575   6.551   4.779
10654SOL     OW32860   6.206   1.781   4.498
10654SOL    HW132861   6.290   1.832   4.483
10654SOL    HW232862   6.186   1.780   4.596
10655SOL     OW32863   0.801   4.793   1.037
10655SOL    HW132864   0.882   4.774   1.093
10655SOL    HW232865   0.719   4.781   1.093
10656SOL     OW32866   5.970   0.980   2.368
10656SOL    HW132867   5.894   0.994   2.432
10656SOL    HW232868   6.048   0.940   2.417
10657SOL     OW32869   5.887   0.224   3.403
10657SOL    HW132870   5.844   0.312   3.423
10657SOL    HW232871   5.859   0.194   3.312
10658SOL     OW32872   0.178   3.479   5.423
10658SOL    HW132873   0.182   3.386   5.387
10658SOL    HW232874   0.222   3.541   5.359
10659SOL     OW32875   1.124   5.185   0.794
10659SOL    HW132876   1.083   5.197   0.884
10659SOL    HW232877   1.133   5.087   0.774
10660SOL     OW32878   6.514   3.451   5.258
10660SOL    HW132879   6.557   3.469   5.346
10660SOL    HW232880   6.570   3.491   5.185
10661SOL     OW32881   1.928   3.937   6.159
10661SOL    HW132882   1.958   3.998   6.085
10661SOL    HW232883   1.996   3.939   6.233
10662SOL     OW32884   3.077   1.596   3.107
10662SOL    HW132885   3.150   1.663   3.097
10662SOL    HW232886   2.990   1.638   3.080
10663SOL     OW32887   1.966   1.895   4.261
10663SOL    HW132888   1.953   1.933   4.353
10663SOL    HW232889   2.043   1.941   4.216
10664SOL     OW32890   1.452   5.303   4.796
10664SOL    HW132891   1.420   5.352   4.715
10664SOL    HW232892   1.403   5.337   4.876
10665SOL     OW32893   2.087   2.670   5.808
10665SOL    HW132894   2.185   2.651   5.816
10665SOL    HW232895   2.051   2.700   5.896
10666SOL     OW32896   3.854   3.436   2.175
10666SOL    HW132897   3.841   3.520   2.122
10666SOL    HW232898   3.948   3.433   2.209
10667SOL     OW32899   5.823   2.543   3.438
10667SOL    HW132900   5.745   2.498   3.395
10667SOL    HW232901   5.824   2.640   3.414
10668SOL     OW32902   3.409   2.277   5.310
10668SOL    HW132903   3.360   2.203   5.355
10668SOL    HW232904   3.346   2.329   5.252
10669SOL     OW32905   5.820   1.566   1.078
10669SOL    HW132906   5.721   1.561   1.063
10669SOL    HW232907   5.858   1.645   1.029
10670SOL     OW32908   5.311   3.557   4.449
10670SOL    HW132909   5.336   3.562   4.353
10670SOL    HW232910   5.290   3.649   4.482
10671SOL     OW32911   1.242   2.132   4.393
10671SOL    HW132912   1.339   2.107   4.395
10671SOL    HW232913   1.209   2.141   4.487
10672SOL     OW32914   5.528   3.731   1.548
10672SOL    HW132915   5.470   3.651   1.560
10672SOL    HW232916   5.478   3.801   1.496
10673SOL     OW32917   1.866   1.214   0.965
10673SOL    HW132918   1.953   1.264   0.967
10673SOL    HW232919   1.840   1.197   0.870
10674SOL     OW32920   3.692   3.914   4.554
10674SOL    HW132921   3.669   4.011   4.557
10674SOL    HW232922   3.791   3.902   4.562
10675SOL     OW32923   3.659   6.861   5.348
10675SOL    HW132924   3.671   6.940   5.287
10675SOL    HW232925   3.640   6.780   5.293
10676SOL     OW32926   1.446   6.441   5.162
10676SOL    HW132927   1.494   6.528   5.160
10676SOL    HW232928   1.407   6.426   5.253
10677SOL     OW32929   0.553   1.651   0.746
10677SOL    HW132930   0.594   1.731   0.703
10677SOL    HW232931   0.569   1.571   0.688
10678SOL     OW32932   4.171   5.594   3.745
10678SOL    HW132933   4.230   5.622   3.821
10678SOL    HW232934   4.141   5.500   3.758
10679SOL     OW32935   3.973   3.906   6.794
10679SOL    HW132936   3.874   3.909   6.784
10679SOL    HW232937   4.014   3.856   6.718
10680SOL     OW32938   4.024   1.615   4.140
10680SOL    HW132939   3.994   1.528   4.177
10680SOL    HW232940   3.955   1.650   4.077
10681SOL     OW32941   0.034   2.964   6.555
10681SOL    HW132942   0.106   2.985   6.621
10681SOL    HW232943   0.066   2.895   6.491
10682SOL     OW32944   6.060   3.021   5.723
10682SOL    HW132945   5.967   3.031   5.758
10682SOL    HW232946   6.115   2.971   5.790
10683SOL     OW32947   3.910   0.512   3.701
10683SOL    HW132948   3.820   0.472   3.718
10683SOL    HW232949   3.952   0.539   3.787
10684SOL     OW32950   4.538   4.483   1.356
10684SOL    HW132951   4.519   4.557   1.420
10684SOL    HW232952   4.462   4.473   1.292
10685SOL     OW32953   1.337   5.724   1.897
10685SOL    HW132954   1.251   5.680   1.920
10685SOL    HW232955   1.410   5.655   1.893
10686SOL     OW32956   2.142   4.050   0.361
10686SOL    HW132957   2.141   4.106   0.279
10686SOL    HW232958   2.237   4.032   0.389
10687SOL     OW32959   0.005   4.899   2.758
10687SOL    HW132960   0.019   4.988   2.800
10687SOL    HW232961   0.052   4.895   2.670
10688SOL     OW32962   5.151   1.698   2.400
10688SOL    HW132963   5.230   1.751   2.369
10688SOL    HW232964   5.121   1.637   2.327
10689SOL     OW32965   0.338   0.009   2.462
10689SOL    HW132966   0.409   0.012   2.532
10689SOL    HW232967   0.368   0.059   2.381
10690SOL     OW32968   6.520   6.060   3.646
10690SOL    HW132969   6.452   5.987   3.649
10690SOL    HW232970   6.487   6.133   3.586
10691SOL     OW32971   3.155   1.779   2.657
10691SOL    HW132972   3.089   1.720   2.612
10691SOL    HW232973   3.247   1.739   2.649
10692SOL     OW32974   2.763   1.002   5.107
10692SOL    HW132975   2.749   1.006   5.008
10692SOL    HW232976   2.690   0.949   5.149
10693SOL     OW32977   1.557   6.109   0.699
10693SOL    HW132978   1.584   6.105   0.603
10693SOL    HW232979   1.458   6.104   0.706
10694SOL     OW32980   4.716   6.148   5.874
10694SOL    HW132981   4.729   6.221   5.806
10694SOL    HW232982   4.666   6.072   5.832
10695SOL     OW32983   0.385   3.105   1.531
10695SOL    HW132984   0.378   3.060   1.620
10695SOL    HW232985   0.299   3.151   1.511
10696SOL     OW32986   6.641   4.375   4.732
10696SOL    HW132987   6.585   4.343   4.808
10696SOL    HW232988   6.738   4.365   4.756
10697SOL     OW32989   0.707   5.407   5.209
10697SOL    HW132990   0.805   5.391   5.217
10697SOL    HW232991   0.658   5.322   5.224
10698SOL     OW32992   4.539   3.965   0.135
10698SOL    HW132993   4.517   3.888   0.195
10698SOL    HW232994   4.553   3.932   0.042
10699SOL     OW32995   3.576   4.448   0.865
10699SOL    HW132996   3.629   4.461   0.949
10699SOL    HW232997   3.550   4.352   0.856
10700SOL     OW32998   5.531   6.529   0.180
10700SOL    HW132999   5.462   6.537   0.252
10700SOL    HW233000   5.489   6.500   0.095
10701SOL     OW33001   2.696   0.104   6.297
10701SOL    HW133002   2.692   0.123   6.395
10701SOL    HW233003   2.622   0.152   6.250
10702SOL     OW33004   4.919   3.316   2.576
10702SOL    HW133005   4.980   3.267   2.638
10702SOL    HW233006   4.825   3.287   2.592
10703SOL     OW33007   2.474   2.407   5.566
10703SOL    HW133008   2.457   2.430   5.661
10703SOL    HW233009   2.511   2.486   5.518
10704SOL     OW33010   0.316   5.647   2.614
10704SOL    HW133011   0.383   5.590   2.662
10704SOL    HW233012   0.242   5.590   2.579
10705SOL     OW33013   5.740   5.168   0.767
10705SOL    HW133014   5.708   5.073   0.759
10705SOL    HW233015   5.666   5.230   0.743
10706SOL     OW33016   4.650   0.247   2.025
10706SOL    HW133017   4.591   0.277   1.951
10706SOL    HW233018   4.693   0.327   2.068
10707SOL     OW33019   6.406   6.918   4.818
10707SOL    HW133020   6.494   6.886   4.853
10707SOL    HW233021   6.398   6.893   4.722
10708SOL     OW33022   4.664   2.447   2.769
10708SOL    HW133023   4.759   2.471   2.787
10708SOL    HW233024   4.621   2.417   2.854
10709SOL     OW33025   5.804   6.104   3.724
10709SOL    HW133026   5.765   6.018   3.756
10709SOL    HW233027   5.880   6.131   3.783
10710SOL     OW33028   5.421   0.725   3.009
10710SOL    HW133029   5.419   0.791   2.934
10710SOL    HW233030   5.478   0.647   2.984
10711SOL     OW33031   3.308   6.416   3.607
10711SOL    HW133032   3.388   6.426   3.548
10711SOL    HW233033   3.271   6.324   3.598
10712SOL     OW33034   4.043   0.787   2.606
10712SOL    HW133035   3.973   0.803   2.537
10712SOL    HW233036   4.000   0.781   2.696
10713SOL     OW33037   1.312   3.297   0.724
10713SOL    HW133038   1.363   3.218   0.690
10713SOL    HW233039   1.237   3.317   0.661
10714SOL     OW33040   4.051   3.431   5.099
10714SOL    HW133041   4.094   3.489   5.030
10714SOL    HW233042   4.055   3.477   5.188
10715SOL     OW33043   5.128   0.382   2.304
10715SOL    HW133044   5.093   0.404   2.395
10715SOL    HW233045   5.135   0.283   2.294
10716SOL     OW33046   6.202   2.592   3.801
10716SOL    HW133047   6.184   2.690   3.811
10716SOL    HW233048   6.146   2.555   3.727
10717SOL     OW33049   1.692   3.068   0.519
10717SOL    HW133050   1.649   3.152   0.552
10717SOL    HW233051   1.660   3.048   0.426
10718SOL     OW33052   0.797   4.434   6.480
10718SOL    HW133053   0.778   4.522   6.523
10718SOL    HW233054   0.845   4.374   6.545
10719SOL     OW33055   6.195   6.166   3.356
10719SOL    HW133056   6.155   6.091   3.408
10719SOL    HW233057   6.211   6.136   3.262
10720SOL     OW33058   5.704   5.289   4.179
10720SOL    HW133059   5.729   5.305   4.275
10720SOL    HW233060   5.689   5.191   4.165
10721SOL     OW33061   5.149   3.841   5.353
10721SOL    HW133062   5.089   3.870   5.279
10721SOL    HW233063   5.225   3.906   5.362
10722SOL     OW33064   6.195   3.342   6.718
10722SOL    HW133065   6.210   3.434   6.683
10722SOL    HW233066   6.108   3.338   6.767
10723SOL     OW33067   7.018   1.666   6.703
10723SOL    HW133068   0.035   1.610   6.775
10723SOL    HW233069   6.919   1.673   6.715
10724SOL     OW33070   0.402   6.734   6.906
10724SOL    HW133071   0.432   6.789   6.828
10724SOL    HW233072   0.304   6.715   6.898
10725SOL     OW33073   2.353   5.614   5.105
10725SOL    HW133074   2.263   5.575   5.125
10725SOL    HW233075   2.419   5.540   5.091
10726SOL     OW33076   4.603   0.634   4.259
10726SOL    HW133077   4.617   0.667   4.353
10726SOL    HW233078   4.690   0.602   4.222
10727SOL     OW33079   0.839   4.629   6.064
10727SOL    HW133080   0.837   4.703   5.997
10727SOL    HW233081   0.746   4.608   6.094
10728SOL     OW33082   0.340   5.287   0.281
10728SOL    HW133083   0.309   5.380   0.303
10728SOL    HW233084   0.345   5.232   0.365
10729SOL     OW33085   6.079   1.907   2.022
10729SOL    HW133086   6.164   1.907   1.969
10729SOL    HW233087   6.022   1.830   1.993
10730SOL     OW33088   3.380   0.096   1.099
10730SOL    HW133089   3.420   0.007   1.075
10730SOL    HW233090   3.340   0.137   1.016
10731SOL     OW33091   3.699   1.075   1.194
10731SOL    HW133092   3.797   1.094   1.197
10731SOL    HW233093   3.648   1.161   1.191
10732SOL     OW33094   0.384   4.614   5.378
10732SOL    HW133095   0.384   4.713   5.361
10732SOL    HW233096   0.406   4.597   5.474
10733SOL     OW33097   5.790   1.211   6.356
10733SOL    HW133098   5.881   1.240   6.387
10733SOL    HW233099   5.725   1.221   6.431
10734SOL     OW33100   1.098   2.206   1.324
10734SOL    HW133101   1.043   2.123   1.331
10734SOL    HW233102   1.193   2.182   1.308
10735SOL     OW33103   0.331   2.876   2.323
10735SOL    HW133104   0.332   2.947   2.392
10735SOL    HW233105   0.326   2.786   2.367
10736SOL     OW33106   1.813   0.226   3.479
10736SOL    HW133107   1.797   0.314   3.524
10736SOL    HW233108   1.903   0.191   3.506
10737SOL     OW33109   0.872   2.100   1.471
10737SOL    HW133110   0.856   2.022   1.410
10737SOL    HW233111   0.784   2.136   1.503
10738SOL     OW33112   3.372   5.904   2.817
10738SOL    HW133113   3.274   5.908   2.837
10738SOL    HW233114   3.412   5.823   2.860
10739SOL     OW33115   1.717   2.861   1.628
10739SOL    HW133116   1.789   2.794   1.648
10739SOL    HW233117   1.708   2.925   1.704
10740SOL     OW33118   6.248   4.824   5.497
10740SOL    HW133119   6.344   4.813   5.522
10740SOL    HW233120   6.192   4.760   5.549
10741SOL     OW33121   4.393   1.611   1.701
10741SOL    HW133122   4.398   1.697   1.651
10741SOL    HW233123   4.483   1.588   1.737
10742SOL     OW33124   6.146   5.500   1.479
10742SOL    HW133125   6.208   5.535   1.410
10742SOL    HW233126   6.171   5.406   1.501
10743SOL     OW33127   1.902   1.682   4.467
10743SOL    HW133128   2.000   1.684   4.486
10743SOL    HW233129   1.860   1.766   4.500
10744SOL     OW33130   3.452   2.016   0.703
10744SOL    HW133131   3.550   1.996   0.696
10744SOL    HW233132   3.434   2.069   0.786
10745SOL     OW33133   0.303   5.259   5.337
10745SOL    HW133134   0.233   5.191   5.358
10745SOL    HW233135   0.327   5.310   5.419
10746SOL     OW33136   1.054   3.537   6.545
10746SOL    HW133137   1.119   3.481   6.594
10746SOL    HW233138   1.101   3.613   6.501
10747SOL     OW33139   3.039   0.993   5.008
10747SOL    HW133140   3.091   1.073   5.037
10747SOL    HW233141   2.948   0.996   5.048
10748SOL     OW33142   5.586   1.134   2.404
10748SOL    HW133143   5.616   1.215   2.455
10748SOL    HW233144   5.591   1.153   2.306
10749SOL     OW33145   1.128   6.452   5.304
10749SOL    HW133146   1.148   6.397   5.224
10749SOL    HW233147   1.201   6.441   5.372
10750SOL     OW33148   4.080   0.164   5.217
10750SOL    HW133149   4.043   0.187   5.127
10750SOL    HW233150   4.032   0.216   5.288
10751SOL     OW33151   1.983   4.537   4.554
10751SOL    HW133152   2.055   4.567   4.617
10751SOL    HW233153   2.009   4.560   4.460
10752SOL     OW33154   5.906   4.242   5.243
10752SOL    HW133155   5.992   4.232   5.193
10752SOL    HW233156   5.895   4.165   5.306
10753SOL     OW33157   0.326   4.072   4.076
10753SOL    HW133158   0.407   4.121   4.046
10753SOL    HW233159   0.342   3.973   4.070
10754SOL     OW33160   1.386   0.208   2.909
10754SOL    HW133161   1.433   0.295   2.919
10754SOL    HW233162   1.320   0.213   2.834
10755SOL     OW33163   6.665   6.977   1.657
10755SOL    HW133164   6.621   0.038   1.623
10755SOL    HW233165   6.764   6.985   1.648
10756SOL     OW33166   6.619   5.121   5.182
10756SOL    HW133167   6.527   5.114   5.221
10756SOL    HW233168   6.666   5.033   5.193
10757SOL     OW33169   2.437   2.491   6.750
10757SOL    HW133170   2.523   2.463   6.708
10757SOL    HW233171   2.443   2.480   6.849
10758SOL     OW33172   0.784   6.319   3.628
10758SOL    HW133173   0.709   6.281   3.682
10758SOL    HW233174   0.856   6.251   3.617
10759SOL     OW33175   1.440   3.297   0.431
10759SOL    HW133176   1.519   3.321   0.487
10759SOL    HW233177   1.357   3.306   0.485
10760SOL     OW33178   5.990   0.949   2.976
10760SOL    HW133179   5.902   0.918   2.940
10760SOL    HW233180   6.028   1.019   2.915
10761SOL     OW33181   1.306   5.284   5.463
10761SOL    HW133182   1.396   5.327   5.458
10761SOL    HW233183   1.300   5.211   5.395
10762SOL     OW33184   2.662   0.390   4.694
10762SOL    HW133185   2.759   0.399   4.719
10762SOL    HW233186   2.654   0.357   4.600
10763SOL     OW33187   4.258   0.263   3.081
10763SOL    HW133188   4.298   0.206   3.153
10763SOL    HW233189   4.270   0.360   3.105
10764SOL     OW33190   5.062   2.072   4.868
10764SOL    HW133191   5.065   2.044   4.772
10764SOL    HW233192   5.118   2.010   4.923
10765SOL     OW33193   5.311   2.734   0.920
10765SOL    HW133194   5.404   2.728   0.956
10765SOL    HW233195   5.254   2.785   0.984
10766SOL     OW33196   4.175   4.821   0.430
10766SOL    HW133197   4.224   4.905   0.404
10766SOL    HW233198   4.082   4.825   0.396
10767SOL     OW33199   2.542   0.440   1.240
10767SOL    HW133200   2.642   0.446   1.243
10767SOL    HW233201   2.513   0.413   1.148
10768SOL     OW33202   6.354   5.102   1.372
10768SOL    HW133203   6.405   5.019   1.352
10768SOL    HW233204   6.383   5.138   1.461
10769SOL     OW33205   1.935   3.237   5.744
10769SOL    HW133206   2.024   3.270   5.713
10769SOL    HW233207   1.874   3.225   5.665
10770SOL     OW33208   5.145   5.736   3.137
10770SOL    HW133209   5.099   5.747   3.049
10770SOL    HW233210   5.216   5.806   3.147
10771SOL     OW33211   4.084   0.072   4.123
10771SOL    HW133212   4.007   0.127   4.155
10771SOL    HW233213   4.076   0.058   4.024
10772SOL     OW33214   6.410   6.046   3.987
10772SOL    HW133215   6.324   6.015   3.948
10772SOL    HW233216   6.457   6.105   3.920
10773SOL     OW33217   5.962   4.766   5.863
10773SOL    HW133218   6.020   4.782   5.943
10773SOL    HW233219   6.020   4.746   5.784
10774SOL     OW33220   1.803   1.223   4.314
10774SOL    HW133221   1.864   1.147   4.337
10774SOL    HW233222   1.757   1.255   4.396
10775SOL     OW33223   0.547   4.379   2.071
10775SOL    HW133224   0.503   4.422   2.149
10775SOL    HW233225   0.530   4.280   2.073
10776SOL     OW33226   1.108   0.527   6.327
10776SOL    HW133227   1.097   0.623   6.300
10776SOL    HW233228   1.018   0.486   6.342
10777SOL     OW33229   4.058   5.277   1.030
10777SOL    HW133230   4.033   5.246   0.939
10777SOL    HW233231   4.156   5.261   1.045
10778SOL     OW33232   4.972   0.266   3.476
10778SOL    HW133233   4.908   0.240   3.549
10778SOL    HW233234   5.053   0.208   3.480
10779SOL     OW33235   5.882   2.979   2.624
10779SOL    HW133236   5.799   2.929   2.648
10779SOL    HW233237   5.861   3.076   2.614
10780SOL     OW33238   0.741   1.208   3.995
10780SOL    HW133239   0.704   1.294   3.960
10780SOL    HW233240   0.691   1.131   3.955
10781SOL     OW33241   3.816   0.802   3.829
10781SOL    HW133242   3.839   0.852   3.746
10781SOL    HW233243   3.720   0.818   3.853
10782SOL     OW33244   0.012   6.762   3.910
10782SOL    HW133245   6.958   6.781   3.849
10782SOL    HW233246   0.001   6.815   3.994
10783SOL     OW33247   6.863   2.998   2.504
10783SOL    HW133248   6.866   2.904   2.536
10783SOL    HW233249   6.848   3.000   2.405
10784SOL     OW33250   3.125   0.951   3.717
10784SOL    HW133251   3.062   0.962   3.640
10784SOL    HW233252   3.101   0.869   3.769
10785SOL     OW33253   1.479   3.823   0.174
10785SOL    HW133254   1.516   3.899   0.120
10785SOL    HW233255   1.383   3.809   0.150
10786SOL     OW33256   6.034   6.046   2.913
10786SOL    HW133257   6.092   6.112   2.962
10786SOL    HW233258   5.987   6.092   2.838
10787SOL     OW33259   0.676   0.418   5.295
10787SOL    HW133260   0.625   0.334   5.273
10787SOL    HW233261   0.619   0.498   5.274
10788SOL     OW33262   1.117   3.348   0.542
10788SOL    HW133263   1.063   3.386   0.468
10788SOL    HW233264   1.060   3.286   0.597
10789SOL     OW33265   6.496   2.997   6.878
10789SOL    HW133266   6.503   2.905   6.839
10789SOL    HW233267   6.413   3.042   6.843
10790SOL     OW33268   0.791   6.268   1.561
10790SOL    HW133269   0.760   6.284   1.655
10790SOL    HW233270   0.816   6.172   1.550
10791SOL     OW33271   6.706   6.357   2.120
10791SOL    HW133272   6.753   6.336   2.035
10791SOL    HW233273   6.658   6.445   2.112
10792SOL     OW33274   3.531   3.275   5.167
10792SOL    HW133275   3.533   3.183   5.208
10792SOL    HW233276   3.625   3.304   5.148
10793SOL     OW33277   5.961   3.297   5.693
10793SOL    HW133278   6.017   3.355   5.634
10793SOL    HW233279   5.990   3.201   5.681
10794SOL     OW33280   3.767   3.715   4.316
10794SOL    HW133281   3.774   3.730   4.415
10794SOL    HW233282   3.822   3.636   4.291
10795SOL     OW33283   0.516   4.977   3.176
10795SOL    HW133284   0.485   4.889   3.140
10795SOL    HW233285   0.616   4.983   3.169
10796SOL     OW33286   6.630   6.472   5.881
10796SOL    HW133287   6.706   6.508   5.934
10796SOL    HW233288   6.649   6.377   5.855
10797SOL     OW33289   3.636   2.942   0.908
10797SOL    HW133290   3.571   2.982   0.843
10797SOL    HW233291   3.600   2.953   1.001
10798SOL     OW33292   2.252   1.836   0.614
10798SOL    HW133293   2.285   1.747   0.644
10798SOL    HW233294   2.319   1.878   0.553
10799SOL     OW33295   4.209   0.241   2.807
10799SOL    HW133296   4.235   0.231   2.903
10799SOL    HW233297   4.157   0.326   2.795
10800SOL     OW33298   0.660   6.138   0.051
10800SOL    HW133299   0.706   6.049   0.052
10800SOL    HW233300   0.570   6.129   0.093
10801SOL     OW33301   1.248   0.359   0.828
10801SOL    HW133302   1.321   0.419   0.859
10801SOL    HW233303   1.283   0.267   0.815
10802SOL     OW33304   0.176   6.415   2.994
10802SOL    HW133305   0.231   6.422   3.078
10802SOL    HW233306   0.236   6.420   2.914
10803SOL     OW33307   1.808   5.905   6.170
10803SOL    HW133308   1.774   5.881   6.261
10803SOL    HW233309   1.749   5.975   6.130
10804SOL     OW33310   0.137   2.709   3.150
10804SOL    HW133311   0.193   2.764   3.211
10804SOL    HW233312   0.195   2.668   3.079
10805SOL     OW33313   5.830   1.213   4.813
10805SOL    HW133314   5.800   1.309   4.813
10805SOL    HW233315   5.817   1.174   4.904
10806SOL     OW33316   3.053   5.254   6.988
10806SOL    HW133317   2.972   5.219   6.941
10806SOL    HW233318   3.058   5.353   6.977
10807SOL     OW33319   1.537   5.803   4.026
10807SOL    HW133320   1.584   5.734   4.081
10807SOL    HW233321   1.458   5.838   4.077
10808SOL     OW33322   0.333   2.952   5.934
10808SOL    HW133323   0.329   2.876   5.869
10808SOL    HW233324   0.252   3.010   5.923
10809SOL     OW33325   1.929   4.244   4.331
10809SOL    HW133326   1.837   4.267   4.299
10809SOL    HW233327   1.927   4.225   4.429
10810SOL     OW33328   0.010   0.294   3.827
10810SOL    HW133329   0.109   0.307   3.823
10810SOL    HW233330   7.009   0.249   3.913
10811SOL     OW33331   4.959   5.171   4.521
10811SOL    HW133332   4.977   5.259   4.565
10811SOL    HW233333   4.865   5.143   4.541
10812SOL     OW33334   6.834   3.279   6.868
10812SOL    HW133335   6.902   3.207   6.853
10812SOL    HW233336   6.811   3.283   6.965
10813SOL     OW33337   0.416   3.543   6.136
10813SOL    HW133338   0.370   3.591   6.062
10813SOL    HW233339   0.509   3.520   6.108
10814SOL     OW33340   2.668   0.077   0.699
10814SOL    HW133341   2.726   0.114   0.628
10814SOL    HW233342   2.688   0.122   0.786
10815SOL     OW33343   5.219   1.893   3.359
10815SOL    HW133344   5.312   1.857   3.355
10815SOL    HW233345   5.160   1.841   3.296
10816SOL     OW33346   3.559   2.863   3.084
10816SOL    HW133347   3.466   2.897   3.071
10816SOL    HW233348   3.583   2.867   3.181
10817SOL     OW33349   3.400   6.994   3.196
10817SOL    HW133350   3.463   0.030   3.246
10817SOL    HW233351   3.410   6.899   3.228
10818SOL     OW33352   4.822   5.022   5.810
10818SOL    HW133353   4.851   4.956   5.741
10818SOL    HW233354   4.796   5.108   5.766
10819SOL     OW33355   6.517   5.474   6.383
10819SOL    HW133356   6.606   5.519   6.378
10819SOL    HW233357   6.524   5.392   6.440
10820SOL     OW33358   0.611   5.600   5.382
10820SOL    HW133359   0.589   5.553   5.468
10820SOL    HW233360   0.655   5.535   5.319
10821SOL     OW33361   4.271   5.276   2.665
10821SOL    HW133362   4.207   5.204   2.692
10821SOL    HW233363   4.293   5.332   2.745
10822SOL     OW33364   5.205   2.633   1.238
10822SOL    HW133365   5.240   2.693   1.310
10822SOL    HW233366   5.271   2.559   1.221
10823SOL     OW33367   0.246   7.022   3.012
10823SOL    HW133368   0.258   6.937   3.063
10823SOL    HW233369   0.250   0.077   3.075
10824SOL     OW33370   1.026   0.981   3.864
10824SOL    HW133371   1.110   0.927   3.863
10824SOL    HW233372   0.947   0.920   3.869
10825SOL     OW33373   1.195   2.375   1.056
10825SOL    HW133374   1.199   2.328   1.145
10825SOL    HW233375   1.250   2.325   0.990
10826SOL     OW33376   1.116   1.916   2.646
10826SOL    HW133377   1.096   1.837   2.703
10826SOL    HW233378   1.158   1.987   2.701
10827SOL     OW33379   6.150   3.700   5.231
10827SOL    HW133380   6.226   3.636   5.231
10827SOL    HW233381   6.182   3.790   5.261
10828SOL     OW33382   6.269   3.341   0.289
10828SOL    HW133383   6.282   3.242   0.278
10828SOL    HW233384   6.173   3.360   0.312
10829SOL     OW33385   4.374   3.702   6.982
10829SOL    HW133386   4.307   3.772   7.006
10829SOL    HW233387   4.449   3.744   6.931
10830SOL     OW33388   4.667   1.626   3.999
10830SOL    HW133389   4.645   1.529   4.009
10830SOL    HW233390   4.683   1.665   4.090
10831SOL     OW33391   3.810   0.883   2.063
10831SOL    HW133392   3.716   0.897   2.096
10831SOL    HW233393   3.872   0.877   2.141
10832SOL     OW33394   0.011   3.101   6.869
10832SOL    HW133395   0.048   3.141   6.953
10832SOL    HW233396   0.085   3.061   6.816
10833SOL     OW33397   0.219   2.305   1.028
10833SOL    HW133398   0.202   2.392   1.075
10833SOL    HW233399   0.239   2.234   1.096
10834SOL     OW33400   6.777   0.194   0.471
10834SOL    HW133401   6.707   0.247   0.423
10834SOL    HW233402   6.860   0.191   0.416
10835SOL     OW33403   5.500   3.008   0.349
10835SOL    HW133404   5.543   2.957   0.274
10835SOL    HW233405   5.540   2.979   0.436
10836SOL     OW33406   1.160   0.993   2.595
10836SOL    HW133407   1.176   0.895   2.588
10836SOL    HW233408   1.151   1.032   2.504
10837SOL     OW33409   6.366   4.663   2.143
10837SOL    HW133410   6.274   4.658   2.104
10837SOL    HW233411   6.413   4.743   2.107
10838SOL     OW33412   5.609   6.009   3.528
10838SOL    HW133413   5.614   6.072   3.450
10838SOL    HW233414   5.666   6.044   3.602
10839SOL     OW33415   4.813   3.714   0.199
10839SOL    HW133416   4.874   3.762   0.262
10839SOL    HW233417   4.734   3.679   0.249
10840SOL     OW33418   2.988   0.366   1.818
10840SOL    HW133419   2.994   0.459   1.856
10840SOL    HW233420   2.939   0.308   1.883
10841SOL     OW33421   0.502   5.357   4.848
10841SOL    HW133422   0.517   5.433   4.912
10841SOL    HW233423   0.438   5.386   4.777
10842SOL     OW33424   4.165   3.423   1.724
10842SOL    HW133425   4.135   3.479   1.800
10842SOL    HW233426   4.096   3.353   1.705
10843SOL     OW33427   2.229   1.629   1.213
10843SOL    HW133428   2.254   1.584   1.127
10843SOL    HW233429   2.163   1.572   1.263
10844SOL     OW33430   1.204   5.848   4.754
10844SOL    HW133431   1.106   5.837   4.769
10844SOL    HW233432   1.219   5.887   4.662
10845SOL     OW33433   4.772   6.441   4.957
10845SOL    HW133434   4.813   6.450   4.866
10845SOL    HW233435   4.673   6.450   4.949
10846SOL     OW33436   5.802   6.581   0.171
10846SOL    HW133437   5.831   6.486   0.183
10846SOL    HW233438   5.703   6.586   0.179
10847SOL     OW33439   2.091   1.648   6.967
10847SOL    HW133440   2.157   1.718   6.939
10847SOL    HW233441   2.049   1.608   6.885
10848SOL     OW33442   1.213   3.943   1.046
10848SOL    HW133443   1.195   3.871   0.980
10848SOL    HW233444   1.181   3.914   1.137
10849SOL     OW33445   2.708   4.736   3.965
10849SOL    HW133446   2.633   4.788   3.923
10849SOL    HW233447   2.759   4.795   4.026
10850SOL     OW33448   4.777   6.318   0.324
10850SOL    HW133449   4.849   6.289   0.387
10850SOL    HW233450   4.795   6.281   0.233
10851SOL     OW33451   2.992   4.311   1.676
10851SOL    HW133452   2.959   4.369   1.751
10851SOL    HW233453   2.930   4.233   1.665
10852SOL     OW33454   1.862   1.572   0.415
10852SOL    HW133455   1.882   1.493   0.357
10852SOL    HW233456   1.942   1.633   0.418
10853SOL     OW33457   2.285   2.879   6.128
10853SOL    HW133458   2.265   2.951   6.061
10853SOL    HW233459   2.384   2.863   6.132
10854SOL     OW33460   4.174   6.106   4.712
10854SOL    HW133461   4.084   6.067   4.734
10854SOL    HW233462   4.163   6.199   4.678
10855SOL     OW33463   3.529   1.419   0.590
10855SOL    HW133464   3.532   1.362   0.672
10855SOL    HW233465   3.610   1.401   0.534
10856SOL     OW33466   6.859   0.559   6.588
10856SOL    HW133467   6.783   0.539   6.650
10856SOL    HW233468   6.942   0.577   6.642
10857SOL     OW33469   0.022   1.546   2.307
10857SOL    HW133470   6.973   1.607   2.342
10857SOL    HW233471   0.066   1.589   2.229
10858SOL     OW33472   2.703   5.812   1.691
10858SOL    HW133473   2.706   5.847   1.784
10858SOL    HW233474   2.775   5.854   1.637
10859SOL     OW33475   0.275   4.636   4.553
10859SOL    HW133476   0.202   4.585   4.599
10859SOL    HW233477   0.336   4.572   4.508
10860SOL     OW33478   6.708   3.535   2.721
10860SOL    HW133479   6.613   3.565   2.734
10860SOL    HW233480   6.757   3.603   2.667
10861SOL     OW33481   3.079   3.239   3.685
10861SOL    HW133482   3.076   3.190   3.598
10861SOL    HW233483   3.134   3.321   3.675
10862SOL     OW33484   2.310   0.699   5.288
10862SOL    HW133485   2.289   0.605   5.316
10862SOL    HW233486   2.281   0.763   5.359
10863SOL     OW33487   2.368   6.528   4.618
10863SOL    HW133488   2.397   6.555   4.526
10863SOL    HW233489   2.290   6.465   4.611
10864SOL     OW33490   3.645   0.006   2.000
10864SOL    HW133491   3.590   6.956   1.957
10864SOL    HW233492   3.596   0.043   2.078
10865SOL     OW33493   6.064   0.993   6.795
10865SOL    HW133494   6.102   0.978   6.703
10865SOL    HW233495   5.965   1.007   6.788
10866SOL     OW33496   4.938   4.159   0.388
10866SOL    HW133497   4.849   4.170   0.344
10866SOL    HW233498   4.925   4.126   0.481
10867SOL     OW33499   3.314   4.542   0.809
10867SOL    HW133500   3.271   4.456   0.836
10867SOL    HW233501   3.407   4.546   0.845
10868SOL     OW33502   4.475   1.658   3.613
10868SOL    HW133503   4.409   1.733   3.605
10868SOL    HW233504   4.477   1.606   3.527
10869NA      NA33505   5.937   2.142   5.742
10870NA      NA33506   4.299   4.661   5.190
10871NA      NA33507   1.988   3.604   1.635
10872NA      NA33508   4.884   3.578   5.515
10873NA      NA33509   4.249   2.270   4.971
10874NA      NA33510   3.791   4.736   1.676
10875NA      NA33511   6.693   5.319   5.088
10876NA      NA33512   3.565   3.507   4.796
10877NA      NA33513   5.068   6.375   6.458
10878NA      NA33514   3.299   6.614   5.387
10879NA      NA33515   6.931   5.214   2.223
10880NA      NA33516   2.266   0.480   3.777
10881NA      NA33517   3.925   5.207   1.221
10882NA      NA33518   3.460   3.509   2.257
   7.02257   7.02257   7.02257
