Generated by trjconv : CNT in water t= 152.00000
33518
    1C        C    1   2.847   2.769   4.748
    1C        C    2   2.894   2.714   4.869
    1C        C    3   2.845   2.774   4.986
    1C        C    4   2.845   2.769   4.262
    1C        C    5   2.900   2.727   4.385
    1C        C    6   2.843   2.769   4.507
    1C        C    7   3.015   2.638   4.627
    1C        C    8   2.899   2.720   4.627
    1C        C    9   3.077   2.602   4.748
    1C        C   10   3.010   2.634   4.868
    1C        C   11   3.180   2.491   4.978
    1C        C   12   3.060   2.564   4.979
    1C        C   13   2.851   2.772   3.772
    1C        C   14   2.903   2.725   3.894
    1C        C   15   2.850   2.771   4.017
    1C        C   16   3.017   2.643   4.137
    1C        C   17   2.901   2.724   4.140
    1C        C   18   3.080   2.615   4.260
    1C        C   19   3.016   2.646   4.382
    1C        C   20   3.209   2.556   4.504
    1C        C   21   3.077   2.608   4.504
    1C        C   22   3.276   2.532   4.626
    1C        C   23   3.207   2.545   4.749
    1C        C   24   3.414   2.493   4.862
    1C        C   25   3.271   2.502   4.868
    1C        C   26   3.489   2.478   4.980
    1C        C   27   2.850   2.768   3.282
    1C        C   28   2.903   2.721   3.404
    1C        C   29   2.848   2.768   3.526
    1C        C   30   3.017   2.642   3.651
    1C        C   31   2.902   2.724   3.649
    1C        C   32   3.081   2.608   3.772
    1C        C   33   3.017   2.642   3.893
    1C        C   34   3.210   2.556   4.018
    1C        C   35   3.077   2.605   4.016
    1C        C   36   3.278   2.537   4.140
    1C        C   37   3.212   2.565   4.262
    1C        C   38   3.418   2.509   4.379
    1C        C   39   3.280   2.538   4.383
    1C        C   40   3.486   2.502   4.503
    1C        C   41   3.414   2.501   4.624
    1C        C   42   3.632   2.483   4.744
    1C        C   43   3.490   2.486   4.742
    1C        C   44   3.705   2.489   4.864
    1C        C   45   3.628   2.481   4.981
    1C        C   46   2.840   2.754   2.794
    1C        C   47   2.892   2.711   2.918
    1C        C   48   2.838   2.763   3.038
    1C        C   49   3.015   2.640   3.162
    1C        C   50   2.899   2.721   3.158
    1C        C   51   3.078   2.604   3.283
    1C        C   52   3.016   2.637   3.406
    1C        C   53   3.208   2.550   3.528
    1C        C   54   3.077   2.604   3.529
    1C        C   55   3.277   2.533   3.650
    1C        C   56   3.211   2.553   3.774
    1C        C   57   3.418   2.510   3.894
    1C        C   58   3.279   2.535   3.896
    1C        C   59   3.487   2.501   4.017
    1C        C   60   3.416   2.508   4.138
    1C        C   61   3.632   2.503   4.258
    1C        C   62   3.490   2.499   4.258
    1C        C   63   3.702   2.514   4.381
    1C        C   64   3.627   2.503   4.500
    1C        C   65   3.835   2.543   4.623
    1C        C   66   3.700   2.501   4.621
    1C        C   67   3.909   2.561   4.741
    1C        C   68   3.841   2.527   4.860
    1C        C   69   4.048   2.592   4.981
    1C        C   70   3.920   2.535   4.976
    1C        C   71   2.824   2.736   2.309
    1C        C   72   2.883   2.693   2.430
    1C        C   73   2.829   2.746   2.549
    1C        C   74   3.005   2.625   2.672
    1C        C   75   2.889   2.705   2.671
    1C        C   76   3.065   2.590   2.795
    1C        C   77   3.008   2.630   2.918
    1C        C   78   3.206   2.552   3.037
    1C        C   79   3.073   2.601   3.039
    1C        C   80   3.276   2.536   3.159
    1C        C   81   3.211   2.557   3.283
    1C        C   82   3.416   2.508   3.404
    1C        C   83   3.277   2.535   3.406
    1C        C   84   3.485   2.501   3.527
    1C        C   85   3.416   2.508   3.650
    1C        C   86   3.628   2.500   3.769
    1C        C   87   3.487   2.500   3.771
    1C        C   88   3.698   2.508   3.891
    1C        C   89   3.629   2.504   4.014
    1C        C   90   3.838   2.547   4.137
    1C        C   91   3.701   2.512   4.135
    1C        C   92   3.906   2.574   4.258
    1C        C   93   3.838   2.551   4.380
    1C        C   94   4.030   2.636   4.500
    1C        C   95   3.902   2.576   4.503
    1C        C   96   4.091   2.673   4.622
    1C        C   97   4.037   2.623   4.742
    1C        C   98   4.195   2.765   4.863
    1C        C   99   4.099   2.659   4.865
    1C        C  100   4.209   2.848   4.975
    1C        C  101   2.826   2.733   2.071
    1C        C  102   2.987   2.588   2.190
    1C        C  103   2.878   2.680   2.190
    1C        C  104   3.064   2.577   2.310
    1C        C  105   3.001   2.615   2.430
    1C        C  106   3.202   2.541   2.549
    1C        C  107   3.069   2.590   2.551
    1C        C  108   3.267   2.518   2.672
    1C        C  109   3.197   2.541   2.792
    1C        C  110   3.408   2.508   2.917
    1C        C  111   3.268   2.524   2.913
    1C        C  112   3.483   2.497   3.036
    1C        C  113   3.414   2.505   3.159
    1C        C  114   3.626   2.500   3.279
    1C        C  115   3.485   2.498   3.281
    1C        C  116   3.694   2.517   3.401
    1C        C  117   3.626   2.509   3.525
    1C        C  118   3.835   2.548   3.647
    1C        C  119   3.698   2.514   3.647
    1C        C  120   3.902   2.569   3.769
    1C        C  121   3.834   2.547   3.892
    1C        C  122   4.025   2.641   4.013
    1C        C  123   3.900   2.574   4.014
    1C        C  124   4.091   2.671   4.134
    1C        C  125   4.034   2.632   4.258
    1C        C  126   4.201   2.763   4.376
    1C        C  127   4.096   2.668   4.379
    1C        C  128   4.247   2.818   4.498
    1C        C  129   4.195   2.769   4.620
    1C        C  130   4.329   2.934   4.741
    1C        C  131   4.246   2.819   4.742
    1C        C  132   4.365   2.999   4.861
    1C        C  133   4.292   2.960   4.975
    1C        C  134   3.171   2.468   2.081
    1C        C  135   3.036   2.507   2.082
    1C        C  136   3.259   2.486   2.189
    1C        C  137   3.196   2.524   2.309
    1C        C  138   3.408   2.484   2.426
    1C        C  139   3.269   2.509   2.429
    1C        C  140   3.479   2.489   2.549
    1C        C  141   3.407   2.499   2.670
    1C        C  142   3.617   2.500   2.790
    1C        C  143   3.476   2.500   2.793
    1C        C  144   3.692   2.507   2.910
    1C        C  145   3.625   2.495   3.034
    1C        C  146   3.831   2.538   3.157
    1C        C  147   3.695   2.500   3.156
    1C        C  148   3.899   2.568   3.277
    1C        C  149   3.832   2.547   3.400
    1C        C  150   4.026   2.629   3.523
    1C        C  151   3.899   2.567   3.522
    1C        C  152   4.085   2.670   3.644
    1C        C  153   4.026   2.637   3.768
    1C        C  154   4.196   2.763   3.887
    1C        C  155   4.085   2.676   3.890
    1C        C  156   4.246   2.815   4.009
    1C        C  157   4.197   2.764   4.131
    1C        C  158   4.337   2.924   4.254
    1C        C  159   4.246   2.816   4.253
    1C        C  160   4.380   2.981   4.376
    1C        C  161   4.337   2.927   4.499
    1C        C  162   4.442   3.114   4.616
    1C        C  163   4.374   2.991   4.620
    1C        C  164   4.470   3.181   4.737
    1C        C  165   4.441   3.117   4.859
    1C        C  166   4.522   3.322   4.974
    1C        C  167   4.479   3.189   4.973
    1C        C  168   3.475   2.428   2.072
    1C        C  169   3.397   2.457   2.185
    1C        C  170   3.616   2.475   2.307
    1C        C  171   3.474   2.468   2.302
    1C        C  172   3.691   2.497   2.424
    1C        C  173   3.620   2.496   2.546
    1C        C  174   3.825   2.544   2.667
    1C        C  175   3.689   2.505   2.669
    1C        C  176   3.893   2.570   2.788
    1C        C  177   3.827   2.546   2.911
    1C        C  178   4.023   2.625   3.031
    1C        C  179   3.895   2.566   3.033
    1C        C  180   4.088   2.661   3.151
    1C        C  181   4.026   2.630   3.275
    1C        C  182   4.199   2.747   3.397
    1C        C  183   4.085   2.663   3.399
    1C        C  184   4.248   2.801   3.518
    1C        C  185   4.196   2.757   3.642
    1C        C  186   4.339   2.916   3.764
    1C        C  187   4.247   2.808   3.764
    1C        C  188   4.378   2.976   3.886
    1C        C  189   4.340   2.921   4.010
    1C        C  190   4.447   3.105   4.130
    1C        C  191   4.379   2.981   4.132
    1C        C  192   4.476   3.169   4.252
    1C        C  193   4.451   3.103   4.374
    1C        C  194   4.513   3.312   4.493
    1C        C  195   4.471   3.177   4.493
    1C        C  196   4.528   3.385   4.613
    1C        C  197   4.511   3.317   4.736
    1C        C  198   4.557   3.534   4.851
    1C        C  199   4.527   3.394   4.855
    1C        C  200   4.582   3.619   4.963
    1C        C  201   3.615   2.417   2.075
    1C        C  202   3.826   2.513   2.183
    1C        C  203   3.691   2.464   2.186
    1C        C  204   3.897   2.549   2.301
    1C        C  205   3.829   2.528   2.423
    1C        C  206   4.022   2.618   2.541
    1C        C  207   3.894   2.558   2.545
    1C        C  208   4.083   2.658   2.662
    1C        C  209   4.021   2.629   2.786
    1C        C  210   4.194   2.750   2.907
    1C        C  211   4.080   2.667   2.909
    1C        C  212   4.252   2.793   3.028
    1C        C  213   4.200   2.747   3.151
    1C        C  214   4.338   2.905   3.271
    1C        C  215   4.250   2.794   3.275
    1C        C  216   4.373   2.969   3.393
    1C        C  217   4.330   2.916   3.516
    1C        C  218   4.438   3.097   3.639
    1C        C  219   4.372   2.972   3.639
    1C        C  220   4.457   3.167   3.760
    1C        C  221   4.436   3.104   3.885
    1C        C  222   4.500   3.307   4.003
    1C        C  223   4.472   3.168   4.006
    1C        C  224   4.512   3.376   4.126
    1C        C  225   4.506   3.307   4.249
    1C        C  226   4.513   3.522   4.367
    1C        C  227   4.518   3.380   4.369
    1C        C  228   4.515   3.594   4.488
    1C        C  229   4.530   3.526   4.611
    1C        C  230   4.501   3.741   4.727
    1C        C  231   4.540   3.604   4.728
    1C        C  232   4.493   3.817   4.845
    1C        C  233   4.548   3.755   4.958
    1C        C  234   4.014   2.615   2.060
    1C        C  235   3.895   2.544   2.066
    1C        C  236   4.085   2.649   2.176
    1C        C  237   4.025   2.612   2.298
    1C        C  238   4.202   2.733   2.420
    1C        C  239   4.085   2.653   2.419
    1C        C  240   4.257   2.781   2.541
    1C        C  241   4.196   2.744   2.663
    1C        C  242   4.341   2.900   2.780
    1C        C  243   4.249   2.793   2.784
    1C        C  244   4.383   2.957   2.903
    1C        C  245   4.344   2.901   3.027
    1C        C  246   4.438   3.091   3.150
    1C        C  247   4.378   2.963   3.149
    1C        C  248   4.457   3.162   3.270
    1C        C  249   4.430   3.098   3.393
    1C        C  250   4.492   3.300   3.515
    1C        C  251   4.458   3.163   3.516
    1C        C  252   4.504   3.371   3.637
    1C        C  253   4.495   3.304   3.760
    1C        C  254   4.520   3.517   3.878
    1C        C  255   4.511   3.376   3.881
    1C        C  256   4.519   3.588   4.000
    1C        C  257   4.513   3.517   4.122
    1C        C  258   4.491   3.730   4.243
    1C        C  259   4.509   3.589   4.243
    1C        C  260   4.470   3.802   4.363
    1C        C  261   4.485   3.732   4.485
    1C        C  262   4.424   3.938   4.605
    1C        C  263   4.468   3.804   4.605
    1C        C  264   4.399   4.009   4.724
    1C        C  265   4.436   3.946   4.845
    1C        C  266   4.308   4.123   4.956
    1C        C  267   4.388   4.010   4.961
    1C        C  268   4.263   2.775   2.060
    1C        C  269   4.199   2.733   2.177
    1C        C  270   4.344   2.892   2.300
    1C        C  271   4.252   2.784   2.298
    1C        C  272   4.388   2.953   2.420
    1C        C  273   4.346   2.891   2.539
    1C        C  274   4.454   3.079   2.659
    1C        C  275   4.387   2.955   2.658
    1C        C  276   4.473   3.148   2.781
    1C        C  277   4.447   3.083   2.903
    1C        C  278   4.496   3.289   3.024
    1C        C  279   4.468   3.150   3.026
    1C        C  280   4.506   3.363   3.144
    1C        C  281   4.497   3.298   3.269
    1C        C  282   4.513   3.508   3.391
    1C        C  283   4.507   3.366   3.392
    1C        C  284   4.512   3.581   3.511
    1C        C  285   4.510   3.513   3.635
    1C        C  286   4.484   3.726   3.755
    1C        C  287   4.507   3.587   3.755
    1C        C  288   4.469   3.794   3.878
    1C        C  289   4.492   3.726   4.000
    1C        C  290   4.425   3.930   4.120
    1C        C  291   4.476   3.799   4.121
    1C        C  292   4.397   4.000   4.240
    1C        C  293   4.426   3.936   4.362
    1C        C  294   4.317   4.121   4.478
    1C        C  295   4.392   4.002   4.482
    1C        C  296   4.279   4.184   4.599
    1C        C  297   4.326   4.131   4.721
    1C        C  298   4.203   4.316   4.837
    1C        C  299   4.280   4.195   4.839
    1C        C  300   4.170   4.402   4.946
    1C        C  301   4.344   2.888   2.061
    1C        C  302   4.466   3.070   2.176
    1C        C  303   4.395   2.946   2.178
    1C        C  304   4.484   3.143   2.296
    1C        C  305   4.453   3.079   2.418
    1C        C  306   4.508   3.285   2.537
    1C        C  307   4.484   3.146   2.538
    1C        C  308   4.514   3.356   2.659
    1C        C  309   4.504   3.286   2.781
    1C        C  310   4.520   3.500   2.900
    1C        C  311   4.513   3.359   2.902
    1C        C  312   4.516   3.572   3.022
    1C        C  313   4.511   3.504   3.145
    1C        C  314   4.486   3.716   3.265
    1C        C  315   4.508   3.576   3.267
    1C        C  316   4.470   3.786   3.387
    1C        C  317   4.487   3.720   3.511
    1C        C  318   4.420   3.925   3.629
    1C        C  319   4.465   3.791   3.631
    1C        C  320   4.390   3.988   3.751
    1C        C  321   4.423   3.928   3.875
    1C        C  322   4.319   4.112   3.992
    1C        C  323   4.393   3.993   3.997
    1C        C  324   4.275   4.171   4.113
    1C        C  325   4.323   4.120   4.236
    1C        C  326   4.185   4.286   4.354
    1C        C  327   4.279   4.180   4.356
    1C        C  328   4.134   4.340   4.474
    1C        C  329   4.186   4.290   4.595
    1C        C  330   4.031   4.442   4.710
    1C        C  331   4.142   4.354   4.714
    1C        C  332   3.974   4.494   4.828
    1C        C  333   4.055   4.482   4.942
    1C        C  334   4.552   3.267   2.062
    1C        C  335   4.534   3.128   2.064
    1C        C  336   4.548   3.351   2.174
    1C        C  337   4.517   3.282   2.293
    1C        C  338   4.529   3.494   2.413
    1C        C  339   4.523   3.353   2.414
    1C        C  340   4.518   3.567   2.534
    1C        C  341   4.519   3.497   2.657
    1C        C  342   4.493   3.709   2.774
    1C        C  343   4.518   3.570   2.778
    1C        C  344   4.473   3.777   2.896
    1C        C  345   4.490   3.711   3.020
    1C        C  346   4.424   3.914   3.139
    1C        C  347   4.468   3.780   3.141
    1C        C  348   4.388   3.980   3.259
    1C        C  349   4.416   3.916   3.382
    1C        C  350   4.317   4.104   3.502
    1C        C  351   4.389   3.982   3.504
    1C        C  352   4.274   4.164   3.623
    1C        C  353   4.313   4.107   3.746
    1C        C  354   4.177   4.267   3.867
    1C        C  355   4.275   4.166   3.869
    1C        C  356   4.120   4.315   3.988
    1C        C  357   4.176   4.272   4.110
    1C        C  358   4.011   4.405   4.230
    1C        C  359   4.130   4.328   4.231
    1C        C  360   3.953   4.453   4.349
    1C        C  361   4.022   4.427   4.469
    1C        C  362   3.833   4.524   4.590
    1C        C  363   3.965   4.474   4.589
    1C        C  364   3.766   4.548   4.712
    1C        C  365   3.841   4.542   4.831
    1C        C  366   3.630   4.585   4.952
    1C        C  367   3.768   4.571   4.947
    1C        C  368   4.507   3.565   2.056
    1C        C  369   4.529   3.491   2.173
    1C        C  370   4.500   3.706   2.288
    1C        C  371   4.521   3.566   2.292
    1C        C  372   4.484   3.777   2.409
    1C        C  373   4.495   3.707   2.531
    1C        C  374   4.422   3.909   2.650
    1C        C  375   4.476   3.778   2.652
    1C        C  376   4.388   3.971   2.772
    1C        C  377   4.420   3.908   2.895
    1C        C  378   4.316   4.094   3.010
    1C        C  379   4.394   3.976   3.015
    1C        C  380   4.276   4.155   3.131
    1C        C  381   4.312   4.099   3.256
    1C        C  382   4.173   4.256   3.379
    1C        C  383   4.272   4.156   3.379
    1C        C  384   4.121   4.310   3.499
    1C        C  385   4.177   4.266   3.622
    1C        C  386   4.010   4.396   3.742
    1C        C  387   4.125   4.314   3.744
    1C        C  388   3.949   4.438   3.862
    1C        C  389   4.011   4.404   3.984
    1C        C  390   3.819   4.492   4.106
    1C        C  391   3.949   4.438   4.107
    1C        C  392   3.752   4.524   4.226
    1C        C  393   3.824   4.509   4.347
    1C        C  394   3.619   4.555   4.475
    1C        C  395   3.759   4.534   4.470
    1C        C  396   3.549   4.560   4.597
    1C        C  397   3.626   4.566   4.716
    1C        C  398   3.413   4.550   4.838
    1C        C  399   3.552   4.578   4.835
    1C        C  400   3.346   4.515   4.955
    1C        C  401   4.512   3.704   2.052
    1C        C  402   4.456   3.916   2.166
    1C        C  403   4.490   3.780   2.168
    1C        C  404   4.415   3.979   2.286
    1C        C  405   4.435   3.909   2.407
    1C        C  406   4.326   4.096   2.524
    1C        C  407   4.394   3.972   2.527
    1C        C  408   4.276   4.149   2.645
    1C        C  409   4.315   4.092   2.769
    1C        C  410   4.175   4.254   2.890
    1C        C  411   4.273   4.153   2.889
    1C        C  412   4.124   4.303   3.012
    1C        C  413   4.177   4.256   3.135
    1C        C  414   4.004   4.382   3.255
    1C        C  415   4.121   4.303   3.256
    1C        C  416   3.941   4.417   3.376
    1C        C  417   4.004   4.389   3.499
    1C        C  418   3.813   4.482   3.622
    1C        C  419   3.943   4.425   3.621
    1C        C  420   3.749   4.512   3.743
    1C        C  421   3.819   4.493   3.865
    1C        C  422   3.610   4.541   3.988
    1C        C  423   3.748   4.510   3.986
    1C        C  424   3.540   4.547   4.111
    1C        C  425   3.613   4.548   4.232
    1C        C  426   3.404   4.548   4.357
    1C        C  427   3.545   4.562   4.355
    1C        C  428   3.334   4.537   4.479
    1C        C  429   3.408   4.550   4.599
    1C        C  430   3.197   4.509   4.724
    1C        C  431   3.336   4.538   4.720
    1C        C  432   3.129   4.486   4.847
    1C        C  433   3.209   4.493   4.962
    1C        C  434   4.380   4.121   2.051
    1C        C  435   4.438   3.994   2.051
    1C        C  436   4.303   4.163   2.164
    1C        C  437   4.336   4.097   2.285
    1C        C  438   4.183   4.253   2.404
    1C        C  439   4.284   4.155   2.403
    1C        C  440   4.127   4.300   2.525
    1C        C  441   4.179   4.252   2.647
    1C        C  442   4.004   4.377   2.766
    1C        C  443   4.123   4.300   2.767
    1C        C  444   3.944   4.414   2.888
    1C        C  445   4.007   4.382   3.011
    1C        C  446   3.818   4.481   3.130
    1C        C  447   3.944   4.418   3.132
    1C        C  448   3.752   4.506   3.252
    1C        C  449   3.813   4.478   3.377
    1C        C  450   3.609   4.536   3.497
    1C        C  451   3.747   4.504   3.499
    1C        C  452   3.540   4.545   3.620
    1C        C  453   3.610   4.541   3.742
    1C        C  454   3.400   4.543   3.865
    1C        C  455   3.541   4.551   3.865
    1C        C  456   3.331   4.535   3.988
    1C        C  457   3.399   4.533   4.112
    1C        C  458   3.196   4.495   4.235
    1C        C  459   3.334   4.525   4.237
    1C        C  460   3.131   4.478   4.359
    1C        C  461   3.196   4.507   4.480
    1C        C  462   2.999   4.430   4.603
    1C        C  463   3.129   4.487   4.603
    1C        C  464   2.934   4.398   4.724
    1C        C  465   2.994   4.440   4.846
    1C        C  466   2.799   4.337   4.959
    1C        C  467   2.910   4.423   4.961
    1C        C  468   4.124   4.288   2.043
    1C        C  469   4.191   4.253   2.161
    1C        C  470   4.010   4.374   2.281
    1C        C  471   4.130   4.299   2.281
    1C        C  472   3.945   4.411   2.401
    1C        C  473   4.010   4.379   2.522
    1C        C  474   3.815   4.469   2.643
    1C        C  475   3.942   4.407   2.643
    1C        C  476   3.748   4.497   2.764
    1C        C  477   3.814   4.469   2.886
    1C        C  478   3.610   4.526   3.008
    1C        C  479   3.749   4.498   3.008
    1C        C  480   3.541   4.535   3.130
    1C        C  481   3.613   4.529   3.252
    1C        C  482   3.400   4.534   3.375
    1C        C  483   3.541   4.539   3.373
    1C        C  484   3.328   4.531   3.497
    1C        C  485   3.399   4.544   3.618
    1C        C  486   3.196   4.494   3.744
    1C        C  487   3.331   4.533   3.742
    1C        C  488   3.131   4.469   3.867
    1C        C  489   3.195   4.497   3.990
    1C        C  490   3.001   4.412   4.116
    1C        C  491   3.127   4.477   4.113
    1C        C  492   2.943   4.378   4.240
    1C        C  493   3.003   4.418   4.362
    1C        C  494   2.829   4.297   4.484
    1C        C  495   2.939   4.385   4.483
    1C        C  496   2.770   4.255   4.605
    1C        C  497   2.822   4.310   4.725
    1C        C  498   2.662   4.167   4.844
    1C        C  499   2.751   4.277   4.842
    1C        C  500   2.598   4.117   4.958
    1C        C  501   3.999   4.350   2.045
    1C        C  502   3.815   4.465   2.156
    1C        C  503   3.942   4.404   2.161
    1C        C  504   3.746   4.486   2.278
    1C        C  505   3.814   4.463   2.399
    1C        C  506   3.606   4.511   2.518
    1C        C  507   3.745   4.485   2.521
    1C        C  508   3.536   4.517   2.641
    1C        C  509   3.608   4.516   2.763
    1C        C  510   3.398   4.524   2.886
    1C        C  511   3.539   4.529   2.886
    1C        C  512   3.328   4.520   3.008
    1C        C  513   3.400   4.533   3.129
    1C        C  514   3.195   4.487   3.255
    1C        C  515   3.331   4.526   3.252
    1C        C  516   3.127   4.465   3.377
    1C        C  517   3.191   4.496   3.499
    1C        C  518   3.003   4.404   3.624
    1C        C  519   3.128   4.470   3.622
    1C        C  520   2.945   4.369   3.748
    1C        C  521   3.004   4.407   3.870
    1C        C  522   2.833   4.284   3.997
    1C        C  523   2.943   4.373   3.993
    1C        C  524   2.783   4.238   4.120
    1C        C  525   2.829   4.295   4.241
    1C        C  526   2.686   4.137   4.363
    1C        C  527   2.778   4.244   4.363
    1C        C  528   2.648   4.079   4.486
    1C        C  529   2.684   4.143   4.606
    1C        C  530   2.577   3.962   4.729
    1C        C  531   2.637   4.090   4.729
    1C        C  532   2.541   3.901   4.852
    1C        C  533   2.533   3.992   4.962
    1C        C  534   3.618   4.557   2.040
    1C        C  535   3.750   4.511   2.041
    1C        C  536   3.536   4.533   2.155
    1C        C  537   3.607   4.518   2.277
    1C        C  538   3.393   4.521   2.398
    1C        C  539   3.534   4.517   2.397
    1C        C  540   3.323   4.518   2.521
    1C        C  541   3.395   4.518   2.642
    1C        C  542   3.189   4.475   2.766
    1C        C  543   3.326   4.512   2.765
    1C        C  544   3.124   4.453   2.889
    1C        C  545   3.192   4.482   3.010
    1C        C  546   3.000   4.400   3.136
    1C        C  547   3.126   4.464   3.134
    1C        C  548   2.940   4.366   3.260
    1C        C  549   2.998   4.407   3.381
    1C        C  550   2.830   4.278   3.507
    1C        C  551   2.939   4.367   3.503
    1C        C  552   2.780   4.230   3.630
    1C        C  553   2.837   4.278   3.750
    1C        C  554   2.698   4.122   3.874
    1C        C  555   2.790   4.230   3.874
    1C        C  556   2.651   4.069   3.996
    1C        C  557   2.693   4.129   4.116
    1C        C  558   2.593   3.947   4.245
    1C        C  559   2.652   4.075   4.240
    1C        C  560   2.569   3.880   4.367
    1C        C  561   2.592   3.949   4.488
    1C        C  562   2.528   3.749   4.616
    1C        C  563   2.559   3.887   4.610
    1C        C  564   2.516   3.682   4.739
    1C        C  565   2.525   3.758   4.859
    1C        C  566   2.528   3.546   4.981
    1C        C  567   2.522   3.685   4.978
    1C        C  568   3.328   4.473   2.041
    1C        C  569   3.395   4.515   2.156
    1C        C  570   3.184   4.472   2.281
    1C        C  571   3.320   4.513   2.277
    1C        C  572   3.117   4.450   2.403
    1C        C  573   3.186   4.483   2.522
    1C        C  574   2.990   4.402   2.647
    1C        C  575   3.118   4.462   2.645
    1C        C  576   2.936   4.358   2.770
    1C        C  577   2.997   4.391   2.893
    1C        C  578   2.832   4.265   3.019
    1C        C  579   2.937   4.359   3.017
    1C        C  580   2.780   4.219   3.142
    1C        C  581   2.833   4.273   3.262
    1C        C  582   2.696   4.113   3.385
    1C        C  583   2.782   4.225   3.384
    1C        C  584   2.658   4.056   3.509
    1C        C  585   2.691   4.120   3.631
    1C        C  586   2.588   3.936   3.756
    1C        C  587   2.656   4.060   3.754
    1C        C  588   2.563   3.874   3.881
    1C        C  589   2.592   3.940   4.002
    1C        C  590   2.537   3.739   4.127
    1C        C  591   2.567   3.877   4.125
    1C        C  592   2.521   3.671   4.249
    1C        C  593   2.534   3.743   4.370
    1C        C  594   2.512   3.536   4.499
    1C        C  595   2.521   3.677   4.495
    1C        C  596   2.520   3.467   4.622
    1C        C  597   2.513   3.540   4.743
    1C        C  598   2.531   3.328   4.862
    1C        C  599   2.525   3.469   4.864
    1C        C  600   2.537   3.252   4.980
    1C        C  601   3.194   4.441   2.043
    1C        C  602   2.981   4.394   2.158
    1C        C  603   3.117   4.440   2.160
    1C        C  604   2.923   4.360   2.283
    1C        C  605   2.988   4.392   2.404
    1C        C  606   2.819   4.270   2.529
    1C        C  607   2.930   4.358   2.528
    1C        C  608   2.773   4.219   2.653
    1C        C  609   2.828   4.267   2.774
    1C        C  610   2.688   4.110   2.898
    1C        C  611   2.779   4.218   2.897
    1C        C  612   2.647   4.052   3.020
    1C        C  613   2.687   4.112   3.142
    1C        C  614   2.587   3.928   3.267
    1C        C  615   2.653   4.053   3.265
    1C        C  616   2.564   3.865   3.391
    1C        C  617   2.595   3.930   3.512
    1C        C  618   2.534   3.729   3.637
    1C        C  619   2.567   3.866   3.635
    1C        C  620   2.520   3.666   3.763
    1C        C  621   2.531   3.736   3.885
    1C        C  622   2.505   3.525   4.008
    1C        C  623   2.521   3.666   4.007
    1C        C  624   2.510   3.458   4.133
    1C        C  625   2.513   3.530   4.254
    1C        C  626   2.538   3.324   4.379
    1C        C  627   2.515   3.463   4.379
    1C        C  628   2.560   3.255   4.501
    1C        C  629   2.542   3.327   4.621
    1C        C  630   2.603   3.123   4.746
    1C        C  631   2.551   3.256   4.742
    1C        C  632   2.620   3.049   4.866
    1C        C  633   2.563   3.114   4.980
    1C        C  634   2.777   4.306   2.054
    1C        C  635   2.894   4.383   2.045
    1C        C  636   2.746   4.230   2.168
    1C        C  637   2.809   4.274   2.286
    1C        C  638   2.677   4.111   2.412
    1C        C  639   2.762   4.224   2.409
    1C        C  640   2.645   4.046   2.534
    1C        C  641   2.690   4.105   2.654
    1C        C  642   2.586   3.921   2.779
    1C        C  643   2.650   4.047   2.777
    1C        C  644   2.564   3.854   2.901
    1C        C  645   2.587   3.925   3.021
    1C        C  646   2.522   3.725   3.150
    1C        C  647   2.559   3.861   3.145
    1C        C  648   2.512   3.655   3.272
    1C        C  649   2.529   3.728   3.392
    1C        C  650   2.512   3.518   3.519
    1C        C  651   2.518   3.659   3.515
    1C        C  652   2.514   3.451   3.643
    1C        C  653   2.510   3.525   3.763
    1C        C  654   2.534   3.316   3.891
    1C        C  655   2.512   3.455   3.886
    1C        C  656   2.553   3.250   4.014
    1C        C  657   2.537   3.320   4.137
    1C        C  658   2.608   3.120   4.260
    1C        C  659   2.554   3.251   4.259
    1C        C  660   2.638   3.057   4.383
    1C        C  661   2.609   3.123   4.504
    1C        C  662   2.714   2.939   4.627
    1C        C  663   2.638   3.057   4.626
    1C        C  664   2.753   2.876   4.747
    1C        C  665   2.695   2.927   4.867
    1C        C  666   2.744   2.869   4.984
    1C        C  667   2.672   4.027   2.052
    1C        C  668   2.684   4.103   2.169
    1C        C  669   2.584   3.917   2.294
    1C        C  670   2.642   4.046   2.291
    1C        C  671   2.553   3.850   2.415
    1C        C  672   2.583   3.919   2.534
    1C        C  673   2.513   3.721   2.661
    1C        C  674   2.561   3.854   2.657
    1C        C  675   2.503   3.651   2.783
    1C        C  676   2.523   3.719   2.906
    1C        C  677   2.501   3.512   3.029
    1C        C  678   2.508   3.653   3.030
    1C        C  679   2.508   3.442   3.152
    1C        C  680   2.507   3.513   3.274
    1C        C  681   2.532   3.306   3.400
    1C        C  682   2.511   3.446   3.397
    1C        C  683   2.549   3.240   3.524
    1C        C  684   2.535   3.311   3.645
    1C        C  685   2.608   3.116   3.772
    1C        C  686   2.554   3.246   3.769
    1C        C  687   2.638   3.054   3.896
    1C        C  688   2.604   3.119   4.017
    1C        C  689   2.717   2.937   4.140
    1C        C  690   2.640   3.055   4.138
    1C        C  691   2.758   2.880   4.262
    1C        C  692   2.716   2.939   4.383
    1C        C  693   2.754   2.879   4.505
    1C        C  694   2.621   3.896   2.057
    1C        C  695   2.533   3.704   2.176
    1C        C  696   2.576   3.839   2.176
    1C        C  697   2.510   3.639   2.299
    1C        C  698   2.518   3.714   2.419
    1C        C  699   2.491   3.505   2.542
    1C        C  700   2.502   3.646   2.542
    1C        C  701   2.498   3.437   2.665
    1C        C  702   2.497   3.510   2.787
    1C        C  703   2.530   3.299   2.909
    1C        C  704   2.504   3.438   2.908
    1C        C  705   2.545   3.232   3.033
    1C        C  706   2.534   3.303   3.155
    1C        C  707   2.598   3.104   3.280
    1C        C  708   2.552   3.237   3.278
    1C        C  709   2.629   3.043   3.404
    1C        C  710   2.600   3.108   3.525
    1C        C  711   2.714   2.935   3.651
    1C        C  712   2.632   3.049   3.650
    1C        C  713   2.760   2.881   3.774
    1C        C  714   2.716   2.937   3.896
    1C        C  715   2.760   2.880   4.018
    1C        C  716   2.458   3.502   2.061
    1C        C  717   2.492   3.638   2.059
    1C        C  718   2.470   3.425   2.181
    1C        C  719   2.484   3.500   2.301
    1C        C  720   2.513   3.290   2.425
    1C        C  721   2.485   3.429   2.423
    1C        C  722   2.540   3.225   2.547
    1C        C  723   2.520   3.298   2.667
    1C        C  724   2.596   3.098   2.789
    1C        C  725   2.541   3.228   2.788
    1C        C  726   2.625   3.036   2.913
    1C        C  727   2.592   3.099   3.035
    1C        C  728   2.703   2.920   3.163
    1C        C  729   2.623   3.036   3.158
    1C        C  730   2.752   2.870   3.286
    1C        C  731   2.706   2.925   3.407
    1C        C  732   2.754   2.873   3.530
    1C        C  733   2.488   3.199   2.073
    1C        C  734   2.488   3.283   2.185
    1C        C  735   2.580   3.086   2.305
    1C        C  736   2.524   3.216   2.305
    1C        C  737   2.611   3.021   2.427
    1C        C  738   2.593   3.094   2.546
    1C        C  739   2.695   2.909   2.672
    1C        C  740   2.623   3.030   2.668
    1C        C  741   2.737   2.851   2.794
    1C        C  742   2.699   2.916   2.914
    1C        C  743   2.743   2.867   3.039
    1C        C  744   2.538   3.069   2.078
    1C        C  745   2.687   2.897   2.185
    1C        C  746   2.608   3.015   2.186
    1C        C  747   2.729   2.841   2.307
    1C        C  748   2.688   2.903   2.428
    1C        C  749   2.730   2.847   2.550
    1C        C  750   2.731   2.835   2.067
    1C        C  751   3.657   2.297   1.999
    1C        O  752   3.704   2.192   2.051
    1C        O  753   3.722   2.305   1.876
    1C        C  754   4.622   3.037   1.988
    1C        O  755   4.606   3.041   1.863
    1C        O  756   4.723   2.952   2.035
    1C        C  757   4.425   4.216   1.946
    1C        O  758   4.538   4.269   1.960
    1C        O  759   4.410   4.178   1.813
    1C        C  760   3.607   4.694   1.983
    1C        O  761   3.652   4.795   2.044
    1C        O  762   3.553   4.711   1.856
    1C        C  763   2.903   4.484   1.937
    1C        O  764   2.932   4.437   1.823
    1C        O  765   2.914   4.623   1.945
    1C        C  766   2.356   3.461   1.962
    1C        O  767   2.381   3.402   1.853
    1C        O  768   2.220   3.463   1.995
    1C        C  769   4.691   3.590   5.059
    1C        O  770   4.660   3.567   5.179
    1C        O  771   4.829   3.606   5.038
    1C        C  772   4.262   4.435   5.057
    1C        O  773   4.223   4.485   5.166
    1C        O  774   4.377   4.508   5.025
    1C        C  775   4.147   2.538   5.077
    1C        O  776   4.194   2.421   5.075
    1C        O  777   4.152   2.595   5.205
    1C        C  778   2.901   4.523   5.069
    1C        O  779   2.809   4.609   5.075
    1C        O  780   2.950   4.506   5.200
    1C        C  781   2.453   3.044   5.048
    1C        O  782   2.343   2.999   5.003
    1C        O  783   2.462   3.016   5.184
    1C        C  784   2.421   3.987   5.058
    1C        O  785   2.306   4.020   5.019
    1C        O  786   2.431   3.985   5.198
    1C        C  787   2.953   2.434   1.984
    1C        O  788   2.962   2.448   1.859
    1C        O  789   2.882   2.320   2.021
    1C        C  790   3.216   2.400   5.088
    1C        O  791   3.193   2.277   5.075
    1C        O  792   3.244   2.442   5.219
    1C        H  793   4.264   3.033   5.048
    1C        H  794   4.200   2.809   5.074
    1C        H  795   4.520   3.126   5.050
    1C        H  796   4.536   3.369   5.069
    1C        H  797   4.606   3.818   5.021
    1C        H  798   4.441   3.998   5.053
    1C        H  799   4.307   4.180   5.047
    1C        H  800   4.038   4.551   5.023
    1C        H  801   3.816   4.538   5.037
    1C        H  802   3.588   4.573   5.050
    1C        H  803   3.400   4.456   5.026
    1C        H  804   3.177   4.444   5.052
    1C        H  805   3.899   2.460   5.049
    1C        H  806   3.678   2.479   5.075
    1C        H  807   2.994   2.536   5.059
    1C        H  808   3.449   2.534   5.062
    1C        H  809   2.856   2.725   5.081
    1C        H  810   2.689   2.871   5.077
    1C        H  811   2.552   3.300   5.074
    1C        H  812   2.510   3.498   5.075
    1C        H  813   2.481   3.732   5.065
    1C        H  814   2.563   4.190   5.028
    1C        H  815   2.781   4.292   5.054
    1C        H  816   2.677   2.846   1.976
    1C        H  817   2.866   2.698   1.979
    1C        H  818   3.196   2.385   2.019
    1C        H  819   3.431   2.414   1.975
    1C        H  820   3.863   2.497   1.975
    1C        H  821   4.023   2.665   1.966
    1C        H  822   4.314   2.695   2.011
    1C        H  823   4.364   2.931   1.965
    1C        H  824   4.580   3.309   1.968
    1C        H  825   4.451   3.513   1.981
    1C        H  826   4.542   3.752   1.961
    1C        H  827   3.797   4.495   1.946
    1C        H  828   3.941   4.329   1.958
    1C        H  829   4.153   4.244   1.950
    1C        H  830   4.489   3.963   1.962
    1C        H  831   2.643   3.833   1.973
    1C        H  832   2.740   4.053   1.974
    1C        H  833   2.701   4.314   1.980
    1C        H  834   3.364   4.521   1.952
    1C        H  835   3.165   4.374   1.965
    1C        H  836   2.493   3.001   2.008
    1C        H  837   2.429   3.223   1.987
    1C        H  838   2.438   3.699   1.990
    2V3OU   H29  839   2.805   3.544   1.656
    2V3OU   C27  840   2.781   3.501   1.757
    2V3OU   H27  841   2.721   3.567   1.825
    2V3OU   H28  842   2.725   3.407   1.734
    2V3OU   O11  843   2.912   3.470   1.805
    2V3OU   C15  844   2.925   3.395   1.920
    2V3OU   C13  845   3.052   3.374   1.977
    2V3OU   C14  846   3.077   3.268   2.065
    2V3OU   C16  847   2.970   3.191   2.110
    2V3OU    H6  848   2.993   3.100   2.166
    2V3OU   C12  849   3.211   3.231   2.116
    2V3OU    O2  850   3.233   3.128   2.183
    2V3OU   C10  851   3.324   3.310   2.065
    2V3OU    C8  852   3.454   3.270   2.093
    2V3OU   O10  853   3.483   3.155   2.159
    2V3OU   H26  854   3.402   3.110   2.188
    2V3OU    C6  855   3.564   3.348   2.045
    2V3OU    C5  856   3.534   3.463   1.973
    2V3OU    C4  857   3.703   3.293   2.049
    2V3OU    H4  858   3.722   3.226   2.138
    2V3OU    H5  859   3.717   3.225   1.960
    2V3OU    C2  860   3.815   3.397   2.047
    2V3OU    O6  861   3.807   3.477   2.166
    2V3OU   H21  862   3.769   3.560   2.132
    2V3OU    C3  863   3.779   3.497   1.937
    2V3OU    H2  864   3.865   3.569   1.932
    2V3OU    H3  865   3.781   3.436   1.843
    2V3OU   C25  866   3.950   3.326   2.035
    2V3OU    O7  867   4.003   3.292   1.929
    2V3OU   C26  868   4.030   3.288   2.158
    2V3OU   H22  869   4.070   3.387   2.191
    2V3OU   H23  870   4.116   3.223   2.130
    2V3OU    O8  871   3.954   3.204   2.243
    2V3OU   H24  872   3.933   3.264   2.317
    2V3OU    C1  873   3.643   3.563   1.947
    2V3OU    H1  874   3.626   3.621   1.852
    2V3OU    O3  875   3.651   3.656   2.056
    2V3OU   C19  876   3.616   3.795   2.053
    2V3OU    H9  877   3.514   3.814   2.008
    2V3OU    O4  878   3.714   3.844   1.965
    2V3OU   C20  879   3.845   3.869   2.019
    2V3OU   H10  880   3.892   3.770   2.047
    2V3OU   C24  881   3.612   3.856   2.194
    2V3OU   H16  882   3.549   3.784   2.253
    2V3OU   H17  883   3.566   3.958   2.194
    2V3OU   C23  884   3.752   3.882   2.251
    2V3OU   H15  885   3.796   3.778   2.266
    2V3OU    N1  886   3.739   3.958   2.374
    2V3OU   H19  887   3.810   3.922   2.434
    2V3OU   H20  888   3.652   3.932   2.415
    2V3OU   C21  889   3.849   3.949   2.149
    2V3OU   H11  890   3.954   3.933   2.188
    2V3OU    O5  891   3.821   4.088   2.157
    2V3OU   H18  892   3.788   4.110   2.245
    2V3OU   C22  893   3.912   3.949   1.909
    2V3OU   H12  894   3.862   4.049   1.904
    2V3OU   H13  895   3.906   3.893   1.812
    2V3OU   H14  896   4.020   3.967   1.932
    2V3OU   C11  897   3.161   3.469   1.950
    2V3OU    O1  898   3.138   3.587   1.917
    2V3OU    C9  899   3.298   3.426   1.987
    2V3OU    C7  900   3.402   3.506   1.941
    2V3OU    O9  901   3.391   3.617   1.860
    2V3OU   H25  902   3.296   3.640   1.862
    2V3OU   C17  903   2.818   3.314   1.963
    2V3OU    H7  904   2.714   3.347   1.962
    2V3OU   C18  905   2.844   3.212   2.054
    2V3OU    H8  906   2.762   3.139   2.054
    3SOL     OW  907   2.053   4.097   0.798
    3SOL    HW1  908   2.006   4.031   0.740
    3SOL    HW2  909   2.148   4.106   0.768
    4SOL     OW  910   6.734   5.359   2.266
    4SOL    HW1  911   6.745   5.352   2.167
    4SOL    HW2  912   6.810   5.412   2.304
    5SOL     OW  913   3.777   1.765   2.532
    5SOL    HW1  914   3.837   1.832   2.488
    5SOL    HW2  915   3.833   1.697   2.580
    6SOL     OW  916   4.018   1.402   2.347
    6SOL    HW1  917   4.084   1.453   2.401
    6SOL    HW2  918   3.972   1.464   2.283
    7SOL     OW  919   6.471   3.115   1.536
    7SOL    HW1  920   6.424   3.200   1.559
    7SOL    HW2  921   6.522   3.083   1.616
    8SOL     OW  922   2.465   6.828   5.071
    8SOL    HW1  923   2.516   6.912   5.052
    8SOL    HW2  924   2.375   6.833   5.028
    9SOL     OW  925   0.858   5.584   6.122
    9SOL    HW1  926   0.769   5.630   6.131
    9SOL    HW2  927   0.912   5.630   6.052
   10SOL     OW  928   1.100   4.746   5.338
   10SOL    HW1  929   1.170   4.677   5.317
   10SOL    HW2  930   1.012   4.715   5.303
   11SOL     OW  931   2.863   0.546   0.608
   11SOL    HW1  932   2.781   0.510   0.653
   11SOL    HW2  933   2.839   0.630   0.559
   12SOL     OW  934   4.079   5.843   4.055
   12SOL    HW1  935   4.118   5.751   4.063
   12SOL    HW2  936   4.091   5.891   4.142
   13SOL     OW  937   3.825   5.855   4.211
   13SOL    HW1  938   3.739   5.850   4.160
   13SOL    HW2  939   3.873   5.767   4.204
   14SOL     OW  940   4.704   5.844   6.631
   14SOL    HW1  941   4.725   5.765   6.688
   14SOL    HW2  942   4.630   5.821   6.568
   15SOL     OW  943   1.648   5.641   0.045
   15SOL    HW1  944   1.663   5.739   0.052
   15SOL    HW2  945   1.570   5.615   0.102
   16SOL     OW  946   5.713   2.052   5.710
   16SOL    HW1  947   5.696   1.958   5.739
   16SOL    HW2  948   5.772   2.052   5.629
   17SOL     OW  949   6.115   6.059   4.836
   17SOL    HW1  950   6.110   5.971   4.884
   17SOL    HW2  951   6.035   6.115   4.860
   18SOL     OW  952   3.049   1.472   6.790
   18SOL    HW1  953   3.069   1.460   6.692
   18SOL    HW2  954   2.971   1.416   6.815
   19SOL     OW  955   0.558   6.830   2.950
   19SOL    HW1  956   0.652   6.827   2.915
   19SOL    HW2  957   0.557   6.874   3.040
   20SOL     OW  958   3.199   1.825   4.193
   20SOL    HW1  959   3.102   1.835   4.169
   20SOL    HW2  960   3.238   1.915   4.212
   21SOL     OW  961   3.048   2.079   2.551
   21SOL    HW1  962   3.115   2.101   2.622
   21SOL    HW2  963   2.976   2.147   2.551
   22SOL     OW  964   2.175   0.237   6.652
   22SOL    HW1  965   2.076   0.222   6.651
   22SOL    HW2  966   2.214   0.187   6.730
   23SOL     OW  967   4.441   6.586   3.606
   23SOL    HW1  968   4.404   6.650   3.538
   23SOL    HW2  969   4.377   6.511   3.620
   24SOL     OW  970   5.202   1.544   4.146
   24SOL    HW1  971   5.194   1.466   4.208
   24SOL    HW2  972   5.230   1.625   4.198
   25SOL     OW  973   3.164   6.008   6.082
   25SOL    HW1  974   3.109   6.027   6.000
   25SOL    HW2  975   3.199   5.915   6.078
   26SOL     OW  976   6.145   1.219   1.100
   26SOL    HW1  977   6.189   1.252   1.016
   26SOL    HW2  978   6.057   1.266   1.112
   27SOL     OW  979   0.390   1.031   2.189
   27SOL    HW1  980   0.301   1.022   2.144
   27SOL    HW2  981   0.402   1.126   2.219
   28SOL     OW  982   4.286   0.724   0.296
   28SOL    HW1  983   4.289   0.824   0.300
   28SOL    HW2  984   4.373   0.688   0.331
   29SOL     OW  985   5.174   2.441   1.752
   29SOL    HW1  986   5.268   2.408   1.752
   29SOL    HW2  987   5.132   2.422   1.841
   30SOL     OW  988   3.562   6.966   5.172
   30SOL    HW1  989   3.625   6.958   5.094
   30SOL    HW2  990   3.474   7.002   5.140
   31SOL     OW  991   1.045   1.835   5.828
   31SOL    HW1  992   0.966   1.890   5.802
   31SOL    HW2  993   1.121   1.854   5.766
   32SOL     OW  994   0.913   1.566   3.096
   32SOL    HW1  995   0.965   1.512   3.162
   32SOL    HW2  996   0.838   1.612   3.142
   33SOL     OW  997   2.349   3.269   6.932
   33SOL    HW1  998   2.348   3.359   6.889
   33SOL    HW2  999   2.354   3.198   6.862
   34SOL     OW 1000   2.249   0.947   3.834
   34SOL    HW1 1001   2.184   1.012   3.793
   34SOL    HW2 1002   2.329   0.997   3.867
   35SOL     OW 1003   3.926   2.066   6.744
   35SOL    HW1 1004   3.893   2.093   6.834
   35SOL    HW2 1005   3.854   2.017   6.695
   36SOL     OW 1006   0.752   0.834   6.392
   36SOL    HW1 1007   0.713   0.789   6.472
   36SOL    HW2 1008   0.838   0.788   6.368
   37SOL     OW 1009   2.269   0.368   0.594
   37SOL    HW1 1010   2.342   0.301   0.610
   37SOL    HW2 1011   2.194   0.352   0.659
   38SOL     OW 1012   0.579   5.592   3.447
   38SOL    HW1 1013   0.517   5.518   3.420
   38SOL    HW2 1014   0.674   5.562   3.436
   39SOL     OW 1015   6.501   4.468   6.447
   39SOL    HW1 1016   6.594   4.499   6.426
   39SOL    HW2 1017   6.437   4.543   6.434
   40SOL     OW 1018   5.982   2.183   1.585
   40SOL    HW1 1019   6.066   2.209   1.537
   40SOL    HW2 1020   5.995   2.194   1.683
   41SOL     OW 1021   1.511   6.668   4.321
   41SOL    HW1 1022   1.611   6.675   4.327
   41SOL    HW2 1023   1.487   6.583   4.275
   42SOL     OW 1024   3.198   6.729   6.358
   42SOL    HW1 1025   3.252   6.782   6.424
   42SOL    HW2 1026   3.129   6.676   6.407
   43SOL     OW 1027   6.032   6.406   5.496
   43SOL    HW1 1028   5.933   6.404   5.487
   43SOL    HW2 1029   6.057   6.427   5.591
   44SOL     OW 1030   6.352   2.505   6.260
   44SOL    HW1 1031   6.368   2.493   6.163
   44SOL    HW2 1032   6.343   2.603   6.280
   45SOL     OW 1033   3.192   0.651   3.927
   45SOL    HW1 1034   3.215   0.718   3.857
   45SOL    HW2 1035   3.276   0.612   3.964
   46SOL     OW 1036   1.351   3.736   4.257
   46SOL    HW1 1037   1.255   3.712   4.241
   46SOL    HW2 1038   1.407   3.701   4.182
   47SOL     OW 1039   5.310   3.988   2.990
   47SOL    HW1 1040   5.295   4.075   3.038
   47SOL    HW2 1041   5.252   3.917   3.030
   48SOL     OW 1042   0.669   3.019   5.002
   48SOL    HW1 1043   0.653   2.941   5.061
   48SOL    HW2 1044   0.649   2.994   4.907
   49SOL     OW 1045   4.570   3.994   1.700
   49SOL    HW1 1046   4.494   4.039   1.747
   49SOL    HW2 1047   4.654   4.006   1.753
   50SOL     OW 1048   6.268   2.347   5.715
   50SOL    HW1 1049   6.208   2.287   5.662
   50SOL    HW2 1050   6.269   2.317   5.810
   51SOL     OW 1051   3.164   5.997   2.681
   51SOL    HW1 1052   3.176   5.904   2.715
   51SOL    HW2 1053   3.091   6.042   2.732
   52SOL     OW 1054   4.815   1.892   3.668
   52SOL    HW1 1055   4.898   1.839   3.682
   52SOL    HW2 1056   4.755   1.844   3.604
   53SOL     OW 1057   4.837   0.390   4.303
   53SOL    HW1 1058   4.797   0.298   4.305
   53SOL    HW2 1059   4.857   0.419   4.397
   54SOL     OW 1060   3.767   5.158   0.617
   54SOL    HW1 1061   3.848   5.194   0.664
   54SOL    HW2 1062   3.737   5.074   0.662
   55SOL     OW 1063   3.473   1.258   6.254
   55SOL    HW1 1064   3.437   1.178   6.302
   55SOL    HW2 1065   3.404   1.331   6.254
   56SOL     OW 1066   1.395   0.626   1.324
   56SOL    HW1 1067   1.307   0.657   1.360
   56SOL    HW2 1068   1.469   0.665   1.379
   57SOL     OW 1069   4.758   0.377   1.107
   57SOL    HW1 1070   4.682   0.424   1.063
   57SOL    HW2 1071   4.816   0.444   1.154
   58SOL     OW 1072   6.944   6.827   5.846
   58SOL    HW1 1073   7.005   6.750   5.858
   58SOL    HW2 1074   6.849   6.796   5.851
   59SOL     OW 1075   1.716   1.051   6.049
   59SOL    HW1 1076   1.748   1.004   5.967
   59SOL    HW2 1077   1.671   1.137   6.024
   60SOL     OW 1078   6.024   0.731   6.131
   60SOL    HW1 1079   5.938   0.687   6.103
   60SOL    HW2 1080   6.038   0.815   6.080
   61SOL     OW 1081   5.081   1.230   4.707
   61SOL    HW1 1082   5.078   1.310   4.647
   61SOL    HW2 1083   5.176   1.206   4.725
   62SOL     OW 1084   0.621   1.058   3.574
   62SOL    HW1 1085   0.535   1.083   3.619
   62SOL    HW2 1086   0.661   1.139   3.532
   63SOL     OW 1087   6.371   1.654   3.755
   63SOL    HW1 1088   6.286   1.615   3.791
   63SOL    HW2 1089   6.413   1.589   3.691
   64SOL     OW 1090   0.395   4.026   6.508
   64SOL    HW1 1091   0.415   4.110   6.457
   64SOL    HW2 1092   0.457   3.954   6.479
   65SOL     OW 1093   6.468   4.221   5.211
   65SOL    HW1 1094   6.523   4.202   5.292
   65SOL    HW2 1095   6.377   4.252   5.238
   66SOL     OW 1096   3.509   0.657   6.670
   66SOL    HW1 1097   3.486   0.648   6.573
   66SOL    HW2 1098   3.592   0.604   6.689
   67SOL     OW 1099   5.774   5.054   5.267
   67SOL    HW1 1100   5.688   5.032   5.312
   67SOL    HW2 1101   5.845   5.069   5.336
   68SOL     OW 1102   6.415   0.614   6.789
   68SOL    HW1 1103   6.378   0.698   6.829
   68SOL    HW2 1104   6.398   0.614   6.690
   69SOL     OW 1105   1.761   4.059   6.475
   69SOL    HW1 1106   1.776   4.158   6.476
   69SOL    HW2 1107   1.843   4.013   6.440
   70SOL     OW 1108   6.380   5.112   3.017
   70SOL    HW1 1109   6.429   5.154   3.093
   70SOL    HW2 1110   6.305   5.172   2.989
   71SOL     OW 1111   3.443   2.082   2.619
   71SOL    HW1 1112   3.516   2.131   2.572
   71SOL    HW2 1113   3.469   1.986   2.629
   72SOL     OW 1114   3.236   6.016   4.881
   72SOL    HW1 1115   3.156   6.035   4.937
   72SOL    HW2 1116   3.300   5.960   4.932
   73SOL     OW 1117   3.251   1.577   0.567
   73SOL    HW1 1118   3.178   1.564   0.499
   73SOL    HW2 1119   3.308   1.654   0.539
   74SOL     OW 1120   5.243   6.544   6.441
   74SOL    HW1 1121   5.291   6.459   6.465
   74SOL    HW2 1122   5.308   6.609   6.402
   75SOL     OW 1123   3.591   6.528   5.913
   75SOL    HW1 1124   3.535   6.456   5.952
   75SOL    HW2 1125   3.542   6.615   5.915
   76SOL     OW 1126   1.578   2.988   1.211
   76SOL    HW1 1127   1.621   2.955   1.295
   76SOL    HW2 1128   1.512   2.921   1.178
   77SOL     OW 1129   4.729   5.966   4.466
   77SOL    HW1 1130   4.815   5.924   4.494
   77SOL    HW2 1131   4.656   5.937   4.528
   78SOL     OW 1132   5.939   0.190   5.797
   78SOL    HW1 1133   6.012   0.127   5.769
   78SOL    HW2 1134   5.850   0.145   5.788
   79SOL     OW 1135   3.105   6.803   0.443
   79SOL    HW1 1136   3.021   6.857   0.451
   79SOL    HW2 1137   3.168   6.828   0.516
   80SOL     OW 1138   5.444   1.304   4.514
   80SOL    HW1 1139   5.397   1.386   4.481
   80SOL    HW2 1140   5.542   1.322   4.519
   81SOL     OW 1141   2.232   0.194   2.356
   81SOL    HW1 1142   2.170   0.258   2.401
   81SOL    HW2 1143   2.186   0.151   2.278
   82SOL     OW 1144   0.087   5.757   0.521
   82SOL    HW1 1145   0.181   5.734   0.545
   82SOL    HW2 1146   0.057   5.699   0.445
   83SOL     OW 1147   6.334   0.097   0.589
   83SOL    HW1 1148   6.378   0.186   0.577
   83SOL    HW2 1149   6.305   0.087   0.684
   84SOL     OW 1150   4.936   3.576   3.431
   84SOL    HW1 1151   4.859   3.588   3.494
   84SOL    HW2 1152   4.935   3.483   3.395
   85SOL     OW 1153   1.225   1.645   5.332
   85SOL    HW1 1154   1.213   1.558   5.380
   85SOL    HW2 1155   1.154   1.708   5.360
   86SOL     OW 1156   0.850   0.062   5.710
   86SOL    HW1 1157   0.950   0.058   5.721
   86SOL    HW2 1158   0.829   0.090   5.616
   87SOL     OW 1159   5.194   3.208   0.693
   87SOL    HW1 1160   5.150   3.175   0.777
   87SOL    HW2 1161   5.128   3.264   0.642
   88SOL     OW 1162   4.212   1.575   6.406
   88SOL    HW1 1163   4.227   1.673   6.422
   88SOL    HW2 1164   4.238   1.553   6.312
   89SOL     OW 1165   1.511   3.205   6.614
   89SOL    HW1 1166   1.595   3.207   6.668
   89SOL    HW2 1167   1.456   3.287   6.632
   90SOL     OW 1168   4.801   6.454   3.808
   90SOL    HW1 1169   4.745   6.414   3.736
   90SOL    HW2 1170   4.747   6.520   3.860
   91SOL     OW 1171   4.616   4.326   4.129
   91SOL    HW1 1172   4.564   4.242   4.142
   91SOL    HW2 1173   4.563   4.405   4.161
   92SOL     OW 1174   2.977   4.450   0.665
   92SOL    HW1 1175   2.880   4.429   0.672
   92SOL    HW2 1176   3.000   4.472   0.570
   93SOL     OW 1177   2.255   4.554   6.599
   93SOL    HW1 1178   2.256   4.518   6.506
   93SOL    HW2 1179   2.272   4.480   6.664
   94SOL     OW 1180   2.537   6.429   6.265
   94SOL    HW1 1181   2.569   6.414   6.359
   94SOL    HW2 1182   2.459   6.492   6.267
   95SOL     OW 1183   1.101   1.747   2.926
   95SOL    HW1 1184   1.046   1.678   2.973
   95SOL    HW2 1185   1.041   1.808   2.874
   96SOL     OW 1186   2.917   6.837   5.686
   96SOL    HW1 1187   2.828   6.883   5.677
   96SOL    HW2 1188   2.987   6.904   5.712
   97SOL     OW 1189   0.679   4.058   5.673
   97SOL    HW1 1190   0.651   4.123   5.602
   97SOL    HW2 1191   0.598   4.018   5.716
   98SOL     OW 1192   6.463   3.930   0.054
   98SOL    HW1 1193   6.429   3.839   0.077
   98SOL    HW2 1194   6.512   3.969   0.133
   99SOL     OW 1195   4.373   4.109   1.008
   99SOL    HW1 1196   4.384   4.090   0.910
   99SOL    HW2 1197   4.351   4.206   1.020
  100SOL     OW 1198   0.861   6.998   5.974
  100SOL    HW1 1199   0.873   0.022   6.060
  100SOL    HW2 1200   0.852   0.040   5.900
  101SOL     OW 1201   1.372   5.554   2.606
  101SOL    HW1 1202   1.457   5.587   2.648
  101SOL    HW2 1203   1.384   5.550   2.507
  102SOL     OW 1204   5.254   0.657   2.789
  102SOL    HW1 1205   5.239   0.711   2.706
  102SOL    HW2 1206   5.336   0.689   2.836
  103SOL     OW 1207   3.988   1.017   2.365
  103SOL    HW1 1208   3.912   1.030   2.429
  103SOL    HW2 1209   3.957   0.966   2.286
  104SOL     OW 1210   0.642   4.916   2.604
  104SOL    HW1 1211   0.656   4.928   2.506
  104SOL    HW2 1212   0.637   5.006   2.648
  105SOL     OW 1213   6.395   2.175   6.435
  105SOL    HW1 1214   6.380   2.086   6.480
  105SOL    HW2 1215   6.347   2.246   6.485
  106SOL     OW 1216   3.351   6.478   5.197
  106SOL    HW1 1217   3.410   6.542   5.149
  106SOL    HW2 1218   3.280   6.527   5.247
  107SOL     OW 1219   1.981   2.029   2.123
  107SOL    HW1 1220   1.916   2.001   2.053
  107SOL    HW2 1221   2.041   1.952   2.146
  108SOL     OW 1222   4.071   4.820   6.463
  108SOL    HW1 1223   4.047   4.894   6.526
  108SOL    HW2 1224   4.158   4.780   6.491
  109SOL     OW 1225   0.379   1.446   1.325
  109SOL    HW1 1226   0.346   1.514   1.391
  109SOL    HW2 1227   0.479   1.438   1.332
  110SOL     OW 1228   3.730   6.737   5.536
  110SOL    HW1 1229   3.745   6.639   5.529
  110SOL    HW2 1230   3.655   6.764   5.476
  111SOL     OW 1231   3.288   0.542   5.464
  111SOL    HW1 1232   3.287   0.443   5.478
  111SOL    HW2 1233   3.383   0.574   5.460
  112SOL     OW 1234   6.084   6.499   6.011
  112SOL    HW1 1235   6.160   6.563   6.003
  112SOL    HW2 1236   5.998   6.550   6.021
  113SOL     OW 1237   6.682   5.031   3.245
  113SOL    HW1 1238   6.645   5.123   3.259
  113SOL    HW2 1239   6.611   4.971   3.209
  114SOL     OW 1240   0.810   0.368   1.091
  114SOL    HW1 1241   0.733   0.310   1.118
  114SOL    HW2 1242   0.776   0.454   1.053
  115SOL     OW 1243   4.015   1.394   4.429
  115SOL    HW1 1244   3.958   1.459   4.480
  115SOL    HW2 1245   3.958   1.324   4.388
  116SOL     OW 1246   6.333   5.227   2.495
  116SOL    HW1 1247   6.432   5.213   2.489
  116SOL    HW2 1248   6.311   5.321   2.472
  117SOL     OW 1249   0.925   1.441   6.314
  117SOL    HW1 1250   0.865   1.501   6.367
  117SOL    HW2 1251   1.002   1.494   6.277
  118SOL     OW 1252   0.874   1.391   2.212
  118SOL    HW1 1253   0.906   1.378   2.118
  118SOL    HW2 1254   0.822   1.476   2.219
  119SOL     OW 1255   1.455   2.231   6.170
  119SOL    HW1 1256   1.507   2.255   6.252
  119SOL    HW2 1257   1.456   2.132   6.157
  120SOL     OW 1258   6.507   6.762   0.423
  120SOL    HW1 1259   6.408   6.776   0.428
  120SOL    HW2 1260   6.541   6.805   0.339
  121SOL     OW 1261   2.521   3.950   6.757
  121SOL    HW1 1262   2.512   3.980   6.661
  121SOL    HW2 1263   2.537   4.030   6.815
  122SOL     OW 1264   1.587   4.538   6.309
  122SOL    HW1 1265   1.663   4.600   6.290
  122SOL    HW2 1266   1.603   4.492   6.396
  123SOL     OW 1267   0.568   2.240   1.536
  123SOL    HW1 1268   0.574   2.327   1.584
  123SOL    HW2 1269   0.538   2.169   1.599
  124SOL     OW 1270   5.538   2.888   0.068
  124SOL    HW1 1271   5.577   2.979   0.052
  124SOL    HW2 1272   5.566   2.855   0.158
  125SOL     OW 1273   2.295   1.840   1.918
  125SOL    HW1 1274   2.245   1.779   1.857
  125SOL    HW2 1275   2.337   1.913   1.865
  126SOL     OW 1276   2.291   4.247   0.797
  126SOL    HW1 1277   2.229   4.318   0.830
  126SOL    HW2 1278   2.351   4.218   0.872
  127SOL     OW 1279   6.855   5.211   6.340
  127SOL    HW1 1280   6.880   5.119   6.370
  127SOL    HW2 1281   6.882   5.224   6.245
  128SOL     OW 1282   4.370   2.526   1.497
  128SOL    HW1 1283   4.337   2.532   1.591
  128SOL    HW2 1284   4.295   2.548   1.434
  129SOL     OW 1285   4.280   3.987   6.207
  129SOL    HW1 1286   4.335   4.015   6.286
  129SOL    HW2 1287   4.257   4.068   6.152
  130SOL     OW 1288   0.591   1.007   4.287
  130SOL    HW1 1289   0.642   1.080   4.333
  130SOL    HW2 1290   0.611   0.919   4.330
  131SOL     OW 1291   5.631   1.163   2.122
  131SOL    HW1 1292   5.637   1.260   2.143
  131SOL    HW2 1293   5.659   1.148   2.027
  132SOL     OW 1294   2.548   2.872   0.877
  132SOL    HW1 1295   2.600   2.957   0.888
  132SOL    HW2 1296   2.453   2.888   0.904
  133SOL     OW 1297   5.171   6.403   4.050
  133SOL    HW1 1298   5.164   6.409   3.951
  133SOL    HW2 1299   5.246   6.460   4.082
  134SOL     OW 1300   5.989   1.596   2.436
  134SOL    HW1 1301   5.925   1.665   2.471
  134SOL    HW2 1302   6.063   1.583   2.503
  135SOL     OW 1303   5.855   2.972   1.700
  135SOL    HW1 1304   5.895   2.933   1.783
  135SOL    HW2 1305   5.756   2.955   1.699
  136SOL     OW 1306   3.972   3.567   6.398
  136SOL    HW1 1307   3.915   3.641   6.363
  136SOL    HW2 1308   3.948   3.549   6.493
  137SOL     OW 1309   5.126   0.677   4.899
  137SOL    HW1 1310   5.166   0.766   4.878
  137SOL    HW2 1311   5.165   0.608   4.838
  138SOL     OW 1312   0.608   4.329   3.694
  138SOL    HW1 1313   0.534   4.273   3.656
  138SOL    HW2 1314   0.632   4.294   3.785
  139SOL     OW 1315   2.386   5.836   5.180
  139SOL    HW1 1316   2.415   5.931   5.164
  139SOL    HW2 1317   2.461   5.774   5.160
  140SOL     OW 1318   0.334   6.095   3.445
  140SOL    HW1 1319   0.269   6.020   3.456
  140SOL    HW2 1320   0.318   6.140   3.357
  141SOL     OW 1321   6.133   3.035   5.359
  141SOL    HW1 1322   6.205   2.984   5.405
  141SOL    HW2 1323   6.123   3.125   5.402
  142SOL     OW 1324   1.654   5.036   0.600
  142SOL    HW1 1325   1.727   5.098   0.630
  142SOL    HW2 1326   1.624   5.061   0.508
  143SOL     OW 1327   5.735   3.894   1.575
  143SOL    HW1 1328   5.802   3.967   1.565
  143SOL    HW2 1329   5.698   3.894   1.668
  144SOL     OW 1330   1.420   6.696   6.700
  144SOL    HW1 1331   1.482   6.769   6.729
  144SOL    HW2 1332   1.413   6.696   6.600
  145SOL     OW 1333   0.744   4.903   0.450
  145SOL    HW1 1334   0.713   4.849   0.529
  145SOL    HW2 1335   0.694   4.989   0.446
  146SOL     OW 1336   5.116   0.034   5.809
  146SOL    HW1 1337   5.181   0.013   5.736
  146SOL    HW2 1338   5.047   0.097   5.775
  147SOL     OW 1339   5.969   2.948   6.655
  147SOL    HW1 1340   5.883   2.899   6.638
  147SOL    HW2 1341   5.988   2.947   6.753
  148SOL     OW 1342   0.386   4.728   6.502
  148SOL    HW1 1343   0.421   4.714   6.409
  148SOL    HW2 1344   0.315   4.660   6.522
  149SOL     OW 1345   2.640   1.592   4.248
  149SOL    HW1 1346   2.682   1.546   4.327
  149SOL    HW2 1347   2.572   1.531   4.207
  150SOL     OW 1348   5.821   5.108   6.499
  150SOL    HW1 1349   5.904   5.161   6.481
  150SOL    HW2 1350   5.744   5.170   6.512
  151SOL     OW 1351   3.483   1.940   1.217
  151SOL    HW1 1352   3.390   1.935   1.252
  151SOL    HW2 1353   3.540   1.874   1.266
  152SOL     OW 1354   1.737   1.467   3.904
  152SOL    HW1 1355   1.686   1.513   3.977
  152SOL    HW2 1356   1.748   1.530   3.827
  153SOL     OW 1357   2.775   0.067   1.697
  153SOL    HW1 1358   2.715   0.129   1.645
  153SOL    HW2 1359   2.728   7.004   1.711
  154SOL     OW 1360   0.482   2.753   2.832
  154SOL    HW1 1361   0.452   2.809   2.908
  154SOL    HW2 1362   0.581   2.762   2.821
  155SOL     OW 1363   0.353   1.171   3.469
  155SOL    HW1 1364   0.422   1.150   3.400
  155SOL    HW2 1365   0.396   1.213   3.549
  156SOL     OW 1366   0.074   1.910   1.364
  156SOL    HW1 1367   0.114   2.001   1.367
  156SOL    HW2 1368   0.140   1.846   1.325
  157SOL     OW 1369   6.207   3.688   1.665
  157SOL    HW1 1370   6.293   3.658   1.625
  157SOL    HW2 1371   6.142   3.711   1.593
  158SOL     OW 1372   2.643   0.017   2.489
  158SOL    HW1 1373   2.650   0.113   2.514
  158SOL    HW2 1374   2.734   7.000   2.485
  159SOL     OW 1375   4.454   4.297   1.474
  159SOL    HW1 1376   4.435   4.199   1.463
  159SOL    HW2 1377   4.387   4.337   1.537
  160SOL     OW 1378   6.794   4.866   0.089
  160SOL    HW1 1379   6.766   4.835   0.179
  160SOL    HW2 1380   6.717   4.908   0.042
  161SOL     OW 1381   1.774   5.386   4.603
  161SOL    HW1 1382   1.707   5.338   4.545
  161SOL    HW2 1383   1.777   5.341   4.693
  162SOL     OW 1384   3.682   6.586   0.499
  162SOL    HW1 1385   3.702   6.574   0.402
  162SOL    HW2 1386   3.659   6.498   0.540
  163SOL     OW 1387   5.129   5.592   1.257
  163SOL    HW1 1388   5.062   5.518   1.259
  163SOL    HW2 1389   5.144   5.621   1.163
  164SOL     OW 1390   6.694   4.191   1.049
  164SOL    HW1 1391   6.773   4.218   0.994
  164SOL    HW2 1392   6.629   4.267   1.054
  165SOL     OW 1393   5.469   2.682   1.014
  165SOL    HW1 1394   5.482   2.583   1.014
  165SOL    HW2 1395   5.545   2.725   0.965
  166SOL     OW 1396   0.469   4.804   3.565
  166SOL    HW1 1397   0.565   4.779   3.574
  166SOL    HW2 1398   0.422   4.738   3.506
  167SOL     OW 1399   5.734   2.457   0.626
  167SOL    HW1 1400   5.726   2.358   0.626
  167SOL    HW2 1401   5.831   2.483   0.631
  168SOL     OW 1402   2.753   3.665   1.026
  168SOL    HW1 1403   2.661   3.625   1.032
  168SOL    HW2 1404   2.798   3.658   1.115
  169SOL     OW 1405   3.956   0.238   2.786
  169SOL    HW1 1406   3.963   0.266   2.690
  169SOL    HW2 1407   4.048   0.218   2.821
  170SOL     OW 1408   0.441   1.734   3.466
  170SOL    HW1 1409   0.380   1.691   3.400
  170SOL    HW2 1410   0.494   1.805   3.420
  171SOL     OW 1411   3.906   4.260   0.383
  171SOL    HW1 1412   3.993   4.214   0.398
  171SOL    HW2 1413   3.921   4.358   0.369
  172SOL     OW 1414   6.476   1.673   4.418
  172SOL    HW1 1415   6.523   1.623   4.491
  172SOL    HW2 1416   6.381   1.687   4.443
  173SOL     OW 1417   6.543   1.464   4.252
  173SOL    HW1 1418   6.538   1.385   4.313
  173SOL    HW2 1419   6.514   1.546   4.300
  174SOL     OW 1420   2.737   5.214   4.343
  174SOL    HW1 1421   2.820   5.159   4.356
  174SOL    HW2 1422   2.719   5.225   4.245
  175SOL     OW 1423   2.014   6.615   2.085
  175SOL    HW1 1424   1.920   6.581   2.079
  175SOL    HW2 1425   2.027   6.688   2.018
  176SOL     OW 1426   1.094   4.176   1.277
  176SOL    HW1 1427   1.053   4.251   1.226
  176SOL    HW2 1428   1.192   4.173   1.260
  177SOL     OW 1429   5.881   3.027   2.421
  177SOL    HW1 1430   5.822   3.058   2.346
  177SOL    HW2 1431   5.881   3.096   2.493
  178SOL     OW 1432   4.350   3.314   5.948
  178SOL    HW1 1433   4.272   3.338   6.006
  178SOL    HW2 1434   4.349   3.371   5.866
  179SOL     OW 1435   2.667   2.019   6.008
  179SOL    HW1 1436   2.657   1.935   6.061
  179SOL    HW2 1437   2.630   2.005   5.916
  180SOL     OW 1438   1.381   0.385   6.239
  180SOL    HW1 1439   1.331   0.307   6.201
  180SOL    HW2 1440   1.444   0.421   6.170
  181SOL     OW 1441   3.699   1.292   6.912
  181SOL    HW1 1442   3.797   1.305   6.926
  181SOL    HW2 1443   3.662   1.238   6.988
  182SOL     OW 1444   3.768   2.147   4.483
  182SOL    HW1 1445   3.685   2.201   4.489
  182SOL    HW2 1446   3.820   2.175   4.402
  183SOL     OW 1447   3.480   1.789   3.687
  183SOL    HW1 1448   3.529   1.866   3.729
  183SOL    HW2 1449   3.532   1.754   3.610
  184SOL     OW 1450   1.369   5.940   4.088
  184SOL    HW1 1451   1.292   6.005   4.088
  184SOL    HW2 1452   1.365   5.884   4.171
  185SOL     OW 1453   0.824   2.710   6.460
  185SOL    HW1 1454   0.863   2.759   6.539
  185SOL    HW2 1455   0.889   2.641   6.428
  186SOL     OW 1456   6.650   1.293   3.413
  186SOL    HW1 1457   6.711   1.236   3.358
  186SOL    HW2 1458   6.649   1.386   3.376
  187SOL     OW 1459   4.907   0.651   3.581
  187SOL    HW1 1460   4.922   0.702   3.666
  187SOL    HW2 1461   4.995   0.616   3.548
  188SOL     OW 1462   6.202   1.982   2.766
  188SOL    HW1 1463   6.103   1.998   2.769
  188SOL    HW2 1464   6.220   1.885   2.781
  189SOL     OW 1465   1.823   5.565   2.693
  189SOL    HW1 1466   1.734   5.599   2.722
  189SOL    HW2 1467   1.895   5.607   2.749
  190SOL     OW 1468   3.606   1.371   4.816
  190SOL    HW1 1469   3.608   1.304   4.742
  190SOL    HW2 1470   3.541   1.443   4.794
  191SOL     OW 1471   5.297   5.723   5.868
  191SOL    HW1 1472   5.259   5.814   5.888
  191SOL    HW2 1473   5.329   5.721   5.774
  192SOL     OW 1474   0.011   5.402   1.786
  192SOL    HW1 1475   0.013   5.306   1.814
  192SOL    HW2 1476   6.972   5.413   1.709
  193SOL     OW 1477   4.296   2.683   5.613
  193SOL    HW1 1478   4.368   2.705   5.679
  193SOL    HW2 1479   4.310   2.589   5.580
  194SOL     OW 1480   3.498   1.236   3.007
  194SOL    HW1 1481   3.418   1.218   2.950
  194SOL    HW2 1482   3.480   1.314   3.066
  195SOL     OW 1483   1.995   6.293   4.494
  195SOL    HW1 1484   1.972   6.203   4.532
  195SOL    HW2 1485   1.988   6.362   4.566
  196SOL     OW 1486   2.636   1.262   0.104
  196SOL    HW1 1487   2.598   1.306   0.186
  196SOL    HW2 1488   2.661   1.332   0.038
  197SOL     OW 1489   2.430   0.602   0.244
  197SOL    HW1 1490   2.355   0.550   0.284
  197SOL    HW2 1491   2.394   0.682   0.197
  198SOL     OW 1492   4.863   1.450   3.471
  198SOL    HW1 1493   4.785   1.427   3.413
  198SOL    HW2 1494   4.921   1.369   3.483
  199SOL     OW 1495   1.140   2.387   3.950
  199SOL    HW1 1496   1.063   2.385   3.887
  199SOL    HW2 1497   1.123   2.456   4.021
  200SOL     OW 1498   1.459   3.494   0.605
  200SOL    HW1 1499   1.475   3.515   0.701
  200SOL    HW2 1500   1.389   3.424   0.597
  201SOL     OW 1501   0.327   6.444   5.385
  201SOL    HW1 1502   0.359   6.442   5.290
  201SOL    HW2 1503   0.307   6.351   5.416
  202SOL     OW 1504   3.983   1.652   6.539
  202SOL    HW1 1505   4.013   1.704   6.619
  202SOL    HW2 1506   4.061   1.605   6.497
  203SOL     OW 1507   6.014   2.290   5.230
  203SOL    HW1 1508   5.931   2.286   5.174
  203SOL    HW2 1509   5.988   2.297   5.327
  204SOL     OW 1510   0.773   6.866   4.522
  204SOL    HW1 1511   0.743   6.810   4.599
  204SOL    HW2 1512   0.701   6.870   4.453
  205SOL     OW 1513   2.101   2.503   2.695
  205SOL    HW1 1514   2.189   2.540   2.668
  205SOL    HW2 1515   2.028   2.559   2.656
  206SOL     OW 1516   1.077   3.209   1.058
  206SOL    HW1 1517   1.177   3.200   1.052
  206SOL    HW2 1518   1.055   3.296   1.101
  207SOL     OW 1519   5.410   0.538   3.573
  207SOL    HW1 1520   5.508   0.542   3.594
  207SOL    HW2 1521   5.372   0.630   3.577
  208SOL     OW 1522   0.265   3.839   5.680
  208SOL    HW1 1523   0.169   3.866   5.676
  208SOL    HW2 1524   0.314   3.899   5.744
  209SOL     OW 1525   6.389   4.442   2.984
  209SOL    HW1 1526   6.351   4.368   2.927
  209SOL    HW2 1527   6.314   4.489   3.031
  210SOL     OW 1528   4.449   1.976   0.749
  210SOL    HW1 1529   4.351   1.958   0.744
  210SOL    HW2 1530   4.464   2.075   0.751
  211SOL     OW 1531   1.265   6.931   2.498
  211SOL    HW1 1532   1.261   6.852   2.559
  211SOL    HW2 1533   1.218   7.009   2.540
  212SOL     OW 1534   1.281   3.811   2.528
  212SOL    HW1 1535   1.268   3.723   2.574
  212SOL    HW2 1536   1.377   3.836   2.532
  213SOL     OW 1537   1.645   5.841   0.824
  213SOL    HW1 1538   1.630   5.930   0.869
  213SOL    HW2 1539   1.691   5.855   0.737
  214SOL     OW 1540   3.536   5.199   2.901
  214SOL    HW1 1541   3.603   5.129   2.923
  214SOL    HW2 1542   3.510   5.247   2.985
  215SOL     OW 1543   2.735   4.266   1.272
  215SOL    HW1 1544   2.812   4.302   1.219
  215SOL    HW2 1545   2.688   4.342   1.317
  216SOL     OW 1546   0.801   6.347   2.967
  216SOL    HW1 1547   0.824   6.342   2.870
  216SOL    HW2 1548   0.784   6.442   2.992
  217SOL     OW 1549   1.070   2.253   5.077
  217SOL    HW1 1550   1.009   2.324   5.043
  217SOL    HW2 1551   1.111   2.205   4.999
  218SOL     OW 1552   0.578   3.040   4.651
  218SOL    HW1 1553   0.614   2.998   4.568
  218SOL    HW2 1554   0.562   2.970   4.721
  219SOL     OW 1555   4.596   0.587   0.620
  219SOL    HW1 1556   4.573   0.611   0.526
  219SOL    HW2 1557   4.668   0.648   0.653
  220SOL     OW 1558   2.615   6.964   0.737
  220SOL    HW1 1559   2.700   6.937   0.691
  220SOL    HW2 1560   2.578   0.022   0.694
  221SOL     OW 1561   6.448   4.265   1.302
  221SOL    HW1 1562   6.459   4.166   1.313
  221SOL    HW2 1563   6.413   4.304   1.387
  222SOL     OW 1564   1.699   4.396   6.084
  222SOL    HW1 1565   1.637   4.422   6.158
  222SOL    HW2 1566   1.668   4.438   5.999
  223SOL     OW 1567   6.834   2.659   5.190
  223SOL    HW1 1568   6.823   2.586   5.123
  223SOL    HW2 1569   6.816   2.747   5.146
  224SOL     OW 1570   3.514   1.153   0.045
  224SOL    HW1 1571   3.475   1.078   0.099
  224SOL    HW2 1572   3.442   1.193   7.012
  225SOL     OW 1573   4.027   3.867   6.288
  225SOL    HW1 1574   4.107   3.920   6.258
  225SOL    HW2 1575   3.973   3.922   6.352
  226SOL     OW 1576   0.541   1.334   5.993
  226SOL    HW1 1577   0.441   1.333   6.001
  226SOL    HW2 1578   0.582   1.306   6.080
  227SOL     OW 1579   2.116   4.406   2.517
  227SOL    HW1 1580   2.169   4.458   2.450
  227SOL    HW2 1581   2.080   4.324   2.473
  228SOL     OW 1582   1.818   0.637   2.817
  228SOL    HW1 1583   1.835   0.649   2.719
  228SOL    HW2 1584   1.796   0.541   2.836
  229SOL     OW 1585   5.065   5.385   6.168
  229SOL    HW1 1586   5.071   5.422   6.075
  229SOL    HW2 1587   5.007   5.304   6.168
  230SOL     OW 1588   4.400   5.623   4.596
  230SOL    HW1 1589   4.477   5.569   4.631
  230SOL    HW2 1590   4.380   5.597   4.502
  231SOL     OW 1591   6.155   1.396   6.257
  231SOL    HW1 1592   6.097   1.315   6.264
  231SOL    HW2 1593   6.223   1.394   6.330
  232SOL     OW 1594   0.437   3.316   6.348
  232SOL    HW1 1595   0.358   3.296   6.289
  232SOL    HW2 1596   0.498   3.381   6.301
  233SOL     OW 1597   4.063   1.571   3.164
  233SOL    HW1 1598   4.155   1.544   3.134
  233SOL    HW2 1599   4.040   1.660   3.125
  234SOL     OW 1600   6.024   1.284   6.631
  234SOL    HW1 1601   6.114   1.255   6.660
  234SOL    HW2 1602   5.961   1.283   6.709
  235SOL     OW 1603   4.861   3.101   2.218
  235SOL    HW1 1604   4.953   3.062   2.219
  235SOL    HW2 1605   4.803   3.049   2.156
  236SOL     OW 1606   5.209   2.928   6.800
  236SOL    HW1 1607   5.211   2.944   6.701
  236SOL    HW2 1608   5.167   3.007   6.845
  237SOL     OW 1609   0.101   4.129   1.517
  237SOL    HW1 1610   0.114   4.219   1.557
  237SOL    HW2 1611   0.044   4.137   1.435
  238SOL     OW 1612   6.098   1.952   0.178
  238SOL    HW1 1613   6.087   1.858   0.145
  238SOL    HW2 1614   6.191   1.983   0.160
  239SOL     OW 1615   1.102   4.168   0.312
  239SOL    HW1 1616   1.157   4.101   0.262
  239SOL    HW2 1617   1.042   4.217   0.247
  240SOL     OW 1618   0.826   3.191   3.390
  240SOL    HW1 1619   0.894   3.125   3.421
  240SOL    HW2 1620   0.858   3.284   3.410
  241SOL     OW 1621   2.798   2.323   4.722
  241SOL    HW1 1622   2.768   2.376   4.802
  241SOL    HW2 1623   2.721   2.313   4.658
  242SOL     OW 1624   3.222   3.666   3.772
  242SOL    HW1 1625   3.275   3.638   3.691
  242SOL    HW2 1626   3.136   3.707   3.743
  243SOL     OW 1627   4.493   1.704   0.219
  243SOL    HW1 1628   4.556   1.772   0.257
  243SOL    HW2 1629   4.514   1.689   0.123
  244SOL     OW 1630   6.013   3.868   5.448
  244SOL    HW1 1631   6.004   3.968   5.440
  244SOL    HW2 1632   5.936   3.824   5.402
  245SOL     OW 1633   4.088   2.265   3.692
  245SOL    HW1 1634   4.141   2.239   3.611
  245SOL    HW2 1635   3.991   2.250   3.675
  246SOL     OW 1636   4.972   1.679   3.727
  246SOL    HW1 1637   4.910   1.601   3.736
  246SOL    HW2 1638   5.054   1.663   3.783
  247SOL     OW 1639   2.367   1.541   0.506
  247SOL    HW1 1640   2.403   1.622   0.551
  247SOL    HW2 1641   2.268   1.547   0.500
  248SOL     OW 1642   2.528   1.288   2.986
  248SOL    HW1 1643   2.501   1.353   2.915
  248SOL    HW2 1644   2.626   1.270   2.979
  249SOL     OW 1645   5.259   6.587   5.822
  249SOL    HW1 1646   5.318   6.665   5.844
  249SOL    HW2 1647   5.180   6.619   5.769
  250SOL     OW 1648   4.343   3.543   0.678
  250SOL    HW1 1649   4.329   3.461   0.622
  250SOL    HW2 1650   4.312   3.526   0.771
  251SOL     OW 1651   4.323   3.483   5.329
  251SOL    HW1 1652   4.265   3.483   5.248
  251SOL    HW2 1653   4.380   3.566   5.330
  252SOL     OW 1654   6.768   0.100   4.832
  252SOL    HW1 1655   6.820   0.095   4.917
  252SOL    HW2 1656   6.680   0.053   4.845
  253SOL     OW 1657   3.484   5.276   6.874
  253SOL    HW1 1658   3.430   5.361   6.875
  253SOL    HW2 1659   3.459   5.221   6.954
  254SOL     OW 1660   6.357   2.512   3.582
  254SOL    HW1 1661   6.398   2.482   3.668
  254SOL    HW2 1662   6.263   2.479   3.576
  255SOL     OW 1663   2.200   4.528   5.678
  255SOL    HW1 1664   2.199   4.558   5.582
  255SOL    HW2 1665   2.125   4.571   5.727
  256SOL     OW 1666   5.598   3.408   6.112
  256SOL    HW1 1667   5.652   3.353   6.176
  256SOL    HW2 1668   5.591   3.502   6.147
  257SOL     OW 1669   5.122   0.224   3.394
  257SOL    HW1 1670   5.092   0.315   3.423
  257SOL    HW2 1671   5.222   0.221   3.393
  258SOL     OW 1672   2.468   4.193   5.368
  258SOL    HW1 1673   2.431   4.162   5.456
  258SOL    HW2 1674   2.459   4.120   5.300
  259SOL     OW 1675   5.906   0.500   2.313
  259SOL    HW1 1676   5.814   0.478   2.347
  259SOL    HW2 1677   5.914   0.472   2.217
  260SOL     OW 1678   4.171   5.593   3.081
  260SOL    HW1 1679   4.098   5.548   3.132
  260SOL    HW2 1680   4.132   5.652   3.011
  261SOL     OW 1681   5.665   3.806   1.131
  261SOL    HW1 1682   5.571   3.785   1.158
  261SOL    HW2 1683   5.665   3.872   1.056
  262SOL     OW 1684   1.086   4.099   0.584
  262SOL    HW1 1685   1.097   4.102   0.484
  262SOL    HW2 1686   1.061   4.189   0.617
  263SOL     OW 1687   1.951   0.574   4.411
  263SOL    HW1 1688   2.040   0.586   4.454
  263SOL    HW2 1689   1.939   0.643   4.339
  264SOL     OW 1690   6.688   2.196   0.044
  264SOL    HW1 1691   6.778   2.197   0.087
  264SOL    HW2 1692   6.661   2.289   0.018
  265SOL     OW 1693   5.617   6.298   2.931
  265SOL    HW1 1694   5.523   6.325   2.907
  265SOL    HW2 1695   5.668   6.276   2.848
  266SOL     OW 1696   4.675   3.008   5.915
  266SOL    HW1 1697   4.620   3.000   5.833
  266SOL    HW2 1698   4.639   2.947   5.986
  267SOL     OW 1699   0.699   1.755   5.852
  267SOL    HW1 1700   0.759   1.725   5.926
  267SOL    HW2 1701   0.751   1.809   5.787
  268SOL     OW 1702   2.801   1.111   6.322
  268SOL    HW1 1703   2.867   1.186   6.315
  268SOL    HW2 1704   2.804   1.057   6.238
  269SOL     OW 1705   2.350   4.067   1.179
  269SOL    HW1 1706   2.255   4.093   1.197
  269SOL    HW2 1707   2.352   3.975   1.141
  270SOL     OW 1708   0.888   6.536   0.845
  270SOL    HW1 1709   0.798   6.557   0.883
  270SOL    HW2 1710   0.926   6.456   0.892
  271SOL     OW 1711   6.881   1.631   6.230
  271SOL    HW1 1712   6.970   1.670   6.207
  271SOL    HW2 1713   6.810   1.698   6.213
  272SOL     OW 1714   3.638   6.179   3.941
  272SOL    HW1 1715   3.702   6.144   4.009
  272SOL    HW2 1716   3.565   6.229   3.988
  273SOL     OW 1717   2.566   4.593   4.512
  273SOL    HW1 1718   2.490   4.658   4.515
  273SOL    HW2 1719   2.560   4.531   4.591
  274SOL     OW 1720   4.156   1.510   3.653
  274SOL    HW1 1721   4.206   1.442   3.707
  274SOL    HW2 1722   4.197   1.600   3.666
  275SOL     OW 1723   6.287   5.520   2.963
  275SOL    HW1 1724   6.338   5.553   3.043
  275SOL    HW2 1725   6.202   5.571   2.955
  276SOL     OW 1726   6.738   6.904   3.829
  276SOL    HW1 1727   6.660   6.901   3.891
  276SOL    HW2 1728   6.815   6.949   3.874
  277SOL     OW 1729   1.794   4.130   0.203
  277SOL    HW1 1730   1.733   4.053   0.185
  277SOL    HW2 1731   1.805   4.142   0.302
  278SOL     OW 1732   0.345   3.508   1.954
  278SOL    HW1 1733   0.351   3.555   2.042
  278SOL    HW2 1734   0.426   3.451   1.941
  279SOL     OW 1735   5.831   2.951   4.356
  279SOL    HW1 1736   5.774   2.915   4.283
  279SOL    HW2 1737   5.827   2.891   4.436
  280SOL     OW 1738   2.802   5.394   2.043
  280SOL    HW1 1739   2.776   5.434   2.131
  280SOL    HW2 1740   2.887   5.437   2.011
  281SOL     OW 1741   2.406   4.803   1.900
  281SOL    HW1 1742   2.398   4.810   1.999
  281SOL    HW2 1743   2.497   4.767   1.876
  282SOL     OW 1744   3.017   1.421   5.493
  282SOL    HW1 1745   3.012   1.484   5.415
  282SOL    HW2 1746   3.041   1.472   5.575
  283SOL     OW 1747   6.116   2.705   6.594
  283SOL    HW1 1748   6.080   2.632   6.653
  283SOL    HW2 1749   6.075   2.792   6.621
  284SOL     OW 1750   1.526   3.351   4.082
  284SOL    HW1 1751   1.598   3.327   4.017
  284SOL    HW2 1752   1.531   3.291   4.162
  285SOL     OW 1753   5.156   4.966   4.379
  285SOL    HW1 1754   5.153   5.035   4.452
  285SOL    HW2 1755   5.170   4.876   4.419
  286SOL     OW 1756   3.445   4.724   6.953
  286SOL    HW1 1757   3.519   4.713   7.019
  286SOL    HW2 1758   3.452   4.814   6.910
  287SOL     OW 1759   1.148   3.144   0.784
  287SOL    HW1 1760   1.182   3.051   0.781
  287SOL    HW2 1761   1.137   3.173   0.879
  288SOL     OW 1762   3.625   1.699   6.777
  288SOL    HW1 1763   3.542   1.753   6.786
  288SOL    HW2 1764   3.702   1.751   6.814
  289SOL     OW 1765   2.025   4.289   5.311
  289SOL    HW1 1766   2.101   4.332   5.262
  289SOL    HW2 1767   2.050   4.196   5.336
  290SOL     OW 1768   6.282   1.938   4.779
  290SOL    HW1 1769   6.331   2.017   4.816
  290SOL    HW2 1770   6.281   1.865   4.847
  291SOL     OW 1771   0.629   1.690   4.277
  291SOL    HW1 1772   0.554   1.732   4.226
  291SOL    HW2 1773   0.592   1.635   4.352
  292SOL     OW 1774   2.430   1.679   3.056
  292SOL    HW1 1775   2.343   1.705   3.097
  292SOL    HW2 1776   2.484   1.761   3.036
  293SOL     OW 1777   4.425   5.734   3.013
  293SOL    HW1 1778   4.499   5.741   3.080
  293SOL    HW2 1779   4.356   5.670   3.045
  294SOL     OW 1780   6.534   5.831   6.625
  294SOL    HW1 1781   6.576   5.741   6.611
  294SOL    HW2 1782   6.435   5.821   6.634
  295SOL     OW 1783   3.410   1.423   3.173
  295SOL    HW1 1784   3.328   1.480   3.170
  295SOL    HW2 1785   3.491   1.482   3.169
  296SOL     OW 1786   3.192   1.546   2.629
  296SOL    HW1 1787   3.173   1.644   2.625
  296SOL    HW2 1788   3.236   1.524   2.716
  297SOL     OW 1789   2.265   4.203   4.116
  297SOL    HW1 1790   2.310   4.215   4.028
  297SOL    HW2 1791   2.201   4.126   4.112
  298SOL     OW 1792   4.268   5.977   1.445
  298SOL    HW1 1793   4.238   5.884   1.466
  298SOL    HW2 1794   4.258   5.993   1.347
  299SOL     OW 1795   5.207   3.850   5.285
  299SOL    HW1 1796   5.226   3.848   5.383
  299SOL    HW2 1797   5.120   3.805   5.266
  300SOL     OW 1798   6.725   0.536   2.425
  300SOL    HW1 1799   6.666   0.534   2.506
  300SOL    HW2 1800   6.670   0.516   2.343
  301SOL     OW 1801   5.637   3.925   0.404
  301SOL    HW1 1802   5.715   3.863   0.392
  301SOL    HW2 1803   5.638   3.994   0.332
  302SOL     OW 1804   1.385   0.273   3.126
  302SOL    HW1 1805   1.423   0.227   3.206
  302SOL    HW2 1806   1.311   0.217   3.088
  303SOL     OW 1807   5.085   0.444   1.794
  303SOL    HW1 1808   5.154   0.454   1.722
  303SOL    HW2 1809   5.016   0.377   1.766
  304SOL     OW 1810   1.855   0.063   3.292
  304SOL    HW1 1811   1.816   0.154   3.307
  304SOL    HW2 1812   1.953   0.071   3.276
  305SOL     OW 1813   0.308   3.587   6.501
  305SOL    HW1 1814   0.347   3.495   6.513
  305SOL    HW2 1815   0.382   3.652   6.486
  306SOL     OW 1816   1.284   1.498   4.019
  306SOL    HW1 1817   1.211   1.532   3.960
  306SOL    HW2 1818   1.310   1.406   3.990
  307SOL     OW 1819   5.159   6.438   1.529
  307SOL    HW1 1820   5.125   6.347   1.506
  307SOL    HW2 1821   5.083   6.503   1.530
  308SOL     OW 1822   6.972   5.035   4.361
  308SOL    HW1 1823   6.952   5.132   4.350
  308SOL    HW2 1824   6.968   4.989   4.272
  309SOL     OW 1825   3.779   4.438   5.440
  309SOL    HW1 1826   3.862   4.455   5.387
  309SOL    HW2 1827   3.727   4.364   5.397
  310SOL     OW 1828   5.713   0.028   5.740
  310SOL    HW1 1829   5.729   6.983   5.669
  310SOL    HW2 1830   5.694   7.006   5.827
  311SOL     OW 1831   6.853   5.058   2.079
  311SOL    HW1 1832   6.809   5.004   2.151
  311SOL    HW2 1833   6.804   5.145   2.069
  312SOL     OW 1834   4.716   1.618   5.327
  312SOL    HW1 1835   4.803   1.619   5.377
  312SOL    HW2 1836   4.693   1.710   5.297
  313SOL     OW 1837   2.578   4.080   1.632
  313SOL    HW1 1838   2.632   4.164   1.640
  313SOL    HW2 1839   2.637   4.001   1.645
  314SOL     OW 1840   3.372   5.720   0.870
  314SOL    HW1 1841   3.390   5.802   0.816
  314SOL    HW2 1842   3.345   5.645   0.809
  315SOL     OW 1843   0.770   2.210   3.142
  315SOL    HW1 1844   0.725   2.298   3.152
  315SOL    HW2 1845   0.711   2.138   3.179
  316SOL     OW 1846   2.412   2.702   4.604
  316SOL    HW1 1847   2.392   2.792   4.643
  316SOL    HW2 1848   2.328   2.661   4.567
  317SOL     OW 1849   0.754   1.636   6.717
  317SOL    HW1 1850   0.778   1.569   6.787
  317SOL    HW2 1851   0.750   1.727   6.759
  318SOL     OW 1852   1.223   5.043   1.142
  318SOL    HW1 1853   1.217   4.984   1.061
  318SOL    HW2 1854   1.270   4.993   1.215
  319SOL     OW 1855   0.987   6.971   1.824
  319SOL    HW1 1856   0.933   0.011   1.880
  319SOL    HW2 1857   1.084   6.991   1.835
  320SOL     OW 1858   6.147   2.477   0.006
  320SOL    HW1 1859   6.119   2.471   0.102
  320SOL    HW2 1860   6.200   2.395   7.006
  321SOL     OW 1861   2.234   1.616   2.365
  321SOL    HW1 1862   2.291   1.542   2.402
  321SOL    HW2 1863   2.226   1.690   2.433
  322SOL     OW 1864   3.247   3.096   4.075
  322SOL    HW1 1865   3.266   3.052   4.163
  322SOL    HW2 1866   3.149   3.112   4.067
  323SOL     OW 1867   0.840   4.525   0.327
  323SOL    HW1 1868   0.859   4.598   0.394
  323SOL    HW2 1869   0.756   4.548   0.277
  324SOL     OW 1870   0.934   2.940   4.456
  324SOL    HW1 1871   0.944   3.026   4.506
  324SOL    HW2 1872   0.840   2.908   4.464
  325SOL     OW 1873   2.284   3.010   1.319
  325SOL    HW1 1874   2.315   2.927   1.366
  325SOL    HW2 1875   2.235   3.068   1.384
  326SOL     OW 1876   1.769   6.112   6.654
  326SOL    HW1 1877   1.671   6.092   6.649
  326SOL    HW2 1878   1.792   6.143   6.747
  327SOL     OW 1879   0.586   4.935   4.282
  327SOL    HW1 1880   0.579   5.017   4.339
  327SOL    HW2 1881   0.648   4.952   4.206
  328SOL     OW 1882   3.638   5.198   2.464
  328SOL    HW1 1883   3.607   5.103   2.470
  328SOL    HW2 1884   3.561   5.257   2.439
  329SOL     OW 1885   3.473   4.120   3.221
  329SOL    HW1 1886   3.564   4.124   3.179
  329SOL    HW2 1887   3.457   4.029   3.258
  330SOL     OW 1888   3.074   6.698   2.072
  330SOL    HW1 1889   3.030   6.609   2.087
  330SOL    HW2 1890   3.039   6.764   2.139
  331SOL     OW 1891   4.713   5.599   6.242
  331SOL    HW1 1892   4.811   5.616   6.235
  331SOL    HW2 1893   4.666   5.684   6.268
  332SOL     OW 1894   3.461   2.067   3.966
  332SOL    HW1 1895   3.373   2.064   3.917
  332SOL    HW2 1896   3.445   2.062   4.064
  333SOL     OW 1897   3.879   0.189   6.505
  333SOL    HW1 1898   3.976   0.167   6.512
  333SOL    HW2 1899   3.851   0.244   6.584
  334SOL     OW 1900   2.968   6.816   2.294
  334SOL    HW1 1901   2.893   6.871   2.257
  334SOL    HW2 1902   2.930   6.736   2.341
  335SOL     OW 1903   3.725   5.834   3.792
  335SOL    HW1 1904   3.754   5.840   3.888
  335SOL    HW2 1905   3.806   5.821   3.734
  336SOL     OW 1906   2.294   1.042   3.453
  336SOL    HW1 1907   2.234   1.103   3.402
  336SOL    HW2 1908   2.343   0.983   3.389
  337SOL     OW 1909   0.030   3.107   1.280
  337SOL    HW1 1910   0.007   3.131   1.186
  337SOL    HW2 1911   0.127   3.121   1.297
  338SOL     OW 1912   2.815   3.031   1.740
  338SOL    HW1 1913   2.910   3.000   1.735
  338SOL    HW2 1914   2.813   3.131   1.728
  339SOL     OW 1915   3.784   0.557   3.013
  339SOL    HW1 1916   3.882   0.537   3.003
  339SOL    HW2 1917   3.757   0.546   3.109
  340SOL     OW 1918   5.423   4.126   4.681
  340SOL    HW1 1919   5.480   4.208   4.688
  340SOL    HW2 1920   5.467   4.060   4.620
  341SOL     OW 1921   5.304   6.173   3.928
  341SOL    HW1 1922   5.404   6.177   3.938
  341SOL    HW2 1923   5.261   6.214   4.009
  342SOL     OW 1924   5.709   4.421   6.752
  342SOL    HW1 1925   5.780   4.371   6.703
  342SOL    HW2 1926   5.750   4.497   6.802
  343SOL     OW 1927   2.910   6.278   1.750
  343SOL    HW1 1928   3.009   6.277   1.739
  343SOL    HW2 1929   2.881   6.200   1.806
  344SOL     OW 1930   2.102   5.084   0.740
  344SOL    HW1 1931   2.144   5.067   0.651
  344SOL    HW2 1932   2.172   5.113   0.805
  345SOL     OW 1933   0.404   0.816   5.639
  345SOL    HW1 1934   0.364   0.817   5.731
  345SOL    HW2 1935   0.423   0.722   5.612
  346SOL     OW 1936   1.381   0.958   3.203
  346SOL    HW1 1937   1.285   0.981   3.189
  346SOL    HW2 1938   1.434   0.985   3.123
  347SOL     OW 1939   5.960   0.464   6.855
  347SOL    HW1 1940   5.975   0.521   6.774
  347SOL    HW2 1941   6.026   0.388   6.854
  348SOL     OW 1942   3.985   5.070   1.682
  348SOL    HW1 1943   3.963   5.009   1.606
  348SOL    HW2 1944   4.010   5.160   1.646
  349SOL     OW 1945   0.429   4.483   2.146
  349SOL    HW1 1946   0.458   4.551   2.079
  349SOL    HW2 1947   0.353   4.429   2.108
  350SOL     OW 1948   3.833   3.612   1.630
  350SOL    HW1 1949   3.915   3.632   1.684
  350SOL    HW2 1950   3.813   3.514   1.635
  351SOL     OW 1951   2.717   2.180   0.676
  351SOL    HW1 1952   2.796   2.159   0.734
  351SOL    HW2 1953   2.730   2.269   0.633
  352SOL     OW 1954   3.681   0.567   4.973
  352SOL    HW1 1955   3.699   0.564   4.875
  352SOL    HW2 1956   3.602   0.626   4.990
  353SOL     OW 1957   2.090   6.474   0.204
  353SOL    HW1 1958   2.046   6.563   0.194
  353SOL    HW2 1959   2.155   6.477   0.279
  354SOL     OW 1960   4.170   2.278   0.744
  354SOL    HW1 1961   4.107   2.329   0.803
  354SOL    HW2 1962   4.264   2.302   0.767
  355SOL     OW 1963   6.689   2.953   2.417
  355SOL    HW1 1964   6.629   2.874   2.406
  355SOL    HW2 1965   6.784   2.925   2.404
  356SOL     OW 1966   4.777   5.033   5.029
  356SOL    HW1 1967   4.785   4.988   4.940
  356SOL    HW2 1968   4.745   5.127   5.016
  357SOL     OW 1969   0.780   6.126   6.016
  357SOL    HW1 1970   0.755   6.054   5.951
  357SOL    HW2 1971   0.804   6.085   6.104
  358SOL     OW 1972   6.394   0.394   1.636
  358SOL    HW1 1973   6.409   0.493   1.626
  358SOL    HW2 1974   6.477   0.352   1.672
  359SOL     OW 1975   1.310   2.554   2.423
  359SOL    HW1 1976   1.224   2.586   2.462
  359SOL    HW2 1977   1.348   2.624   2.364
  360SOL     OW 1978   3.739   6.654   6.161
  360SOL    HW1 1979   3.777   6.593   6.230
  360SOL    HW2 1980   3.732   6.605   6.074
  361SOL     OW 1981   5.496   5.401   3.151
  361SOL    HW1 1982   5.488   5.315   3.202
  361SOL    HW2 1983   5.420   5.408   3.086
  362SOL     OW 1984   2.735   4.389   0.205
  362SOL    HW1 1985   2.649   4.435   0.229
  362SOL    HW2 1986   2.753   4.316   0.271
  363SOL     OW 1987   3.832   4.879   4.255
  363SOL    HW1 1988   3.828   4.859   4.158
  363SOL    HW2 1989   3.926   4.872   4.287
  364SOL     OW 1990   0.525   5.579   5.689
  364SOL    HW1 1991   0.471   5.503   5.654
  364SOL    HW2 1992   0.622   5.563   5.671
  365SOL     OW 1993   4.887   6.022   2.791
  365SOL    HW1 1994   4.809   6.068   2.833
  365SOL    HW2 1995   4.955   6.091   2.764
  366SOL     OW 1996   6.124   1.401   0.139
  366SOL    HW1 1997   6.161   1.479   0.088
  366SOL    HW2 1998   6.025   1.413   0.148
  367SOL     OW 1999   5.047   3.115   0.915
  367SOL    HW1 2000   5.074   3.023   0.943
  367SOL    HW2 2001   5.075   3.180   0.986
  368SOL     OW 2002   1.507   4.880   4.890
  368SOL    HW1 2003   1.606   4.868   4.888
  368SOL    HW2 2004   1.462   4.792   4.876
  369SOL     OW 2005   6.559   4.443   1.588
  369SOL    HW1 2006   6.576   4.454   1.686
  369SOL    HW2 2007   6.645   4.451   1.538
  370SOL     OW 2008   2.554   0.424   5.802
  370SOL    HW1 2009   2.567   0.404   5.899
  370SOL    HW2 2010   2.612   0.364   5.747
  371SOL     OW 2011   2.530   3.751   6.990
  371SOL    HW1 2012   2.610   3.790   0.012
  371SOL    HW2 2013   2.506   3.808   6.912
  372SOL     OW 2014   6.856   0.454   5.016
  372SOL    HW1 2015   6.831   0.549   5.032
  372SOL    HW2 2016   6.920   0.423   5.087
  373SOL     OW 2017   0.083   6.214   6.719
  373SOL    HW1 2018   7.015   6.207   6.679
  373SOL    HW2 2019   0.079   6.186   6.815
  374SOL     OW 2020   3.711   0.307   2.896
  374SOL    HW1 2021   3.801   0.281   2.863
  374SOL    HW2 2022   3.715   0.397   2.939
  375SOL     OW 2023   6.502   5.131   3.533
  375SOL    HW1 2024   6.462   5.115   3.623
  375SOL    HW2 2025   6.583   5.190   3.543
  376SOL     OW 2026   1.463   2.856   3.821
  376SOL    HW1 2027   1.412   2.848   3.736
  376SOL    HW2 2028   1.508   2.945   3.825
  377SOL     OW 2029   5.276   2.338   2.702
  377SOL    HW1 2030   5.187   2.381   2.690
  377SOL    HW2 2031   5.343   2.406   2.729
  378SOL     OW 2032   3.959   3.641   5.760
  378SOL    HW1 2033   3.989   3.550   5.791
  378SOL    HW2 2034   3.903   3.684   5.831
  379SOL     OW 2035   5.875   3.603   1.082
  379SOL    HW1 2036   5.881   3.617   0.983
  379SOL    HW2 2037   5.814   3.672   1.121
  380SOL     OW 2038   1.370   1.782   1.081
  380SOL    HW1 2039   1.330   1.692   1.060
  380SOL    HW2 2040   1.316   1.827   1.152
  381SOL     OW 2041   2.733   5.077   1.527
  381SOL    HW1 2042   2.730   5.020   1.445
  381SOL    HW2 2043   2.823   5.067   1.570
  382SOL     OW 2044   3.193   5.965   0.449
  382SOL    HW1 2045   3.153   5.939   0.537
  382SOL    HW2 2046   3.188   6.064   0.439
  383SOL     OW 2047   6.876   2.792   6.461
  383SOL    HW1 2048   6.809   2.774   6.389
  383SOL    HW2 2049   6.875   2.718   6.528
  384SOL     OW 2050   0.155   5.380   5.526
  384SOL    HW1 2051   0.196   5.469   5.504
  384SOL    HW2 2052   0.069   5.370   5.475
  385SOL     OW 2053   4.670   6.123   0.275
  385SOL    HW1 2054   4.637   6.092   0.364
  385SOL    HW2 2055   4.671   6.046   0.211
  386SOL     OW 2056   4.126   6.638   5.058
  386SOL    HW1 2057   4.115   6.623   5.156
  386SOL    HW2 2058   4.105   6.553   5.009
  387SOL     OW 2059   0.124   0.419   4.205
  387SOL    HW1 2060   0.142   0.321   4.213
  387SOL    HW2 2061   0.084   0.439   4.116
  388SOL     OW 2062   6.956   3.097   5.245
  388SOL    HW1 2063   6.880   3.112   5.183
  388SOL    HW2 2064   6.985   3.184   5.284
  389SOL     OW 2065   4.336   4.411   1.690
  389SOL    HW1 2066   4.240   4.416   1.718
  389SOL    HW2 2067   4.376   4.325   1.723
  390SOL     OW 2068   3.782   1.420   0.792
  390SOL    HW1 2069   3.733   1.366   0.859
  390SOL    HW2 2070   3.737   1.509   0.781
  391SOL     OW 2071   2.857   4.116   6.285
  391SOL    HW1 2072   2.952   4.144   6.268
  391SOL    HW2 2073   2.833   4.041   6.224
  392SOL     OW 2074   1.504   4.047   2.034
  392SOL    HW1 2075   1.596   4.084   2.040
  392SOL    HW2 2076   1.467   4.034   2.127
  393SOL     OW 2077   0.957   4.640   0.991
  393SOL    HW1 2078   0.863   4.675   0.985
  393SOL    HW2 2079   1.021   4.717   0.995
  394SOL     OW 2080   6.430   2.612   6.822
  394SOL    HW1 2081   6.422   2.686   6.755
  394SOL    HW2 2082   6.342   2.601   6.869
  395SOL     OW 2083   4.633   4.311   1.701
  395SOL    HW1 2084   4.577   4.324   1.619
  395SOL    HW2 2085   4.575   4.276   1.775
  396SOL     OW 2086   3.297   1.998   2.410
  396SOL    HW1 2087   3.215   2.056   2.413
  396SOL    HW2 2088   3.360   2.026   2.482
  397SOL     OW 2089   4.542   1.194   5.381
  397SOL    HW1 2090   4.607   1.134   5.426
  397SOL    HW2 2091   4.552   1.287   5.417
  398SOL     OW 2092   1.353   0.077   4.712
  398SOL    HW1 2093   1.292   0.149   4.676
  398SOL    HW2 2094   1.359   0.003   4.645
  399SOL     OW 2095   4.979   5.218   4.025
  399SOL    HW1 2096   4.949   5.224   4.120
  399SOL    HW2 2097   4.909   5.255   3.965
  400SOL     OW 2098   5.959   0.549   4.523
  400SOL    HW1 2099   6.053   0.515   4.533
  400SOL    HW2 2100   5.898   0.473   4.503
  401SOL     OW 2101   6.362   6.919   5.826
  401SOL    HW1 2102   6.407   7.008   5.824
  401SOL    HW2 2103   6.392   6.864   5.749
  402SOL     OW 2104   6.089   0.023   2.606
  402SOL    HW1 2105   6.004   0.010   2.554
  402SOL    HW2 2106   6.163   6.996   2.563
  403SOL     OW 2107   2.685   0.680   6.365
  403SOL    HW1 2108   2.715   0.625   6.287
  403SOL    HW2 2109   2.710   0.634   6.450
  404SOL     OW 2110   3.727   5.756   5.636
  404SOL    HW1 2111   3.662   5.745   5.712
  404SOL    HW2 2112   3.819   5.729   5.667
  405SOL     OW 2113   1.994   3.872   3.693
  405SOL    HW1 2114   1.935   3.833   3.763
  405SOL    HW2 2115   1.944   3.942   3.642
  406SOL     OW 2116   0.484   5.351   5.560
  406SOL    HW1 2117   0.503   5.253   5.565
  406SOL    HW2 2118   0.495   5.383   5.466
  407SOL     OW 2119   1.146   3.307   4.133
  407SOL    HW1 2120   1.048   3.323   4.123
  407SOL    HW2 2121   1.165   3.278   4.227
  408SOL     OW 2122   3.160   1.564   3.083
  408SOL    HW1 2123   3.067   1.571   3.047
  408SOL    HW2 2124   3.207   1.651   3.070
  409SOL     OW 2125   1.242   4.094   2.644
  409SOL    HW1 2126   1.282   4.147   2.569
  409SOL    HW2 2127   1.295   4.010   2.656
  410SOL     OW 2128   1.749   2.604   1.275
  410SOL    HW1 2129   1.685   2.671   1.313
  410SOL    HW2 2130   1.736   2.516   1.319
  411SOL     OW 2131   0.186   2.203   1.721
  411SOL    HW1 2132   0.185   2.168   1.815
  411SOL    HW2 2133   0.241   2.287   1.717
  412SOL     OW 2134   2.160   5.180   2.775
  412SOL    HW1 2135   2.089   5.183   2.705
  412SOL    HW2 2136   2.125   5.133   2.856
  413SOL     OW 2137   3.984   4.794   2.612
  413SOL    HW1 2138   4.005   4.824   2.519
  413SOL    HW2 2139   4.067   4.759   2.655
  414SOL     OW 2140   2.628   6.708   4.081
  414SOL    HW1 2141   2.694   6.636   4.103
  414SOL    HW2 2142   2.668   6.771   4.014
  415SOL     OW 2143   6.494   0.775   0.489
  415SOL    HW1 2144   6.442   0.717   0.552
  415SOL    HW2 2145   6.441   0.856   0.466
  416SOL     OW 2146   5.067   3.510   4.965
  416SOL    HW1 2147   4.970   3.531   4.961
  416SOL    HW2 2148   5.116   3.570   4.902
  417SOL     OW 2149   3.598   2.327   6.821
  417SOL    HW1 2150   3.620   2.236   6.856
  417SOL    HW2 2151   3.663   2.394   6.859
  418SOL     OW 2152   3.822   6.148   4.151
  418SOL    HW1 2153   3.797   6.192   4.237
  418SOL    HW2 2154   3.852   6.054   4.169
  419SOL     OW 2155   0.868   0.017   1.549
  419SOL    HW1 2156   0.932   0.078   1.503
  419SOL    HW2 2157   0.900   7.021   1.641
  420SOL     OW 2158   6.221   0.302   6.464
  420SOL    HW1 2159   6.152   0.236   6.435
  420SOL    HW2 2160   6.216   0.383   6.405
  421SOL     OW 2161   5.133   4.015   3.978
  421SOL    HW1 2162   5.041   4.023   3.940
  421SOL    HW2 2163   5.149   4.092   4.040
  422SOL     OW 2164   5.522   2.631   1.665
  422SOL    HW1 2165   5.428   2.663   1.673
  422SOL    HW2 2166   5.545   2.621   1.568
  423SOL     OW 2167   2.998   1.302   6.294
  423SOL    HW1 2168   3.074   1.258   6.247
  423SOL    HW2 2169   2.985   1.394   6.258
  424SOL     OW 2170   1.555   4.364   3.199
  424SOL    HW1 2171   1.492   4.442   3.203
  424SOL    HW2 2172   1.543   4.308   3.281
  425SOL     OW 2173   3.547   0.596   5.471
  425SOL    HW1 2174   3.622   0.656   5.443
  425SOL    HW2 2175   3.584   0.507   5.498
  426SOL     OW 2176   2.595   2.523   4.611
  426SOL    HW1 2177   2.526   2.594   4.595
  426SOL    HW2 2178   2.656   2.551   4.685
  427SOL     OW 2179   4.321   1.802   3.358
  427SOL    HW1 2180   4.306   1.793   3.259
  427SOL    HW2 2181   4.351   1.896   3.378
  428SOL     OW 2182   2.646   1.326   5.095
  428SOL    HW1 2183   2.734   1.281   5.103
  428SOL    HW2 2184   2.622   1.336   4.999
  429SOL     OW 2185   1.032   6.158   3.515
  429SOL    HW1 2186   0.963   6.092   3.544
  429SOL    HW2 2187   1.067   6.131   3.425
  430SOL     OW 2188   1.874   6.922   3.508
  430SOL    HW1 2189   1.964   6.921   3.552
  430SOL    HW2 2190   1.866   7.004   3.452
  431SOL     OW 2191   2.446   2.053   1.757
  431SOL    HW1 2192   2.510   2.107   1.811
  431SOL    HW2 2193   2.433   2.095   1.668
  432SOL     OW 2194   4.204   2.231   1.630
  432SOL    HW1 2195   4.135   2.280   1.684
  432SOL    HW2 2196   4.290   2.228   1.681
  433SOL     OW 2197   2.247   0.071   6.897
  433SOL    HW1 2198   2.324   0.133   6.909
  433SOL    HW2 2199   2.274   7.020   6.837
  434SOL     OW 2200   4.349   6.430   3.902
  434SOL    HW1 2201   4.314   6.369   3.973
  434SOL    HW2 2202   4.397   6.378   3.832
  435SOL     OW 2203   3.067   1.671   6.127
  435SOL    HW1 2204   2.997   1.668   6.198
  435SOL    HW2 2205   3.101   1.764   6.117
  436SOL     OW 2206   4.356   6.989   3.073
  436SOL    HW1 2207   4.402   0.024   3.138
  436SOL    HW2 2208   4.275   6.949   3.116
  437SOL     OW 2209   0.116   0.050   4.455
  437SOL    HW1 2210   0.078   0.121   4.514
  437SOL    HW2 2211   0.140   0.090   4.366
  438SOL     OW 2212   0.929   4.396   2.685
  438SOL    HW1 2213   0.956   4.358   2.774
  438SOL    HW2 2214   0.831   4.385   2.673
  439SOL     OW 2215   5.634   0.552   2.930
  439SOL    HW1 2216   5.707   0.496   2.970
  439SOL    HW2 2217   5.579   0.495   2.869
  440SOL     OW 2218   4.187   1.000   0.280
  440SOL    HW1 2219   4.162   1.062   0.206
  440SOL    HW2 2220   4.110   0.990   0.343
  441SOL     OW 2221   0.283   4.498   2.657
  441SOL    HW1 2222   0.316   4.519   2.565
  441SOL    HW2 2223   0.258   4.584   2.703
  442SOL     OW 2224   5.332   3.398   5.576
  442SOL    HW1 2225   5.325   3.323   5.510
  442SOL    HW2 2226   5.370   3.479   5.531
  443SOL     OW 2227   4.990   3.908   2.922
  443SOL    HW1 2228   5.054   3.982   2.902
  443SOL    HW2 2229   5.033   3.820   2.903
  444SOL     OW 2230   4.431   0.940   1.179
  444SOL    HW1 2231   4.338   0.936   1.142
  444SOL    HW2 2232   4.446   1.029   1.221
  445SOL     OW 2233   1.920   5.007   2.368
  445SOL    HW1 2234   2.004   4.997   2.314
  445SOL    HW2 2235   1.874   4.919   2.374
  446SOL     OW 2236   5.718   6.715   2.265
  446SOL    HW1 2237   5.705   6.682   2.359
  446SOL    HW2 2238   5.679   6.807   2.256
  447SOL     OW 2239   5.915   3.818   6.923
  447SOL    HW1 2240   5.865   3.744   6.879
  447SOL    HW2 2241   5.989   3.780   6.978
  448SOL     OW 2242   2.834   0.191   3.157
  448SOL    HW1 2243   2.916   0.239   3.189
  448SOL    HW2 2244   2.758   0.256   3.150
  449SOL     OW 2245   1.842   2.895   4.523
  449SOL    HW1 2246   1.772   2.823   4.520
  449SOL    HW2 2247   1.902   2.887   4.444
  450SOL     OW 2248   0.677   3.986   3.421
  450SOL    HW1 2249   0.716   4.024   3.336
  450SOL    HW2 2250   0.710   4.040   3.499
  451SOL     OW 2251   0.934   2.379   2.838
  451SOL    HW1 2252   0.900   2.289   2.810
  451SOL    HW2 2253   1.015   2.368   2.897
  452SOL     OW 2254   4.414   6.376   3.268
  452SOL    HW1 2255   4.504   6.395   3.307
  452SOL    HW2 2256   4.415   6.394   3.169
  453SOL     OW 2257   4.041   0.454   0.099
  453SOL    HW1 2258   4.053   0.357   0.077
  453SOL    HW2 2259   3.992   0.463   0.185
  454SOL     OW 2260   0.199   4.538   6.546
  454SOL    HW1 2261   0.174   4.519   6.451
  454SOL    HW2 2262   0.185   4.455   6.600
  455SOL     OW 2263   6.397   4.668   5.996
  455SOL    HW1 2264   6.326   4.732   6.025
  455SOL    HW2 2265   6.448   4.708   5.919
  456SOL     OW 2266   2.551   0.852   2.616
  456SOL    HW1 2267   2.638   0.896   2.594
  456SOL    HW2 2268   2.493   0.915   2.668
  457SOL     OW 2269   2.111   6.889   6.146
  457SOL    HW1 2270   2.093   6.924   6.054
  457SOL    HW2 2271   2.162   6.958   6.199
  458SOL     OW 2272   2.088   1.622   3.295
  458SOL    HW1 2273   2.067   1.627   3.393
  458SOL    HW2 2274   2.141   1.702   3.268
  459SOL     OW 2275   2.521   0.098   4.733
  459SOL    HW1 2276   2.472   0.014   4.709
  459SOL    HW2 2277   2.513   0.113   4.832
  460SOL     OW 2278   1.122   1.653   4.915
  460SOL    HW1 2279   1.057   1.729   4.918
  460SOL    HW2 2280   1.151   1.637   4.821
  461SOL     OW 2281   0.985   5.208   5.771
  461SOL    HW1 2282   1.030   5.144   5.833
  461SOL    HW2 2283   1.053   5.257   5.717
  462SOL     OW 2284   3.237   4.055   4.531
  462SOL    HW1 2285   3.159   4.029   4.473
  462SOL    HW2 2286   3.204   4.085   4.620
  463SOL     OW 2287   6.066   6.658   2.226
  463SOL    HW1 2288   6.002   6.598   2.179
  463SOL    HW2 2289   6.033   6.677   2.319
  464SOL     OW 2290   3.607   6.015   6.483
  464SOL    HW1 2291   3.615   6.103   6.435
  464SOL    HW2 2292   3.696   5.970   6.483
  465SOL     OW 2293   1.889   2.586   0.164
  465SOL    HW1 2294   1.971   2.537   0.190
  465SOL    HW2 2295   1.849   2.543   0.083
  466SOL     OW 2296   3.892   5.768   4.731
  466SOL    HW1 2297   3.992   5.761   4.723
  466SOL    HW2 2298   3.851   5.678   4.717
  467SOL     OW 2299   6.307   0.722   2.371
  467SOL    HW1 2300   6.214   0.739   2.403
  467SOL    HW2 2301   6.314   0.628   2.338
  468SOL     OW 2302   4.080   6.884   6.720
  468SOL    HW1 2303   4.098   6.971   6.767
  468SOL    HW2 2304   4.106   6.893   6.624
  469SOL     OW 2305   2.784   5.098   6.090
  469SOL    HW1 2306   2.714   5.118   6.021
  469SOL    HW2 2307   2.746   5.039   6.160
  470SOL     OW 2308   2.039   4.950   2.931
  470SOL    HW1 2309   1.991   4.868   2.900
  470SOL    HW2 2310   2.096   4.927   3.010
  471SOL     OW 2311   2.698   2.329   4.095
  471SOL    HW1 2312   2.656   2.418   4.077
  471SOL    HW2 2313   2.691   2.308   4.192
  472SOL     OW 2314   6.412   4.255   5.923
  472SOL    HW1 2315   6.375   4.162   5.921
  472SOL    HW2 2316   6.386   4.299   6.009
  473SOL     OW 2317   6.696   2.437   2.768
  473SOL    HW1 2318   6.759   2.507   2.802
  473SOL    HW2 2319   6.652   2.391   2.845
  474SOL     OW 2320   5.204   5.901   4.590
  474SOL    HW1 2321   5.257   5.972   4.636
  474SOL    HW2 2322   5.262   5.852   4.526
  475SOL     OW 2323   5.883   1.357   1.161
  475SOL    HW1 2324   5.805   1.420   1.159
  475SOL    HW2 2325   5.853   1.266   1.132
  476SOL     OW 2326   0.736   4.426   1.439
  476SOL    HW1 2327   0.789   4.430   1.524
  476SOL    HW2 2328   0.752   4.509   1.386
  477SOL     OW 2329   1.505   4.756   3.854
  477SOL    HW1 2330   1.428   4.814   3.881
  477SOL    HW2 2331   1.495   4.666   3.896
  478SOL     OW 2332   4.539   5.803   1.605
  478SOL    HW1 2333   4.499   5.871   1.543
  478SOL    HW2 2334   4.490   5.804   1.692
  479SOL     OW 2335   4.062   3.632   4.117
  479SOL    HW1 2336   4.097   3.548   4.159
  479SOL    HW2 2337   3.963   3.628   4.112
  480SOL     OW 2338   2.025   0.196   2.686
  480SOL    HW1 2339   2.033   0.275   2.747
  480SOL    HW2 2340   2.074   0.118   2.726
  481SOL     OW 2341   0.298   0.015   0.868
  481SOL    HW1 2342   0.365   7.022   0.941
  481SOL    HW2 2343   0.292   0.113   0.852
  482SOL     OW 2344   5.057   4.920   1.640
  482SOL    HW1 2345   5.133   4.977   1.609
  482SOL    HW2 2346   5.065   4.904   1.739
  483SOL     OW 2347   5.674   2.248   2.949
  483SOL    HW1 2348   5.701   2.163   2.994
  483SOL    HW2 2349   5.706   2.248   2.855
  484SOL     OW 2350   2.192   4.101   4.409
  484SOL    HW1 2351   2.220   4.191   4.443
  484SOL    HW2 2352   2.243   4.080   4.325
  485SOL     OW 2353   5.239   3.200   1.910
  485SOL    HW1 2354   5.244   3.193   2.010
  485SOL    HW2 2355   5.147   3.176   1.880
  486SOL     OW 2356   5.709   6.520   6.136
  486SOL    HW1 2357   5.777   6.543   6.066
  486SOL    HW2 2358   5.742   6.547   6.226
  487SOL     OW 2359   6.795   6.570   4.713
  487SOL    HW1 2360   6.830   6.485   4.752
  487SOL    HW2 2361   6.865   6.610   4.653
  488SOL     OW 2362   1.463   6.194   3.834
  488SOL    HW1 2363   1.453   6.094   3.827
  488SOL    HW2 2364   1.540   6.224   3.778
  489SOL     OW 2365   0.481   6.032   6.128
  489SOL    HW1 2366   0.496   6.118   6.079
  489SOL    HW2 2367   0.443   5.964   6.065
  490SOL     OW 2368   1.364   5.081   5.586
  490SOL    HW1 2369   1.427   5.135   5.530
  490SOL    HW2 2370   1.403   4.990   5.602
  491SOL     OW 2371   0.201   2.533   1.115
  491SOL    HW1 2372   0.182   2.486   1.201
  491SOL    HW2 2373   0.135   2.607   1.102
  492SOL     OW 2374   1.525   1.781   5.954
  492SOL    HW1 2375   1.619   1.748   5.963
  492SOL    HW2 2376   1.506   1.804   5.859
  493SOL     OW 2377   2.737   6.012   4.742
  493SOL    HW1 2378   2.728   6.052   4.650
  493SOL    HW2 2379   2.818   5.953   4.744
  494SOL     OW 2380   2.165   6.750   5.219
  494SOL    HW1 2381   2.130   6.713   5.133
  494SOL    HW2 2382   2.112   6.712   5.295
  495SOL     OW 2383   3.674   5.341   5.945
  495SOL    HW1 2384   3.740   5.412   5.922
  495SOL    HW2 2385   3.655   5.285   5.864
  496SOL     OW 2386   4.940   1.799   2.716
  496SOL    HW1 2387   4.902   1.725   2.771
  496SOL    HW2 2388   4.952   1.880   2.773
  497SOL     OW 2389   3.280   0.913   6.716
  497SOL    HW1 2390   3.227   0.976   6.773
  497SOL    HW2 2391   3.373   0.947   6.706
  498SOL     OW 2392   0.273   5.783   1.844
  498SOL    HW1 2393   0.264   5.701   1.788
  498SOL    HW2 2394   0.252   5.864   1.790
  499SOL     OW 2395   3.365   5.831   0.292
  499SOL    HW1 2396   3.440   5.894   0.269
  499SOL    HW2 2397   3.288   5.884   0.328
  500SOL     OW 2398   5.697   1.799   0.220
  500SOL    HW1 2399   5.684   1.872   0.154
  500SOL    HW2 2400   5.648   1.820   0.304
  501SOL     OW 2401   1.076   0.525   2.969
  501SOL    HW1 2402   1.116   0.613   2.943
  501SOL    HW2 2403   1.081   0.515   3.069
  502SOL     OW 2404   1.887   5.305   6.413
  502SOL    HW1 2405   1.936   5.388   6.438
  502SOL    HW2 2406   1.857   5.258   6.497
  503SOL     OW 2407   3.450   4.970   6.848
  503SOL    HW1 2408   3.365   5.018   6.826
  503SOL    HW2 2409   3.515   4.980   6.772
  504SOL     OW 2410   6.017   6.328   1.652
  504SOL    HW1 2411   5.987   6.393   1.582
  504SOL    HW2 2412   6.098   6.279   1.619
  505SOL     OW 2413   5.013   6.958   4.807
  505SOL    HW1 2414   5.048   6.913   4.889
  505SOL    HW2 2415   5.062   6.924   4.727
  506SOL     OW 2416   3.793   5.378   2.820
  506SOL    HW1 2417   3.834   5.336   2.739
  506SOL    HW2 2418   3.705   5.335   2.838
  507SOL     OW 2419   3.525   0.681   0.965
  507SOL    HW1 2420   3.558   0.594   1.001
  507SOL    HW2 2421   3.583   0.709   0.888
  508SOL     OW 2422   6.959   4.920   4.120
  508SOL    HW1 2423   7.018   4.931   4.041
  508SOL    HW2 2424   6.971   4.827   4.157
  509SOL     OW 2425   4.756   6.452   6.136
  509SOL    HW1 2426   4.715   6.437   6.226
  509SOL    HW2 2427   4.831   6.518   6.145
  510SOL     OW 2428   0.130   4.027   6.872
  510SOL    HW1 2429   0.072   3.992   6.799
  510SOL    HW2 2430   0.134   3.961   6.947
  511SOL     OW 2431   1.043   1.785   0.766
  511SOL    HW1 2432   1.007   1.870   0.804
  511SOL    HW2 2433   1.137   1.772   0.797
  512SOL     OW 2434   6.570   2.613   6.490
  512SOL    HW1 2435   6.595   2.700   6.532
  512SOL    HW2 2436   6.499   2.629   6.421
  513SOL     OW 2437   5.299   0.297   3.032
  513SOL    HW1 2438   5.240   0.317   2.953
  513SOL    HW2 2439   5.367   0.229   3.006
  514SOL     OW 2440   6.250   6.761   3.984
  514SOL    HW1 2441   6.204   6.836   3.937
  514SOL    HW2 2442   6.249   6.779   4.083
  515SOL     OW 2443   3.640   6.781   6.811
  515SOL    HW1 2444   3.732   6.779   6.773
  515SOL    HW2 2445   3.574   6.797   6.738
  516SOL     OW 2446   1.974   5.558   1.291
  516SOL    HW1 2447   1.881   5.572   1.325
  516SOL    HW2 2448   2.036   5.543   1.368
  517SOL     OW 2449   3.421   5.168   2.317
  517SOL    HW1 2450   3.426   5.100   2.390
  517SOL    HW2 2451   3.461   5.129   2.234
  518SOL     OW 2452   2.198   3.345   3.641
  518SOL    HW1 2453   2.179   3.252   3.672
  518SOL    HW2 2454   2.194   3.407   3.719
  519SOL     OW 2455   0.360   6.784   3.451
  519SOL    HW1 2456   0.363   6.792   3.351
  519SOL    HW2 2457   0.265   6.778   3.481
  520SOL     OW 2458   1.938   2.942   0.340
  520SOL    HW1 2459   1.926   3.028   0.291
  520SOL    HW2 2460   1.863   2.930   0.406
  521SOL     OW 2461   5.553   5.077   5.450
  521SOL    HW1 2462   5.511   5.165   5.427
  521SOL    HW2 2463   5.484   5.005   5.446
  522SOL     OW 2464   4.269   3.757   1.319
  522SOL    HW1 2465   4.253   3.680   1.380
  522SOL    HW2 2466   4.206   3.831   1.341
  523SOL     OW 2467   0.567   6.398   1.860
  523SOL    HW1 2468   0.640   6.397   1.792
  523SOL    HW2 2469   0.490   6.342   1.827
  524SOL     OW 2470   6.739   2.012   1.956
  524SOL    HW1 2471   6.657   1.974   1.913
  524SOL    HW2 2472   6.739   1.991   2.053
  525SOL     OW 2473   1.477   4.079   6.394
  525SOL    HW1 2474   1.567   4.106   6.428
  525SOL    HW2 2475   1.474   3.980   6.384
  526SOL     OW 2476   3.077   6.912   4.523
  526SOL    HW1 2477   3.003   6.975   4.550
  526SOL    HW2 2478   3.165   6.952   4.548
  527SOL     OW 2479   0.937   1.978   0.325
  527SOL    HW1 2480   0.915   2.064   0.371
  527SOL    HW2 2481   0.855   1.920   0.320
  528SOL     OW 2482   6.529   2.617   4.067
  528SOL    HW1 2483   6.584   2.612   4.151
  528SOL    HW2 2484   6.523   2.712   4.037
  529SOL     OW 2485   2.146   0.546   5.596
  529SOL    HW1 2486   2.106   0.548   5.687
  529SOL    HW2 2487   2.161   0.640   5.565
  530SOL     OW 2488   3.553   3.771   0.848
  530SOL    HW1 2489   3.539   3.761   0.749
  530SOL    HW2 2490   3.556   3.868   0.871
  531SOL     OW 2491   2.096   0.629   2.299
  531SOL    HW1 2492   2.059   0.609   2.208
  531SOL    HW2 2493   2.046   0.576   2.368
  532SOL     OW 2494   2.784   2.381   0.512
  532SOL    HW1 2495   2.723   2.395   0.434
  532SOL    HW2 2496   2.849   2.457   0.517
  533SOL     OW 2497   4.048   0.124   3.936
  533SOL    HW1 2498   4.071   0.034   3.972
  533SOL    HW2 2499   4.016   0.114   3.842
  534SOL     OW 2500   1.128   5.303   1.156
  534SOL    HW1 2501   1.191   5.373   1.121
  534SOL    HW2 2502   1.167   5.213   1.143
  535SOL     OW 2503   5.241   3.754   3.149
  535SOL    HW1 2504   5.287   3.696   3.217
  535SOL    HW2 2505   5.142   3.742   3.156
  536SOL     OW 2506   6.530   6.133   3.022
  536SOL    HW1 2507   6.551   6.195   2.946
  536SOL    HW2 2508   6.496   6.186   3.099
  537SOL     OW 2509   3.290   0.875   4.338
  537SOL    HW1 2510   3.317   0.952   4.396
  537SOL    HW2 2511   3.242   0.910   4.257
  538SOL     OW 2512   2.468   4.880   5.844
  538SOL    HW1 2513   2.549   4.829   5.873
  538SOL    HW2 2514   2.402   4.882   5.919
  539SOL     OW 2515   0.767   6.369   0.426
  539SOL    HW1 2516   0.824   6.440   0.467
  539SOL    HW2 2517   0.687   6.353   0.484
  540SOL     OW 2518   1.248   0.309   3.866
  540SOL    HW1 2519   1.191   0.392   3.865
  540SOL    HW2 2520   1.335   0.329   3.911
  541SOL     OW 2521   4.089   6.363   4.528
  541SOL    HW1 2522   4.184   6.390   4.509
  541SOL    HW2 2523   4.069   6.377   4.625
  542SOL     OW 2524   2.876   6.647   6.684
  542SOL    HW1 2525   2.950   6.580   6.695
  542SOL    HW2 2526   2.788   6.602   6.701
  543SOL     OW 2527   5.242   2.479   4.344
  543SOL    HW1 2528   5.204   2.447   4.431
  543SOL    HW2 2529   5.334   2.515   4.358
  544SOL     OW 2530   0.676   4.553   0.661
  544SOL    HW1 2531   0.623   4.500   0.594
  544SOL    HW2 2532   0.764   4.509   0.677
  545SOL     OW 2533   5.260   1.175   1.781
  545SOL    HW1 2534   5.178   1.207   1.732
  545SOL    HW2 2535   5.288   1.245   1.847
  546SOL     OW 2536   0.455   4.099   2.258
  546SOL    HW1 2537   0.511   4.083   2.339
  546SOL    HW2 2538   0.370   4.144   2.285
  547SOL     OW 2539   4.416   1.380   6.910
  547SOL    HW1 2540   4.499   1.343   6.952
  547SOL    HW2 2541   4.340   1.316   6.925
  548SOL     OW 2542   3.631   2.867   7.019
  548SOL    HW1 2543   3.691   2.943   0.021
  548SOL    HW2 2544   3.675   2.780   0.017
  549SOL     OW 2545   6.222   2.295   0.704
  549SOL    HW1 2546   6.287   2.352   0.653
  549SOL    HW2 2547   6.271   2.245   0.776
  550SOL     OW 2548   0.071   4.522   3.039
  550SOL    HW1 2549   0.169   4.537   3.042
  550SOL    HW2 2550   0.052   4.425   3.026
  551SOL     OW 2551   6.936   0.862   0.369
  551SOL    HW1 2552   6.943   0.960   0.348
  551SOL    HW2 2553   6.885   0.850   0.455
  552SOL     OW 2554   5.545   5.641   5.954
  552SOL    HW1 2555   5.590   5.605   5.872
  552SOL    HW2 2556   5.448   5.654   5.936
  553SOL     OW 2557   3.360   1.476   5.594
  553SOL    HW1 2558   3.367   1.448   5.690
  553SOL    HW2 2559   3.419   1.417   5.538
  554SOL     OW 2560   5.878   5.808   1.004
  554SOL    HW1 2561   5.895   5.765   0.915
  554SOL    HW2 2562   5.814   5.884   0.992
  555SOL     OW 2563   2.256   5.303   5.311
  555SOL    HW1 2564   2.234   5.385   5.257
  555SOL    HW2 2565   2.240   5.222   5.256
  556SOL     OW 2566   4.853   1.728   4.078
  556SOL    HW1 2567   4.810   1.662   4.140
  556SOL    HW2 2568   4.920   1.782   4.128
  557SOL     OW 2569   6.479   4.813   5.549
  557SOL    HW1 2570   6.382   4.825   5.527
  557SOL    HW2 2571   6.534   4.828   5.466
  558SOL     OW 2572   3.726   3.620   2.583
  558SOL    HW1 2573   3.761   3.630   2.676
  558SOL    HW2 2574   3.653   3.685   2.568
  559SOL     OW 2575   6.343   6.524   5.649
  559SOL    HW1 2576   6.428   6.474   5.665
  559SOL    HW2 2577   6.268   6.479   5.697
  560SOL     OW 2578   6.442   3.149   3.068
  560SOL    HW1 2579   6.411   3.189   3.155
  560SOL    HW2 2580   6.487   3.062   3.085
  561SOL     OW 2581   0.582   3.145   6.138
  561SOL    HW1 2582   0.530   3.222   6.100
  561SOL    HW2 2583   0.680   3.167   6.137
  562SOL     OW 2584   4.218   0.541   5.625
  562SOL    HW1 2585   4.219   0.637   5.654
  562SOL    HW2 2586   4.143   0.493   5.670
  563SOL     OW 2587   1.645   1.675   4.141
  563SOL    HW1 2588   1.708   1.635   4.208
  563SOL    HW2 2589   1.551   1.663   4.173
  564SOL     OW 2590   0.360   2.028   5.565
  564SOL    HW1 2591   0.276   1.973   5.571
  564SOL    HW2 2592   0.409   2.022   5.652
  565SOL     OW 2593   3.390   2.858   3.508
  565SOL    HW1 2594   3.335   2.861   3.591
  565SOL    HW2 2595   3.487   2.855   3.532
  566SOL     OW 2596   3.496   5.674   3.050
  566SOL    HW1 2597   3.399   5.667   3.074
  566SOL    HW2 2598   3.507   5.666   2.951
  567SOL     OW 2599   2.280   2.236   6.458
  567SOL    HW1 2600   2.298   2.325   6.501
  567SOL    HW2 2601   2.352   2.172   6.484
  568SOL     OW 2602   6.227   0.174   0.847
  568SOL    HW1 2603   6.142   0.202   0.801
  568SOL    HW2 2604   6.256   0.245   0.910
  569SOL     OW 2605   0.327   2.125   0.127
  569SOL    HW1 2606   0.403   2.070   0.161
  569SOL    HW2 2607   0.359   2.185   0.054
  570SOL     OW 2608   2.963   0.380   6.442
  570SOL    HW1 2609   2.911   0.436   6.506
  570SOL    HW2 2610   2.953   0.283   6.467
  571SOL     OW 2611   2.907   4.836   2.963
  571SOL    HW1 2612   2.913   4.860   2.866
  571SOL    HW2 2613   2.827   4.779   2.979
  572SOL     OW 2614   2.127   6.094   4.230
  572SOL    HW1 2615   2.152   6.104   4.327
  572SOL    HW2 2616   2.162   6.171   4.178
  573SOL     OW 2617   5.977   2.332   5.778
  573SOL    HW1 2618   6.041   2.314   5.852
  573SOL    HW2 2619   5.883   2.322   5.812
  574SOL     OW 2620   2.579   1.625   5.034
  574SOL    HW1 2621   2.613   1.585   5.119
  574SOL    HW2 2622   2.620   1.715   5.020
  575SOL     OW 2623   3.390   3.401   0.220
  575SOL    HW1 2624   3.458   3.343   0.266
  575SOL    HW2 2625   3.435   3.453   0.147
  576SOL     OW 2626   2.103   3.446   3.110
  576SOL    HW1 2627   2.112   3.346   3.117
  576SOL    HW2 2628   2.044   3.468   3.032
  577SOL     OW 2629   1.323   1.461   2.199
  577SOL    HW1 2630   1.279   1.487   2.285
  577SOL    HW2 2631   1.390   1.531   2.175
  578SOL     OW 2632   2.060   5.303   0.094
  578SOL    HW1 2633   2.032   5.217   0.050
  578SOL    HW2 2634   2.159   5.303   0.107
  579SOL     OW 2635   2.748   4.650   2.477
  579SOL    HW1 2636   2.802   4.648   2.393
  579SOL    HW2 2637   2.780   4.725   2.535
  580SOL     OW 2638   4.341   5.669   5.242
  580SOL    HW1 2639   4.420   5.619   5.207
  580SOL    HW2 2640   4.353   5.767   5.222
  581SOL     OW 2641   1.079   3.017   3.621
  581SOL    HW1 2642   1.075   2.959   3.540
  581SOL    HW2 2643   1.016   2.982   3.691
  582SOL     OW 2644   5.759   5.172   3.386
  582SOL    HW1 2645   5.845   5.125   3.404
  582SOL    HW2 2646   5.689   5.105   3.361
  583SOL     OW 2647   3.079   5.418   6.343
  583SOL    HW1 2648   3.172   5.406   6.307
  583SOL    HW2 2649   3.036   5.495   6.296
  584SOL     OW 2650   3.682   0.339   6.833
  584SOL    HW1 2651   3.672   0.344   6.932
  584SOL    HW2 2652   3.770   0.296   6.811
  585SOL     OW 2653   2.410   6.437   1.817
  585SOL    HW1 2654   2.335   6.432   1.883
  585SOL    HW2 2655   2.470   6.514   1.841
  586SOL     OW 2656   4.286   7.008   1.326
  586SOL    HW1 2657   4.280   7.016   1.426
  586SOL    HW2 2658   4.371   0.026   1.295
  587SOL     OW 2659   5.263   1.859   1.917
  587SOL    HW1 2660   5.257   1.808   1.831
  587SOL    HW2 2661   5.179   1.848   1.969
  588SOL     OW 2662   1.391   5.643   1.606
  588SOL    HW1 2663   1.443   5.685   1.532
  588SOL    HW2 2664   1.309   5.696   1.625
  589SOL     OW 2665   3.452   5.795   1.562
  589SOL    HW1 2666   3.505   5.752   1.636
  589SOL    HW2 2667   3.363   5.752   1.555
  590SOL     OW 2668   5.819   1.058   0.764
  590SOL    HW1 2669   5.827   0.961   0.785
  590SOL    HW2 2670   5.898   1.107   0.802
  591SOL     OW 2671   4.268   5.336   4.397
  591SOL    HW1 2672   4.292   5.408   4.332
  591SOL    HW2 2673   4.210   5.374   4.469
  592SOL     OW 2674   4.620   1.560   4.679
  592SOL    HW1 2675   4.644   1.498   4.604
  592SOL    HW2 2676   4.549   1.622   4.649
  593SOL     OW 2677   3.480   2.142   5.635
  593SOL    HW1 2678   3.410   2.077   5.666
  593SOL    HW2 2679   3.444   2.235   5.638
  594SOL     OW 2680   5.367   1.506   1.647
  594SOL    HW1 2681   5.304   1.580   1.671
  594SOL    HW2 2682   5.458   1.528   1.680
  595SOL     OW 2683   5.315   6.045   2.614
  595SOL    HW1 2684   5.250   6.004   2.550
  595SOL    HW2 2685   5.398   6.073   2.564
  596SOL     OW 2686   6.858   3.866   3.721
  596SOL    HW1 2687   6.944   3.911   3.700
  596SOL    HW2 2688   6.847   3.784   3.664
  597SOL     OW 2689   2.977   6.648   5.879
  597SOL    HW1 2690   3.009   6.686   5.966
  597SOL    HW2 2691   2.949   6.722   5.819
  598SOL     OW 2692   2.932   3.856   4.959
  598SOL    HW1 2693   2.863   3.866   4.888
  598SOL    HW2 2694   2.999   3.787   4.932
  599SOL     OW 2695   1.423   5.647   1.902
  599SOL    HW1 2696   1.411   5.733   1.952
  599SOL    HW2 2697   1.415   5.664   1.804
  600SOL     OW 2698   6.833   4.033   4.838
  600SOL    HW1 2699   6.887   4.109   4.802
  600SOL    HW2 2700   6.814   4.047   4.935
  601SOL     OW 2701   1.132   0.791   4.789
  601SOL    HW1 2702   1.166   0.744   4.871
  601SOL    HW2 2703   1.170   0.884   4.786
  602SOL     OW 2704   2.648   6.194   4.924
  602SOL    HW1 2705   2.684   6.113   4.878
  602SOL    HW2 2706   2.562   6.222   4.882
  603SOL     OW 2707   1.519   0.865   4.938
  603SOL    HW1 2708   1.533   0.769   4.912
  603SOL    HW2 2709   1.590   0.921   4.895
  604SOL     OW 2710   6.967   2.477   1.903
  604SOL    HW1 2711   6.923   2.517   1.823
  604SOL    HW2 2712   6.916   2.396   1.932
  605SOL     OW 2713   0.233   4.314   2.009
  605SOL    HW1 2714   0.168   4.274   2.073
  605SOL    HW2 2715   0.275   4.242   1.955
  606SOL     OW 2716   4.068   6.973   5.087
  606SOL    HW1 2717   3.981   6.925   5.099
  606SOL    HW2 2718   4.130   6.916   5.033
  607SOL     OW 2719   1.410   4.864   5.740
  607SOL    HW1 2720   1.375   4.771   5.733
  607SOL    HW2 2721   1.510   4.862   5.732
  608SOL     OW 2722   4.028   0.293   6.161
  608SOL    HW1 2723   3.950   0.231   6.163
  608SOL    HW2 2724   4.013   0.369   6.224
  609SOL     OW 2725   3.830   2.401   1.442
  609SOL    HW1 2726   3.832   2.501   1.442
  609SOL    HW2 2727   3.739   2.370   1.469
  610SOL     OW 2728   4.581   2.413   0.257
  610SOL    HW1 2729   4.600   2.505   0.291
  610SOL    HW2 2730   4.650   2.388   0.189
  611SOL     OW 2731   3.972   0.252   2.505
  611SOL    HW1 2732   4.064   0.218   2.488
  611SOL    HW2 2733   3.909   0.174   2.513
  612SOL     OW 2734   3.765   4.893   5.934
  612SOL    HW1 2735   3.747   4.873   5.837
  612SOL    HW2 2736   3.848   4.844   5.962
  613SOL     OW 2737   5.194   5.806   5.335
  613SOL    HW1 2738   5.141   5.889   5.356
  613SOL    HW2 2739   5.291   5.828   5.338
  614SOL     OW 2740   5.187   5.615   5.576
  614SOL    HW1 2741   5.286   5.626   5.580
  614SOL    HW2 2742   5.148   5.685   5.515
  615SOL     OW 2743   0.176   4.477   0.923
  615SOL    HW1 2744   0.172   4.423   1.007
  615SOL    HW2 2745   0.143   4.422   0.846
  616SOL     OW 2746   6.482   2.504   3.091
  616SOL    HW1 2747   6.405   2.556   3.054
  616SOL    HW2 2748   6.483   2.512   3.191
  617SOL     OW 2749   2.501   5.666   6.336
  617SOL    HW1 2750   2.458   5.664   6.246
  617SOL    HW2 2751   2.437   5.629   6.404
  618SOL     OW 2752   1.397   1.405   1.448
  618SOL    HW1 2753   1.347   1.380   1.531
  618SOL    HW2 2754   1.410   1.504   1.445
  619SOL     OW 2755   1.604   2.214   6.473
  619SOL    HW1 2756   1.537   2.140   6.479
  619SOL    HW2 2757   1.692   2.182   6.509
  620SOL     OW 2758   4.813   2.733   0.511
  620SOL    HW1 2759   4.769   2.705   0.425
  620SOL    HW2 2760   4.911   2.718   0.505
  621SOL     OW 2761   6.479   5.173   0.241
  621SOL    HW1 2762   6.412   5.147   0.310
  621SOL    HW2 2763   6.554   5.223   0.285
  622SOL     OW 2764   1.776   1.594   0.386
  622SOL    HW1 2765   1.678   1.608   0.381
  622SOL    HW2 2766   1.803   1.522   0.322
  623SOL     OW 2767   0.860   4.947   6.208
  623SOL    HW1 2768   0.779   5.003   6.194
  623SOL    HW2 2769   0.941   5.006   6.209
  624SOL     OW 2770   0.513   2.379   2.655
  624SOL    HW1 2771   0.598   2.431   2.654
  624SOL    HW2 2772   0.447   2.421   2.593
  625SOL     OW 2773   2.849   1.759   2.595
  625SOL    HW1 2774   2.939   1.716   2.588
  625SOL    HW2 2775   2.845   1.816   2.677
  626SOL     OW 2776   2.090   6.284   3.450
  626SOL    HW1 2777   2.040   6.306   3.533
  626SOL    HW2 2778   2.057   6.341   3.374
  627SOL     OW 2779   5.573   0.965   0.383
  627SOL    HW1 2780   5.561   1.011   0.471
  627SOL    HW2 2781   5.510   1.004   0.315
  628SOL     OW 2782   4.686   4.993   4.177
  628SOL    HW1 2783   4.725   4.970   4.088
  628SOL    HW2 2784   4.735   4.943   4.249
  629SOL     OW 2785   0.451   0.167   1.572
  629SOL    HW1 2786   0.377   0.126   1.625
  629SOL    HW2 2787   0.519   0.205   1.634
  630SOL     OW 2788   4.650   1.218   1.758
  630SOL    HW1 2789   4.565   1.189   1.802
  630SOL    HW2 2790   4.709   1.262   1.825
  631SOL     OW 2791   2.552   0.090   5.749
  631SOL    HW1 2792   2.613   0.165   5.724
  631SOL    HW2 2793   2.458   0.111   5.721
  632SOL     OW 2794   2.244   0.833   0.524
  632SOL    HW1 2795   2.279   0.851   0.615
  632SOL    HW2 2796   2.171   0.765   0.529
  633SOL     OW 2797   3.296   6.222   0.384
  633SOL    HW1 2798   3.349   6.159   0.327
  633SOL    HW2 2799   3.355   6.296   0.416
  634SOL     OW 2800   4.282   5.675   1.042
  634SOL    HW1 2801   4.339   5.664   0.961
  634SOL    HW2 2802   4.323   5.627   1.120
  635SOL     OW 2803   3.401   0.605   2.861
  635SOL    HW1 2804   3.392   0.665   2.940
  635SOL    HW2 2805   3.335   0.530   2.867
  636SOL     OW 2806   5.253   5.254   6.689
  636SOL    HW1 2807   5.314   5.223   6.761
  636SOL    HW2 2808   5.288   5.223   6.600
  637SOL     OW 2809   4.823   4.831   1.543
  637SOL    HW1 2810   4.910   4.873   1.570
  637SOL    HW2 2811   4.800   4.757   1.606
  638SOL     OW 2812   4.972   1.304   1.733
  638SOL    HW1 2813   4.902   1.304   1.804
  638SOL    HW2 2814   4.931   1.286   1.644
  639SOL     OW 2815   4.297   4.681   1.697
  639SOL    HW1 2816   4.254   4.712   1.613
  639SOL    HW2 2817   4.319   4.584   1.689
  640SOL     OW 2818   2.402   4.078   5.653
  640SOL    HW1 2819   2.484   4.022   5.656
  640SOL    HW2 2820   2.321   4.019   5.658
  641SOL     OW 2821   0.378   5.932   4.743
  641SOL    HW1 2822   0.468   5.930   4.787
  641SOL    HW2 2823   0.354   5.839   4.714
  642SOL     OW 2824   0.225   5.026   4.879
  642SOL    HW1 2825   0.277   5.105   4.847
  642SOL    HW2 2826   0.216   4.959   4.805
  643SOL     OW 2827   6.496   5.612   5.858
  643SOL    HW1 2828   6.502   5.711   5.854
  643SOL    HW2 2829   6.588   5.573   5.858
  644SOL     OW 2830   1.098   6.235   2.846
  644SOL    HW1 2831   1.018   6.262   2.792
  644SOL    HW2 2832   1.084   6.143   2.884
  645SOL     OW 2833   4.861   2.442   4.473
  645SOL    HW1 2834   4.852   2.449   4.374
  645SOL    HW2 2835   4.889   2.349   4.498
  646SOL     OW 2836   1.464   1.016   3.839
  646SOL    HW1 2837   1.402   0.941   3.861
  646SOL    HW2 2838   1.448   1.092   3.901
  647SOL     OW 2839   6.248   2.746   6.973
  647SOL    HW1 2840   6.206   2.665   7.013
  647SOL    HW2 2841   6.271   2.811   0.021
  648SOL     OW 2842   6.118   3.546   2.392
  648SOL    HW1 2843   6.162   3.511   2.309
  648SOL    HW2 2844   6.105   3.645   2.384
  649SOL     OW 2845   3.917   4.472   0.950
  649SOL    HW1 2846   3.845   4.541   0.955
  649SOL    HW2 2847   3.903   4.415   0.869
  650SOL     OW 2848   4.755   4.446   0.695
  650SOL    HW1 2849   4.767   4.537   0.737
  650SOL    HW2 2850   4.792   4.447   0.602
  651SOL     OW 2851   0.387   6.422   1.122
  651SOL    HW1 2852   0.382   6.485   1.044
  651SOL    HW2 2853   0.336   6.460   1.199
  652SOL     OW 2854   4.590   0.215   2.941
  652SOL    HW1 2855   4.537   0.286   2.895
  652SOL    HW2 2856   4.618   0.249   3.031
  653SOL     OW 2857   3.409   4.920   4.110
  653SOL    HW1 2858   3.354   4.963   4.182
  653SOL    HW2 2859   3.505   4.944   4.123
  654SOL     OW 2860   6.850   5.353   6.821
  654SOL    HW1 2861   6.934   5.322   6.778
  654SOL    HW2 2862   6.808   5.425   6.766
  655SOL     OW 2863   0.692   0.171   1.266
  655SOL    HW1 2864   0.639   0.122   1.335
  655SOL    HW2 2865   0.785   0.187   1.300
  656SOL     OW 2866   2.317   6.308   2.267
  656SOL    HW1 2867   2.386   6.298   2.339
  656SOL    HW2 2868   2.356   6.280   2.180
  657SOL     OW 2869   2.868   1.492   0.749
  657SOL    HW1 2870   2.825   1.492   0.839
  657SOL    HW2 2871   2.850   1.404   0.704
  658SOL     OW 2872   3.219   3.751   7.004
  658SOL    HW1 2873   3.243   3.813   0.054
  658SOL    HW2 2874   3.288   3.757   6.932
  659SOL     OW 2875   2.796   0.028   0.155
  659SOL    HW1 2876   2.848   7.006   0.084
  659SOL    HW2 2877   2.782   6.990   0.232
  660SOL     OW 2878   4.021   5.729   2.116
  660SOL    HW1 2879   3.968   5.813   2.104
  660SOL    HW2 2880   4.101   5.749   2.173
  661SOL     OW 2881   4.779   5.529   2.890
  661SOL    HW1 2882   4.730   5.516   2.977
  661SOL    HW2 2883   4.837   5.610   2.896
  662SOL     OW 2884   3.504   1.260   5.988
  662SOL    HW1 2885   3.414   1.229   5.957
  662SOL    HW2 2886   3.508   1.260   6.088
  663SOL     OW 2887   2.068   4.615   4.923
  663SOL    HW1 2888   2.020   4.538   4.965
  663SOL    HW2 2889   2.024   4.639   4.837
  664SOL     OW 2890   0.232   6.456   6.766
  664SOL    HW1 2891   0.174   6.377   6.745
  664SOL    HW2 2892   0.323   6.443   6.725
  665SOL     OW 2893   3.078   5.759   3.647
  665SOL    HW1 2894   3.155   5.697   3.639
  665SOL    HW2 2895   3.104   5.838   3.703
  666SOL     OW 2896   4.144   1.185   2.574
  666SOL    HW1 2897   4.133   1.118   2.500
  666SOL    HW2 2898   4.055   1.205   2.614
  667SOL     OW 2899   0.997   5.409   1.708
  667SOL    HW1 2900   0.912   5.387   1.755
  667SOL    HW2 2901   1.014   5.340   1.637
  668SOL     OW 2902   5.700   4.522   6.246
  668SOL    HW1 2903   5.732   4.465   6.171
  668SOL    HW2 2904   5.639   4.593   6.210
  669SOL     OW 2905   5.929   1.343   2.709
  669SOL    HW1 2906   5.831   1.325   2.718
  669SOL    HW2 2907   5.981   1.267   2.748
  670SOL     OW 2908   1.431   1.620   3.447
  670SOL    HW1 2909   1.483   1.575   3.374
  670SOL    HW2 2910   1.455   1.578   3.535
  671SOL     OW 2911   2.484   6.481   1.535
  671SOL    HW1 2912   2.455   6.466   1.630
  671SOL    HW2 2913   2.570   6.530   1.534
  672SOL     OW 2914   0.507   5.909   1.976
  672SOL    HW1 2915   0.422   5.860   1.956
  672SOL    HW2 2916   0.576   5.844   2.007
  673SOL     OW 2917   5.661   6.848   1.157
  673SOL    HW1 2918   5.739   6.850   1.095
  673SOL    HW2 2919   5.675   6.913   1.232
  674SOL     OW 2920   6.816   1.453   4.780
  674SOL    HW1 2921   6.874   1.534   4.772
  674SOL    HW2 2922   6.872   1.371   4.789
  675SOL     OW 2923   5.796   2.235   1.876
  675SOL    HW1 2924   5.890   2.256   1.847
  675SOL    HW2 2925   5.798   2.176   1.957
  676SOL     OW 2926   2.470   4.787   4.847
  676SOL    HW1 2927   2.418   4.711   4.886
  676SOL    HW2 2928   2.567   4.763   4.844
  677SOL     OW 2929   4.614   0.610   1.465
  677SOL    HW1 2930   4.560   0.694   1.473
  677SOL    HW2 2931   4.710   0.632   1.450
  678SOL     OW 2932   2.457   4.614   5.295
  678SOL    HW1 2933   2.529   4.562   5.342
  678SOL    HW2 2934   2.497   4.669   5.223
  679SOL     OW 2935   5.428   1.594   5.131
  679SOL    HW1 2936   5.505   1.657   5.143
  679SOL    HW2 2937   5.420   1.569   5.035
  680SOL     OW 2938   5.575   6.939   4.271
  680SOL    HW1 2939   5.552   0.011   4.260
  680SOL    HW2 2940   5.497   6.890   4.311
  681SOL     OW 2941   5.337   6.159   2.347
  681SOL    HW1 2942   5.275   6.081   2.352
  681SOL    HW2 2943   5.304   6.223   2.278
  682SOL     OW 2944   0.564   0.841   2.581
  682SOL    HW1 2945   0.544   0.894   2.498
  682SOL    HW2 2946   0.545   0.744   2.563
  683SOL     OW 2947   4.457   3.354   1.208
  683SOL    HW1 2948   4.476   3.399   1.296
  683SOL    HW2 2949   4.428   3.422   1.141
  684SOL     OW 2950   6.412   0.657   6.481
  684SOL    HW1 2951   6.428   0.755   6.494
  684SOL    HW2 2952   6.446   0.629   6.391
  685SOL     OW 2953   3.526   1.513   3.473
  685SOL    HW1 2954   3.462   1.443   3.441
  685SOL    HW2 2955   3.497   1.545   3.563
  686SOL     OW 2956   4.367   0.788   3.854
  686SOL    HW1 2957   4.286   0.842   3.830
  686SOL    HW2 2958   4.338   0.706   3.903
  687SOL     OW 2959   0.781   1.925   4.288
  687SOL    HW1 2960   0.738   1.838   4.264
  687SOL    HW2 2961   0.879   1.919   4.272
  688SOL     OW 2962   0.175   1.280   6.420
  688SOL    HW1 2963   0.215   1.369   6.443
  688SOL    HW2 2964   0.247   1.211   6.414
  689SOL     OW 2965   0.918   5.053   5.202
  689SOL    HW1 2966   0.961   5.091   5.284
  689SOL    HW2 2967   0.821   5.038   5.219
  690SOL     OW 2968   6.433   3.404   2.939
  690SOL    HW1 2969   6.424   3.317   2.989
  690SOL    HW2 2970   6.414   3.389   2.842
  691SOL     OW 2971   3.820   1.602   0.041
  691SOL    HW1 2972   3.911   1.624   0.078
  691SOL    HW2 2973   3.811   1.643   6.974
  692SOL     OW 2974   3.251   1.168   5.509
  692SOL    HW1 2975   3.302   1.159   5.424
  692SOL    HW2 2976   3.218   1.262   5.519
  693SOL     OW 2977   4.708   5.796   3.344
  693SOL    HW1 2978   4.774   5.856   3.299
  693SOL    HW2 2979   4.616   5.833   3.333
  694SOL     OW 2980   4.006   6.118   4.467
  694SOL    HW1 2981   3.907   6.109   4.479
  694SOL    HW2 2982   4.032   6.214   4.480
  695SOL     OW 2983   3.062   5.862   4.165
  695SOL    HW1 2984   3.144   5.868   4.108
  695SOL    HW2 2985   3.020   5.772   4.152
  696SOL     OW 2986   5.211   4.227   3.139
  696SOL    HW1 2987   5.117   4.251   3.114
  696SOL    HW2 2988   5.256   4.308   3.179
  697SOL     OW 2989   0.915   4.387   1.655
  697SOL    HW1 2990   0.975   4.312   1.628
  697SOL    HW2 2991   0.876   4.368   1.745
  698SOL     OW 2992   4.918   6.769   1.496
  698SOL    HW1 2993   4.844   6.801   1.555
  698SOL    HW2 2994   4.899   6.796   1.402
  699SOL     OW 2995   2.580   2.676   0.067
  699SOL    HW1 2996   2.485   2.668   0.035
  699SOL    HW2 2997   2.642   2.652   7.016
  700SOL     OW 2998   3.146   6.949   2.451
  700SOL    HW1 2999   3.133   0.023   2.437
  700SOL    HW2 3000   3.074   6.899   2.403
  701SOL     OW 3001   6.178   4.616   0.594
  701SOL    HW1 3002   6.114   4.541   0.577
  701SOL    HW2 3003   6.268   4.592   0.557
  702SOL     OW 3004   2.870   0.835   4.642
  702SOL    HW1 3005   2.912   0.912   4.595
  702SOL    HW2 3006   2.883   0.752   4.588
  703SOL     OW 3007   3.005   3.441   5.463
  703SOL    HW1 3008   3.081   3.431   5.527
  703SOL    HW2 3009   3.009   3.367   5.395
  704SOL     OW 3010   1.350   2.680   6.511
  704SOL    HW1 3011   1.269   2.733   6.487
  704SOL    HW2 3012   1.408   2.733   6.572
  705SOL     OW 3013   6.287   6.156   4.261
  705SOL    HW1 3014   6.298   6.059   4.240
  705SOL    HW2 3015   6.358   6.184   4.326
  706SOL     OW 3016   4.016   1.085   5.729
  706SOL    HW1 3017   4.085   1.144   5.687
  706SOL    HW2 3018   4.001   1.005   5.671
  707SOL     OW 3019   3.789   5.504   3.422
  707SOL    HW1 3020   3.732   5.448   3.363
  707SOL    HW2 3021   3.796   5.462   3.512
  708SOL     OW 3022   3.131   1.309   3.354
  708SOL    HW1 3023   3.075   1.321   3.272
  708SOL    HW2 3024   3.131   1.395   3.406
  709SOL     OW 3025   1.731   6.785   1.563
  709SOL    HW1 3026   1.818   6.742   1.537
  709SOL    HW2 3027   1.747   6.883   1.580
  710SOL     OW 3028   5.072   2.915   1.569
  710SOL    HW1 3029   5.161   2.901   1.526
  710SOL    HW2 3030   5.006   2.849   1.533
  711SOL     OW 3031   6.963   2.881   5.439
  711SOL    HW1 3032   6.966   2.924   5.349
  711SOL    HW2 3033   6.952   2.782   5.427
  712SOL     OW 3034   4.467   3.085   1.199
  712SOL    HW1 3035   4.476   3.184   1.191
  712SOL    HW2 3036   4.421   3.049   1.118
  713SOL     OW 3037   4.355   2.717   5.332
  713SOL    HW1 3038   4.325   2.747   5.422
  713SOL    HW2 3039   4.285   2.658   5.292
  714SOL     OW 3040   6.325   4.777   3.782
  714SOL    HW1 3041   6.309   4.744   3.689
  714SOL    HW2 3042   6.316   4.701   3.846
  715SOL     OW 3043   6.380   5.156   5.735
  715SOL    HW1 3044   6.400   5.212   5.655
  715SOL    HW2 3045   6.464   5.118   5.772
  716SOL     OW 3046   2.358   1.031   2.699
  716SOL    HW1 3047   2.311   1.076   2.775
  716SOL    HW2 3048   2.333   1.076   2.613
  717SOL     OW 3049   5.975   4.742   4.009
  717SOL    HW1 3050   5.931   4.831   4.010
  717SOL    HW2 3051   5.959   4.696   3.921
  718SOL     OW 3052   4.824   2.035   4.343
  718SOL    HW1 3053   4.848   2.067   4.252
  718SOL    HW2 3054   4.728   2.058   4.362
  719SOL     OW 3055   6.752   0.434   2.859
  719SOL    HW1 3056   6.675   0.384   2.821
  719SOL    HW2 3057   6.720   0.494   2.933
  720SOL     OW 3058   1.801   0.685   6.188
  720SOL    HW1 3059   1.878   0.639   6.231
  720SOL    HW2 3060   1.746   0.730   6.258
  721SOL     OW 3061   0.714   2.417   2.143
  721SOL    HW1 3062   0.791   2.481   2.150
  721SOL    HW2 3063   0.689   2.385   2.234
  722SOL     OW 3064   4.145   0.142   6.555
  722SOL    HW1 3065   4.180   0.204   6.625
  722SOL    HW2 3066   4.206   0.142   6.477
  723SOL     OW 3067   2.336   6.389   3.469
  723SOL    HW1 3068   2.368   6.335   3.391
  723SOL    HW2 3069   2.242   6.365   3.490
  724SOL     OW 3070   0.886   0.883   3.368
  724SOL    HW1 3071   0.819   0.957   3.355
  724SOL    HW2 3072   0.966   0.919   3.417
  725SOL     OW 3073   2.548   4.600   2.258
  725SOL    HW1 3074   2.511   4.508   2.268
  725SOL    HW2 3075   2.596   4.626   2.341
  726SOL     OW 3076   2.462   5.215   0.490
  726SOL    HW1 3077   2.519   5.274   0.433
  726SOL    HW2 3078   2.370   5.253   0.496
  727SOL     OW 3079   4.563   5.448   6.548
  727SOL    HW1 3080   4.507   5.383   6.497
  727SOL    HW2 3081   4.533   5.541   6.527
  728SOL     OW 3082   0.008   3.424   4.323
  728SOL    HW1 3083   6.972   3.418   4.244
  728SOL    HW2 3084   7.005   3.502   4.380
  729SOL     OW 3085   0.470   3.006   0.904
  729SOL    HW1 3086   0.374   3.010   0.875
  729SOL    HW2 3087   0.506   2.914   0.887
  730SOL     OW 3088   5.000   0.717   3.234
  730SOL    HW1 3089   5.042   0.645   3.179
  730SOL    HW2 3090   4.901   0.711   3.227
  731SOL     OW 3091   4.701   4.420   6.442
  731SOL    HW1 3092   4.602   4.421   6.457
  731SOL    HW2 3093   4.720   4.384   6.351
  732SOL     OW 3094   5.189   2.162   2.927
  732SOL    HW1 3095   5.270   2.109   2.953
  732SOL    HW2 3096   5.214   2.230   2.858
  733SOL     OW 3097   6.126   6.598   3.828
  733SOL    HW1 3098   6.169   6.640   3.908
  733SOL    HW2 3099   6.052   6.657   3.794
  734SOL     OW 3100   6.547   4.935   2.495
  734SOL    HW1 3101   6.513   4.979   2.578
  734SOL    HW2 3102   6.527   4.837   2.500
  735SOL     OW 3103   5.759   0.580   1.879
  735SOL    HW1 3104   5.753   0.631   1.794
  735SOL    HW2 3105   5.669   0.575   1.922
  736SOL     OW 3106   1.404   1.227   3.991
  736SOL    HW1 3107   1.346   1.146   4.004
  736SOL    HW2 3108   1.485   1.219   4.048
  737SOL     OW 3109   5.849   1.396   6.143
  737SOL    HW1 3110   5.759   1.353   6.132
  737SOL    HW2 3111   5.874   1.396   6.239
  738SOL     OW 3112   2.838   4.036   1.215
  738SOL    HW1 3113   2.813   4.130   1.239
  738SOL    HW2 3114   2.779   4.003   1.142
  739SOL     OW 3115   3.272   6.912   4.899
  739SOL    HW1 3116   3.274   6.947   4.805
  739SOL    HW2 3117   3.364   6.882   4.925
  740SOL     OW 3118   5.571   2.440   2.725
  740SOL    HW1 3119   5.613   2.349   2.727
  740SOL    HW2 3120   5.570   2.479   2.817
  741SOL     OW 3121   2.453   0.349   4.626
  741SOL    HW1 3122   2.384   0.347   4.553
  741SOL    HW2 3123   2.487   0.256   4.642
  742SOL     OW 3124   1.412   6.494   0.594
  742SOL    HW1 3125   1.397   6.485   0.496
  742SOL    HW2 3126   1.455   6.410   0.629
  743SOL     OW 3127   0.939   6.471   3.870
  743SOL    HW1 3128   1.006   6.478   3.796
  743SOL    HW2 3129   0.855   6.429   3.836
  744SOL     OW 3130   6.474   1.428   1.006
  744SOL    HW1 3131   6.524   1.433   0.920
  744SOL    HW2 3132   6.520   1.364   1.068
  745SOL     OW 3133   2.115   5.581   4.895
  745SOL    HW1 3134   2.050   5.586   4.819
  745SOL    HW2 3135   2.122   5.487   4.927
  746SOL     OW 3136   5.323   3.912   4.858
  746SOL    HW1 3137   5.257   3.930   4.931
  746SOL    HW2 3138   5.350   3.999   4.816
  747SOL     OW 3139   5.554   5.275   3.510
  747SOL    HW1 3140   5.647   5.275   3.475
  747SOL    HW2 3141   5.549   5.219   3.593
  748SOL     OW 3142   4.837   5.373   2.541
  748SOL    HW1 3143   4.883   5.441   2.483
  748SOL    HW2 3144   4.767   5.418   2.596
  749SOL     OW 3145   4.941   3.664   3.945
  749SOL    HW1 3146   4.934   3.719   4.029
  749SOL    HW2 3147   4.913   3.570   3.965
  750SOL     OW 3148   2.376   1.279   1.692
  750SOL    HW1 3149   2.386   1.379   1.697
  750SOL    HW2 3150   2.467   1.237   1.693
  751SOL     OW 3151   4.828   2.114   0.604
  751SOL    HW1 3152   4.790   2.043   0.664
  751SOL    HW2 3153   4.886   2.175   0.657
  752SOL     OW 3154   3.336   2.422   5.588
  752SOL    HW1 3155   3.252   2.368   5.588
  752SOL    HW2 3156   3.329   2.494   5.656
  753SOL     OW 3157   3.560   3.476   5.180
  753SOL    HW1 3158   3.503   3.418   5.122
  753SOL    HW2 3159   3.655   3.444   5.177
  754SOL     OW 3160   5.889   0.860   6.416
  754SOL    HW1 3161   5.974   0.899   6.380
  754SOL    HW2 3162   5.842   0.927   6.472
  755SOL     OW 3163   3.018   4.261   5.273
  755SOL    HW1 3164   3.107   4.267   5.317
  755SOL    HW2 3165   2.988   4.353   5.248
  756SOL     OW 3166   2.649   5.207   0.014
  756SOL    HW1 3167   2.581   5.136   7.022
  756SOL    HW2 3168   2.675   5.250   6.952
  757SOL     OW 3169   2.101   6.470   2.464
  757SOL    HW1 3170   2.173   6.438   2.527
  757SOL    HW2 3171   2.106   6.417   2.380
  758SOL     OW 3172   4.288   1.315   3.755
  758SOL    HW1 3173   4.348   1.347   3.828
  758SOL    HW2 3174   4.333   1.327   3.667
  759SOL     OW 3175   6.810   2.908   3.467
  759SOL    HW1 3176   6.867   2.943   3.541
  759SOL    HW2 3177   6.866   2.896   3.385
  760SOL     OW 3178   6.730   6.620   3.756
  760SOL    HW1 3179   6.732   6.710   3.801
  760SOL    HW2 3180   6.688   6.553   3.818
  761SOL     OW 3181   5.456   3.958   5.262
  761SOL    HW1 3182   5.376   3.897   5.261
  761SOL    HW2 3183   5.437   4.038   5.319
  762SOL     OW 3184   3.105   6.234   5.607
  762SOL    HW1 3185   3.055   6.186   5.680
  762SOL    HW2 3186   3.045   6.304   5.566
  763SOL     OW 3187   5.723   0.311   6.718
  763SOL    HW1 3188   5.791   0.384   6.715
  763SOL    HW2 3189   5.632   0.351   6.711
  764SOL     OW 3190   5.414   1.229   5.960
  764SOL    HW1 3191   5.364   1.236   6.047
  764SOL    HW2 3192   5.395   1.309   5.904
  765SOL     OW 3193   1.007   6.997   0.744
  765SOL    HW1 3194   0.922   7.009   0.693
  765SOL    HW2 3195   0.995   6.927   0.814
  766SOL     OW 3196   2.266   1.920   4.902
  766SOL    HW1 3197   2.281   1.969   4.988
  766SOL    HW2 3198   2.282   1.823   4.916
  767SOL     OW 3199   6.955   0.009   3.953
  767SOL    HW1 3200   7.024   0.065   3.906
  767SOL    HW2 3201   6.918   0.060   4.031
  768SOL     OW 3202   1.839   6.355   2.567
  768SOL    HW1 3203   1.908   6.386   2.502
  768SOL    HW2 3204   1.751   6.399   2.546
  769SOL     OW 3205   3.419   1.814   5.152
  769SOL    HW1 3206   3.403   1.897   5.205
  769SOL    HW2 3207   3.335   1.789   5.104
  770SOL     OW 3208   2.100   5.098   4.466
  770SOL    HW1 3209   2.019   5.132   4.514
  770SOL    HW2 3210   2.094   4.998   4.458
  771SOL     OW 3211   1.302   5.314   3.413
  771SOL    HW1 3212   1.287   5.402   3.368
  771SOL    HW2 3213   1.350   5.327   3.500
  772SOL     OW 3214   5.365   4.967   0.006
  772SOL    HW1 3215   5.434   4.900   7.003
  772SOL    HW2 3216   5.274   4.926   7.021
  773SOL     OW 3217   1.257   3.468   3.440
  773SOL    HW1 3218   1.289   3.480   3.346
  773SOL    HW2 3219   1.311   3.396   3.485
  774SOL     OW 3220   1.970   1.682   3.911
  774SOL    HW1 3221   2.050   1.741   3.930
  774SOL    HW2 3222   1.887   1.728   3.944
  775SOL     OW 3223   2.172   3.716   4.057
  775SOL    HW1 3224   2.267   3.739   4.039
  775SOL    HW2 3225   2.159   3.699   4.155
  776SOL     OW 3226   1.145   6.852   6.369
  776SOL    HW1 3227   1.167   6.761   6.405
  776SOL    HW2 3228   1.230   6.899   6.344
  777SOL     OW 3229   1.791   3.782   6.973
  777SOL    HW1 3230   1.831   3.848   0.013
  777SOL    HW2 3231   1.757   3.831   6.892
  778SOL     OW 3232   3.561   6.602   1.878
  778SOL    HW1 3233   3.597   6.639   1.792
  778SOL    HW2 3234   3.633   6.607   1.948
  779SOL     OW 3235   0.574   2.651   2.005
  779SOL    HW1 3236   0.490   2.605   2.034
  779SOL    HW2 3237   0.632   2.588   1.954
  780SOL     OW 3238   1.535   2.145   4.683
  780SOL    HW1 3239   1.439   2.149   4.654
  780SOL    HW2 3240   1.559   2.051   4.707
  781SOL     OW 3241   0.343   4.447   0.621
  781SOL    HW1 3242   0.266   4.384   0.613
  781SOL    HW2 3243   0.383   4.440   0.713
  782SOL     OW 3244   1.853   4.186   5.709
  782SOL    HW1 3245   1.878   4.099   5.749
  782SOL    HW2 3246   1.856   4.258   5.779
  783SOL     OW 3247   5.341   4.474   6.369
  783SOL    HW1 3248   5.432   4.482   6.409
  783SOL    HW2 3249   5.273   4.467   6.443
  784SOL     OW 3250   3.131   5.985   1.530
  784SOL    HW1 3251   3.189   6.065   1.543
  784SOL    HW2 3252   3.074   5.971   1.611
  785SOL     OW 3253   0.852   6.864   4.094
  785SOL    HW1 3254   0.849   6.902   4.002
  785SOL    HW2 3255   0.807   6.775   4.095
  786SOL     OW 3256   6.503   0.999   3.717
  786SOL    HW1 3257   6.417   1.024   3.672
  786SOL    HW2 3258   6.549   0.929   3.663
  787SOL     OW 3259   2.447   0.279   0.177
  787SOL    HW1 3260   2.354   0.242   0.180
  787SOL    HW2 3261   2.446   0.374   0.207
  788SOL     OW 3262   4.069   3.024   1.190
  788SOL    HW1 3263   3.975   2.999   1.164
  788SOL    HW2 3264   4.123   2.941   1.205
  789SOL     OW 3265   4.474   5.336   1.604
  789SOL    HW1 3266   4.532   5.392   1.544
  789SOL    HW2 3267   4.531   5.291   1.673
  790SOL     OW 3268   0.773   2.834   1.731
  790SOL    HW1 3269   0.774   2.744   1.774
  790SOL    HW2 3270   0.822   2.899   1.790
  791SOL     OW 3271   2.673   5.216   5.491
  791SOL    HW1 3272   2.612   5.142   5.519
  791SOL    HW2 3273   2.768   5.189   5.504
  792SOL     OW 3274   0.623   0.915   0.770
  792SOL    HW1 3275   0.677   0.911   0.854
  792SOL    HW2 3276   0.674   0.871   0.696
  793SOL     OW 3277   3.976   5.592   3.873
  793SOL    HW1 3278   3.963   5.679   3.826
  793SOL    HW2 3279   3.890   5.565   3.917
  794SOL     OW 3280   2.916   3.657   3.677
  794SOL    HW1 3281   2.859   3.575   3.668
  794SOL    HW2 3282   2.963   3.674   3.591
  795SOL     OW 3283   3.565   0.928   6.095
  795SOL    HW1 3284   3.568   0.855   6.026
  795SOL    HW2 3285   3.549   1.015   6.049
  796SOL     OW 3286   1.752   3.102   6.705
  796SOL    HW1 3287   1.833   3.107   6.763
  796SOL    HW2 3288   1.779   3.079   6.611
  797SOL     OW 3289   4.741   6.872   1.045
  797SOL    HW1 3290   4.641   6.865   1.038
  797SOL    HW2 3291   4.770   6.963   1.017
  798SOL     OW 3292   2.984   6.196   1.317
  798SOL    HW1 3293   2.907   6.236   1.365
  798SOL    HW2 3294   3.069   6.222   1.363
  799SOL     OW 3295   1.157   1.955   6.774
  799SOL    HW1 3296   1.253   1.983   6.776
  799SOL    HW2 3297   1.100   2.034   6.750
  800SOL     OW 3298   5.998   1.347   1.989
  800SOL    HW1 3299   5.933   1.421   1.976
  800SOL    HW2 3300   6.030   1.313   1.900
  801SOL     OW 3301   2.064   5.672   5.561
  801SOL    HW1 3302   1.991   5.607   5.539
  801SOL    HW2 3303   2.152   5.633   5.537
  802SOL     OW 3304   5.354   2.129   6.988
  802SOL    HW1 3305   5.366   2.162   0.058
  802SOL    HW2 3306   5.261   2.147   6.958
  803SOL     OW 3307   2.810   0.721   5.416
  803SOL    HW1 3308   2.766   0.768   5.340
  803SOL    HW2 3309   2.740   0.681   5.475
  804SOL     OW 3310   6.147   0.521   1.959
  804SOL    HW1 3311   6.112   0.510   1.866
  804SOL    HW2 3312   6.075   0.500   2.025
  805SOL     OW 3313   3.120   1.133   3.665
  805SOL    HW1 3314   3.055   1.207   3.645
  805SOL    HW2 3315   3.213   1.164   3.645
  806SOL     OW 3316   0.868   6.911   5.276
  806SOL    HW1 3317   0.805   6.842   5.312
  806SOL    HW2 3318   0.865   6.909   5.176
  807SOL     OW 3319   0.567   6.153   5.101
  807SOL    HW1 3320   0.500   6.226   5.108
  807SOL    HW2 3321   0.601   6.130   5.192
  808SOL     OW 3322   5.914   2.838   0.360
  808SOL    HW1 3323   5.849   2.914   0.359
  808SOL    HW2 3324   5.934   2.814   0.455
  809SOL     OW 3325   0.595   5.071   0.113
  809SOL    HW1 3326   0.504   5.062   0.152
  809SOL    HW2 3327   0.655   5.118   0.177
  810SOL     OW 3328   2.949   3.896   0.538
  810SOL    HW1 3329   3.027   3.840   0.568
  810SOL    HW2 3330   2.879   3.837   0.498
  811SOL     OW 3331   5.391   5.374   5.060
  811SOL    HW1 3332   5.313   5.336   5.110
  811SOL    HW2 3333   5.380   5.355   4.963
  812SOL     OW 3334   0.816   1.945   2.105
  812SOL    HW1 3335   0.811   1.847   2.088
  812SOL    HW2 3336   0.873   1.989   2.036
  813SOL     OW 3337   1.847   1.174   4.543
  813SOL    HW1 3338   1.848   1.170   4.443
  813SOL    HW2 3339   1.907   1.103   4.579
  814SOL     OW 3340   6.723   5.702   2.951
  814SOL    HW1 3341   6.684   5.757   3.025
  814SOL    HW2 3342   6.702   5.606   2.967
  815SOL     OW 3343   5.191   2.199   3.804
  815SOL    HW1 3344   5.197   2.299   3.805
  815SOL    HW2 3345   5.220   2.163   3.893
  816SOL     OW 3346   5.046   3.914   0.231
  816SOL    HW1 3347   4.964   3.857   0.237
  816SOL    HW2 3348   5.065   3.956   0.320
  817SOL     OW 3349   1.136   5.842   0.867
  817SOL    HW1 3350   1.151   5.749   0.833
  817SOL    HW2 3351   1.178   5.908   0.805
  818SOL     OW 3352   5.994   2.792   3.505
  818SOL    HW1 3353   5.967   2.747   3.420
  818SOL    HW2 3354   5.972   2.732   3.582
  819SOL     OW 3355   5.681   2.070   1.679
  819SOL    HW1 3356   5.702   2.144   1.742
  819SOL    HW2 3357   5.599   2.093   1.626
  820SOL     OW 3358   2.414   2.074   4.227
  820SOL    HW1 3359   2.364   2.112   4.149
  820SOL    HW2 3360   2.356   2.007   4.274
  821SOL     OW 3361   5.753   4.093   4.834
  821SOL    HW1 3362   5.768   4.041   4.750
  821SOL    HW2 3363   5.685   4.046   4.891
  822SOL     OW 3364   0.865   4.419   3.580
  822SOL    HW1 3365   0.773   4.413   3.618
  822SOL    HW2 3366   0.917   4.487   3.630
  823SOL     OW 3367   1.231   3.770   5.875
  823SOL    HW1 3368   1.218   3.675   5.902
  823SOL    HW2 3369   1.145   3.821   5.886
  824SOL     OW 3370   5.715   1.003   5.027
  824SOL    HW1 3371   5.807   1.039   5.011
  824SOL    HW2 3372   5.687   0.947   4.949
  825SOL     OW 3373   6.051   6.019   1.051
  825SOL    HW1 3374   6.107   6.038   0.970
  825SOL    HW2 3375   5.988   5.944   1.032
  826SOL     OW 3376   3.791   1.237   5.627
  826SOL    HW1 3377   3.832   1.318   5.586
  826SOL    HW2 3378   3.862   1.180   5.669
  827SOL     OW 3379   3.441   3.863   4.544
  827SOL    HW1 3380   3.379   3.940   4.529
  827SOL    HW2 3381   3.521   3.894   4.595
  828SOL     OW 3382   6.139   5.459   4.415
  828SOL    HW1 3383   6.208   5.441   4.344
  828SOL    HW2 3384   6.182   5.503   4.493
  829SOL     OW 3385   3.655   2.863   2.500
  829SOL    HW1 3386   3.711   2.900   2.574
  829SOL    HW2 3387   3.625   2.938   2.441
  830SOL     OW 3388   6.495   4.467   6.731
  830SOL    HW1 3389   6.579   4.477   6.784
  830SOL    HW2 3390   6.516   4.474   6.633
  831SOL     OW 3391   5.513   6.026   1.251
  831SOL    HW1 3392   5.585   6.076   1.300
  831SOL    HW2 3393   5.515   5.930   1.278
  832SOL     OW 3394   3.622   1.635   5.086
  832SOL    HW1 3395   3.540   1.691   5.099
  832SOL    HW2 3396   3.603   1.564   5.018
  833SOL     OW 3397   1.248   3.853   6.600
  833SOL    HW1 3398   1.189   3.831   6.522
  833SOL    HW2 3399   1.223   3.796   6.678
  834SOL     OW 3400   4.547   3.481   6.534
  834SOL    HW1 3401   4.457   3.485   6.490
  834SOL    HW2 3402   4.610   3.428   6.477
  835SOL     OW 3403   1.304   0.393   4.450
  835SOL    HW1 3404   1.385   0.334   4.447
  835SOL    HW2 3405   1.231   0.348   4.501
  836SOL     OW 3406   3.280   1.967   5.349
  836SOL    HW1 3407   3.279   1.949   5.447
  836SOL    HW2 3408   3.314   2.059   5.332
  837SOL     OW 3409   1.549   0.431   1.300
  837SOL    HW1 3410   1.492   0.511   1.315
  837SOL    HW2 3411   1.505   0.369   1.235
  838SOL     OW 3412   2.442   5.247   3.843
  838SOL    HW1 3413   2.486   5.337   3.850
  838SOL    HW2 3414   2.362   5.254   3.783
  839SOL     OW 3415   2.168   1.117   1.114
  839SOL    HW1 3416   2.155   1.156   1.023
  839SOL    HW2 3417   2.263   1.086   1.123
  840SOL     OW 3418   6.131   5.654   0.047
  840SOL    HW1 3419   6.127   5.555   0.058
  840SOL    HW2 3420   6.042   5.694   0.070
  841SOL     OW 3421   4.337   5.354   5.690
  841SOL    HW1 3422   4.269   5.362   5.763
  841SOL    HW2 3423   4.418   5.307   5.725
  842SOL     OW 3424   3.292   0.017   6.824
  842SOL    HW1 3425   3.240   0.085   6.773
  842SOL    HW2 3426   3.277   0.030   6.922
  843SOL     OW 3427   1.529   1.810   1.436
  843SOL    HW1 3428   1.587   1.753   1.377
  843SOL    HW2 3429   1.526   1.903   1.401
  844SOL     OW 3430   0.269   6.964   1.334
  844SOL    HW1 3431   0.180   6.930   1.363
  844SOL    HW2 3432   0.276   0.037   1.356
  845SOL     OW 3433   4.062   1.827   2.772
  845SOL    HW1 3434   4.142   1.871   2.732
  845SOL    HW2 3435   4.080   1.729   2.783
  846SOL     OW 3436   3.119   1.419   6.516
  846SOL    HW1 3437   3.062   1.393   6.438
  846SOL    HW2 3438   3.211   1.379   6.505
  847SOL     OW 3439   2.458   3.422   1.611
  847SOL    HW1 3440   2.444   3.429   1.710
  847SOL    HW2 3441   2.421   3.335   1.578
  848SOL     OW 3442   5.905   6.728   5.952
  848SOL    HW1 3443   5.875   6.722   5.857
  848SOL    HW2 3444   5.992   6.777   5.956
  849SOL     OW 3445   5.701   3.607   0.210
  849SOL    HW1 3446   5.637   3.576   0.281
  849SOL    HW2 3447   5.652   3.663   0.143
  850SOL     OW 3448   6.198   0.889   4.971
  850SOL    HW1 3449   6.186   0.849   4.880
  850SOL    HW2 3450   6.233   0.819   5.034
  851SOL     OW 3451   6.393   3.179   6.805
  851SOL    HW1 3452   6.448   3.147   6.728
  851SOL    HW2 3453   6.297   3.185   6.778
  852SOL     OW 3454   7.023   3.976   0.835
  852SOL    HW1 3455   6.964   3.923   0.896
  852SOL    HW2 3456   0.072   3.918   0.800
  853SOL     OW 3457   1.875   4.513   0.233
  853SOL    HW1 3458   1.853   4.502   0.330
  853SOL    HW2 3459   1.821   4.449   0.179
  854SOL     OW 3460   6.182   6.454   0.064
  854SOL    HW1 3461   6.270   6.449   0.016
  854SOL    HW2 3462   6.135   6.538   0.039
  855SOL     OW 3463   0.131   0.659   6.827
  855SOL    HW1 3464   0.182   0.576   6.850
  855SOL    HW2 3465   0.136   0.674   6.728
  856SOL     OW 3466   1.808   6.742   6.404
  856SOL    HW1 3467   1.833   6.728   6.500
  856SOL    HW2 3468   1.853   6.825   6.371
  857SOL     OW 3469   0.013   4.545   3.601
  857SOL    HW1 3470   6.951   4.594   3.603
  857SOL    HW2 3471   0.081   4.595   3.656
  858SOL     OW 3472   3.942   3.796   0.691
  858SOL    HW1 3473   4.039   3.784   0.669
  858SOL    HW2 3474   3.897   3.848   0.619
  859SOL     OW 3475   4.334   6.367   5.263
  859SOL    HW1 3476   4.321   6.418   5.348
  859SOL    HW2 3477   4.382   6.282   5.282
  860SOL     OW 3478   5.030   2.689   5.357
  860SOL    HW1 3479   4.957   2.658   5.296
  860SOL    HW2 3480   4.991   2.715   5.445
  861SOL     OW 3481   1.866   5.358   3.237
  861SOL    HW1 3482   1.852   5.270   3.192
  861SOL    HW2 3483   1.789   5.419   3.218
  862SOL     OW 3484   1.775   4.297   3.720
  862SOL    HW1 3485   1.694   4.346   3.686
  862SOL    HW2 3486   1.802   4.334   3.808
  863SOL     OW 3487   6.834   0.118   5.707
  863SOL    HW1 3488   6.814   0.214   5.685
  863SOL    HW2 3489   6.926   0.111   5.745
  864SOL     OW 3490   4.633   0.227   5.756
  864SOL    HW1 3491   4.597   0.317   5.779
  864SOL    HW2 3492   4.717   0.237   5.704
  865SOL     OW 3493   2.581   5.770   4.720
  865SOL    HW1 3494   2.614   5.862   4.740
  865SOL    HW2 3495   2.658   5.706   4.726
  866SOL     OW 3496   2.873   6.806   1.041
  866SOL    HW1 3497   2.973   6.798   1.038
  866SOL    HW2 3498   2.834   6.750   0.968
  867SOL     OW 3499   5.966   2.181   0.781
  867SOL    HW1 3500   6.034   2.251   0.761
  867SOL    HW2 3501   5.938   2.136   0.697
  868SOL     OW 3502   0.477   2.043   2.170
  868SOL    HW1 3503   0.465   1.944   2.180
  868SOL    HW2 3504   0.560   2.072   2.218
  869SOL     OW 3505   6.946   4.088   4.166
  869SOL    HW1 3506   6.858   4.097   4.120
  869SOL    HW2 3507   6.959   3.993   4.194
  870SOL     OW 3508   3.323   5.040   1.969
  870SOL    HW1 3509   3.405   5.034   2.026
  870SOL    HW2 3510   3.308   4.952   1.923
  871SOL     OW 3511   4.837   1.787   4.422
  871SOL    HW1 3512   4.783   1.727   4.363
  871SOL    HW2 3513   4.819   1.882   4.398
  872SOL     OW 3514   0.025   2.151   4.569
  872SOL    HW1 3515   0.033   2.061   4.526
  872SOL    HW2 3516   0.109   2.202   4.555
  873SOL     OW 3517   4.649   6.461   5.899
  873SOL    HW1 3518   4.682   6.536   5.842
  873SOL    HW2 3519   4.683   6.473   5.992
  874SOL     OW 3520   6.007   4.490   6.641
  874SOL    HW1 3521   6.049   4.401   6.622
  874SOL    HW2 3522   6.075   4.562   6.631
  875SOL     OW 3523   5.214   5.168   1.046
  875SOL    HW1 3524   5.262   5.102   1.103
  875SOL    HW2 3525   5.245   5.261   1.068
  876SOL     OW 3526   0.371   5.516   1.959
  876SOL    HW1 3527   0.409   5.443   2.016
  876SOL    HW2 3528   0.310   5.573   2.013
  877SOL     OW 3529   2.805   4.720   0.260
  877SOL    HW1 3530   2.821   4.673   0.347
  877SOL    HW2 3531   2.718   4.769   0.265
  878SOL     OW 3532   4.330   6.664   4.232
  878SOL    HW1 3533   4.424   6.693   4.217
  878SOL    HW2 3534   4.287   6.643   4.144
  879SOL     OW 3535   4.075   0.434   1.220
  879SOL    HW1 3536   3.993   0.491   1.217
  879SOL    HW2 3537   4.101   0.408   1.127
  880SOL     OW 3538   3.523   4.130   3.782
  880SOL    HW1 3539   3.608   4.086   3.753
  880SOL    HW2 3540   3.525   4.146   3.880
  881SOL     OW 3541   4.483   2.387   5.064
  881SOL    HW1 3542   4.521   2.406   4.973
  881SOL    HW2 3543   4.388   2.419   5.068
  882SOL     OW 3544   0.554   3.607   4.666
  882SOL    HW1 3545   0.618   3.682   4.650
  882SOL    HW2 3546   0.572   3.533   4.600
  883SOL     OW 3547   2.746   0.443   3.002
  883SOL    HW1 3548   2.719   0.534   3.031
  883SOL    HW2 3549   2.846   0.436   3.004
  884SOL     OW 3550   4.689   2.772   5.487
  884SOL    HW1 3551   4.707   2.677   5.464
  884SOL    HW2 3552   4.676   2.825   5.403
  885SOL     OW 3553   2.817   1.013   5.776
  885SOL    HW1 3554   2.818   1.102   5.732
  885SOL    HW2 3555   2.847   0.943   5.711
  886SOL     OW 3556   3.537   0.675   0.527
  886SOL    HW1 3557   3.522   0.739   0.452
  886SOL    HW2 3558   3.494   0.587   0.505
  887SOL     OW 3559   3.990   6.774   4.140
  887SOL    HW1 3560   3.970   6.679   4.114
  887SOL    HW2 3561   3.925   6.803   4.210
  888SOL     OW 3562   0.811   6.736   2.849
  888SOL    HW1 3563   0.908   6.713   2.851
  888SOL    HW2 3564   0.800   6.829   2.814
  889SOL     OW 3565   0.618   3.612   0.555
  889SOL    HW1 3566   0.703   3.638   0.601
  889SOL    HW2 3567   0.633   3.529   0.501
  890SOL     OW 3568   1.487   5.019   3.663
  890SOL    HW1 3569   1.489   5.068   3.750
  890SOL    HW2 3570   1.561   5.051   3.604
  891SOL     OW 3571   5.361   5.587   0.712
  891SOL    HW1 3572   5.322   5.679   0.727
  891SOL    HW2 3573   5.453   5.583   0.750
  892SOL     OW 3574   2.819   4.155   5.720
  892SOL    HW1 3575   2.819   4.191   5.627
  892SOL    HW2 3576   2.765   4.214   5.779
  893SOL     OW 3577   2.847   6.453   2.727
  893SOL    HW1 3578   2.792   6.401   2.792
  893SOL    HW2 3579   2.800   6.539   2.706
  894SOL     OW 3580   0.932   3.010   1.535
  894SOL    HW1 3581   0.941   2.913   1.558
  894SOL    HW2 3582   0.847   3.024   1.484
  895SOL     OW 3583   0.435   4.272   3.120
  895SOL    HW1 3584   0.464   4.299   3.212
  895SOL    HW2 3585   0.470   4.180   3.100
  896SOL     OW 3586   5.879   5.280   0.843
  896SOL    HW1 3587   5.975   5.286   0.870
  896SOL    HW2 3588   5.856   5.184   0.826
  897SOL     OW 3589   4.671   1.276   0.179
  897SOL    HW1 3590   4.599   1.238   0.120
  897SOL    HW2 3591   4.628   1.318   0.259
  898SOL     OW 3592   3.453   6.092   2.791
  898SOL    HW1 3593   3.372   6.121   2.843
  898SOL    HW2 3594   3.428   6.079   2.695
  899SOL     OW 3595   0.284   6.027   6.561
  899SOL    HW1 3596   0.233   6.095   6.614
  899SOL    HW2 3597   0.338   6.074   6.491
  900SOL     OW 3598   6.123   6.970   0.270
  900SOL    HW1 3599   6.052   6.910   0.232
  900SOL    HW2 3600   6.162   6.927   0.352
  901SOL     OW 3601   2.195   0.598   2.781
  901SOL    HW1 3602   2.266   0.586   2.711
  901SOL    HW2 3603   2.156   0.690   2.773
  902SOL     OW 3604   0.274   3.209   0.670
  902SOL    HW1 3605   0.356   3.268   0.672
  902SOL    HW2 3606   0.252   3.179   0.763
  903SOL     OW 3607   6.607   2.337   6.497
  903SOL    HW1 3608   6.544   2.279   6.549
  903SOL    HW2 3609   6.578   2.432   6.503
  904SOL     OW 3610   2.730   2.191   3.473
  904SOL    HW1 3611   2.783   2.168   3.555
  904SOL    HW2 3612   2.667   2.266   3.495
  905SOL     OW 3613   5.083   2.103   6.950
  905SOL    HW1 3614   5.093   2.053   6.864
  905SOL    HW2 3615   4.999   2.075   6.995
  906SOL     OW 3616   0.153   2.348   5.771
  906SOL    HW1 3617   0.145   2.447   5.763
  906SOL    HW2 3618   0.250   2.323   5.777
  907SOL     OW 3619   5.075   3.447   0.619
  907SOL    HW1 3620   5.018   3.497   0.553
  907SOL    HW2 3621   5.170   3.476   0.610
  908SOL     OW 3622   2.479   4.949   2.603
  908SOL    HW1 3623   2.522   4.952   2.513
  908SOL    HW2 3624   2.380   4.941   2.593
  909SOL     OW 3625   4.347   5.467   0.323
  909SOL    HW1 3626   4.318   5.486   0.229
  909SOL    HW2 3627   4.405   5.541   0.356
  910SOL     OW 3628   3.042   2.845   1.263
  910SOL    HW1 3629   3.127   2.793   1.262
  910SOL    HW2 3630   3.053   2.926   1.321
  911SOL     OW 3631   1.461   5.911   6.174
  911SOL    HW1 3632   1.465   5.812   6.156
  911SOL    HW2 3633   1.518   5.932   6.253
  912SOL     OW 3634   5.639   2.766   2.966
  912SOL    HW1 3635   5.630   2.688   3.028
  912SOL    HW2 3636   5.575   2.756   2.890
  913SOL     OW 3637   4.832   6.013   3.230
  913SOL    HW1 3638   4.843   6.080   3.158
  913SOL    HW2 3639   4.778   6.052   3.305
  914SOL     OW 3640   2.110   0.499   6.531
  914SOL    HW1 3641   2.013   0.522   6.526
  914SOL    HW2 3642   2.122   0.417   6.587
  915SOL     OW 3643   6.227   4.657   6.568
  915SOL    HW1 3644   6.172   4.734   6.536
  915SOL    HW2 3645   6.324   4.678   6.558
  916SOL     OW 3646   1.621   2.711   2.009
  916SOL    HW1 3647   1.668   2.782   2.060
  916SOL    HW2 3648   1.634   2.726   1.911
  917SOL     OW 3649   7.011   6.566   0.581
  917SOL    HW1 3650   0.015   6.479   0.542
  917SOL    HW2 3651   6.931   6.553   0.639
  918SOL     OW 3652   2.451   6.799   0.479
  918SOL    HW1 3653   2.403   6.712   0.468
  918SOL    HW2 3654   2.410   6.851   0.554
  919SOL     OW 3655   5.272   1.181   3.230
  919SOL    HW1 3656   5.247   1.097   3.182
  919SOL    HW2 3657   5.371   1.185   3.242
  920SOL     OW 3658   2.215   4.609   1.592
  920SOL    HW1 3659   2.164   4.625   1.676
  920SOL    HW2 3660   2.295   4.553   1.611
  921SOL     OW 3661   4.990   5.438   4.441
  921SOL    HW1 3662   4.962   5.400   4.353
  921SOL    HW2 3663   4.990   5.538   4.437
  922SOL     OW 3664   3.844   3.473   4.360
  922SOL    HW1 3665   3.922   3.529   4.388
  922SOL    HW2 3666   3.800   3.515   4.280
  923SOL     OW 3667   2.247   2.818   5.977
  923SOL    HW1 3668   2.183   2.742   5.967
  923SOL    HW2 3669   2.304   2.826   5.895
  924SOL     OW 3670   6.483   3.632   2.255
  924SOL    HW1 3671   6.414   3.704   2.243
  924SOL    HW2 3672   6.549   3.635   2.180
  925SOL     OW 3673   6.874   2.328   0.237
  925SOL    HW1 3674   6.963   2.314   0.282
  925SOL    HW2 3675   6.830   2.410   0.275
  926SOL     OW 3676   6.930   1.703   1.365
  926SOL    HW1 3677   6.972   1.787   1.331
  926SOL    HW2 3678   6.933   1.703   1.465
  927SOL     OW 3679   5.874   3.946   3.796
  927SOL    HW1 3680   5.806   3.875   3.780
  927SOL    HW2 3681   5.897   3.948   3.894
  928SOL     OW 3682   2.837   6.220   0.607
  928SOL    HW1 3683   2.880   6.172   0.530
  928SOL    HW2 3684   2.847   6.165   0.690
  929SOL     OW 3685   6.662   1.186   6.968
  929SOL    HW1 3686   6.755   1.193   7.005
  929SOL    HW2 3687   6.641   1.090   6.948
  930SOL     OW 3688   4.256   5.434   6.367
  930SOL    HW1 3689   4.294   5.526   6.354
  930SOL    HW2 3690   4.326   5.366   6.345
  931SOL     OW 3691   6.684   2.119   3.636
  931SOL    HW1 3692   6.636   2.144   3.552
  931SOL    HW2 3693   6.631   2.052   3.687
  932SOL     OW 3694   3.544   1.434   3.772
  932SOL    HW1 3695   3.522   1.475   3.861
  932SOL    HW2 3696   3.641   1.445   3.754
  933SOL     OW 3697   1.209   4.689   2.812
  933SOL    HW1 3698   1.217   4.762   2.880
  933SOL    HW2 3699   1.299   4.648   2.797
  934SOL     OW 3700   2.476   6.112   6.124
  934SOL    HW1 3701   2.469   6.083   6.220
  934SOL    HW2 3702   2.570   6.140   6.104
  935SOL     OW 3703   5.125   4.034   3.282
  935SOL    HW1 3704   5.158   4.088   3.204
  935SOL    HW2 3705   5.034   3.999   3.261
  936SOL     OW 3706   1.495   0.493   5.887
  936SOL    HW1 3707   1.499   0.408   5.834
  936SOL    HW2 3708   1.561   0.489   5.962
  937SOL     OW 3709   4.180   1.227   5.569
  937SOL    HW1 3710   4.179   1.323   5.542
  937SOL    HW2 3711   4.208   1.171   5.491
  938SOL     OW 3712   0.019   5.699   4.083
  938SOL    HW1 3713   0.097   5.646   4.050
  938SOL    HW2 3714   6.962   5.674   4.029
  939SOL     OW 3715   6.818   6.959   4.583
  939SOL    HW1 3716   6.802   7.021   4.660
  939SOL    HW2 3717   6.801   6.865   4.611
  940SOL     OW 3718   1.034   4.916   1.319
  940SOL    HW1 3719   1.116   4.858   1.314
  940SOL    HW2 3720   1.043   4.992   1.255
  941SOL     OW 3721   4.490   0.241   6.693
  941SOL    HW1 3722   4.531   0.150   6.693
  941SOL    HW2 3723   4.533   0.297   6.622
  942SOL     OW 3724   6.683   6.390   1.157
  942SOL    HW1 3725   6.649   6.458   1.091
  942SOL    HW2 3726   6.653   6.299   1.129
  943SOL     OW 3727   2.800   5.189   2.839
  943SOL    HW1 3728   2.780   5.197   2.742
  943SOL    HW2 3729   2.899   5.179   2.852
  944SOL     OW 3730   0.062   6.141   4.553
  944SOL    HW1 3731   0.050   6.142   4.652
  944SOL    HW2 3732   0.081   6.234   4.521
  945SOL     OW 3733   0.285   5.614   5.372
  945SOL    HW1 3734   0.309   5.704   5.409
  945SOL    HW2 3735   0.363   5.553   5.382
  946SOL     OW 3736   4.889   4.473   4.449
  946SOL    HW1 3737   4.823   4.404   4.419
  946SOL    HW2 3738   4.981   4.442   4.428
  947SOL     OW 3739   4.140   3.392   3.639
  947SOL    HW1 3740   4.104   3.299   3.640
  947SOL    HW2 3741   4.159   3.421   3.733
  948SOL     OW 3742   4.929   1.137   2.904
  948SOL    HW1 3743   4.992   1.063   2.881
  948SOL    HW2 3744   4.919   1.143   3.004
  949SOL     OW 3745   2.855   6.664   0.811
  949SOL    HW1 3746   2.760   6.646   0.782
  949SOL    HW2 3747   2.893   6.581   0.851
  950SOL     OW 3748   6.608   5.798   1.500
  950SOL    HW1 3749   6.603   5.729   1.572
  950SOL    HW2 3750   6.622   5.888   1.540
  951SOL     OW 3751   1.519   0.103   3.358
  951SOL    HW1 3752   1.561   0.164   3.426
  951SOL    HW2 3753   1.527   0.008   3.389
  952SOL     OW 3754   4.110   2.221   2.570
  952SOL    HW1 3755   4.115   2.152   2.497
  952SOL    HW2 3756   4.048   2.188   2.642
  953SOL     OW 3757   6.615   5.824   4.898
  953SOL    HW1 3758   6.536   5.809   4.958
  953SOL    HW2 3759   6.584   5.867   4.813
  954SOL     OW 3760   4.576   5.657   2.147
  954SOL    HW1 3761   4.579   5.662   2.247
  954SOL    HW2 3762   4.552   5.564   2.119
  955SOL     OW 3763   1.564   4.525   6.844
  955SOL    HW1 3764   1.584   4.585   6.921
  955SOL    HW2 3765   1.468   4.532   6.819
  956SOL     OW 3766   0.223   0.842   1.101
  956SOL    HW1 3767   0.163   0.770   1.136
  956SOL    HW2 3768   0.177   0.931   1.110
  957SOL     OW 3769   6.196   1.343   2.170
  957SOL    HW1 3770   6.116   1.351   2.111
  957SOL    HW2 3771   6.167   1.317   2.262
  958SOL     OW 3772   4.980   6.679   2.190
  958SOL    HW1 3773   4.985   6.618   2.269
  958SOL    HW2 3774   5.025   6.765   2.213
  959SOL     OW 3775   3.607   6.587   4.329
  959SOL    HW1 3776   3.574   6.666   4.277
  959SOL    HW2 3777   3.706   6.579   4.316
  960SOL     OW 3778   0.497   0.604   0.735
  960SOL    HW1 3779   0.469   0.654   0.817
  960SOL    HW2 3780   0.462   0.650   0.653
  961SOL     OW 3781   3.103   6.394   3.174
  961SOL    HW1 3782   3.114   6.392   3.075
  961SOL    HW2 3783   3.172   6.454   3.215
  962SOL     OW 3784   6.504   6.987   4.854
  962SOL    HW1 3785   6.527   6.908   4.797
  962SOL    HW2 3786   6.458   0.032   4.798
  963SOL     OW 3787   4.549   1.949   1.573
  963SOL    HW1 3788   4.573   2.046   1.566
  963SOL    HW2 3789   4.512   1.918   1.485
  964SOL     OW 3790   5.062   4.518   4.890
  964SOL    HW1 3791   5.123   4.555   4.960
  964SOL    HW2 3792   5.004   4.447   4.930
  965SOL     OW 3793   5.636   2.274   2.314
  965SOL    HW1 3794   5.717   2.293   2.369
  965SOL    HW2 3795   5.656   2.202   2.248
  966SOL     OW 3796   5.110   2.042   3.582
  966SOL    HW1 3797   5.075   1.960   3.627
  966SOL    HW2 3798   5.132   2.112   3.650
  967SOL     OW 3799   4.193   4.509   6.280
  967SOL    HW1 3800   4.102   4.530   6.243
  967SOL    HW2 3801   4.259   4.503   6.206
  968SOL     OW 3802   3.401   0.389   1.943
  968SOL    HW1 3803   3.429   0.294   1.932
  968SOL    HW2 3804   3.471   0.438   1.995
  969SOL     OW 3805   3.540   4.951   6.109
  969SOL    HW1 3806   3.604   4.913   6.042
  969SOL    HW2 3807   3.494   5.030   6.069
  970SOL     OW 3808   6.225   0.655   5.174
  970SOL    HW1 3809   6.277   0.579   5.135
  970SOL    HW2 3810   6.132   0.625   5.196
  971SOL     OW 3811   6.919   4.610   2.852
  971SOL    HW1 3812   6.909   4.703   2.817
  971SOL    HW2 3813   6.979   4.610   2.932
  972SOL     OW 3814   6.717   2.661   0.894
  972SOL    HW1 3815   6.634   2.608   0.913
  972SOL    HW2 3816   6.703   2.755   0.924
  973SOL     OW 3817   0.346   4.342   5.784
  973SOL    HW1 3818   0.407   4.420   5.802
  973SOL    HW2 3819   0.251   4.372   5.790
  974SOL     OW 3820   0.688   4.853   3.943
  974SOL    HW1 3821   0.703   4.768   3.893
  974SOL    HW2 3822   0.590   4.871   3.949
  975SOL     OW 3823   1.971   6.540   1.676
  975SOL    HW1 3824   1.968   6.615   1.611
  975SOL    HW2 3825   2.000   6.575   1.766
  976SOL     OW 3826   6.425   4.224   1.893
  976SOL    HW1 3827   6.437   4.170   1.809
  976SOL    HW2 3828   6.351   4.183   1.948
  977SOL     OW 3829   1.105   1.078   2.542
  977SOL    HW1 3830   1.124   1.006   2.475
  977SOL    HW2 3831   1.012   1.113   2.527
  978SOL     OW 3832   5.902   1.928   1.737
  978SOL    HW1 3833   5.969   1.972   1.678
  978SOL    HW2 3834   5.811   1.967   1.719
  979SOL     OW 3835   6.966   3.485   6.394
  979SOL    HW1 3836   6.983   3.401   6.447
  979SOL    HW2 3837   6.957   3.462   6.297
  980SOL     OW 3838   3.896   1.221   4.642
  980SOL    HW1 3839   3.881   1.320   4.649
  980SOL    HW2 3840   3.845   1.185   4.564
  981SOL     OW 3841   6.884   0.351   4.755
  981SOL    HW1 3842   6.908   0.391   4.843
  981SOL    HW2 3843   6.842   0.261   4.769
  982SOL     OW 3844   0.410   1.750   5.479
  982SOL    HW1 3845   0.480   1.818   5.456
  982SOL    HW2 3846   0.421   1.722   5.574
  983SOL     OW 3847   0.164   3.680   3.371
  983SOL    HW1 3848   0.125   3.654   3.460
  983SOL    HW2 3849   0.139   3.613   3.302
  984SOL     OW 3850   1.783   2.289   3.109
  984SOL    HW1 3851   1.714   2.220   3.131
  984SOL    HW2 3852   1.775   2.366   3.172
  985SOL     OW 3853   5.937   3.514   3.899
  985SOL    HW1 3854   5.934   3.528   3.800
  985SOL    HW2 3855   5.857   3.558   3.940
  986SOL     OW 3856   4.742   4.139   1.462
  986SOL    HW1 3857   4.701   4.169   1.548
  986SOL    HW2 3858   4.670   4.112   1.399
  987SOL     OW 3859   5.632   5.759   3.639
  987SOL    HW1 3860   5.611   5.722   3.549
  987SOL    HW2 3861   5.606   5.693   3.710
  988SOL     OW 3862   3.669   3.955   1.690
  988SOL    HW1 3863   3.700   3.913   1.775
  988SOL    HW2 3864   3.629   4.044   1.709
  989SOL     OW 3865   0.426   2.535   0.410
  989SOL    HW1 3866   0.463   2.528   0.503
  989SOL    HW2 3867   0.389   2.627   0.397
  990SOL     OW 3868   3.500   0.986   3.137
  990SOL    HW1 3869   3.482   1.073   3.090
  990SOL    HW2 3870   3.581   0.943   3.096
  991SOL     OW 3871   6.607   3.878   4.063
  991SOL    HW1 3872   6.644   3.812   3.997
  991SOL    HW2 3873   6.515   3.850   4.089
  992SOL     OW 3874   1.186   2.794   1.283
  992SOL    HW1 3875   1.106   2.783   1.343
  992SOL    HW2 3876   1.206   2.891   1.272
  993SOL     OW 3877   1.404   4.424   1.048
  993SOL    HW1 3878   1.371   4.363   1.121
  993SOL    HW2 3879   1.481   4.381   1.002
  994SOL     OW 3880   3.558   6.524   1.403
  994SOL    HW1 3881   3.493   6.471   1.457
  994SOL    HW2 3882   3.510   6.566   1.326
  995SOL     OW 3883   4.950   3.472   5.724
  995SOL    HW1 3884   5.026   3.417   5.758
  995SOL    HW2 3885   4.895   3.418   5.661
  996SOL     OW 3886   4.503   6.162   5.612
  996SOL    HW1 3887   4.587   6.145   5.560
  996SOL    HW2 3888   4.424   6.137   5.557
  997SOL     OW 3889   1.585   6.912   3.511
  997SOL    HW1 3890   1.556   6.818   3.497
  997SOL    HW2 3891   1.684   6.918   3.497
  998SOL     OW 3892   6.245   0.221   6.083
  998SOL    HW1 3893   6.269   0.185   6.173
  998SOL    HW2 3894   6.237   0.321   6.089
  999SOL     OW 3895   4.826   3.411   1.341
  999SOL    HW1 3896   4.924   3.393   1.347
  999SOL    HW2 3897   4.801   3.430   1.246
 1000SOL     OW 3898   4.029   1.547   1.118
 1000SOL    HW1 3899   4.002   1.641   1.097
 1000SOL    HW2 3900   4.058   1.502   1.033
 1001SOL     OW 3901   2.964   6.442   2.119
 1001SOL    HW1 3902   2.871   6.430   2.084
 1001SOL    HW2 3903   2.990   6.363   2.174
 1002SOL     OW 3904   4.937   2.674   1.753
 1002SOL    HW1 3905   4.933   2.771   1.776
 1002SOL    HW2 3906   4.933   2.620   1.837
 1003SOL     OW 3907   1.371   5.950   2.742
 1003SOL    HW1 3908   1.316   5.869   2.722
 1003SOL    HW2 3909   1.465   5.934   2.710
 1004SOL     OW 3910   6.627   1.764   3.156
 1004SOL    HW1 3911   6.707   1.804   3.112
 1004SOL    HW2 3912   6.558   1.743   3.087
 1005SOL     OW 3913   1.499   4.555   4.240
 1005SOL    HW1 3914   1.580   4.502   4.264
 1005SOL    HW2 3915   1.480   4.545   4.143
 1006SOL     OW 3916   2.242   4.171   0.354
 1006SOL    HW1 3917   2.310   4.142   0.421
 1006SOL    HW2 3918   2.151   4.166   0.395
 1007SOL     OW 3919   4.507   1.707   6.979
 1007SOL    HW1 3920   4.462   1.626   6.942
 1007SOL    HW2 3921   4.603   1.706   6.951
 1008SOL     OW 3922   0.686   4.816   5.036
 1008SOL    HW1 3923   0.712   4.894   5.093
 1008SOL    HW2 3924   0.638   4.849   4.954
 1009SOL     OW 3925   6.095   4.885   5.406
 1009SOL    HW1 3926   6.124   4.954   5.472
 1009SOL    HW2 3927   5.997   4.868   5.416
 1010SOL     OW 3928   2.162   2.931   1.652
 1010SOL    HW1 3929   2.224   3.004   1.681
 1010SOL    HW2 3930   2.102   2.905   1.728
 1011SOL     OW 3931   0.832   5.212   2.603
 1011SOL    HW1 3932   0.741   5.185   2.633
 1011SOL    HW2 3933   0.825   5.264   2.517
 1012SOL     OW 3934   6.220   7.010   2.154
 1012SOL    HW1 3935   6.239   6.983   2.060
 1012SOL    HW2 3936   6.292   6.977   2.214
 1013SOL     OW 3937   6.790   0.951   6.155
 1013SOL    HW1 3938   6.762   1.041   6.122
 1013SOL    HW2 3939   6.890   0.947   6.157
 1014SOL     OW 3940   1.272   4.827   3.648
 1014SOL    HW1 3941   1.354   4.876   3.618
 1014SOL    HW2 3942   1.242   4.765   3.576
 1015SOL     OW 3943   3.039   0.101   6.354
 1015SOL    HW1 3944   3.134   0.133   6.363
 1015SOL    HW2 3945   3.014   0.048   6.435
 1016SOL     OW 3946   5.049   4.090   1.200
 1016SOL    HW1 3947   4.995   4.031   1.261
 1016SOL    HW2 3948   5.041   4.056   1.106
 1017SOL     OW 3949   1.912   1.774   1.611
 1017SOL    HW1 3950   1.938   1.696   1.668
 1017SOL    HW2 3951   1.910   1.746   1.515
 1018SOL     OW 3952   0.035   4.897   3.848
 1018SOL    HW1 3953   0.058   4.805   3.879
 1018SOL    HW2 3954   0.049   4.903   3.749
 1019SOL     OW 3955   6.733   5.023   0.683
 1019SOL    HW1 3956   6.762   5.010   0.778
 1019SOL    HW2 3957   6.772   4.951   0.626
 1020SOL     OW 3958   0.149   0.680   1.590
 1020SOL    HW1 3959   0.168   0.769   1.632
 1020SOL    HW2 3960   0.051   0.661   1.594
 1021SOL     OW 3961   6.619   5.806   1.968
 1021SOL    HW1 3962   6.620   5.898   2.009
 1021SOL    HW2 3963   6.666   5.742   2.029
 1022SOL     OW 3964   2.712   6.274   6.155
 1022SOL    HW1 3965   2.759   6.334   6.091
 1022SOL    HW2 3966   2.649   6.327   6.211
 1023SOL     OW 3967   6.857   1.351   2.590
 1023SOL    HW1 3968   6.837   1.428   2.529
 1023SOL    HW2 3969   6.773   1.299   2.605
 1024SOL     OW 3970   0.931   1.149   4.736
 1024SOL    HW1 3971   0.914   1.051   4.739
 1024SOL    HW2 3972   0.845   1.199   4.743
 1025SOL     OW 3973   5.172   3.647   6.400
 1025SOL    HW1 3974   5.157   3.684   6.309
 1025SOL    HW2 3975   5.199   3.720   6.462
 1026SOL     OW 3976   3.160   2.459   1.679
 1026SOL    HW1 3977   3.155   2.368   1.638
 1026SOL    HW2 3978   3.076   2.477   1.730
 1027SOL     OW 3979   1.345   5.998   1.776
 1027SOL    HW1 3980   1.309   5.907   1.757
 1027SOL    HW2 3981   1.271   6.065   1.769
 1028SOL     OW 3982   1.260   6.299   3.267
 1028SOL    HW1 3983   1.304   6.286   3.355
 1028SOL    HW2 3984   1.245   6.210   3.224
 1029SOL     OW 3985   1.119   2.118   5.689
 1029SOL    HW1 3986   1.098   2.172   5.770
 1029SOL    HW2 3987   1.042   2.123   5.625
 1030SOL     OW 3988   3.199   3.200   1.733
 1030SOL    HW1 3989   3.218   3.236   1.642
 1030SOL    HW2 3990   3.140   3.119   1.725
 1031SOL     OW 3991   3.556   3.342   1.646
 1031SOL    HW1 3992   3.513   3.265   1.693
 1031SOL    HW2 3993   3.643   3.311   1.606
 1032SOL     OW 3994   2.079   0.935   5.943
 1032SOL    HW1 3995   1.990   0.909   5.905
 1032SOL    HW2 3996   2.149   0.871   5.910
 1033SOL     OW 3997   1.070   5.823   2.102
 1033SOL    HW1 3998   1.074   5.724   2.112
 1033SOL    HW2 3999   0.989   5.858   2.149
 1034SOL     OW 4000   3.625   6.494   4.586
 1034SOL    HW1 4001   3.608   6.538   4.498
 1034SOL    HW2 4002   3.538   6.472   4.630
 1035SOL     OW 4003   0.531   2.266   5.551
 1035SOL    HW1 4004   0.519   2.328   5.629
 1035SOL    HW2 4005   0.457   2.198   5.552
 1036SOL     OW 4006   4.885   1.251   1.468
 1036SOL    HW1 4007   4.844   1.331   1.425
 1036SOL    HW2 4008   4.829   1.170   1.450
 1037SOL     OW 4009   2.107   2.220   2.789
 1037SOL    HW1 4010   2.082   2.316   2.776
 1037SOL    HW2 4011   2.054   2.163   2.726
 1038SOL     OW 4012   2.305   0.730   6.794
 1038SOL    HW1 4013   2.326   0.796   6.867
 1038SOL    HW2 4014   2.333   0.767   6.706
 1039SOL     OW 4015   3.065   3.101   3.733
 1039SOL    HW1 4016   3.014   3.176   3.776
 1039SOL    HW2 4017   3.000   3.038   3.690
 1040SOL     OW 4018   5.161   0.936   3.113
 1040SOL    HW1 4019   5.164   0.868   3.187
 1040SOL    HW2 4020   5.121   0.894   3.032
 1041SOL     OW 4021   6.795   6.110   4.757
 1041SOL    HW1 4022   6.794   6.090   4.659
 1041SOL    HW2 4023   6.845   6.038   4.805
 1042SOL     OW 4024   4.812   5.079   2.322
 1042SOL    HW1 4025   4.751   5.047   2.249
 1042SOL    HW2 4026   4.839   5.002   2.379
 1043SOL     OW 4027   3.401   1.234   3.356
 1043SOL    HW1 4028   3.422   1.295   3.280
 1043SOL    HW2 4029   3.302   1.223   3.363
 1044SOL     OW 4030   6.137   5.134   1.478
 1044SOL    HW1 4031   6.211   5.081   1.437
 1044SOL    HW2 4032   6.072   5.160   1.407
 1045SOL     OW 4033   2.177   0.190   3.583
 1045SOL    HW1 4034   2.186   0.096   3.550
 1045SOL    HW2 4035   2.163   0.189   3.682
 1046SOL     OW 4036   3.083   1.054   1.436
 1046SOL    HW1 4037   3.018   0.991   1.478
 1046SOL    HW2 4038   3.076   1.049   1.337
 1047SOL     OW 4039   3.510   6.643   3.749
 1047SOL    HW1 4040   3.428   6.656   3.694
 1047SOL    HW2 4041   3.553   6.556   3.724
 1048SOL     OW 4042   2.449   6.134   2.086
 1048SOL    HW1 4043   2.399   6.107   2.003
 1048SOL    HW2 4044   2.425   6.072   2.161
 1049SOL     OW 4045   4.159   6.975   4.357
 1049SOL    HW1 4046   4.199   6.915   4.426
 1049SOL    HW2 4047   4.161   6.929   4.268
 1050SOL     OW 4048   3.746   5.180   3.540
 1050SOL    HW1 4049   3.736   5.170   3.441
 1050SOL    HW2 4050   3.817   5.248   3.560
 1051SOL     OW 4051   0.056   6.608   0.015
 1051SOL    HW1 4052   0.007   6.581   0.098
 1051SOL    HW2 4053   7.019   6.605   6.961
 1052SOL     OW 4054   4.082   0.559   6.088
 1052SOL    HW1 4055   4.058   0.621   6.163
 1052SOL    HW2 4056   4.108   0.470   6.126
 1053SOL     OW 4057   5.787   3.443   2.116
 1053SOL    HW1 4058   5.857   3.411   2.180
 1053SOL    HW2 4059   5.822   3.521   2.065
 1054SOL     OW 4060   3.382   4.119   0.873
 1054SOL    HW1 4061   3.356   4.046   0.809
 1054SOL    HW2 4062   3.476   4.148   0.855
 1055SOL     OW 4063   4.949   5.711   7.021
 1055SOL    HW1 4064   5.045   5.734   7.008
 1055SOL    HW2 4065   4.941   5.617   0.030
 1056SOL     OW 4066   2.025   4.217   0.493
 1056SOL    HW1 4067   2.045   4.299   0.546
 1056SOL    HW2 4068   1.926   4.199   0.494
 1057SOL     OW 4069   3.497   1.595   1.852
 1057SOL    HW1 4070   3.477   1.498   1.864
 1057SOL    HW2 4071   3.483   1.643   1.938
 1058SOL     OW 4072   3.830   2.116   3.010
 1058SOL    HW1 4073   3.799   2.120   3.105
 1058SOL    HW2 4074   3.752   2.094   2.951
 1059SOL     OW 4075   2.199   6.360   1.995
 1059SOL    HW1 4076   2.221   6.336   2.090
 1059SOL    HW2 4077   2.100   6.367   1.984
 1060SOL     OW 4078   0.388   5.779   4.374
 1060SOL    HW1 4079   0.293   5.796   4.397
 1060SOL    HW2 4080   0.442   5.862   4.387
 1061SOL     OW 4081   6.431   4.138   6.894
 1061SOL    HW1 4082   6.451   4.051   6.939
 1061SOL    HW2 4083   6.334   4.144   6.874
 1062SOL     OW 4084   4.009   6.450   4.771
 1062SOL    HW1 4085   4.010   6.549   4.762
 1062SOL    HW2 4086   3.915   6.417   4.762
 1063SOL     OW 4087   1.084   6.815   6.002
 1063SOL    HW1 4088   1.178   6.849   5.997
 1063SOL    HW2 4089   1.020   6.893   6.002
 1064SOL     OW 4090   0.661   4.672   0.983
 1064SOL    HW1 4091   0.663   4.738   0.908
 1064SOL    HW2 4092   0.596   4.599   0.961
 1065SOL     OW 4093   4.004   1.034   3.952
 1065SOL    HW1 4094   3.949   0.977   4.013
 1065SOL    HW2 4095   4.052   0.975   3.887
 1066SOL     OW 4096   4.725   6.870   2.423
 1066SOL    HW1 4097   4.675   6.786   2.448
 1066SOL    HW2 4098   4.823   6.857   2.442
 1067SOL     OW 4099   2.490   1.101   0.357
 1067SOL    HW1 4100   2.463   1.195   0.337
 1067SOL    HW2 4101   2.415   1.039   0.334
 1068SOL     OW 4102   6.522   3.487   0.992
 1068SOL    HW1 4103   6.551   3.408   0.939
 1068SOL    HW2 4104   6.482   3.555   0.931
 1069SOL     OW 4105   5.764   4.748   0.651
 1069SOL    HW1 4106   5.798   4.740   0.557
 1069SOL    HW2 4107   5.664   4.747   0.651
 1070SOL     OW 4108   2.100   0.368   2.502
 1070SOL    HW1 4109   2.022   0.369   2.440
 1070SOL    HW2 4110   2.090   0.293   2.567
 1071SOL     OW 4111   6.967   2.249   5.084
 1071SOL    HW1 4112   6.967   2.188   5.005
 1071SOL    HW2 4113   6.991   2.197   5.166
 1072SOL     OW 4114   2.695   0.793   1.780
 1072SOL    HW1 4115   2.640   0.836   1.852
 1072SOL    HW2 4116   2.636   0.768   1.704
 1073SOL     OW 4117   5.475   1.551   3.230
 1073SOL    HW1 4118   5.448   1.602   3.312
 1073SOL    HW2 4119   5.439   1.598   3.149
 1074SOL     OW 4120   3.078   5.014   2.512
 1074SOL    HW1 4121   3.155   4.953   2.498
 1074SOL    HW2 4122   3.014   5.007   2.436
 1075SOL     OW 4123   5.695   2.060   5.123
 1075SOL    HW1 4124   5.708   2.158   5.135
 1075SOL    HW2 4125   5.760   2.010   5.180
 1076SOL     OW 4126   2.081   3.972   5.101
 1076SOL    HW1 4127   2.175   3.985   5.070
 1076SOL    HW2 4128   2.078   3.975   5.201
 1077SOL     OW 4129   6.923   0.555   0.366
 1077SOL    HW1 4130   6.936   0.651   0.340
 1077SOL    HW2 4131   6.844   0.548   0.427
 1078SOL     OW 4132   6.532   6.833   3.994
 1078SOL    HW1 4133   6.445   6.788   3.972
 1078SOL    HW2 4134   6.585   6.774   4.055
 1079SOL     OW 4135   1.105   5.650   2.733
 1079SOL    HW1 4136   1.037   5.577   2.723
 1079SOL    HW2 4137   1.174   5.641   2.662
 1080SOL     OW 4138   2.301   6.162   5.380
 1080SOL    HW1 4139   2.401   6.162   5.387
 1080SOL    HW2 4140   2.267   6.069   5.394
 1081SOL     OW 4141   6.770   5.753   4.633
 1081SOL    HW1 4142   6.773   5.843   4.589
 1081SOL    HW2 4143   6.684   5.743   4.684
 1082SOL     OW 4144   5.803   1.058   5.728
 1082SOL    HW1 4145   5.828   0.962   5.716
 1082SOL    HW2 4146   5.720   1.063   5.784
 1083SOL     OW 4147   5.142   4.415   0.461
 1083SOL    HW1 4148   5.104   4.370   0.542
 1083SOL    HW2 4149   5.162   4.346   0.391
 1084SOL     OW 4150   6.408   0.047   6.667
 1084SOL    HW1 4151   6.403   0.066   6.765
 1084SOL    HW2 4152   6.469   0.113   6.623
 1085SOL     OW 4153   1.873   3.538   4.338
 1085SOL    HW1 4154   1.896   3.580   4.249
 1085SOL    HW2 4155   1.953   3.490   4.373
 1086SOL     OW 4156   6.688   4.510   6.113
 1086SOL    HW1 4157   6.613   4.448   6.092
 1086SOL    HW2 4158   6.713   4.562   6.031
 1087SOL     OW 4159   1.258   0.826   5.360
 1087SOL    HW1 4160   1.171   0.778   5.369
 1087SOL    HW2 4161   1.261   0.874   5.272
 1088SOL     OW 4162   0.216   5.079   3.979
 1088SOL    HW1 4163   0.167   5.013   3.922
 1088SOL    HW2 4164   0.152   5.149   4.011
 1089SOL     OW 4165   0.023   4.985   5.051
 1089SOL    HW1 4166   6.980   5.056   5.029
 1089SOL    HW2 4167   0.107   5.002   5.000
 1090SOL     OW 4168   5.927   1.762   4.358
 1090SOL    HW1 4169   6.016   1.807   4.351
 1090SOL    HW2 4170   5.854   1.830   4.349
 1091SOL     OW 4171   2.131   3.544   3.819
 1091SOL    HW1 4172   2.160   3.524   3.912
 1091SOL    HW2 4173   2.136   3.642   3.803
 1092SOL     OW 4174   0.842   5.307   1.176
 1092SOL    HW1 4175   0.941   5.324   1.174
 1092SOL    HW2 4176   0.798   5.379   1.230
 1093SOL     OW 4177   2.347   6.609   1.333
 1093SOL    HW1 4178   2.364   6.537   1.399
 1093SOL    HW2 4179   2.431   6.660   1.316
 1094SOL     OW 4180   0.972   0.059   2.788
 1094SOL    HW1 4181   0.935   0.109   2.867
 1094SOL    HW2 4182   1.035   7.013   2.820
 1095SOL     OW 4183   0.231   2.583   6.309
 1095SOL    HW1 4184   0.152   2.533   6.274
 1095SOL    HW2 4185   0.205   2.678   6.329
 1096SOL     OW 4186   2.808   5.595   0.916
 1096SOL    HW1 4187   2.812   5.683   0.964
 1096SOL    HW2 4188   2.888   5.540   0.940
 1097SOL     OW 4189   2.129   5.309   3.797
 1097SOL    HW1 4190   2.066   5.320   3.874
 1097SOL    HW2 4191   2.105   5.227   3.746
 1098SOL     OW 4192   5.836   4.175   6.578
 1098SOL    HW1 4193   5.756   4.210   6.530
 1098SOL    HW2 4194   5.844   4.076   6.561
 1099SOL     OW 4195   4.283   1.620   6.155
 1099SOL    HW1 4196   4.293   1.708   6.109
 1099SOL    HW2 4197   4.344   1.553   6.114
 1100SOL     OW 4198   4.082   1.292   3.937
 1100SOL    HW1 4199   4.054   1.197   3.953
 1100SOL    HW2 4200   4.148   1.295   3.861
 1101SOL     OW 4201   5.698   3.134   5.207
 1101SOL    HW1 4202   5.694   3.035   5.203
 1101SOL    HW2 4203   5.793   3.164   5.209
 1102SOL     OW 4204   2.470   1.062   4.472
 1102SOL    HW1 4205   2.407   1.108   4.535
 1102SOL    HW2 4206   2.506   1.128   4.407
 1103SOL     OW 4207   2.617   1.680   6.653
 1103SOL    HW1 4208   2.525   1.716   6.636
 1103SOL    HW2 4209   2.683   1.755   6.647
 1104SOL     OW 4210   0.872   4.144   3.609
 1104SOL    HW1 4211   0.878   4.239   3.579
 1104SOL    HW2 4212   0.943   4.125   3.677
 1105SOL     OW 4213   5.443   1.876   5.335
 1105SOL    HW1 4214   5.500   1.943   5.383
 1105SOL    HW2 4215   5.502   1.812   5.286
 1106SOL     OW 4216   0.815   1.561   0.418
 1106SOL    HW1 4217   0.910   1.546   0.392
 1106SOL    HW2 4218   0.756   1.504   0.361
 1107SOL     OW 4219   1.374   0.680   6.429
 1107SOL    HW1 4220   1.383   0.613   6.355
 1107SOL    HW2 4221   1.371   0.772   6.390
 1108SOL     OW 4222   3.330   5.835   4.321
 1108SOL    HW1 4223   3.273   5.912   4.292
 1108SOL    HW2 4224   3.404   5.869   4.379
 1109SOL     OW 4225   5.900   1.456   3.731
 1109SOL    HW1 4226   5.884   1.496   3.641
 1109SOL    HW2 4227   5.900   1.356   3.724
 1110SOL     OW 4228   3.312   1.183   2.806
 1110SOL    HW1 4229   3.231   1.123   2.805
 1110SOL    HW2 4230   3.282   1.278   2.801
 1111SOL     OW 4231   4.511   4.330   6.231
 1111SOL    HW1 4232   4.485   4.426   6.247
 1111SOL    HW2 4233   4.486   4.305   6.137
 1112SOL     OW 4234   6.355   0.061   2.847
 1112SOL    HW1 4235   6.260   0.088   2.859
 1112SOL    HW2 4236   6.360   7.007   2.785
 1113SOL     OW 4237   6.337   3.775   2.673
 1113SOL    HW1 4238   6.428   3.739   2.696
 1113SOL    HW2 4239   6.269   3.703   2.684
 1114SOL     OW 4240   3.718   2.663   6.035
 1114SOL    HW1 4241   3.748   2.758   6.029
 1114SOL    HW2 4242   3.788   2.609   6.082
 1115SOL     OW 4243   3.401   4.231   5.659
 1115SOL    HW1 4244   3.501   4.231   5.660
 1115SOL    HW2 4245   3.369   4.137   5.650
 1116SOL     OW 4246   5.013   1.438   0.279
 1116SOL    HW1 4247   4.958   1.477   0.205
 1116SOL    HW2 4248   5.109   1.461   0.265
 1117SOL     OW 4249   1.181   2.204   1.434
 1117SOL    HW1 4250   1.152   2.233   1.343
 1117SOL    HW2 4251   1.100   2.176   1.487
 1118SOL     OW 4252   2.754   5.911   6.673
 1118SOL    HW1 4253   2.832   5.949   6.722
 1118SOL    HW2 4254   2.786   5.839   6.610
 1119SOL     OW 4255   3.968   4.818   3.138
 1119SOL    HW1 4256   4.040   4.765   3.183
 1119SOL    HW2 4257   3.888   4.823   3.198
 1120SOL     OW 4258   6.362   5.725   1.376
 1120SOL    HW1 4259   6.458   5.754   1.378
 1120SOL    HW2 4260   6.357   5.629   1.347
 1121SOL     OW 4261   0.824   5.419   4.417
 1121SOL    HW1 4262   0.773   5.371   4.345
 1121SOL    HW2 4263   0.914   5.376   4.428
 1122SOL     OW 4264   5.510   3.200   1.767
 1122SOL    HW1 4265   5.427   3.168   1.813
 1122SOL    HW2 4266   5.495   3.293   1.732
 1123SOL     OW 4267   4.280   2.051   2.917
 1123SOL    HW1 4268   4.235   2.140   2.916
 1123SOL    HW2 4269   4.273   2.009   2.826
 1124SOL     OW 4270   1.522   2.860   5.134
 1124SOL    HW1 4271   1.563   2.925   5.071
 1124SOL    HW2 4272   1.439   2.821   5.093
 1125SOL     OW 4273   1.793   3.664   4.796
 1125SOL    HW1 4274   1.750   3.579   4.766
 1125SOL    HW2 4275   1.740   3.704   4.871
 1126SOL     OW 4276   4.044   5.787   5.717
 1126SOL    HW1 4277   4.047   5.884   5.695
 1126SOL    HW2 4278   4.052   5.733   5.633
 1127SOL     OW 4279   5.299   6.325   3.701
 1127SOL    HW1 4280   5.216   6.378   3.716
 1127SOL    HW2 4281   5.301   6.247   3.763
 1128SOL     OW 4282   6.132   0.906   3.626
 1128SOL    HW1 4283   6.147   0.981   3.690
 1128SOL    HW2 4284   6.035   0.904   3.600
 1129SOL     OW 4285   1.721   6.391   1.089
 1129SOL    HW1 4286   1.696   6.488   1.088
 1129SOL    HW2 4287   1.662   6.341   1.026
 1130SOL     OW 4288   1.683   5.475   2.438
 1130SOL    HW1 4289   1.691   5.384   2.396
 1130SOL    HW2 4290   1.731   5.475   2.526
 1131SOL     OW 4291   1.279   0.016   4.000
 1131SOL    HW1 4292   1.257   6.948   3.971
 1131SOL    HW2 4293   1.258   0.080   3.926
 1132SOL     OW 4294   4.888   0.947   2.453
 1132SOL    HW1 4295   4.828   0.927   2.530
 1132SOL    HW2 4296   4.982   0.922   2.477
 1133SOL     OW 4297   1.450   0.288   5.057
 1133SOL    HW1 4298   1.358   0.252   5.044
 1133SOL    HW2 4299   1.514   0.237   4.999
 1134SOL     OW 4300   4.534   6.760   2.125
 1134SOL    HW1 4301   4.609   6.819   2.095
 1134SOL    HW2 4302   4.502   6.790   2.215
 1135SOL     OW 4303   2.412   6.497   3.957
 1135SOL    HW1 4304   2.493   6.551   3.979
 1135SOL    HW2 4305   2.438   6.423   3.894
 1136SOL     OW 4306   2.973   6.259   2.562
 1136SOL    HW1 4307   3.068   6.275   2.536
 1136SOL    HW2 4308   2.935   6.340   2.607
 1137SOL     OW 4309   0.648   6.518   6.833
 1137SOL    HW1 4310   0.553   6.522   6.802
 1137SOL    HW2 4311   0.650   6.515   6.933
 1138SOL     OW 4312   1.849   3.381   5.506
 1138SOL    HW1 4313   1.821   3.287   5.529
 1138SOL    HW2 4314   1.948   3.389   5.518
 1139SOL     OW 4315   2.437   4.557   3.922
 1139SOL    HW1 4316   2.436   4.602   3.832
 1139SOL    HW2 4317   2.418   4.460   3.910
 1140SOL     OW 4318   1.860   1.256   1.721
 1140SOL    HW1 4319   1.782   1.213   1.676
 1140SOL    HW2 4320   1.941   1.249   1.662
 1141SOL     OW 4321   6.079   5.542   5.937
 1141SOL    HW1 4322   6.028   5.459   5.917
 1141SOL    HW2 4323   6.092   5.551   6.036
 1142SOL     OW 4324   2.468   0.193   3.726
 1142SOL    HW1 4325   2.527   0.192   3.645
 1142SOL    HW2 4326   2.490   0.114   3.784
 1143SOL     OW 4327   1.270   3.552   1.787
 1143SOL    HW1 4328   1.356   3.540   1.837
 1143SOL    HW2 4329   1.196   3.565   1.853
 1144SOL     OW 4330   5.285   4.450   2.717
 1144SOL    HW1 4331   5.197   4.498   2.712
 1144SOL    HW2 4332   5.358   4.517   2.733
 1145SOL     OW 4333   1.460   2.298   0.766
 1145SOL    HW1 4334   1.372   2.285   0.813
 1145SOL    HW2 4335   1.534   2.283   0.831
 1146SOL     OW 4336   0.578   1.638   1.577
 1146SOL    HW1 4337   0.560   1.733   1.550
 1146SOL    HW2 4338   0.676   1.619   1.569
 1147SOL     OW 4339   3.229   5.663   1.265
 1147SOL    HW1 4340   3.230   5.623   1.357
 1147SOL    HW2 4341   3.181   5.751   1.268
 1148SOL     OW 4342   4.177   6.152   2.025
 1148SOL    HW1 4343   4.277   6.149   2.034
 1148SOL    HW2 4344   4.153   6.182   1.933
 1149SOL     OW 4345   6.407   2.825   1.730
 1149SOL    HW1 4346   6.462   2.902   1.699
 1149SOL    HW2 4347   6.466   2.755   1.768
 1150SOL     OW 4348   1.093   4.544   0.140
 1150SOL    HW1 4349   1.059   4.520   0.049
 1150SOL    HW2 4350   1.018   4.542   0.206
 1151SOL     OW 4351   6.410   5.585   3.974
 1151SOL    HW1 4352   6.499   5.539   3.980
 1151SOL    HW2 4353   6.338   5.517   3.965
 1152SOL     OW 4354   4.710   0.468   0.098
 1152SOL    HW1 4355   4.680   0.390   0.043
 1152SOL    HW2 4356   4.647   0.544   0.085
 1153SOL     OW 4357   0.021   6.852   1.345
 1153SOL    HW1 4358   6.955   6.892   1.360
 1153SOL    HW2 4359   0.031   6.824   1.250
 1154SOL     OW 4360   1.161   3.458   2.260
 1154SOL    HW1 4361   1.242   3.494   2.214
 1154SOL    HW2 4362   1.128   3.377   2.212
 1155SOL     OW 4363   2.328   6.553   4.913
 1155SOL    HW1 4364   2.254   6.587   4.854
 1155SOL    HW2 4365   2.388   6.629   4.938
 1156SOL     OW 4366   4.130   1.723   4.778
 1156SOL    HW1 4367   4.093   1.798   4.832
 1156SOL    HW2 4368   4.156   1.756   4.687
 1157SOL     OW 4369   4.174   0.524   5.308
 1157SOL    HW1 4370   4.155   0.614   5.269
 1157SOL    HW2 4371   4.163   0.528   5.408
 1158SOL     OW 4372   4.840   5.792   4.212
 1158SOL    HW1 4373   4.809   5.719   4.151
 1158SOL    HW2 4374   4.890   5.860   4.159
 1159SOL     OW 4375   6.310   6.316   3.192
 1159SOL    HW1 4376   6.276   6.385   3.128
 1159SOL    HW2 4377   6.249   6.237   3.192
 1160SOL     OW 4378   4.288   6.755   1.279
 1160SOL    HW1 4379   4.303   6.854   1.277
 1160SOL    HW2 4380   4.279   6.724   1.374
 1161SOL     OW 4381   6.547   5.246   6.061
 1161SOL    HW1 4382   6.452   5.238   6.031
 1161SOL    HW2 4383   6.558   5.205   6.151
 1162SOL     OW 4384   1.808   2.716   5.755
 1162SOL    HW1 4385   1.832   2.750   5.846
 1162SOL    HW2 4386   1.847   2.625   5.742
 1163SOL     OW 4387   5.957   4.218   1.786
 1163SOL    HW1 4388   5.857   4.220   1.788
 1163SOL    HW2 4389   5.991   4.304   1.749
 1164SOL     OW 4390   5.479   2.268   4.500
 1164SOL    HW1 4391   5.400   2.223   4.542
 1164SOL    HW2 4392   5.498   2.353   4.548
 1165SOL     OW 4393   4.790   6.179   3.444
 1165SOL    HW1 4394   4.870   6.228   3.411
 1165SOL    HW2 4395   4.812   6.132   3.530
 1166SOL     OW 4396   2.038   6.624   6.675
 1166SOL    HW1 4397   2.072   6.531   6.661
 1166SOL    HW2 4398   1.939   6.622   6.688
 1167SOL     OW 4399   4.877   3.827   1.862
 1167SOL    HW1 4400   4.888   3.866   1.953
 1167SOL    HW2 4401   4.871   3.901   1.794
 1168SOL     OW 4402   6.221   2.454   2.353
 1168SOL    HW1 4403   6.181   2.521   2.415
 1168SOL    HW2 4404   6.157   2.377   2.342
 1169SOL     OW 4405   6.113   1.462   5.399
 1169SOL    HW1 4406   6.109   1.546   5.345
 1169SOL    HW2 4407   6.068   1.477   5.487
 1170SOL     OW 4408   4.748   6.953   2.990
 1170SOL    HW1 4409   4.686   0.008   2.988
 1170SOL    HW2 4410   4.770   6.931   3.085
 1171SOL     OW 4411   2.075   0.019   0.391
 1171SOL    HW1 4412   1.998   0.069   0.350
 1171SOL    HW2 4413   2.063   0.013   0.490
 1172SOL     OW 4414   5.496   3.299   0.540
 1172SOL    HW1 4415   5.469   3.247   0.458
 1172SOL    HW2 4416   5.504   3.396   0.517
 1173SOL     OW 4417   2.410   0.343   1.107
 1173SOL    HW1 4418   2.351   0.366   1.185
 1173SOL    HW2 4419   2.420   0.424   1.049
 1174SOL     OW 4420   3.500   3.707   1.584
 1174SOL    HW1 4421   3.530   3.801   1.596
 1174SOL    HW2 4422   3.527   3.652   1.663
 1175SOL     OW 4423   4.501   3.163   5.595
 1175SOL    HW1 4424   4.469   3.162   5.501
 1175SOL    HW2 4425   4.520   3.070   5.626
 1176SOL     OW 4426   4.610   3.269   5.971
 1176SOL    HW1 4427   4.510   3.276   5.970
 1176SOL    HW2 4428   4.637   3.173   5.980
 1177SOL     OW 4429   6.418   2.546   5.347
 1177SOL    HW1 4430   6.428   2.557   5.446
 1177SOL    HW2 4431   6.503   2.507   5.310
 1178SOL     OW 4432   2.764   4.067   0.765
 1178SOL    HW1 4433   2.782   3.969   0.757
 1178SOL    HW2 4434   2.815   4.116   0.695
 1179SOL     OW 4435   1.954   6.258   0.284
 1179SOL    HW1 4436   1.991   6.231   0.373
 1179SOL    HW2 4437   1.991   6.348   0.259
 1180SOL     OW 4438   3.069   5.551   2.306
 1180SOL    HW1 4439   3.079   5.583   2.400
 1180SOL    HW2 4440   3.007   5.473   2.303
 1181SOL     OW 4441   0.297   5.650   6.417
 1181SOL    HW1 4442   0.319   5.580   6.348
 1181SOL    HW2 4443   0.259   5.606   6.498
 1182SOL     OW 4444   3.978   5.699   3.403
 1182SOL    HW1 4445   3.916   5.620   3.397
 1182SOL    HW2 4446   3.968   5.755   3.321
 1183SOL     OW 4447   1.954   4.666   0.536
 1183SOL    HW1 4448   2.019   4.696   0.606
 1183SOL    HW2 4449   1.861   4.678   0.570
 1184SOL     OW 4450   0.540   0.236   4.638
 1184SOL    HW1 4451   0.609   0.172   4.671
 1184SOL    HW2 4452   0.487   0.192   4.565
 1185SOL     OW 4453   0.447   0.831   6.742
 1185SOL    HW1 4454   0.415   0.810   6.835
 1185SOL    HW2 4455   0.539   0.869   6.746
 1186SOL     OW 4456   4.959   5.341   4.686
 1186SOL    HW1 4457   4.957   5.379   4.593
 1186SOL    HW2 4458   4.949   5.242   4.682
 1187SOL     OW 4459   6.376   6.490   6.895
 1187SOL    HW1 4460   6.338   6.574   6.857
 1187SOL    HW2 4461   6.474   6.501   6.910
 1188SOL     OW 4462   3.404   6.276   5.027
 1188SOL    HW1 4463   3.371   6.339   5.096
 1188SOL    HW2 4464   3.342   6.198   5.020
 1189SOL     OW 4465   6.743   3.055   2.772
 1189SOL    HW1 4466   6.750   3.154   2.763
 1189SOL    HW2 4467   6.763   3.012   2.684
 1190SOL     OW 4468   2.780   6.367   3.363
 1190SOL    HW1 4469   2.771   6.424   3.281
 1190SOL    HW2 4470   2.690   6.331   3.388
 1191SOL     OW 4471   4.727   5.086   3.406
 1191SOL    HW1 4472   4.648   5.118   3.353
 1191SOL    HW2 4473   4.762   5.002   3.365
 1192SOL     OW 4474   3.612   5.375   3.258
 1192SOL    HW1 4475   3.675   5.427   3.200
 1192SOL    HW2 4476   3.528   5.356   3.206
 1193SOL     OW 4477   6.066   4.036   4.502
 1193SOL    HW1 4478   6.131   4.018   4.577
 1193SOL    HW2 4479   6.059   4.135   4.488
 1194SOL     OW 4480   5.584   6.757   1.778
 1194SOL    HW1 4481   5.498   6.730   1.734
 1194SOL    HW2 4482   5.618   6.682   1.835
 1195SOL     OW 4483   6.087   4.424   1.696
 1195SOL    HW1 4484   6.144   4.397   1.619
 1195SOL    HW2 4485   6.005   4.471   1.662
 1196SOL     OW 4486   6.871   6.106   2.950
 1196SOL    HW1 4487   6.892   6.080   3.044
 1196SOL    HW2 4488   6.924   6.187   2.925
 1197SOL     OW 4489   3.456   0.985   6.358
 1197SOL    HW1 4490   3.506   0.956   6.276
 1197SOL    HW2 4491   3.519   0.991   6.435
 1198SOL     OW 4492   1.156   3.038   1.696
 1198SOL    HW1 4493   1.202   3.121   1.727
 1198SOL    HW2 4494   1.057   3.049   1.706
 1199SOL     OW 4495   4.432   4.675   1.928
 1199SOL    HW1 4496   4.521   4.629   1.929
 1199SOL    HW2 4497   4.395   4.675   1.835
 1200SOL     OW 4498   3.229   3.472   3.095
 1200SOL    HW1 4499   3.321   3.472   3.056
 1200SOL    HW2 4500   3.166   3.517   3.032
 1201SOL     OW 4501   1.278   1.004   4.099
 1201SOL    HW1 4502   1.313   0.917   4.064
 1201SOL    HW2 4503   1.267   0.998   4.198
 1202SOL     OW 4504   0.826   5.860   6.423
 1202SOL    HW1 4505   0.745   5.803   6.436
 1202SOL    HW2 4506   0.903   5.802   6.393
 1203SOL     OW 4507   5.686   6.173   6.624
 1203SOL    HW1 4508   5.634   6.252   6.658
 1203SOL    HW2 4509   5.680   6.099   6.691
 1204SOL     OW 4510   2.793   6.967   1.298
 1204SOL    HW1 4511   2.869   0.008   1.288
 1204SOL    HW2 4512   2.820   6.879   1.259
 1205SOL     OW 4513   5.514   4.058   1.407
 1205SOL    HW1 4514   5.545   4.153   1.415
 1205SOL    HW2 4515   5.564   4.002   1.473
 1206SOL     OW 4516   3.129   2.887   5.157
 1206SOL    HW1 4517   3.091   2.908   5.067
 1206SOL    HW2 4518   3.061   2.910   5.228
 1207SOL     OW 4519   1.929   0.049   0.886
 1207SOL    HW1 4520   1.903   6.978   0.897
 1207SOL    HW2 4521   1.964   0.085   0.973
 1208SOL     OW 4522   3.443   4.105   0.375
 1208SOL    HW1 4523   3.453   4.202   0.399
 1208SOL    HW2 4524   3.374   4.063   0.433
 1209SOL     OW 4525   3.809   0.717   5.440
 1209SOL    HW1 4526   3.808   0.808   5.399
 1209SOL    HW2 4527   3.814   0.648   5.368
 1210SOL     OW 4528   2.499   7.000   3.138
 1210SOL    HW1 4529   2.592   6.973   3.114
 1210SOL    HW2 4530   2.482   0.069   3.107
 1211SOL     OW 4531   1.811   3.628   1.229
 1211SOL    HW1 4532   1.909   3.625   1.211
 1211SOL    HW2 4533   1.768   3.696   1.169
 1212SOL     OW 4534   0.090   0.682   6.185
 1212SOL    HW1 4535   0.036   0.620   6.242
 1212SOL    HW2 4536   0.185   0.682   6.216
 1213SOL     OW 4537   6.333   2.462   0.462
 1213SOL    HW1 4538   6.370   2.523   0.392
 1213SOL    HW2 4539   6.361   2.368   0.442
 1214SOL     OW 4540   0.004   2.551   0.087
 1214SOL    HW1 4541   0.024   2.481   0.156
 1214SOL    HW2 4542   0.090   2.583   0.046
 1215SOL     OW 4543   1.616   4.016   3.971
 1215SOL    HW1 4544   1.670   3.980   4.046
 1215SOL    HW2 4545   1.669   4.013   3.886
 1216SOL     OW 4546   4.526   0.691   0.384
 1216SOL    HW1 4547   4.552   0.640   0.302
 1216SOL    HW2 4548   4.553   0.787   0.374
 1217SOL     OW 4549   1.284   5.465   0.987
 1217SOL    HW1 4550   1.373   5.421   1.000
 1217SOL    HW2 4551   1.278   5.546   1.045
 1218SOL     OW 4552   1.707   4.913   4.525
 1218SOL    HW1 4553   1.689   4.824   4.567
 1218SOL    HW2 4554   1.771   4.965   4.582
 1219SOL     OW 4555   5.185   5.633   2.145
 1219SOL    HW1 4556   5.157   5.537   2.138
 1219SOL    HW2 4557   5.145   5.685   2.070
 1220SOL     OW 4558   0.937   5.411   3.179
 1220SOL    HW1 4559   0.874   5.333   3.180
 1220SOL    HW2 4560   0.885   5.496   3.179
 1221SOL     OW 4561   4.937   2.850   5.601
 1221SOL    HW1 4562   4.862   2.786   5.582
 1221SOL    HW2 4563   5.011   2.802   5.647
 1222SOL     OW 4564   6.104   6.941   6.926
 1222SOL    HW1 4565   6.077   0.000   6.974
 1222SOL    HW2 4566   6.037   6.920   6.854
 1223SOL     OW 4567   3.784   0.420   0.910
 1223SOL    HW1 4568   3.862   0.458   0.959
 1223SOL    HW2 4569   3.734   0.493   0.864
 1224SOL     OW 4570   2.215   6.550   0.834
 1224SOL    HW1 4571   2.117   6.561   0.853
 1224SOL    HW2 4572   2.261   6.515   0.915
 1225SOL     OW 4573   3.390   4.124   6.163
 1225SOL    HW1 4574   3.470   4.179   6.138
 1225SOL    HW2 4575   3.314   4.185   6.186
 1226SOL     OW 4576   2.475   4.571   0.823
 1226SOL    HW1 4577   2.532   4.634   0.875
 1226SOL    HW2 4578   2.533   4.506   0.774
 1227SOL     OW 4579   6.848   3.594   6.717
 1227SOL    HW1 4580   6.770   3.532   6.703
 1227SOL    HW2 4581   6.847   3.665   6.646
 1228SOL     OW 4582   3.706   3.518   6.044
 1228SOL    HW1 4583   3.632   3.536   6.109
 1228SOL    HW2 4584   3.668   3.479   5.960
 1229SOL     OW 4585   3.965   4.686   5.938
 1229SOL    HW1 4586   3.979   4.607   5.998
 1229SOL    HW2 4587   4.048   4.742   5.937
 1230SOL     OW 4588   4.464   0.906   4.568
 1230SOL    HW1 4589   4.401   0.832   4.542
 1230SOL    HW2 4590   4.551   0.867   4.596
 1231SOL     OW 4591   1.132   3.853   5.200
 1231SOL    HW1 4592   1.083   3.802   5.271
 1231SOL    HW2 4593   1.195   3.792   5.152
 1232SOL     OW 4594   1.163   1.846   5.143
 1232SOL    HW1 4595   1.196   1.864   5.050
 1232SOL    HW2 4596   1.218   1.774   5.184
 1233SOL     OW 4597   1.989   3.109   5.158
 1233SOL    HW1 4598   1.898   3.143   5.136
 1233SOL    HW2 4599   2.058   3.171   5.121
 1234SOL     OW 4600   6.905   4.359   4.207
 1234SOL    HW1 4601   6.932   4.386   4.115
 1234SOL    HW2 4602   6.917   4.260   4.217
 1235SOL     OW 4603   6.869   6.181   2.145
 1235SOL    HW1 4604   6.952   6.129   2.127
 1235SOL    HW2 4605   6.881   6.237   2.227
 1236SOL     OW 4606   5.510   1.115   6.449
 1236SOL    HW1 4607   5.416   1.141   6.470
 1236SOL    HW2 4608   5.514   1.018   6.426
 1237SOL     OW 4609   2.449   5.078   6.457
 1237SOL    HW1 4610   2.448   5.146   6.384
 1237SOL    HW2 4611   2.356   5.043   6.470
 1238SOL     OW 4612   2.433   0.633   1.194
 1238SOL    HW1 4613   2.529   0.622   1.217
 1238SOL    HW2 4614   2.420   0.617   1.096
 1239SOL     OW 4615   6.563   6.055   6.433
 1239SOL    HW1 4616   6.542   5.961   6.460
 1239SOL    HW2 4617   6.478   6.105   6.417
 1240SOL     OW 4618   5.913   6.174   1.866
 1240SOL    HW1 4619   5.967   6.194   1.948
 1240SOL    HW2 4620   5.955   6.217   1.787
 1241SOL     OW 4621   6.171   3.460   4.034
 1241SOL    HW1 4622   6.184   3.532   4.102
 1241SOL    HW2 4623   6.087   3.478   3.982
 1242SOL     OW 4624   1.660   3.884   0.259
 1242SOL    HW1 4625   1.607   3.897   0.176
 1242SOL    HW2 4626   1.677   3.787   0.273
 1243SOL     OW 4627   1.682   5.754   5.647
 1243SOL    HW1 4628   1.688   5.800   5.736
 1243SOL    HW2 4629   1.723   5.663   5.653
 1244SOL     OW 4630   0.251   6.616   2.877
 1244SOL    HW1 4631   0.250   6.651   2.971
 1244SOL    HW2 4632   0.301   6.680   2.819
 1245SOL     OW 4633   3.768   3.754   6.313
 1245SOL    HW1 4634   3.682   3.805   6.317
 1245SOL    HW2 4635   3.836   3.807   6.264
 1246SOL     OW 4636   2.258   6.588   2.197
 1246SOL    HW1 4637   2.166   6.580   2.158
 1246SOL    HW2 4638   2.286   6.500   2.237
 1247SOL     OW 4639   2.811   0.663   6.825
 1247SOL    HW1 4640   2.756   0.680   6.907
 1247SOL    HW2 4641   2.883   0.732   6.819
 1248SOL     OW 4642   1.716   6.676   3.795
 1248SOL    HW1 4643   1.728   6.617   3.875
 1248SOL    HW2 4644   1.695   6.769   3.826
 1249SOL     OW 4645   5.688   2.875   2.215
 1249SOL    HW1 4646   5.639   2.790   2.236
 1249SOL    HW2 4647   5.623   2.941   2.178
 1250SOL     OW 4648   0.988   4.718   4.464
 1250SOL    HW1 4649   1.080   4.686   4.440
 1250SOL    HW2 4650   0.987   4.748   4.559
 1251SOL     OW 4651   4.080   0.424   4.612
 1251SOL    HW1 4652   4.163   0.477   4.595
 1251SOL    HW2 4653   4.096   0.328   4.592
 1252SOL     OW 4654   3.552   3.601   5.781
 1252SOL    HW1 4655   3.617   3.650   5.724
 1252SOL    HW2 4656   3.461   3.607   5.740
 1253SOL     OW 4657   3.805   5.836   1.919
 1253SOL    HW1 4658   3.803   5.924   1.872
 1253SOL    HW2 4659   3.900   5.804   1.924
 1254SOL     OW 4660   6.193   2.656   2.569
 1254SOL    HW1 4661   6.208   2.721   2.494
 1254SOL    HW2 4662   6.193   2.706   2.656
 1255SOL     OW 4663   6.523   0.692   5.098
 1255SOL    HW1 4664   6.449   0.758   5.106
 1255SOL    HW2 4665   6.582   0.698   5.180
 1256SOL     OW 4666   6.975   6.988   3.424
 1256SOL    HW1 4667   6.905   0.017   3.472
 1256SOL    HW2 4668   7.019   0.021   3.355
 1257SOL     OW 4669   0.180   0.411   2.973
 1257SOL    HW1 4670   0.166   0.503   2.938
 1257SOL    HW2 4671   0.098   0.356   2.958
 1258SOL     OW 4672   0.842   5.501   3.471
 1258SOL    HW1 4673   0.882   5.423   3.518
 1258SOL    HW2 4674   0.889   5.515   3.384
 1259SOL     OW 4675   4.004   1.436   5.011
 1259SOL    HW1 4676   4.092   1.414   4.971
 1259SOL    HW2 4677   3.946   1.354   5.011
 1260SOL     OW 4678   0.805   1.327   6.752
 1260SOL    HW1 4679   0.769   1.272   6.677
 1260SOL    HW2 4680   0.903   1.307   6.764
 1261SOL     OW 4681   6.993   5.579   0.363
 1261SOL    HW1 4682   7.003   5.481   0.376
 1261SOL    HW2 4683   6.962   5.597   0.269
 1262SOL     OW 4684   5.473   5.762   2.178
 1262SOL    HW1 4685   5.554   5.704   2.176
 1262SOL    HW2 4686   5.391   5.705   2.181
 1263SOL     OW 4687   0.720   1.631   2.235
 1263SOL    HW1 4688   0.777   1.707   2.266
 1263SOL    HW2 4689   0.663   1.600   2.311
 1264SOL     OW 4690   0.844   4.065   5.369
 1264SOL    HW1 4691   0.937   4.057   5.406
 1264SOL    HW2 4692   0.789   3.987   5.397
 1265SOL     OW 4693   6.197   5.619   4.614
 1265SOL    HW1 4694   6.199   5.547   4.684
 1265SOL    HW2 4695   6.283   5.670   4.616
 1266SOL     OW 4696   0.858   0.843   4.832
 1266SOL    HW1 4697   0.950   0.820   4.799
 1266SOL    HW2 4698   0.825   0.771   4.894
 1267SOL     OW 4699   4.971   0.528   2.051
 1267SOL    HW1 4700   4.907   0.452   2.060
 1267SOL    HW2 4701   5.002   0.535   1.956
 1268SOL     OW 4702   4.224   2.445   5.450
 1268SOL    HW1 4703   4.178   2.473   5.534
 1268SOL    HW2 4704   4.182   2.490   5.371
 1269SOL     OW 4705   5.136   2.239   4.267
 1269SOL    HW1 4706   5.088   2.226   4.181
 1269SOL    HW2 4707   5.180   2.329   4.268
 1270SOL     OW 4708   2.008   4.687   2.918
 1270SOL    HW1 4709   2.082   4.694   2.851
 1270SOL    HW2 4710   2.022   4.608   2.977
 1271SOL     OW 4711   2.107   0.846   1.105
 1271SOL    HW1 4712   2.114   0.944   1.124
 1271SOL    HW2 4713   2.138   0.794   1.185
 1272SOL     OW 4714   6.483   3.866   6.543
 1272SOL    HW1 4715   6.389   3.834   6.547
 1272SOL    HW2 4716   6.517   3.880   6.636
 1273SOL     OW 4717   1.316   4.453   4.997
 1273SOL    HW1 4718   1.247   4.454   5.069
 1273SOL    HW2 4719   1.292   4.386   4.927
 1274SOL     OW 4720   0.224   4.490   1.799
 1274SOL    HW1 4721   0.234   4.432   1.879
 1274SOL    HW2 4722   0.128   4.493   1.771
 1275SOL     OW 4723   3.472   1.004   3.938
 1275SOL    HW1 4724   3.564   0.992   3.903
 1275SOL    HW2 4725   3.405   0.984   3.866
 1276SOL     OW 4726   5.607   4.589   4.038
 1276SOL    HW1 4727   5.598   4.615   3.942
 1276SOL    HW2 4728   5.618   4.671   4.094
 1277SOL     OW 4729   0.844   5.871   0.071
 1277SOL    HW1 4730   0.788   5.912   7.023
 1277SOL    HW2 4731   0.847   5.934   0.149
 1278SOL     OW 4732   1.532   6.942   3.091
 1278SOL    HW1 4733   1.474   7.013   3.132
 1278SOL    HW2 4734   1.520   6.943   2.992
 1279SOL     OW 4735   2.830   3.864   6.424
 1279SOL    HW1 4736   2.786   3.953   6.411
 1279SOL    HW2 4737   2.778   3.794   6.376
 1280SOL     OW 4738   3.246   0.842   3.706
 1280SOL    HW1 4739   3.166   0.898   3.726
 1280SOL    HW2 4740   3.294   0.880   3.627
 1281SOL     OW 4741   3.528   6.024   3.764
 1281SOL    HW1 4742   3.573   6.082   3.832
 1281SOL    HW2 4743   3.576   5.937   3.758
 1282SOL     OW 4744   6.899   3.004   0.748
 1282SOL    HW1 4745   6.807   2.976   0.724
 1282SOL    HW2 4746   6.941   2.935   0.807
 1283SOL     OW 4747   6.657   3.885   5.405
 1283SOL    HW1 4748   6.628   3.961   5.463
 1283SOL    HW2 4749   6.588   3.813   5.407
 1284SOL     OW 4750   3.809   1.366   1.136
 1284SOL    HW1 4751   3.850   1.445   1.091
 1284SOL    HW2 4752   3.836   1.364   1.232
 1285SOL     OW 4753   3.415   1.556   4.752
 1285SOL    HW1 4754   3.463   1.630   4.705
 1285SOL    HW2 4755   3.355   1.508   4.688
 1286SOL     OW 4756   5.027   3.116   1.758
 1286SOL    HW1 4757   5.045   3.030   1.710
 1286SOL    HW2 4758   4.943   3.157   1.723
 1287SOL     OW 4759   5.866   4.770   5.227
 1287SOL    HW1 4760   5.951   4.815   5.199
 1287SOL    HW2 4761   5.840   4.802   5.318
 1288SOL     OW 4762   4.658   4.662   6.593
 1288SOL    HW1 4763   4.717   4.735   6.561
 1288SOL    HW2 4764   4.683   4.576   6.548
 1289SOL     OW 4765   6.409   0.792   1.286
 1289SOL    HW1 4766   6.356   0.828   1.209
 1289SOL    HW2 4767   6.441   0.867   1.343
 1290SOL     OW 4768   1.576   0.874   0.537
 1290SOL    HW1 4769   1.580   0.839   0.631
 1290SOL    HW2 4770   1.500   0.939   0.530
 1291SOL     OW 4771   6.472   4.875   3.441
 1291SOL    HW1 4772   6.469   4.964   3.487
 1291SOL    HW2 4773   6.474   4.889   3.342
 1292SOL     OW 4774   0.138   5.522   2.825
 1292SOL    HW1 4775   0.046   5.555   2.802
 1292SOL    HW2 4776   0.195   5.520   2.743
 1293SOL     OW 4777   2.315   1.835   6.727
 1293SOL    HW1 4778   2.306   1.821   6.629
 1293SOL    HW2 4779   2.289   1.752   6.776
 1294SOL     OW 4780   1.891   4.671   6.346
 1294SOL    HW1 4781   1.903   4.644   6.442
 1294SOL    HW2 4782   1.948   4.613   6.288
 1295SOL     OW 4783   0.282   3.552   0.892
 1295SOL    HW1 4784   0.368   3.550   0.944
 1295SOL    HW2 4785   0.302   3.567   0.795
 1296SOL     OW 4786   5.188   6.861   5.495
 1296SOL    HW1 4787   5.202   6.871   5.396
 1296SOL    HW2 4788   5.208   6.948   5.540
 1297SOL     OW 4789   0.945   0.277   2.977
 1297SOL    HW1 4790   0.852   0.315   2.968
 1297SOL    HW2 4791   1.011   0.353   2.982
 1298SOL     OW 4792   5.463   5.943   2.827
 1298SOL    HW1 4793   5.492   5.870   2.765
 1298SOL    HW2 4794   5.400   6.004   2.779
 1299SOL     OW 4795   2.216   3.156   4.273
 1299SOL    HW1 4796   2.248   3.066   4.243
 1299SOL    HW2 4797   2.229   3.165   4.372
 1300SOL     OW 4798   2.222   3.804   0.866
 1300SOL    HW1 4799   2.268   3.822   0.779
 1300SOL    HW2 4800   2.172   3.886   0.894
 1301SOL     OW 4801   0.710   0.744   1.502
 1301SOL    HW1 4802   0.734   0.647   1.500
 1301SOL    HW2 4803   0.701   0.774   1.597
 1302SOL     OW 4804   5.609   0.269   5.680
 1302SOL    HW1 4805   5.658   0.182   5.688
 1302SOL    HW2 4806   5.612   0.317   5.768
 1303SOL     OW 4807   3.917   6.531   1.901
 1303SOL    HW1 4808   3.983   6.576   1.962
 1303SOL    HW2 4809   3.898   6.591   1.823
 1304SOL     OW 4810   1.063   1.206   1.186
 1304SOL    HW1 4811   1.088   1.281   1.126
 1304SOL    HW2 4812   1.012   1.137   1.135
 1305SOL     OW 4813   5.055   4.697   6.189
 1305SOL    HW1 4814   5.004   4.652   6.262
 1305SOL    HW2 4815   5.153   4.690   6.208
 1306SOL     OW 4816   1.156   5.909   4.768
 1306SOL    HW1 4817   1.085   5.872   4.709
 1306SOL    HW2 4818   1.118   5.982   4.824
 1307SOL     OW 4819   1.594   3.116   3.824
 1307SOL    HW1 4820   1.523   3.183   3.802
 1307SOL    HW2 4821   1.674   3.132   3.766
 1308SOL     OW 4822   6.563   5.573   6.520
 1308SOL    HW1 4823   6.481   5.524   6.492
 1308SOL    HW2 4824   6.639   5.508   6.530
 1309SOL     OW 4825   5.023   4.744   5.774
 1309SOL    HW1 4826   5.103   4.781   5.728
 1309SOL    HW2 4827   5.048   4.662   5.826
 1310SOL     OW 4828   1.088   3.856   3.664
 1310SOL    HW1 4829   1.160   3.907   3.710
 1310SOL    HW2 4830   1.107   3.758   3.670
 1311SOL     OW 4831   6.303   5.858   0.055
 1311SOL    HW1 4832   6.401   5.839   0.052
 1311SOL    HW2 4833   6.251   5.775   0.036
 1312SOL     OW 4834   0.976   1.215   5.848
 1312SOL    HW1 4835   0.962   1.297   5.794
 1312SOL    HW2 4836   0.977   1.135   5.788
 1313SOL     OW 4837   6.073   4.911   3.727
 1313SOL    HW1 4838   6.154   4.878   3.774
 1313SOL    HW2 4839   6.017   4.964   3.790
 1314SOL     OW 4840   2.623   1.686   4.677
 1314SOL    HW1 4841   2.551   1.688   4.747
 1314SOL    HW2 4842   2.585   1.717   4.589
 1315SOL     OW 4843   6.777   0.842   3.849
 1315SOL    HW1 4844   6.791   0.892   3.764
 1315SOL    HW2 4845   6.699   0.780   3.840
 1316SOL     OW 4846   4.128   6.922   5.363
 1316SOL    HW1 4847   4.122   6.935   5.264
 1316SOL    HW2 4848   4.041   6.948   5.405
 1317SOL     OW 4849   2.876   3.889   6.091
 1317SOL    HW1 4850   2.967   3.875   6.129
 1317SOL    HW2 4851   2.878   3.874   5.992
 1318SOL     OW 4852   2.333   2.495   6.940
 1318SOL    HW1 4853   2.313   2.590   6.966
 1318SOL    HW2 4854   2.247   2.445   6.931
 1319SOL     OW 4855   6.994   6.147   0.204
 1319SOL    HW1 4856   6.912   6.101   0.239
 1319SOL    HW2 4857   6.970   6.203   0.125
 1320SOL     OW 4858   3.313   3.009   6.613
 1320SOL    HW1 4859   3.349   2.927   6.656
 1320SOL    HW2 4860   3.322   3.087   6.676
 1321SOL     OW 4861   4.970   1.753   6.857
 1321SOL    HW1 4862   4.876   1.756   6.891
 1321SOL    HW2 4863   4.971   1.712   6.765
 1322SOL     OW 4864   3.364   1.141   5.749
 1322SOL    HW1 4865   3.460   1.113   5.754
 1322SOL    HW2 4866   3.331   1.132   5.655
 1323SOL     OW 4867   3.310   6.896   0.619
 1323SOL    HW1 4868   3.372   6.974   0.627
 1323SOL    HW2 4869   3.341   6.822   0.678
 1324SOL     OW 4870   1.235   3.873   0.231
 1324SOL    HW1 4871   1.173   3.796   0.248
 1324SOL    HW2 4872   1.212   3.915   0.143
 1325SOL     OW 4873   2.798   6.088   5.497
 1325SOL    HW1 4874   2.811   6.154   5.423
 1325SOL    HW2 4875   2.716   6.033   5.478
 1326SOL     OW 4876   4.681   4.206   4.878
 1326SOL    HW1 4877   4.746   4.140   4.840
 1326SOL    HW2 4878   4.676   4.286   4.818
 1327SOL     OW 4879   0.557   6.809   1.017
 1327SOL    HW1 4880   0.620   6.807   1.095
 1327SOL    HW2 4881   0.501   6.892   1.022
 1328SOL     OW 4882   1.186   3.327   5.930
 1328SOL    HW1 4883   1.187   3.263   6.006
 1328SOL    HW2 4884   1.107   3.308   5.871
 1329SOL     OW 4885   0.615   1.819   2.869
 1329SOL    HW1 4886   0.536   1.878   2.853
 1329SOL    HW2 4887   0.591   1.725   2.848
 1330SOL     OW 4888   6.939   1.931   1.092
 1330SOL    HW1 4889   6.950   2.028   1.116
 1330SOL    HW2 4890   6.851   1.899   1.124
 1331SOL     OW 4891   4.944   2.410   2.602
 1331SOL    HW1 4892   4.934   2.509   2.617
 1331SOL    HW2 4893   5.014   2.394   2.533
 1332SOL     OW 4894   1.805   0.285   0.805
 1332SOL    HW1 4895   1.843   0.192   0.802
 1332SOL    HW2 4896   1.736   0.294   0.733
 1333SOL     OW 4897   3.772   3.839   3.131
 1333SOL    HW1 4898   3.844   3.813   3.196
 1333SOL    HW2 4899   3.691   3.784   3.147
 1334SOL     OW 4900   0.065   1.867   3.233
 1334SOL    HW1 4901   0.123   1.795   3.195
 1334SOL    HW2 4902   0.062   1.944   3.169
 1335SOL     OW 4903   1.982   3.585   1.558
 1335SOL    HW1 4904   2.008   3.531   1.638
 1335SOL    HW2 4905   1.892   3.557   1.526
 1336SOL     OW 4906   3.879   0.967   5.298
 1336SOL    HW1 4907   3.801   1.002   5.349
 1336SOL    HW2 4908   3.917   1.040   5.240
 1337SOL     OW 4909   6.438   1.412   3.074
 1337SOL    HW1 4910   6.481   1.440   2.988
 1337SOL    HW2 4911   6.357   1.357   3.053
 1338SOL     OW 4912   6.375   3.776   3.884
 1338SOL    HW1 4913   6.363   3.683   3.849
 1338SOL    HW2 4914   6.311   3.837   3.838
 1339SOL     OW 4915   0.459   0.366   0.015
 1339SOL    HW1 4916   0.454   0.268   0.037
 1339SOL    HW2 4917   0.438   0.380   6.943
 1340SOL     OW 4918   5.067   1.440   2.186
 1340SOL    HW1 4919   5.071   1.519   2.247
 1340SOL    HW2 4920   5.105   1.464   2.097
 1341SOL     OW 4921   4.602   7.004   0.230
 1341SOL    HW1 4922   4.677   6.938   0.229
 1341SOL    HW2 4923   4.567   7.016   0.137
 1342SOL     OW 4924   3.040   5.462   0.980
 1342SOL    HW1 4925   3.027   5.369   0.947
 1342SOL    HW2 4926   3.138   5.479   0.993
 1343SOL     OW 4927   5.469   5.193   2.904
 1343SOL    HW1 4928   5.424   5.130   2.842
 1343SOL    HW2 4929   5.445   5.170   2.999
 1344SOL     OW 4930   0.647   6.515   4.436
 1344SOL    HW1 4931   0.549   6.502   4.425
 1344SOL    HW2 4932   0.696   6.448   4.381
 1345SOL     OW 4933   0.491   5.126   1.926
 1345SOL    HW1 4934   0.454   5.037   1.898
 1345SOL    HW2 4935   0.548   5.163   1.853
 1346SOL     OW 4936   2.237   5.569   5.877
 1346SOL    HW1 4937   2.142   5.568   5.908
 1346SOL    HW2 4938   2.240   5.574   5.777
 1347SOL     OW 4939   1.647   0.259   5.828
 1347SOL    HW1 4940   1.703   0.306   5.760
 1347SOL    HW2 4941   1.707   0.224   5.900
 1348SOL     OW 4942   0.354   5.936   5.461
 1348SOL    HW1 4943   0.419   5.922   5.535
 1348SOL    HW2 4944   0.390   5.894   5.377
 1349SOL     OW 4945   5.526   2.849   3.855
 1349SOL    HW1 4946   5.479   2.808   3.777
 1349SOL    HW2 4947   5.538   2.947   3.840
 1350SOL     OW 4948   3.689   4.300   0.535
 1350SOL    HW1 4949   3.763   4.273   0.475
 1350SOL    HW2 4950   3.609   4.325   0.481
 1351SOL     OW 4951   6.008   1.881   3.928
 1351SOL    HW1 4952   5.937   1.842   3.987
 1351SOL    HW2 4953   5.994   1.849   3.834
 1352SOL     OW 4954   0.211   0.384   2.080
 1352SOL    HW1 4955   0.288   0.444   2.061
 1352SOL    HW2 4956   0.145   0.391   2.005
 1353SOL     OW 4957   0.530   1.824   0.560
 1353SOL    HW1 4958   0.442   1.859   0.527
 1353SOL    HW2 4959   0.520   1.729   0.586
 1354SOL     OW 4960   6.686   4.214   2.402
 1354SOL    HW1 4961   6.682   4.200   2.303
 1354SOL    HW2 4962   6.774   4.182   2.437
 1355SOL     OW 4963   5.840   3.399   4.175
 1355SOL    HW1 4964   5.938   3.407   4.155
 1355SOL    HW2 4965   5.788   3.456   4.111
 1356SOL     OW 4966   3.698   3.165   2.469
 1356SOL    HW1 4967   3.599   3.181   2.465
 1356SOL    HW2 4968   3.746   3.252   2.460
 1357SOL     OW 4969   6.691   3.548   6.088
 1357SOL    HW1 4970   6.613   3.603   6.057
 1357SOL    HW2 4971   6.658   3.462   6.127
 1358SOL     OW 4972   0.115   0.322   6.828
 1358SOL    HW1 4973   0.026   0.306   6.785
 1358SOL    HW2 4974   0.168   0.237   6.825
 1359SOL     OW 4975   6.303   4.393   1.521
 1359SOL    HW1 4976   6.396   4.387   1.556
 1359SOL    HW2 4977   6.288   4.484   1.481
 1360SOL     OW 4978   3.685   3.281   0.157
 1360SOL    HW1 4979   3.692   3.244   0.249
 1360SOL    HW2 4980   3.741   3.363   0.150
 1361SOL     OW 4981   0.263   4.786   4.715
 1361SOL    HW1 4982   0.351   4.787   4.668
 1361SOL    HW2 4983   0.260   4.710   4.780
 1362SOL     OW 4984   3.920   3.017   2.480
 1362SOL    HW1 4985   3.839   3.074   2.475
 1362SOL    HW2 4986   3.982   3.040   2.405
 1363SOL     OW 4987   6.824   5.418   5.240
 1363SOL    HW1 4988   6.799   5.511   5.265
 1363SOL    HW2 4989   6.860   5.370   5.320
 1364SOL     OW 4990   4.475   4.384   6.862
 1364SOL    HW1 4991   4.524   4.471   6.871
 1364SOL    HW2 4992   4.511   4.334   6.783
 1365SOL     OW 4993   0.903   3.841   6.334
 1365SOL    HW1 4994   0.820   3.803   6.293
 1365SOL    HW2 4995   0.881   3.882   6.422
 1366SOL     OW 4996   1.556   0.597   4.906
 1366SOL    HW1 4997   1.509   0.531   4.848
 1366SOL    HW2 4998   1.607   0.549   4.977
 1367SOL     OW 4999   1.511   1.745   2.759
 1367SOL    HW1 5000   1.426   1.749   2.706
 1367SOL    HW2 5001   1.530   1.651   2.785
 1368SOL     OW 5002   5.853   6.788   4.294
 1368SOL    HW1 5003   5.869   6.699   4.252
 1368SOL    HW2 5004   5.783   6.837   4.242
 1369SOL     OW 5005   0.588   6.481   3.333
 1369SOL    HW1 5006   0.553   6.486   3.239
 1369SOL    HW2 5007   0.642   6.398   3.344
 1370SOL     OW 5008   3.217   0.328   1.578
 1370SOL    HW1 5009   3.224   0.423   1.546
 1370SOL    HW2 5010   3.129   0.315   1.623
 1371SOL     OW 5011   3.974   0.520   5.804
 1371SOL    HW1 5012   4.027   0.553   5.882
 1371SOL    HW2 5013   3.878   0.509   5.831
 1372SOL     OW 5014   2.439   2.400   1.732
 1372SOL    HW1 5015   2.432   2.313   1.683
 1372SOL    HW2 5016   2.347   2.435   1.750
 1373SOL     OW 5017   0.419   5.148   1.297
 1373SOL    HW1 5018   0.454   5.231   1.254
 1373SOL    HW2 5019   0.456   5.140   1.390
 1374SOL     OW 5020   4.092   2.330   1.282
 1374SOL    HW1 5021   4.054   2.261   1.343
 1374SOL    HW2 5022   4.094   2.419   1.329
 1375SOL     OW 5023   0.126   4.980   6.262
 1375SOL    HW1 5024   0.058   5.002   6.192
 1375SOL    HW2 5025   0.102   4.893   6.304
 1376SOL     OW 5026   4.938   2.922   3.504
 1376SOL    HW1 5027   4.887   2.840   3.526
 1376SOL    HW2 5028   4.991   2.952   3.583
 1377SOL     OW 5029   0.056   4.960   5.310
 1377SOL    HW1 5030   0.039   4.862   5.321
 1377SOL    HW2 5031   0.033   4.988   5.217
 1378SOL     OW 5032   1.213   2.291   6.958
 1378SOL    HW1 5033   1.268   2.375   6.948
 1378SOL    HW2 5034   1.130   2.299   6.904
 1379SOL     OW 5035   3.767   6.641   2.956
 1379SOL    HW1 5036   3.688   6.580   2.953
 1379SOL    HW2 5037   3.838   6.599   3.013
 1380SOL     OW 5038   6.428   6.983   2.586
 1380SOL    HW1 5039   6.444   6.993   2.487
 1380SOL    HW2 5040   6.514   6.997   2.635
 1381SOL     OW 5041   6.239   2.233   6.947
 1381SOL    HW1 5042   6.287   2.234   6.859
 1381SOL    HW2 5043   6.292   2.179   7.013
 1382SOL     OW 5044   5.458   5.168   6.417
 1382SOL    HW1 5045   5.492   5.253   6.459
 1382SOL    HW2 5046   5.389   5.191   6.349
 1383SOL     OW 5047   1.542   0.724   0.298
 1383SOL    HW1 5048   1.544   0.638   0.349
 1383SOL    HW2 5049   1.571   0.799   0.357
 1384SOL     OW 5050   3.926   1.499   2.931
 1384SOL    HW1 5051   3.846   1.442   2.954
 1384SOL    HW2 5052   3.987   1.503   3.010
 1385SOL     OW 5053   6.666   2.779   2.827
 1385SOL    HW1 5054   6.657   2.879   2.825
 1385SOL    HW2 5055   6.576   2.737   2.823
 1386SOL     OW 5056   2.208   3.154   4.538
 1386SOL    HW1 5057   2.145   3.103   4.597
 1386SOL    HW2 5058   2.277   3.199   4.594
 1387SOL     OW 5059   3.337   0.340   4.745
 1387SOL    HW1 5060   3.238   0.343   4.729
 1387SOL    HW2 5061   3.385   0.369   4.662
 1388SOL     OW 5062   6.512   1.027   4.006
 1388SOL    HW1 5063   6.608   1.048   4.024
 1388SOL    HW2 5064   6.504   0.981   3.917
 1389SOL     OW 5065   6.033   0.166   4.536
 1389SOL    HW1 5066   5.974   0.090   4.507
 1389SOL    HW2 5067   6.053   0.158   4.634
 1390SOL     OW 5068   4.255   1.678   1.830
 1390SOL    HW1 5069   4.282   1.714   1.919
 1390SOL    HW2 5070   4.252   1.753   1.764
 1391SOL     OW 5071   5.677   0.828   4.478
 1391SOL    HW1 5072   5.755   0.807   4.537
 1391SOL    HW2 5073   5.623   0.902   4.518
 1392SOL     OW 5074   5.264   5.859   6.209
 1392SOL    HW1 5075   5.226   5.890   6.123
 1392SOL    HW2 5076   5.190   5.824   6.268
 1393SOL     OW 5077   6.939   1.203   6.407
 1393SOL    HW1 5078   6.903   1.242   6.322
 1393SOL    HW2 5079   0.004   1.244   6.428
 1394SOL     OW 5080   4.648   6.764   3.675
 1394SOL    HW1 5081   4.598   6.682   3.650
 1394SOL    HW2 5082   4.599   6.812   3.748
 1395SOL     OW 5083   1.603   4.976   2.731
 1395SOL    HW1 5084   1.674   5.047   2.736
 1395SOL    HW2 5085   1.641   4.889   2.765
 1396SOL     OW 5086   2.634   1.242   4.293
 1396SOL    HW1 5087   2.674   1.299   4.365
 1396SOL    HW2 5088   2.599   1.300   4.220
 1397SOL     OW 5089   0.719   5.270   4.196
 1397SOL    HW1 5090   0.619   5.269   4.189
 1397SOL    HW2 5091   0.756   5.184   4.162
 1398SOL     OW 5092   0.559   1.613   1.114
 1398SOL    HW1 5093   0.590   1.545   1.181
 1398SOL    HW2 5094   0.580   1.705   1.148
 1399SOL     OW 5095   4.019   0.321   0.443
 1399SOL    HW1 5096   4.049   0.416   0.431
 1399SOL    HW2 5097   3.920   0.319   0.456
 1400SOL     OW 5098   6.329   0.490   4.210
 1400SOL    HW1 5099   6.413   0.519   4.257
 1400SOL    HW2 5100   6.287   0.414   4.260
 1401SOL     OW 5101   5.766   0.409   3.167
 1401SOL    HW1 5102   5.692   0.473   3.184
 1401SOL    HW2 5103   5.795   0.368   3.253
 1402SOL     OW 5104   5.938   3.930   1.805
 1402SOL    HW1 5105   6.018   3.900   1.753
 1402SOL    HW2 5106   5.942   4.029   1.818
 1403SOL     OW 5107   3.237   2.870   0.267
 1403SOL    HW1 5108   3.294   2.793   0.237
 1403SOL    HW2 5109   3.296   2.941   0.307
 1404SOL     OW 5110   4.452   6.767   0.974
 1404SOL    HW1 5111   4.407   6.845   0.929
 1404SOL    HW2 5112   4.425   6.682   0.928
 1405SOL     OW 5113   2.218   2.808   1.120
 1405SOL    HW1 5114   2.214   2.865   1.037
 1405SOL    HW2 5115   2.231   2.867   1.199
 1406SOL     OW 5116   2.826   3.263   1.132
 1406SOL    HW1 5117   2.906   3.320   1.112
 1406SOL    HW2 5118   2.852   3.167   1.129
 1407SOL     OW 5119   0.902   3.002   1.065
 1407SOL    HW1 5120   0.965   3.075   1.091
 1407SOL    HW2 5121   0.949   2.914   1.074
 1408SOL     OW 5122   5.985   6.096   6.762
 1408SOL    HW1 5123   6.081   6.117   6.741
 1408SOL    HW2 5124   5.980   6.050   6.851
 1409SOL     OW 5125   6.754   1.537   5.613
 1409SOL    HW1 5126   6.850   1.522   5.590
 1409SOL    HW2 5127   6.704   1.451   5.608
 1410SOL     OW 5128   3.549   2.284   6.558
 1410SOL    HW1 5129   3.558   2.303   6.656
 1410SOL    HW2 5130   3.640   2.266   6.520
 1411SOL     OW 5131   4.139   5.533   0.627
 1411SOL    HW1 5132   4.158   5.597   0.552
 1411SOL    HW2 5133   4.079   5.460   0.594
 1412SOL     OW 5134   2.088   2.726   0.770
 1412SOL    HW1 5135   2.004   2.699   0.817
 1412SOL    HW2 5136   2.074   2.721   0.671
 1413SOL     OW 5137   1.502   1.767   5.090
 1413SOL    HW1 5138   1.493   1.740   5.186
 1413SOL    HW2 5139   1.599   1.777   5.067
 1414SOL     OW 5140   1.158   3.840   2.038
 1414SOL    HW1 5141   1.235   3.836   1.974
 1414SOL    HW2 5142   1.180   3.904   2.112
 1415SOL     OW 5143   1.981   1.971   4.102
 1415SOL    HW1 5144   1.899   1.927   4.065
 1415SOL    HW2 5145   1.975   1.974   4.202
 1416SOL     OW 5146   4.265   6.993   5.610
 1416SOL    HW1 5147   4.201   0.016   5.671
 1416SOL    HW2 5148   4.220   6.975   5.523
 1417SOL     OW 5149   3.950   3.183   5.513
 1417SOL    HW1 5150   4.029   3.233   5.550
 1417SOL    HW2 5151   3.873   3.246   5.502
 1418SOL     OW 5152   3.548   4.419   6.395
 1418SOL    HW1 5153   3.546   4.370   6.308
 1418SOL    HW2 5154   3.487   4.498   6.390
 1419SOL     OW 5155   1.752   4.770   2.854
 1419SOL    HW1 5156   1.745   4.821   2.940
 1419SOL    HW2 5157   1.841   4.723   2.851
 1420SOL     OW 5158   3.216   5.763   3.116
 1420SOL    HW1 5159   3.220   5.783   3.018
 1420SOL    HW2 5160   3.157   5.830   3.161
 1421SOL     OW 5161   1.546   5.296   5.756
 1421SOL    HW1 5162   1.473   5.241   5.794
 1421SOL    HW2 5163   1.537   5.299   5.656
 1422SOL     OW 5164   2.495   3.849   5.847
 1422SOL    HW1 5165   2.409   3.828   5.800
 1422SOL    HW2 5166   2.553   3.905   5.788
 1423SOL     OW 5167   4.294   1.128   5.320
 1423SOL    HW1 5168   4.316   1.031   5.311
 1423SOL    HW2 5169   4.378   1.182   5.313
 1424SOL     OW 5170   5.521   2.644   6.713
 1424SOL    HW1 5171   5.462   2.690   6.779
 1424SOL    HW2 5172   5.466   2.579   6.660
 1425SOL     OW 5173   4.528   6.283   3.722
 1425SOL    HW1 5174   4.492   6.262   3.631
 1425SOL    HW2 5175   4.549   6.198   3.770
 1426SOL     OW 5176   3.317   2.410   6.886
 1426SOL    HW1 5177   3.415   2.404   6.866
 1426SOL    HW2 5178   3.265   2.409   6.801
 1427SOL     OW 5179   1.881   1.259   3.991
 1427SOL    HW1 5180   1.799   1.314   3.976
 1427SOL    HW2 5181   1.864   1.165   3.962
 1428SOL     OW 5182   0.029   3.561   3.581
 1428SOL    HW1 5183   6.958   3.590   3.574
 1428SOL    HW2 5184   0.033   3.465   3.609
 1429SOL     OW 5185   5.766   0.535   0.875
 1429SOL    HW1 5186   5.808   0.560   0.788
 1429SOL    HW2 5187   5.682   0.589   0.888
 1430SOL     OW 5188   1.752   3.784   3.340
 1430SOL    HW1 5189   1.792   3.849   3.405
 1430SOL    HW2 5190   1.772   3.813   3.247
 1431SOL     OW 5191   1.824   1.363   5.765
 1431SOL    HW1 5192   1.742   1.350   5.820
 1431SOL    HW2 5193   1.896   1.302   5.798
 1432SOL     OW 5194   3.000   1.725   2.372
 1432SOL    HW1 5195   2.954   1.637   2.360
 1432SOL    HW2 5196   2.942   1.787   2.424
 1433SOL     OW 5197   2.879   0.050   4.350
 1433SOL    HW1 5198   2.918   0.089   4.266
 1433SOL    HW2 5199   2.918   6.984   4.365
 1434SOL     OW 5200   0.435   3.062   0.043
 1434SOL    HW1 5201   0.337   3.067   0.023
 1434SOL    HW2 5202   0.487   3.074   6.982
 1435SOL     OW 5203   0.943   6.807   4.793
 1435SOL    HW1 5204   0.916   6.725   4.744
 1435SOL    HW2 5205   1.037   6.797   4.826
 1436SOL     OW 5206   5.444   1.741   0.787
 1436SOL    HW1 5207   5.492   1.744   0.875
 1436SOL    HW2 5208   5.345   1.739   0.803
 1437SOL     OW 5209   4.369   0.188   6.359
 1437SOL    HW1 5210   4.386   0.265   6.298
 1437SOL    HW2 5211   4.442   0.121   6.350
 1438SOL     OW 5212   2.612   0.205   1.884
 1438SOL    HW1 5213   2.578   0.299   1.875
 1438SOL    HW2 5214   2.672   0.184   1.807
 1439SOL     OW 5215   0.115   4.704   0.095
 1439SOL    HW1 5216   0.212   4.711   0.070
 1439SOL    HW2 5217   0.072   4.794   0.089
 1440SOL     OW 5218   2.896   3.318   3.818
 1440SOL    HW1 5219   2.902   3.350   3.724
 1440SOL    HW2 5220   2.871   3.394   3.878
 1441SOL     OW 5221   6.529   2.942   3.799
 1441SOL    HW1 5222   6.438   2.972   3.829
 1441SOL    HW2 5223   6.587   3.022   3.782
 1442SOL     OW 5224   4.834   4.441   0.436
 1442SOL    HW1 5225   4.930   4.469   0.434
 1442SOL    HW2 5226   4.828   4.342   0.449
 1443SOL     OW 5227   0.934   2.584   3.145
 1443SOL    HW1 5228   0.930   2.639   3.062
 1443SOL    HW2 5229   0.843   2.578   3.185
 1444SOL     OW 5230   4.402   0.967   3.398
 1444SOL    HW1 5231   4.320   1.023   3.389
 1444SOL    HW2 5232   4.426   0.959   3.495
 1445SOL     OW 5233   6.601   2.472   1.613
 1445SOL    HW1 5234   6.558   2.516   1.534
 1445SOL    HW2 5235   6.554   2.386   1.632
 1446SOL     OW 5236   4.130   0.863   1.415
 1446SOL    HW1 5237   4.049   0.880   1.359
 1446SOL    HW2 5238   4.124   0.773   1.458
 1447SOL     OW 5239   6.515   0.596   4.816
 1447SOL    HW1 5240   6.518   0.607   4.916
 1447SOL    HW2 5241   6.420   0.586   4.786
 1448SOL     OW 5242   5.481   0.900   6.788
 1448SOL    HW1 5243   5.426   0.982   6.805
 1448SOL    HW2 5244   5.434   0.841   6.723
 1449SOL     OW 5245   5.165   6.003   0.959
 1449SOL    HW1 5246   5.072   5.985   0.991
 1449SOL    HW2 5247   5.188   5.936   0.888
 1450SOL     OW 5248   5.856   2.902   3.131
 1450SOL    HW1 5249   5.877   2.806   3.154
 1450SOL    HW2 5250   5.764   2.908   3.093
 1451SOL     OW 5251   1.319   6.345   2.976
 1451SOL    HW1 5252   1.297   6.363   3.072
 1451SOL    HW2 5253   1.235   6.326   2.926
 1452SOL     OW 5254   4.507   1.208   5.680
 1452SOL    HW1 5255   4.593   1.244   5.645
 1452SOL    HW2 5256   4.448   1.183   5.604
 1453SOL     OW 5257   5.196   4.611   5.094
 1453SOL    HW1 5258   5.252   4.533   5.122
 1453SOL    HW2 5259   5.255   4.690   5.076
 1454SOL     OW 5260   4.550   3.768   1.285
 1454SOL    HW1 5261   4.456   3.758   1.250
 1454SOL    HW2 5262   4.613   3.774   1.208
 1455SOL     OW 5263   1.764   2.168   1.905
 1455SOL    HW1 5264   1.667   2.191   1.902
 1455SOL    HW2 5265   1.777   2.075   1.872
 1456SOL     OW 5266   6.082   6.368   4.134
 1456SOL    HW1 5267   6.178   6.396   4.145
 1456SOL    HW2 5268   6.076   6.298   4.063
 1457SOL     OW 5269   1.446   0.538   3.061
 1457SOL    HW1 5270   1.431   0.440   3.050
 1457SOL    HW2 5271   1.395   0.571   3.141
 1458SOL     OW 5272   5.782   5.638   6.657
 1458SOL    HW1 5273   5.817   5.701   6.726
 1458SOL    HW2 5274   5.695   5.600   6.687
 1459SOL     OW 5275   2.200   6.751   6.508
 1459SOL    HW1 5276   2.156   6.705   6.585
 1459SOL    HW2 5277   2.144   6.829   6.479
 1460SOL     OW 5278   1.685   0.168   6.998
 1460SOL    HW1 5279   1.780   0.199   7.003
 1460SOL    HW2 5280   1.653   0.175   6.904
 1461SOL     OW 5281   5.303   4.593   1.852
 1461SOL    HW1 5282   5.335   4.532   1.924
 1461SOL    HW2 5283   5.260   4.674   1.893
 1462SOL     OW 5284   5.782   1.142   0.034
 1462SOL    HW1 5285   5.779   1.180   0.127
 1462SOL    HW2 5286   5.770   1.043   0.039
 1463SOL     OW 5287   1.025   0.765   5.130
 1463SOL    HW1 5288   1.031   0.742   5.227
 1463SOL    HW2 5289   1.109   0.736   5.083
 1464SOL     OW 5290   0.102   6.386   0.956
 1464SOL    HW1 5291   0.155   6.339   0.886
 1464SOL    HW2 5292   0.108   6.337   1.042
 1465SOL     OW 5293   0.221   6.919   4.731
 1465SOL    HW1 5294   0.178   6.948   4.646
 1465SOL    HW2 5295   0.210   6.820   4.742
 1466SOL     OW 5296   5.556   4.824   3.484
 1466SOL    HW1 5297   5.561   4.771   3.569
 1466SOL    HW2 5298   5.462   4.826   3.451
 1467SOL     OW 5299   1.019   2.106   3.037
 1467SOL    HW1 5300   0.936   2.161   3.049
 1467SOL    HW2 5301   0.994   2.016   3.002
 1468SOL     OW 5302   5.558   6.087   3.356
 1468SOL    HW1 5303   5.551   6.056   3.262
 1468SOL    HW2 5304   5.488   6.041   3.411
 1469SOL     OW 5305   0.962   1.423   2.473
 1469SOL    HW1 5306   0.934   1.393   2.382
 1469SOL    HW2 5307   0.885   1.469   2.517
 1470SOL     OW 5308   0.981   1.156   3.014
 1470SOL    HW1 5309   0.896   1.177   2.964
 1470SOL    HW2 5310   1.050   1.226   2.993
 1471SOL     OW 5311   0.721   0.128   0.216
 1471SOL    HW1 5312   0.643   0.142   0.154
 1471SOL    HW2 5313   0.706   0.180   0.300
 1472SOL     OW 5314   4.347   0.603   5.983
 1472SOL    HW1 5315   4.248   0.588   5.988
 1472SOL    HW2 5316   4.382   0.568   5.896
 1473SOL     OW 5317   6.155   3.925   3.278
 1473SOL    HW1 5318   6.174   3.895   3.184
 1473SOL    HW2 5319   6.231   3.898   3.337
 1474SOL     OW 5320   4.318   5.609   4.298
 1474SOL    HW1 5321   4.263   5.628   4.217
 1474SOL    HW2 5322   4.395   5.674   4.302
 1475SOL     OW 5323   0.287   1.421   2.895
 1475SOL    HW1 5324   0.225   1.347   2.868
 1475SOL    HW2 5325   0.349   1.388   2.966
 1476SOL     OW 5326   0.126   1.891   1.851
 1476SOL    HW1 5327   0.177   1.967   1.891
 1476SOL    HW2 5328   0.042   1.925   1.809
 1477SOL     OW 5329   3.155   5.806   4.553
 1477SOL    HW1 5330   3.213   5.833   4.476
 1477SOL    HW2 5331   3.212   5.782   4.631
 1478SOL     OW 5332   6.238   4.067   0.202
 1478SOL    HW1 5333   6.335   4.044   0.205
 1478SOL    HW2 5334   6.212   4.092   0.109
 1479SOL     OW 5335   1.574   5.074   0.347
 1479SOL    HW1 5336   1.494   5.020   0.321
 1479SOL    HW2 5337   1.566   5.166   0.309
 1480SOL     OW 5338   2.769   0.771   0.474
 1480SOL    HW1 5339   2.717   0.825   0.408
 1480SOL    HW2 5340   2.812   0.831   0.541
 1481SOL     OW 5341   5.597   2.528   6.265
 1481SOL    HW1 5342   5.625   2.454   6.204
 1481SOL    HW2 5343   5.652   2.526   6.348
 1482SOL     OW 5344   6.496   0.317   6.496
 1482SOL    HW1 5345   6.398   0.309   6.480
 1482SOL    HW2 5346   6.516   0.407   6.537
 1483SOL     OW 5347   6.060   1.882   0.429
 1483SOL    HW1 5348   6.046   1.783   0.435
 1483SOL    HW2 5349   6.054   1.910   0.334
 1484SOL     OW 5350   6.562   5.239   2.808
 1484SOL    HW1 5351   6.522   5.319   2.763
 1484SOL    HW2 5352   6.499   5.204   2.877
 1485SOL     OW 5353   5.247   2.486   3.807
 1485SOL    HW1 5354   5.247   2.575   3.854
 1485SOL    HW2 5355   5.206   2.496   3.717
 1486SOL     OW 5356   4.724   2.078   2.305
 1486SOL    HW1 5357   4.702   2.025   2.223
 1486SOL    HW2 5358   4.666   2.048   2.381
 1487SOL     OW 5359   6.405   1.374   5.368
 1487SOL    HW1 5360   6.330   1.427   5.408
 1487SOL    HW2 5361   6.396   1.371   5.269
 1488SOL     OW 5362   4.604   1.799   2.953
 1488SOL    HW1 5363   4.559   1.801   2.864
 1488SOL    HW2 5364   4.571   1.877   3.008
 1489SOL     OW 5365   3.889   5.526   5.202
 1489SOL    HW1 5366   3.952   5.486   5.136
 1489SOL    HW2 5367   3.873   5.460   5.276
 1490SOL     OW 5368   1.761   2.596   0.406
 1490SOL    HW1 5369   1.819   2.566   0.481
 1490SOL    HW2 5370   1.816   2.605   0.323
 1491SOL     OW 5371   6.889   3.122   3.995
 1491SOL    HW1 5372   6.902   3.032   4.035
 1491SOL    HW2 5373   6.977   3.159   3.966
 1492SOL     OW 5374   4.995   2.006   1.429
 1492SOL    HW1 5375   5.038   2.095   1.413
 1492SOL    HW2 5376   4.903   2.007   1.389
 1493SOL     OW 5377   5.023   0.094   5.311
 1493SOL    HW1 5378   5.104   0.133   5.267
 1493SOL    HW2 5379   4.941   0.142   5.279
 1494SOL     OW 5380   4.242   2.392   6.136
 1494SOL    HW1 5381   4.207   2.475   6.179
 1494SOL    HW2 5382   4.326   2.413   6.086
 1495SOL     OW 5383   1.738   3.068   2.348
 1495SOL    HW1 5384   1.813   3.066   2.281
 1495SOL    HW2 5385   1.736   3.158   2.392
 1496SOL     OW 5386   0.495   0.093   2.646
 1496SOL    HW1 5387   0.464   0.175   2.693
 1496SOL    HW2 5388   0.434   0.072   2.570
 1497SOL     OW 5389   6.070   5.142   4.533
 1497SOL    HW1 5390   5.979   5.165   4.566
 1497SOL    HW2 5391   6.093   5.049   4.560
 1498SOL     OW 5392   2.332   5.556   6.817
 1498SOL    HW1 5393   2.308   5.462   6.843
 1498SOL    HW2 5394   2.338   5.613   6.899
 1499SOL     OW 5395   1.434   3.674   5.519
 1499SOL    HW1 5396   1.440   3.708   5.425
 1499SOL    HW2 5397   1.377   3.735   5.573
 1500SOL     OW 5398   5.096   6.723   6.704
 1500SOL    HW1 5399   5.062   6.691   6.615
 1500SOL    HW2 5400   5.036   6.690   6.776
 1501SOL     OW 5401   3.999   6.765   5.955
 1501SOL    HW1 5402   3.981   6.802   6.045
 1501SOL    HW2 5403   3.974   6.832   5.885
 1502SOL     OW 5404   6.206   6.672   0.635
 1502SOL    HW1 5405   6.157   6.596   0.593
 1502SOL    HW2 5406   6.282   6.637   0.690
 1503SOL     OW 5407   3.463   2.804   6.377
 1503SOL    HW1 5408   3.519   2.885   6.390
 1503SOL    HW2 5409   3.366   2.830   6.379
 1504SOL     OW 5410   3.505   6.482   4.852
 1504SOL    HW1 5411   3.600   6.474   4.824
 1504SOL    HW2 5412   3.481   6.404   4.910
 1505SOL     OW 5413   5.790   5.512   6.946
 1505SOL    HW1 5414   5.856   5.439   6.931
 1505SOL    HW2 5415   5.697   5.475   6.941
 1506SOL     OW 5416   0.819   6.144   4.527
 1506SOL    HW1 5417   0.855   6.089   4.603
 1506SOL    HW2 5418   0.894   6.170   4.467
 1507SOL     OW 5419   1.863   1.445   5.306
 1507SOL    HW1 5420   1.834   1.393   5.226
 1507SOL    HW2 5421   1.847   1.542   5.290
 1508SOL     OW 5422   4.849   6.962   0.552
 1508SOL    HW1 5423   4.911   6.888   0.527
 1508SOL    HW2 5424   4.788   6.983   0.476
 1509SOL     OW 5425   4.583   2.862   0.539
 1509SOL    HW1 5426   4.664   2.803   0.537
 1509SOL    HW2 5427   4.578   2.908   0.628
 1510SOL     OW 5428   6.813   1.834   3.719
 1510SOL    HW1 5429   6.853   1.896   3.651
 1510SOL    HW2 5430   6.726   1.871   3.751
 1511SOL     OW 5431   2.594   3.435   1.084
 1511SOL    HW1 5432   2.667   3.372   1.057
 1511SOL    HW2 5433   2.585   3.436   1.183
 1512SOL     OW 5434   0.213   0.999   1.961
 1512SOL    HW1 5435   0.162   0.949   1.891
 1512SOL    HW2 5436   0.304   1.022   1.925
 1513SOL     OW 5437   3.637   1.087   3.375
 1513SOL    HW1 5438   3.648   1.041   3.287
 1513SOL    HW2 5439   3.548   1.132   3.377
 1514SOL     OW 5440   5.719   1.433   4.962
 1514SOL    HW1 5441   5.656   1.355   4.955
 1514SOL    HW2 5442   5.790   1.412   5.029
 1515SOL     OW 5443   0.524   4.772   4.509
 1515SOL    HW1 5444   0.474   4.705   4.454
 1515SOL    HW2 5445   0.552   4.848   4.451
 1516SOL     OW 5446   0.763   1.339   0.695
 1516SOL    HW1 5447   0.687   1.349   0.758
 1516SOL    HW2 5448   0.805   1.429   0.679
 1517SOL     OW 5449   4.753   5.773   3.670
 1517SOL    HW1 5450   4.786   5.790   3.577
 1517SOL    HW2 5451   4.682   5.703   3.668
 1518SOL     OW 5452   0.314   3.910   0.971
 1518SOL    HW1 5453   0.351   3.869   0.887
 1518SOL    HW2 5454   0.363   3.994   0.991
 1519SOL     OW 5455   6.036   4.541   0.025
 1519SOL    HW1 5456   5.957   4.566   6.994
 1519SOL    HW2 5457   6.119   4.542   6.993
 1520SOL     OW 5458   1.718   3.530   3.168
 1520SOL    HW1 5459   1.788   3.496   3.106
 1520SOL    HW2 5460   1.760   3.589   3.237
 1521SOL     OW 5461   2.738   3.744   6.755
 1521SOL    HW1 5462   2.801   3.731   6.831
 1521SOL    HW2 5463   2.684   3.827   6.771
 1522SOL     OW 5464   5.877   1.718   6.886
 1522SOL    HW1 5465   5.846   1.632   6.926
 1522SOL    HW2 5466   5.902   1.704   6.790
 1523SOL     OW 5467   6.947   2.209   1.164
 1523SOL    HW1 5468   6.915   2.292   1.209
 1523SOL    HW2 5469   6.932   2.216   1.065
 1524SOL     OW 5470   0.040   1.049   2.172
 1524SOL    HW1 5471   0.061   1.041   2.074
 1524SOL    HW2 5472   0.028   0.958   2.211
 1525SOL     OW 5473   4.586   1.947   6.500
 1525SOL    HW1 5474   4.600   1.886   6.422
 1525SOL    HW2 5475   4.563   1.892   6.581
 1526SOL     OW 5476   6.842   2.598   1.685
 1526SOL    HW1 5477   6.864   2.618   1.590
 1526SOL    HW2 5478   6.767   2.533   1.689
 1527SOL     OW 5479   3.276   1.941   5.611
 1527SOL    HW1 5480   3.343   1.867   5.618
 1527SOL    HW2 5481   3.200   1.924   5.673
 1528SOL     OW 5482   5.086   6.037   3.584
 1528SOL    HW1 5483   5.039   6.071   3.665
 1528SOL    HW2 5484   5.071   6.099   3.508
 1529SOL     OW 5485   3.575   0.127   5.740
 1529SOL    HW1 5486   3.555   0.029   5.733
 1529SOL    HW2 5487   3.490   0.176   5.761
 1530SOL     OW 5488   3.645   6.681   2.166
 1530SOL    HW1 5489   3.684   6.773   2.174
 1530SOL    HW2 5490   3.545   6.686   2.177
 1531SOL     OW 5491   6.120   0.120   4.815
 1531SOL    HW1 5492   6.116   0.069   4.901
 1531SOL    HW2 5493   6.216   0.137   4.791
 1532SOL     OW 5494   3.389   2.190   5.206
 1532SOL    HW1 5495   3.451   2.252   5.256
 1532SOL    HW2 5496   3.314   2.243   5.167
 1533SOL     OW 5497   6.172   3.155   6.622
 1533SOL    HW1 5498   6.086   3.105   6.635
 1533SOL    HW2 5499   6.195   3.157   6.525
 1534SOL     OW 5500   7.022   5.929   1.537
 1534SOL    HW1 5501   6.949   5.935   1.470
 1534SOL    HW2 5502   6.999   5.859   1.606
 1535SOL     OW 5503   4.456   4.981   3.830
 1535SOL    HW1 5504   4.418   5.024   3.911
 1535SOL    HW2 5505   4.470   5.050   3.759
 1536SOL     OW 5506   2.962   5.748   5.262
 1536SOL    HW1 5507   3.040   5.734   5.201
 1536SOL    HW2 5508   2.883   5.780   5.208
 1537SOL     OW 5509   1.890   5.532   4.406
 1537SOL    HW1 5510   1.867   5.467   4.478
 1537SOL    HW2 5511   1.807   5.551   4.352
 1538SOL     OW 5512   2.585   5.544   6.683
 1538SOL    HW1 5513   2.622   5.515   6.594
 1538SOL    HW2 5514   2.492   5.509   6.693
 1539SOL     OW 5515   3.515   4.532   1.661
 1539SOL    HW1 5516   3.598   4.477   1.671
 1539SOL    HW2 5517   3.519   4.610   1.723
 1540SOL     OW 5518   0.925   0.197   4.870
 1540SOL    HW1 5519   0.905   0.184   4.967
 1540SOL    HW2 5520   0.849   0.161   4.815
 1541SOL     OW 5521   4.912   2.320   1.043
 1541SOL    HW1 5522   4.845   2.286   1.108
 1541SOL    HW2 5523   4.881   2.409   1.008
 1542SOL     OW 5524   0.608   6.958   1.503
 1542SOL    HW1 5525   0.537   0.002   1.521
 1542SOL    HW2 5526   0.697   6.997   1.528
 1543SOL     OW 5527   3.625   3.911   3.992
 1543SOL    HW1 5528   3.591   3.835   3.936
 1543SOL    HW2 5529   3.624   3.884   4.088
 1544SOL     OW 5530   3.183   4.024   2.840
 1544SOL    HW1 5531   3.176   4.032   2.740
 1544SOL    HW2 5532   3.278   4.007   2.865
 1545SOL     OW 5533   5.523   0.160   5.079
 1545SOL    HW1 5534   5.503   0.237   5.020
 1545SOL    HW2 5535   5.605   0.113   5.047
 1546SOL     OW 5536   6.789   6.507   6.260
 1546SOL    HW1 5537   6.742   6.421   6.245
 1546SOL    HW2 5538   6.739   6.581   6.213
 1547SOL     OW 5539   3.076   5.903   1.286
 1547SOL    HW1 5540   3.101   5.953   1.369
 1547SOL    HW2 5541   2.980   5.921   1.265
 1548SOL     OW 5542   4.903   4.037   4.791
 1548SOL    HW1 5543   4.902   3.938   4.777
 1548SOL    HW2 5544   4.989   4.074   4.756
 1549SOL     OW 5545   6.693   2.037   1.160
 1549SOL    HW1 5546   6.744   2.118   1.189
 1549SOL    HW2 5547   6.679   2.040   1.061
 1550SOL     OW 5548   2.119   5.772   3.934
 1550SOL    HW1 5549   2.193   5.703   3.938
 1550SOL    HW2 5550   2.081   5.785   4.025
 1551SOL     OW 5551   1.882   2.480   0.660
 1551SOL    HW1 5552   1.832   2.548   0.714
 1551SOL    HW2 5553   1.977   2.476   0.692
 1552SOL     OW 5554   1.013   0.757   1.132
 1552SOL    HW1 5555   1.076   0.823   1.172
 1552SOL    HW2 5556   0.945   0.730   1.200
 1553SOL     OW 5557   5.911   1.798   6.113
 1553SOL    HW1 5558   5.859   1.861   6.171
 1553SOL    HW2 5559   5.906   1.706   6.151
 1554SOL     OW 5560   4.030   1.928   1.935
 1554SOL    HW1 5561   4.000   1.891   1.847
 1554SOL    HW2 5562   3.982   2.014   1.953
 1555SOL     OW 5563   3.466   1.730   5.615
 1555SOL    HW1 5564   3.405   1.650   5.614
 1555SOL    HW2 5565   3.543   1.714   5.553
 1556SOL     OW 5566   3.821   1.060   0.777
 1556SOL    HW1 5567   3.727   1.038   0.752
 1556SOL    HW2 5568   3.859   1.124   0.710
 1557SOL     OW 5569   1.950   1.891   1.062
 1557SOL    HW1 5570   1.950   1.801   1.106
 1557SOL    HW2 5571   1.934   1.962   1.131
 1558SOL     OW 5572   6.422   3.444   5.996
 1558SOL    HW1 5573   6.323   3.428   5.991
 1558SOL    HW2 5574   6.439   3.542   6.003
 1559SOL     OW 5575   1.472   4.581   2.816
 1559SOL    HW1 5576   1.473   4.486   2.846
 1559SOL    HW2 5577   1.560   4.624   2.839
 1560SOL     OW 5578   3.934   1.287   1.387
 1560SOL    HW1 5579   3.857   1.318   1.443
 1560SOL    HW2 5580   4.007   1.355   1.389
 1561SOL     OW 5581   5.973   5.936   1.607
 1561SOL    HW1 5582   5.938   5.970   1.694
 1561SOL    HW2 5583   5.899   5.933   1.540
 1562SOL     OW 5584   3.402   6.826   2.229
 1562SOL    HW1 5585   3.332   6.898   2.229
 1562SOL    HW2 5586   3.359   6.737   2.213
 1563SOL     OW 5587   3.931   2.190   4.267
 1563SOL    HW1 5588   3.909   2.179   4.170
 1563SOL    HW2 5589   4.022   2.229   4.276
 1564SOL     OW 5590   1.285   2.312   2.311
 1564SOL    HW1 5591   1.234   2.317   2.225
 1564SOL    HW2 5592   1.306   2.404   2.343
 1565SOL     OW 5593   3.853   0.872   4.110
 1565SOL    HW1 5594   3.753   0.860   4.106
 1565SOL    HW2 5595   3.895   0.788   4.144
 1566SOL     OW 5596   4.508   4.484   2.870
 1566SOL    HW1 5597   4.567   4.405   2.855
 1566SOL    HW2 5598   4.484   4.526   2.783
 1567SOL     OW 5599   4.941   6.250   5.109
 1567SOL    HW1 5600   4.858   6.241   5.164
 1567SOL    HW2 5601   4.942   6.339   5.063
 1568SOL     OW 5602   2.493   6.236   2.924
 1568SOL    HW1 5603   2.543   6.174   2.985
 1568SOL    HW2 5604   2.419   6.187   2.879
 1569SOL     OW 5605   2.686   6.812   3.495
 1569SOL    HW1 5606   2.717   6.867   3.572
 1569SOL    HW2 5607   2.609   6.857   3.450
 1570SOL     OW 5608   3.521   6.992   0.156
 1570SOL    HW1 5609   3.483   6.917   0.102
 1570SOL    HW2 5610   3.609   7.019   0.118
 1571SOL     OW 5611   1.102   2.849   4.034
 1571SOL    HW1 5612   1.192   2.805   4.027
 1571SOL    HW2 5613   1.047   2.799   4.101
 1572SOL     OW 5614   1.902   4.703   1.751
 1572SOL    HW1 5615   1.816   4.739   1.787
 1572SOL    HW2 5616   1.976   4.724   1.814
 1573SOL     OW 5617   5.060   5.088   0.586
 1573SOL    HW1 5618   5.140   5.094   0.645
 1573SOL    HW2 5619   5.012   5.175   0.587
 1574SOL     OW 5620   6.990   3.683   2.774
 1574SOL    HW1 5621   6.991   3.600   2.717
 1574SOL    HW2 5622   7.001   3.763   2.716
 1575SOL     OW 5623   0.370   1.046   0.449
 1575SOL    HW1 5624   0.313   1.071   0.371
 1575SOL    HW2 5625   0.466   1.045   0.420
 1576SOL     OW 5626   0.481   6.646   2.524
 1576SOL    HW1 5627   0.472   6.673   2.620
 1576SOL    HW2 5628   0.424   6.705   2.467
 1577SOL     OW 5629   4.906   0.390   5.995
 1577SOL    HW1 5630   4.973   0.316   5.988
 1577SOL    HW2 5631   4.915   0.450   5.915
 1578SOL     OW 5632   5.347   1.053   0.221
 1578SOL    HW1 5633   5.395   1.018   0.141
 1578SOL    HW2 5634   5.266   0.998   0.239
 1579SOL     OW 5635   1.488   2.728   1.422
 1579SOL    HW1 5636   1.448   2.798   1.482
 1579SOL    HW2 5637   1.462   2.747   1.327
 1580SOL     OW 5638   3.522   3.713   3.174
 1580SOL    HW1 5639   3.496   3.717   3.078
 1580SOL    HW2 5640   3.524   3.618   3.205
 1581SOL     OW 5641   6.917   4.208   5.599
 1581SOL    HW1 5642   6.887   4.262   5.521
 1581SOL    HW2 5643   6.846   4.141   5.622
 1582SOL     OW 5644   4.988   6.524   5.557
 1582SOL    HW1 5645   4.985   6.429   5.528
 1582SOL    HW2 5646   4.978   6.584   5.477
 1583SOL     OW 5647   1.349   5.667   5.293
 1583SOL    HW1 5648   1.390   5.747   5.249
 1583SOL    HW2 5649   1.358   5.676   5.392
 1584SOL     OW 5650   0.660   4.995   6.712
 1584SOL    HW1 5651   0.570   5.015   6.750
 1584SOL    HW2 5652   0.654   4.917   6.649
 1585SOL     OW 5653   4.161   0.222   3.014
 1585SOL    HW1 5654   4.086   0.214   3.080
 1585SOL    HW2 5655   4.162   0.141   2.955
 1586SOL     OW 5656   2.720   5.558   4.076
 1586SOL    HW1 5657   2.654   5.503   4.128
 1586SOL    HW2 5658   2.812   5.526   4.097
 1587SOL     OW 5659   2.404   6.264   5.740
 1587SOL    HW1 5660   2.344   6.251   5.820
 1587SOL    HW2 5661   2.405   6.181   5.686
 1588SOL     OW 5662   5.843   6.993   2.496
 1588SOL    HW1 5663   5.778   6.923   2.525
 1588SOL    HW2 5664   5.798   0.032   2.432
 1589SOL     OW 5665   6.600   4.525   3.405
 1589SOL    HW1 5666   6.689   4.520   3.360
 1589SOL    HW2 5667   6.583   4.439   3.454
 1590SOL     OW 5668   0.121   1.293   3.592
 1590SOL    HW1 5669   0.080   1.360   3.529
 1590SOL    HW2 5670   0.175   1.227   3.539
 1591SOL     OW 5671   0.686   5.981   1.805
 1591SOL    HW1 5672   0.773   5.944   1.838
 1591SOL    HW2 5673   0.612   5.948   1.863
 1592SOL     OW 5674   0.802   4.112   0.008
 1592SOL    HW1 5675   0.897   4.130   7.005
 1592SOL    HW2 5676   0.794   4.017   0.039
 1593SOL     OW 5677   1.305   0.625   6.931
 1593SOL    HW1 5678   1.305   0.681   7.014
 1593SOL    HW2 5679   1.328   0.683   6.852
 1594SOL     OW 5680   6.892   0.604   1.624
 1594SOL    HW1 5681   6.821   0.673   1.611
 1594SOL    HW2 5682   6.866   0.544   1.699
 1595SOL     OW 5683   0.912   4.504   6.909
 1595SOL    HW1 5684   0.816   4.479   6.915
 1595SOL    HW2 5685   0.945   4.489   6.816
 1596SOL     OW 5686   5.786   4.528   2.093
 1596SOL    HW1 5687   5.841   4.611   2.087
 1596SOL    HW2 5688   5.822   4.470   2.166
 1597SOL     OW 5689   3.630   6.301   0.258
 1597SOL    HW1 5690   3.691   6.375   0.287
 1597SOL    HW2 5691   3.576   6.331   0.180
 1598SOL     OW 5692   1.260   5.579   6.617
 1598SOL    HW1 5693   1.318   5.526   6.555
 1598SOL    HW2 5694   1.274   5.549   6.711
 1599SOL     OW 5695   4.496   4.847   3.516
 1599SOL    HW1 5696   4.553   4.804   3.586
 1599SOL    HW2 5697   4.550   4.857   3.432
 1600SOL     OW 5698   3.496   0.168   2.758
 1600SOL    HW1 5699   3.570   0.209   2.811
 1600SOL    HW2 5700   3.535   0.117   2.681
 1601SOL     OW 5701   5.575   6.170   3.911
 1601SOL    HW1 5702   5.654   6.131   3.959
 1601SOL    HW2 5703   5.568   6.129   3.820
 1602SOL     OW 5704   4.554   5.341   3.579
 1602SOL    HW1 5705   4.485   5.307   3.516
 1602SOL    HW2 5706   4.552   5.287   3.663
 1603SOL     OW 5707   2.929   5.490   3.813
 1603SOL    HW1 5708   2.891   5.436   3.889
 1603SOL    HW2 5709   2.891   5.582   3.817
 1604SOL     OW 5710   3.769   4.887   2.277
 1604SOL    HW1 5711   3.728   4.836   2.202
 1604SOL    HW2 5712   3.713   4.876   2.360
 1605SOL     OW 5713   4.725   5.076   1.436
 1605SOL    HW1 5714   4.730   4.982   1.468
 1605SOL    HW2 5715   4.818   5.111   1.421
 1606SOL     OW 5716   4.158   6.193   4.935
 1606SOL    HW1 5717   4.091   6.170   4.864
 1606SOL    HW2 5718   4.110   6.228   5.016
 1607SOL     OW 5719   4.914   5.761   2.954
 1607SOL    HW1 5720   4.886   5.836   2.894
 1607SOL    HW2 5721   4.956   5.799   3.037
 1608SOL     OW 5722   6.245   0.558   2.722
 1608SOL    HW1 5723   6.176   0.628   2.740
 1608SOL    HW2 5724   6.201   0.476   2.686
 1609SOL     OW 5725   3.116   6.107   1.053
 1609SOL    HW1 5726   3.140   6.011   1.039
 1609SOL    HW2 5727   3.079   6.119   1.146
 1610SOL     OW 5728   4.807   0.206   0.361
 1610SOL    HW1 5729   4.817   0.300   0.393
 1610SOL    HW2 5730   4.710   0.183   0.357
 1611SOL     OW 5731   1.037   3.733   1.128
 1611SOL    HW1 5732   1.040   3.633   1.131
 1611SOL    HW2 5733   1.129   3.769   1.110
 1612SOL     OW 5734   3.371   6.541   1.608
 1612SOL    HW1 5735   3.383   6.462   1.667
 1612SOL    HW2 5736   3.438   6.612   1.632
 1613SOL     OW 5737   0.033   5.828   2.636
 1613SOL    HW1 5738   6.999   5.756   2.675
 1613SOL    HW2 5739   0.084   5.791   2.559
 1614SOL     OW 5740   6.077   2.875   6.215
 1614SOL    HW1 5741   6.028   2.943   6.269
 1614SOL    HW2 5742   6.140   2.823   6.274
 1615SOL     OW 5743   0.602   5.349   6.063
 1615SOL    HW1 5744   0.674   5.418   6.057
 1615SOL    HW2 5745   0.635   5.271   6.116
 1616SOL     OW 5746   2.349   1.398   4.808
 1616SOL    HW1 5747   2.448   1.408   4.812
 1616SOL    HW2 5748   2.312   1.388   4.901
 1617SOL     OW 5749   5.311   6.273   3.419
 1617SOL    HW1 5750   5.403   6.233   3.419
 1617SOL    HW2 5751   5.283   6.289   3.514
 1618SOL     OW 5752   2.785   5.858   3.062
 1618SOL    HW1 5753   2.737   5.819   2.983
 1618SOL    HW2 5754   2.789   5.790   3.136
 1619SOL     OW 5755   1.064   5.031   0.102
 1619SOL    HW1 5756   1.107   5.108   0.148
 1619SOL    HW2 5757   1.030   4.966   0.170
 1620SOL     OW 5758   3.407   5.272   0.348
 1620SOL    HW1 5759   3.396   5.221   0.263
 1620SOL    HW2 5760   3.504   5.275   0.373
 1621SOL     OW 5761   5.768   6.710   0.916
 1621SOL    HW1 5762   5.821   6.695   0.999
 1621SOL    HW2 5763   5.776   6.630   0.856
 1622SOL     OW 5764   0.482   4.115   4.895
 1622SOL    HW1 5765   0.491   4.181   4.820
 1622SOL    HW2 5766   0.409   4.050   4.873
 1623SOL     OW 5767   0.604   2.364   4.617
 1623SOL    HW1 5768   0.542   2.304   4.666
 1623SOL    HW2 5769   0.677   2.310   4.575
 1624SOL     OW 5770   4.388   0.902   0.804
 1624SOL    HW1 5771   4.302   0.949   0.784
 1624SOL    HW2 5772   4.369   0.805   0.820
 1625SOL     OW 5773   1.852   5.126   0.915
 1625SOL    HW1 5774   1.903   5.111   0.830
 1625SOL    HW2 5775   1.832   5.224   0.924
 1626SOL     OW 5776   3.178   1.860   1.239
 1626SOL    HW1 5777   3.088   1.879   1.278
 1626SOL    HW2 5778   3.189   1.761   1.230
 1627SOL     OW 5779   4.298   2.114   4.092
 1627SOL    HW1 5780   4.397   2.121   4.092
 1627SOL    HW2 5781   4.260   2.169   4.167
 1628SOL     OW 5782   5.685   6.219   6.332
 1628SOL    HW1 5783   5.695   6.188   6.427
 1628SOL    HW2 5784   5.771   6.259   6.301
 1629SOL     OW 5785   2.456   1.504   2.824
 1629SOL    HW1 5786   2.384   1.466   2.765
 1629SOL    HW2 5787   2.415   1.550   2.902
 1630SOL     OW 5788   0.917   4.315   0.201
 1630SOL    HW1 5789   0.840   4.267   0.158
 1630SOL    HW2 5790   0.882   4.385   0.263
 1631SOL     OW 5791   0.723   3.454   0.365
 1631SOL    HW1 5792   0.690   3.375   0.314
 1631SOL    HW2 5793   0.823   3.450   0.373
 1632SOL     OW 5794   6.556   4.652   2.508
 1632SOL    HW1 5795   6.570   4.640   2.607
 1632SOL    HW2 5796   6.521   4.567   2.469
 1633SOL     OW 5797   4.882   3.419   4.089
 1633SOL    HW1 5798   4.885   3.319   4.090
 1633SOL    HW2 5799   4.897   3.454   4.181
 1634SOL     OW 5800   5.155   0.388   4.804
 1634SOL    HW1 5801   5.090   0.336   4.859
 1634SOL    HW2 5802   5.187   0.331   4.728
 1635SOL     OW 5803   3.265   5.267   4.888
 1635SOL    HW1 5804   3.177   5.288   4.847
 1635SOL    HW2 5805   3.291   5.173   4.866
 1636SOL     OW 5806   5.295   5.757   1.392
 1636SOL    HW1 5807   5.241   5.832   1.430
 1636SOL    HW2 5808   5.234   5.693   1.345
 1637SOL     OW 5809   0.141   0.109   2.207
 1637SOL    HW1 5810   0.160   0.080   2.301
 1637SOL    HW2 5811   0.176   0.202   2.194
 1638SOL     OW 5812   6.851   3.361   1.555
 1638SOL    HW1 5813   6.944   3.329   1.572
 1638SOL    HW2 5814   6.852   3.460   1.541
 1639SOL     OW 5815   5.432   3.521   2.419
 1639SOL    HW1 5816   5.401   3.610   2.388
 1639SOL    HW2 5817   5.354   3.460   2.430
 1640SOL     OW 5818   6.309   0.588   0.579
 1640SOL    HW1 5819   6.234   0.573   0.643
 1640SOL    HW2 5820   6.276   0.574   0.486
 1641SOL     OW 5821   6.744   2.189   2.702
 1641SOL    HW1 5822   6.718   2.284   2.717
 1641SOL    HW2 5823   6.662   2.132   2.695
 1642SOL     OW 5824   5.177   2.765   5.742
 1642SOL    HW1 5825   5.178   2.690   5.808
 1642SOL    HW2 5826   5.270   2.797   5.727
 1643SOL     OW 5827   3.267   5.209   4.432
 1643SOL    HW1 5828   3.193   5.155   4.391
 1643SOL    HW2 5829   3.329   5.148   4.480
 1644SOL     OW 5830   6.069   2.972   0.854
 1644SOL    HW1 5831   5.974   2.955   0.879
 1644SOL    HW2 5832   6.090   3.069   0.864
 1645SOL     OW 5833   2.528   0.954   5.416
 1645SOL    HW1 5834   2.618   0.963   5.374
 1645SOL    HW2 5835   2.529   0.997   5.507
 1646SOL     OW 5836   0.937   5.923   0.600
 1646SOL    HW1 5837   0.910   6.019   0.588
 1646SOL    HW2 5838   0.994   5.894   0.523
 1647SOL     OW 5839   6.463   2.621   4.502
 1647SOL    HW1 5840   6.368   2.607   4.474
 1647SOL    HW2 5841   6.477   2.717   4.527
 1648SOL     OW 5842   5.670   6.440   0.848
 1648SOL    HW1 5843   5.621   6.436   0.936
 1648SOL    HW2 5844   5.635   6.369   0.788
 1649SOL     OW 5845   3.339   0.279   3.363
 1649SOL    HW1 5846   3.333   0.377   3.344
 1649SOL    HW2 5847   3.370   0.230   3.282
 1650SOL     OW 5848   2.843   5.561   6.752
 1650SOL    HW1 5849   2.749   5.568   6.720
 1650SOL    HW2 5850   2.905   5.556   6.674
 1651SOL     OW 5851   0.924   2.988   3.832
 1651SOL    HW1 5852   0.970   2.939   3.906
 1651SOL    HW2 5853   0.887   3.075   3.867
 1652SOL     OW 5854   0.951   2.691   1.445
 1652SOL    HW1 5855   1.013   2.673   1.522
 1652SOL    HW2 5856   0.895   2.610   1.428
 1653SOL     OW 5857   0.202   4.924   3.323
 1653SOL    HW1 5858   0.203   4.997   3.392
 1653SOL    HW2 5859   0.281   4.935   3.263
 1654SOL     OW 5860   0.485   3.270   1.886
 1654SOL    HW1 5861   0.449   3.223   1.967
 1654SOL    HW2 5862   0.532   3.204   1.827
 1655SOL     OW 5863   6.700   0.514   4.627
 1655SOL    HW1 5864   6.623   0.538   4.686
 1655SOL    HW2 5865   6.755   0.443   4.672
 1656SOL     OW 5866   2.255   5.123   4.090
 1656SOL    HW1 5867   2.182   5.177   4.133
 1656SOL    HW2 5868   2.326   5.185   4.056
 1657SOL     OW 5869   0.382   0.203   5.654
 1657SOL    HW1 5870   0.439   0.182   5.734
 1657SOL    HW2 5871   0.287   0.180   5.675
 1658SOL     OW 5872   6.921   0.078   0.184
 1658SOL    HW1 5873   6.975   0.153   0.146
 1658SOL    HW2 5874   6.866   0.112   0.260
 1659SOL     OW 5875   4.461   6.866   6.584
 1659SOL    HW1 5876   4.362   6.853   6.583
 1659SOL    HW2 5877   4.498   6.847   6.494
 1660SOL     OW 5878   1.649   6.692   1.804
 1660SOL    HW1 5879   1.685   6.765   1.862
 1660SOL    HW2 5880   1.672   6.711   1.709
 1661SOL     OW 5881   3.825   5.090   2.740
 1661SOL    HW1 5882   3.908   5.126   2.698
 1661SOL    HW2 5883   3.850   5.019   2.806
 1662SOL     OW 5884   0.215   1.297   4.906
 1662SOL    HW1 5885   0.313   1.315   4.908
 1662SOL    HW2 5886   0.171   1.362   4.845
 1663SOL     OW 5887   4.345   4.363   1.081
 1663SOL    HW1 5888   4.404   4.419   1.140
 1663SOL    HW2 5889   4.250   4.393   1.091
 1664SOL     OW 5890   0.602   0.115   4.999
 1664SOL    HW1 5891   0.559   0.030   4.968
 1664SOL    HW2 5892   0.691   0.095   5.038
 1665SOL     OW 5893   2.041   3.852   1.282
 1665SOL    HW1 5894   2.106   3.858   1.357
 1665SOL    HW2 5895   1.951   3.882   1.314
 1666SOL     OW 5896   5.357   0.461   6.317
 1666SOL    HW1 5897   5.292   0.530   6.350
 1666SOL    HW2 5898   5.449   0.486   6.346
 1667SOL     OW 5899   0.461   6.730   1.331
 1667SOL    HW1 5900   0.531   6.793   1.298
 1667SOL    HW2 5901   0.378   6.781   1.352
 1668SOL     OW 5902   4.992   4.142   3.486
 1668SOL    HW1 5903   5.035   4.099   3.407
 1668SOL    HW2 5904   4.965   4.071   3.552
 1669SOL     OW 5905   0.386   3.668   5.342
 1669SOL    HW1 5906   0.457   3.658   5.272
 1669SOL    HW2 5907   0.309   3.718   5.304
 1670SOL     OW 5908   2.396   4.558   5.966
 1670SOL    HW1 5909   2.428   4.545   5.872
 1670SOL    HW2 5910   2.330   4.486   5.989
 1671SOL     OW 5911   4.982   1.732   1.913
 1671SOL    HW1 5912   4.977   1.818   1.963
 1671SOL    HW2 5913   4.910   1.670   1.945
 1672SOL     OW 5914   0.659   3.142   6.914
 1672SOL    HW1 5915   0.695   3.174   6.826
 1672SOL    HW2 5916   0.676   3.044   6.923
 1673SOL     OW 5917   2.208   1.809   4.411
 1673SOL    HW1 5918   2.260   1.804   4.496
 1673SOL    HW2 5919   2.142   1.884   4.417
 1674SOL     OW 5920   4.574   2.579   3.133
 1674SOL    HW1 5921   4.536   2.556   3.222
 1674SOL    HW2 5922   4.543   2.512   3.065
 1675SOL     OW 5923   5.099   0.715   1.045
 1675SOL    HW1 5924   5.124   0.659   0.966
 1675SOL    HW2 5925   5.120   0.811   1.025
 1676SOL     OW 5926   1.921   1.718   2.748
 1676SOL    HW1 5927   1.899   1.696   2.843
 1676SOL    HW2 5928   1.879   1.806   2.724
 1677SOL     OW 5929   4.107   3.489   3.398
 1677SOL    HW1 5930   4.111   3.445   3.487
 1677SOL    HW2 5931   4.122   3.421   3.326
 1678SOL     OW 5932   0.362   6.660   0.845
 1678SOL    HW1 5933   0.376   6.702   0.935
 1678SOL    HW2 5934   0.265   6.654   0.825
 1679SOL     OW 5935   1.795   1.700   5.283
 1679SOL    HW1 5936   1.843   1.779   5.321
 1679SOL    HW2 5937   1.705   1.690   5.327
 1680SOL     OW 5938   4.861   2.709   4.483
 1680SOL    HW1 5939   4.830   2.757   4.565
 1680SOL    HW2 5940   4.862   2.610   4.501
 1681SOL     OW 5941   2.245   5.842   3.566
 1681SOL    HW1 5942   2.271   5.749   3.593
 1681SOL    HW2 5943   2.255   5.851   3.467
 1682SOL     OW 5944   2.687   6.938   5.604
 1682SOL    HW1 5945   2.733   7.001   5.541
 1682SOL    HW2 5946   2.614   6.986   5.652
 1683SOL     OW 5947   6.110   4.605   2.442
 1683SOL    HW1 5948   6.189   4.663   2.419
 1683SOL    HW2 5949   6.129   4.555   2.527
 1684SOL     OW 5950   1.945   4.832   1.512
 1684SOL    HW1 5951   1.937   4.765   1.586
 1684SOL    HW2 5952   2.022   4.808   1.453
 1685SOL     OW 5953   0.336   1.239   5.268
 1685SOL    HW1 5954   0.367   1.302   5.197
 1685SOL    HW2 5955   0.412   1.181   5.297
 1686SOL     OW 5956   4.843   5.257   3.206
 1686SOL    HW1 5957   4.818   5.203   3.285
 1686SOL    HW2 5958   4.784   5.233   3.128
 1687SOL     OW 5959   6.631   3.726   2.730
 1687SOL    HW1 5960   6.610   3.804   2.790
 1687SOL    HW2 5961   6.651   3.646   2.785
 1688SOL     OW 5962   2.047   1.968   3.818
 1688SOL    HW1 5963   2.006   2.002   3.903
 1688SOL    HW2 5964   2.011   2.020   3.741
 1689SOL     OW 5965   6.041   0.869   2.207
 1689SOL    HW1 5966   6.126   0.842   2.162
 1689SOL    HW2 5967   5.964   0.857   2.144
 1690SOL     OW 5968   0.705   4.337   4.386
 1690SOL    HW1 5969   0.795   4.299   4.367
 1690SOL    HW2 5970   0.711   4.403   4.461
 1691SOL     OW 5971   5.243   2.725   5.114
 1691SOL    HW1 5972   5.175   2.739   5.186
 1691SOL    HW2 5973   5.227   2.636   5.071
 1692SOL     OW 5974   6.041   5.341   1.927
 1692SOL    HW1 5975   5.995   5.429   1.932
 1692SOL    HW2 5976   6.075   5.326   1.834
 1693SOL     OW 5977   6.278   0.948   5.665
 1693SOL    HW1 5978   6.234   0.918   5.580
 1693SOL    HW2 5979   6.225   1.023   5.705
 1694SOL     OW 5980   5.241   0.928   4.840
 1694SOL    HW1 5981   5.305   0.954   4.767
 1694SOL    HW2 5982   5.208   1.011   4.886
 1695SOL     OW 5983   3.815   0.557   6.696
 1695SOL    HW1 5984   3.806   0.650   6.731
 1695SOL    HW2 5985   3.769   0.493   6.759
 1696SOL     OW 5986   4.502   5.610   7.004
 1696SOL    HW1 5987   4.484   5.513   6.994
 1696SOL    HW2 5988   4.582   5.636   6.950
 1697SOL     OW 5989   5.738   2.229   1.157
 1697SOL    HW1 5990   5.757   2.226   1.255
 1697SOL    HW2 5991   5.802   2.292   1.113
 1698SOL     OW 5992   3.361   0.985   2.383
 1698SOL    HW1 5993   3.270   0.956   2.411
 1698SOL    HW2 5994   3.406   1.033   2.458
 1699SOL     OW 5995   2.389   0.908   6.993
 1699SOL    HW1 5996   2.432   0.992   6.959
 1699SOL    HW2 5997   2.394   0.906   0.068
 1700SOL     OW 5998   6.043   3.480   2.941
 1700SOL    HW1 5999   5.995   3.566   2.928
 1700SOL    HW2 6000   6.004   3.431   3.019
 1701SOL     OW 6001   6.617   4.714   4.844
 1701SOL    HW1 6002   6.658   4.626   4.819
 1701SOL    HW2 6003   6.677   4.788   4.814
 1702SOL     OW 6004   1.922   2.483   5.710
 1702SOL    HW1 6005   1.941   2.385   5.705
 1702SOL    HW2 6006   1.919   2.521   5.617
 1703SOL     OW 6007   3.196   1.727   6.813
 1703SOL    HW1 6008   3.138   1.646   6.814
 1703SOL    HW2 6009   3.181   1.780   6.730
 1704SOL     OW 6010   2.683   1.673   0.938
 1704SOL    HW1 6011   2.616   1.599   0.932
 1704SOL    HW2 6012   2.748   1.654   1.012
 1705SOL     OW 6013   3.759   1.408   1.570
 1705SOL    HW1 6014   3.751   1.424   1.669
 1705SOL    HW2 6015   3.744   1.494   1.521
 1706SOL     OW 6016   4.137   2.010   0.695
 1706SOL    HW1 6017   4.043   1.990   0.668
 1706SOL    HW2 6018   4.140   2.095   0.747
 1707SOL     OW 6019   4.802   1.504   2.473
 1707SOL    HW1 6020   4.754   1.524   2.558
 1707SOL    HW2 6021   4.839   1.411   2.477
 1708SOL     OW 6022   3.169   5.280   1.998
 1708SOL    HW1 6023   3.202   5.354   2.056
 1708SOL    HW2 6024   3.241   5.211   1.989
 1709SOL     OW 6025   5.232   5.819   0.758
 1709SOL    HW1 6026   5.156   5.755   0.745
 1709SOL    HW2 6027   5.233   5.885   0.684
 1710SOL     OW 6028   4.266   4.956   2.816
 1710SOL    HW1 6029   4.297   5.021   2.747
 1710SOL    HW2 6030   4.206   5.002   2.881
 1711SOL     OW 6031   3.279   5.811   6.353
 1711SOL    HW1 6032   3.230   5.898   6.366
 1711SOL    HW2 6033   3.308   5.804   6.258
 1712SOL     OW 6034   0.458   2.033   4.307
 1712SOL    HW1 6035   0.532   2.095   4.280
 1712SOL    HW2 6036   0.370   2.070   4.276
 1713SOL     OW 6037   4.291   0.884   2.765
 1713SOL    HW1 6038   4.381   0.928   2.765
 1713SOL    HW2 6039   4.270   0.850   2.673
 1714SOL     OW 6040   3.626   2.884   6.756
 1714SOL    HW1 6041   3.549   2.831   6.722
 1714SOL    HW2 6042   3.648   2.857   6.849
 1715SOL     OW 6043   1.273   6.448   2.315
 1715SOL    HW1 6044   1.251   6.438   2.218
 1715SOL    HW2 6045   1.335   6.526   2.326
 1716SOL     OW 6046   4.437   0.450   4.165
 1716SOL    HW1 6047   4.526   0.466   4.123
 1716SOL    HW2 6048   4.380   0.394   4.105
 1717SOL     OW 6049   3.749   6.051   5.740
 1717SOL    HW1 6050   3.653   6.037   5.715
 1717SOL    HW2 6051   3.784   5.970   5.786
 1718SOL     OW 6052   2.060   2.656   1.954
 1718SOL    HW1 6053   1.996   2.588   1.916
 1718SOL    HW2 6054   2.048   2.743   1.906
 1719SOL     OW 6055   0.695   5.165   1.729
 1719SOL    HW1 6056   0.721   5.259   1.751
 1719SOL    HW2 6057   0.777   5.107   1.730
 1720SOL     OW 6058   6.514   2.860   5.522
 1720SOL    HW1 6059   6.416   2.859   5.545
 1720SOL    HW2 6060   6.549   2.953   5.529
 1721SOL     OW 6061   1.533   1.532   1.899
 1721SOL    HW1 6062   1.611   1.527   1.962
 1721SOL    HW2 6063   1.561   1.579   1.815
 1722SOL     OW 6064   2.950   2.114   3.154
 1722SOL    HW1 6065   2.906   2.201   3.177
 1722SOL    HW2 6066   2.943   2.098   3.056
 1723SOL     OW 6067   5.403   2.841   0.365
 1723SOL    HW1 6068   5.322   2.793   0.330
 1723SOL    HW2 6069   5.380   2.884   0.452
 1724SOL     OW 6070   6.609   2.391   1.297
 1724SOL    HW1 6071   6.552   2.471   1.318
 1724SOL    HW2 6072   6.703   2.408   1.325
 1725SOL     OW 6073   2.263   5.784   6.719
 1725SOL    HW1 6074   2.299   5.845   6.790
 1725SOL    HW2 6075   2.275   5.689   6.746
 1726SOL     OW 6076   5.701   3.801   4.111
 1726SOL    HW1 6077   5.796   3.826   4.095
 1726SOL    HW2 6078   5.656   3.872   4.165
 1727SOL     OW 6079   3.242   3.513   3.356
 1727SOL    HW1 6080   3.238   3.488   3.260
 1727SOL    HW2 6081   3.178   3.588   3.373
 1728SOL     OW 6082   4.945   2.309   5.112
 1728SOL    HW1 6083   4.903   2.377   5.172
 1728SOL    HW2 6084   4.988   2.238   5.168
 1729SOL     OW 6085   1.879   3.960   1.929
 1729SOL    HW1 6086   1.875   4.055   1.898
 1729SOL    HW2 6087   1.849   3.954   2.024
 1730SOL     OW 6088   2.641   4.963   6.257
 1730SOL    HW1 6089   2.568   5.015   6.299
 1730SOL    HW2 6090   2.624   4.865   6.268
 1731SOL     OW 6091   5.927   3.966   4.078
 1731SOL    HW1 6092   6.015   3.978   4.124
 1731SOL    HW2 6093   5.860   4.029   4.117
 1732SOL     OW 6094   1.706   4.873   6.338
 1732SOL    HW1 6095   1.780   4.805   6.342
 1732SOL    HW2 6096   1.739   4.955   6.291
 1733SOL     OW 6097   3.225   3.941   0.437
 1733SOL    HW1 6098   3.232   3.844   0.413
 1733SOL    HW2 6099   3.137   3.977   0.405
 1734SOL     OW 6100   0.279   2.842   1.218
 1734SOL    HW1 6101   0.320   2.789   1.292
 1734SOL    HW2 6102   0.317   2.934   1.217
 1735SOL     OW 6103   4.018   5.429   6.500
 1735SOL    HW1 6104   4.107   5.453   6.460
 1735SOL    HW2 6105   3.945   5.454   6.437
 1736SOL     OW 6106   4.877   3.281   0.750
 1736SOL    HW1 6107   4.910   3.220   0.822
 1736SOL    HW2 6108   4.949   3.346   0.726
 1737SOL     OW 6109   4.709   1.139   5.018
 1737SOL    HW1 6110   4.685   1.201   5.093
 1737SOL    HW2 6111   4.629   1.127   4.959
 1738SOL     OW 6112   1.085   3.673   4.236
 1738SOL    HW1 6113   1.024   3.699   4.311
 1738SOL    HW2 6114   1.030   3.649   4.156
 1739SOL     OW 6115   5.135   6.958   4.011
 1739SOL    HW1 6116   5.091   6.938   4.099
 1739SOL    HW2 6117   5.082   0.003   3.962
 1740SOL     OW 6118   6.829   2.342   4.562
 1740SOL    HW1 6119   6.865   2.294   4.483
 1740SOL    HW2 6120   6.847   2.440   4.553
 1741SOL     OW 6121   1.130   2.116   4.417
 1741SOL    HW1 6122   1.033   2.094   4.411
 1741SOL    HW2 6123   1.182   2.057   4.356
 1742SOL     OW 6124   6.212   5.656   6.389
 1742SOL    HW1 6125   6.219   5.722   6.463
 1742SOL    HW2 6126   6.251   5.568   6.418
 1743SOL     OW 6127   1.815   0.986   3.097
 1743SOL    HW1 6128   1.740   0.935   3.141
 1743SOL    HW2 6129   1.857   0.929   3.027
 1744SOL     OW 6130   4.832   2.010   3.968
 1744SOL    HW1 6131   4.823   1.967   3.878
 1744SOL    HW2 6132   4.745   2.005   4.016
 1745SOL     OW 6133   6.925   6.610   1.521
 1745SOL    HW1 6134   6.878   6.698   1.515
 1745SOL    HW2 6135   6.916   6.561   1.435
 1746SOL     OW 6136   1.842   4.093   3.290
 1746SOL    HW1 6137   1.842   4.182   3.244
 1746SOL    HW2 6138   1.748   4.058   3.294
 1747SOL     OW 6139   3.454   1.143   2.573
 1747SOL    HW1 6140   3.465   1.234   2.533
 1747SOL    HW2 6141   3.413   1.151   2.664
 1748SOL     OW 6142   6.672   1.909   4.858
 1748SOL    HW1 6143   6.646   1.813   4.849
 1748SOL    HW2 6144   6.704   1.944   4.770
 1749SOL     OW 6145   2.318   5.256   1.149
 1749SOL    HW1 6146   2.316   5.173   1.204
 1749SOL    HW2 6147   2.228   5.300   1.151
 1750SOL     OW 6148   4.427   0.182   5.583
 1750SOL    HW1 6149   4.500   0.195   5.650
 1750SOL    HW2 6150   4.393   0.088   5.590
 1751SOL     OW 6151   6.103   2.730   5.026
 1751SOL    HW1 6152   6.136   2.654   5.082
 1751SOL    HW2 6153   6.177   2.764   4.968
 1752SOL     OW 6154   6.786   0.979   1.317
 1752SOL    HW1 6155   6.768   1.003   1.221
 1752SOL    HW2 6156   6.777   1.060   1.374
 1753SOL     OW 6157   6.046   1.224   1.749
 1753SOL    HW1 6158   6.069   1.127   1.758
 1753SOL    HW2 6159   6.062   1.254   1.655
 1754SOL     OW 6160   2.946   5.687   5.805
 1754SOL    HW1 6161   2.866   5.684   5.866
 1754SOL    HW2 6162   2.945   5.608   5.744
 1755SOL     OW 6163   6.086   0.039   5.087
 1755SOL    HW1 6164   6.133   6.975   5.074
 1755SOL    HW2 6165   6.013   0.028   5.154
 1756SOL     OW 6166   5.745   0.690   5.977
 1756SOL    HW1 6167   5.704   0.768   6.026
 1756SOL    HW2 6168   5.740   0.608   6.034
 1757SOL     OW 6169   2.458   5.180   5.112
 1757SOL    HW1 6170   2.463   5.277   5.087
 1757SOL    HW2 6171   2.532   5.158   5.175
 1758SOL     OW 6172   2.125   6.190   4.744
 1758SOL    HW1 6173   2.130   6.286   4.772
 1758SOL    HW2 6174   2.039   6.150   4.775
 1759SOL     OW 6175   1.390   6.535   6.924
 1759SOL    HW1 6176   1.300   6.498   6.905
 1759SOL    HW2 6177   1.432   6.568   6.839
 1760SOL     OW 6178   6.107   0.970   5.296
 1760SOL    HW1 6179   6.115   1.067   5.271
 1760SOL    HW2 6180   6.013   0.940   5.284
 1761SOL     OW 6181   6.535   1.749   1.944
 1761SOL    HW1 6182   6.525   1.810   1.865
 1761SOL    HW2 6183   6.545   1.655   1.911
 1762SOL     OW 6184   0.376   1.659   5.222
 1762SOL    HW1 6185   0.402   1.741   5.172
 1762SOL    HW2 6186   0.377   1.677   5.320
 1763SOL     OW 6187   0.556   4.092   4.446
 1763SOL    HW1 6188   0.603   4.174   4.479
 1763SOL    HW2 6189   0.478   4.119   4.389
 1764SOL     OW 6190   1.463   5.078   2.246
 1764SOL    HW1 6191   1.482   5.064   2.148
 1764SOL    HW2 6192   1.449   5.175   2.264
 1765SOL     OW 6193   5.583   3.606   2.056
 1765SOL    HW1 6194   5.556   3.576   1.964
 1765SOL    HW2 6195   5.633   3.532   2.101
 1766SOL     OW 6196   4.066   4.846   4.658
 1766SOL    HW1 6197   4.079   4.749   4.676
 1766SOL    HW2 6198   4.063   4.896   4.745
 1767SOL     OW 6199   0.647   4.807   2.278
 1767SOL    HW1 6200   0.731   4.753   2.278
 1767SOL    HW2 6201   0.670   4.905   2.284
 1768SOL     OW 6202   4.988   6.527   2.456
 1768SOL    HW1 6203   4.915   6.499   2.518
 1768SOL    HW2 6204   5.072   6.476   2.479
 1769SOL     OW 6205   5.476   0.418   6.686
 1769SOL    HW1 6206   5.391   0.430   6.738
 1769SOL    HW2 6207   5.510   0.508   6.658
 1770SOL     OW 6208   1.990   5.055   6.317
 1770SOL    HW1 6209   1.983   5.153   6.332
 1770SOL    HW2 6210   2.060   5.017   6.378
 1771SOL     OW 6211   0.795   3.884   6.032
 1771SOL    HW1 6212   0.754   3.965   6.074
 1771SOL    HW2 6213   0.723   3.831   5.986
 1772SOL     OW 6214   2.355   4.278   3.860
 1772SOL    HW1 6215   2.395   4.294   3.769
 1772SOL    HW2 6216   2.257   4.261   3.851
 1773SOL     OW 6217   0.780   6.548   5.164
 1773SOL    HW1 6218   0.816   6.455   5.174
 1773SOL    HW2 6219   0.759   6.584   5.255
 1774SOL     OW 6220   6.016   5.223   1.239
 1774SOL    HW1 6221   6.028   5.318   1.267
 1774SOL    HW2 6222   5.919   5.200   1.241
 1775SOL     OW 6223   2.349   5.664   6.108
 1775SOL    HW1 6224   2.311   5.595   6.046
 1775SOL    HW2 6225   2.320   5.755   6.078
 1776SOL     OW 6226   4.284   1.137   6.241
 1776SOL    HW1 6227   4.378   1.142   6.207
 1776SOL    HW2 6228   4.223   1.184   6.178
 1777SOL     OW 6229   4.602   6.644   6.729
 1777SOL    HW1 6230   4.577   6.587   6.807
 1777SOL    HW2 6231   4.532   6.713   6.714
 1778SOL     OW 6232   5.948   0.255   4.174
 1778SOL    HW1 6233   5.876   0.235   4.241
 1778SOL    HW2 6234   5.909   0.253   4.082
 1779SOL     OW 6235   5.372   5.988   3.529
 1779SOL    HW1 6236   5.387   5.942   3.616
 1779SOL    HW2 6237   5.275   6.012   3.520
 1780SOL     OW 6238   2.294   5.529   5.175
 1780SOL    HW1 6239   2.364   5.539   5.246
 1780SOL    HW2 6240   2.329   5.567   5.089
 1781SOL     OW 6241   4.301   0.501   3.897
 1781SOL    HW1 6242   4.346   0.418   3.863
 1781SOL    HW2 6243   4.230   0.475   3.963
 1782SOL     OW 6244   1.671   1.848   2.573
 1782SOL    HW1 6245   1.589   1.829   2.628
 1782SOL    HW2 6246   1.729   1.913   2.621
 1783SOL     OW 6247   1.855   4.339   6.483
 1783SOL    HW1 6248   1.907   4.423   6.499
 1783SOL    HW2 6249   1.878   4.303   6.392
 1784SOL     OW 6250   2.553   0.192   0.884
 1784SOL    HW1 6251   2.499   0.229   0.959
 1784SOL    HW2 6252   2.504   0.206   0.797
 1785SOL     OW 6253   1.044   0.032   4.169
 1785SOL    HW1 6254   1.005   6.968   4.144
 1785SOL    HW2 6255   1.142   0.021   4.188
 1786SOL     OW 6256   0.865   6.181   0.661
 1786SOL    HW1 6257   0.776   6.224   0.644
 1786SOL    HW2 6258   0.867   6.143   0.753
 1787SOL     OW 6259   1.944   3.942   5.859
 1787SOL    HW1 6260   1.880   3.916   5.930
 1787SOL    HW2 6261   1.943   3.873   5.786
 1788SOL     OW 6262   4.729   3.780   0.795
 1788SOL    HW1 6263   4.687   3.726   0.723
 1788SOL    HW2 6264   4.771   3.862   0.755
 1789SOL     OW 6265   6.592   3.899   1.723
 1789SOL    HW1 6266   6.672   3.883   1.666
 1789SOL    HW2 6267   6.547   3.984   1.694
 1790SOL     OW 6268   2.718   2.387   4.395
 1790SOL    HW1 6269   2.809   2.356   4.421
 1790SOL    HW2 6270   2.679   2.442   4.469
 1791SOL     OW 6271   5.276   6.716   3.256
 1791SOL    HW1 6272   5.357   6.663   3.280
 1791SOL    HW2 6273   5.290   6.811   3.283
 1792SOL     OW 6274   0.149   1.455   5.296
 1792SOL    HW1 6275   0.190   1.364   5.301
 1792SOL    HW2 6276   0.215   1.520   5.260
 1793SOL     OW 6277   6.930   1.350   5.919
 1793SOL    HW1 6278   6.980   1.320   5.838
 1793SOL    HW2 6279   6.962   1.301   5.999
 1794SOL     OW 6280   0.972   0.088   6.208
 1794SOL    HW1 6281   1.023   0.032   6.273
 1794SOL    HW2 6282   0.905   0.143   6.257
 1795SOL     OW 6283   6.204   4.935   0.059
 1795SOL    HW1 6284   6.263   5.003   0.103
 1795SOL    HW2 6285   6.261   4.867   0.013
 1796SOL     OW 6286   0.935   6.660   6.211
 1796SOL    HW1 6287   0.923   6.709   6.298
 1796SOL    HW2 6288   0.960   6.725   6.139
 1797SOL     OW 6289   2.864   5.634   4.907
 1797SOL    HW1 6290   2.810   5.569   4.853
 1797SOL    HW2 6291   2.950   5.591   4.934
 1798SOL     OW 6292   3.076   3.914   4.347
 1798SOL    HW1 6293   3.049   3.897   4.252
 1798SOL    HW2 6294   3.046   3.838   4.405
 1799SOL     OW 6295   3.301   1.190   0.294
 1799SOL    HW1 6296   3.237   1.252   0.248
 1799SOL    HW2 6297   3.345   1.239   0.369
 1800SOL     OW 6298   5.450   3.329   4.578
 1800SOL    HW1 6299   5.520   3.335   4.507
 1800SOL    HW2 6300   5.458   3.241   4.625
 1801SOL     OW 6301   1.088   1.730   2.056
 1801SOL    HW1 6302   1.127   1.643   2.026
 1801SOL    HW2 6303   1.035   1.770   1.982
 1802SOL     OW 6304   6.897   5.131   3.850
 1802SOL    HW1 6305   6.954   5.049   3.848
 1802SOL    HW2 6306   6.814   5.112   3.903
 1803SOL     OW 6307   1.005   0.038   3.406
 1803SOL    HW1 6308   1.058   6.979   3.388
 1803SOL    HW2 6309   1.064   0.118   3.394
 1804SOL     OW 6310   2.372   3.551   5.659
 1804SOL    HW1 6311   2.438   3.602   5.604
 1804SOL    HW2 6312   2.363   3.458   5.623
 1805SOL     OW 6313   0.480   6.378   6.644
 1805SOL    HW1 6314   0.555   6.324   6.681
 1805SOL    HW2 6315   0.475   6.364   6.545
 1806SOL     OW 6316   6.853   2.156   2.438
 1806SOL    HW1 6317   6.777   2.188   2.495
 1806SOL    HW2 6318   6.842   2.058   2.421
 1807SOL     OW 6319   6.439   3.393   1.986
 1807SOL    HW1 6320   6.509   3.336   1.943
 1807SOL    HW2 6321   6.361   3.404   1.925
 1808SOL     OW 6322   5.040   2.094   5.878
 1808SOL    HW1 6323   5.112   2.160   5.860
 1808SOL    HW2 6324   5.067   2.005   5.841
 1809SOL     OW 6325   3.751   1.601   5.759
 1809SOL    HW1 6326   3.675   1.659   5.787
 1809SOL    HW2 6327   3.814   1.587   5.835
 1810SOL     OW 6328   0.443   0.392   4.228
 1810SOL    HW1 6329   0.377   0.464   4.208
 1810SOL    HW2 6330   0.533   0.419   4.194
 1811SOL     OW 6331   4.454   5.904   2.433
 1811SOL    HW1 6332   4.409   5.905   2.523
 1811SOL    HW2 6333   4.512   5.823   2.426
 1812SOL     OW 6334   4.617   6.763   4.915
 1812SOL    HW1 6335   4.696   6.762   4.854
 1812SOL    HW2 6336   4.616   6.678   4.968
 1813SOL     OW 6337   4.646   4.385   2.493
 1813SOL    HW1 6338   4.581   4.332   2.438
 1813SOL    HW2 6339   4.731   4.333   2.504
 1814SOL     OW 6340   6.996   6.354   0.376
 1814SOL    HW1 6341   6.984   6.293   0.298
 1814SOL    HW2 6342   0.070   6.362   0.398
 1815SOL     OW 6343   6.002   6.547   1.817
 1815SOL    HW1 6344   6.082   6.594   1.778
 1815SOL    HW2 6345   5.998   6.454   1.783
 1816SOL     OW 6346   4.438   5.223   6.407
 1816SOL    HW1 6347   4.460   5.141   6.354
 1816SOL    HW2 6348   4.343   5.219   6.438
 1817SOL     OW 6349   1.006   1.637   3.479
 1817SOL    HW1 6350   1.070   1.693   3.427
 1817SOL    HW2 6351   1.025   1.648   3.577
 1818SOL     OW 6352   1.645   6.646   1.038
 1818SOL    HW1 6353   1.631   6.655   0.939
 1818SOL    HW2 6354   1.578   6.701   1.086
 1819SOL     OW 6355   2.272   5.099   3.199
 1819SOL    HW1 6356   2.231   5.181   3.160
 1819SOL    HW2 6357   2.372   5.104   3.192
 1820SOL     OW 6358   3.937   0.388   4.367
 1820SOL    HW1 6359   3.976   0.297   4.381
 1820SOL    HW2 6360   3.989   0.454   4.420
 1821SOL     OW 6361   3.674   2.070   2.400
 1821SOL    HW1 6362   3.754   2.117   2.361
 1821SOL    HW2 6363   3.651   1.992   2.342
 1822SOL     OW 6364   6.998   2.711   2.212
 1822SOL    HW1 6365   6.914   2.732   2.161
 1822SOL    HW2 6366   0.041   2.783   2.197
 1823SOL     OW 6367   3.612   6.587   2.555
 1823SOL    HW1 6368   3.632   6.525   2.631
 1823SOL    HW2 6369   3.549   6.543   2.491
 1824SOL     OW 6370   3.661   2.684   1.317
 1824SOL    HW1 6371   3.741   2.734   1.349
 1824SOL    HW2 6372   3.679   2.646   1.226
 1825SOL     OW 6373   2.058   1.464   4.994
 1825SOL    HW1 6374   2.084   1.559   5.013
 1825SOL    HW2 6375   2.128   1.403   5.032
 1826SOL     OW 6376   3.732   2.054   1.758
 1826SOL    HW1 6377   3.739   2.143   1.802
 1826SOL    HW2 6378   3.719   2.066   1.660
 1827SOL     OW 6379   5.308   3.861   0.947
 1827SOL    HW1 6380   5.373   3.791   0.918
 1827SOL    HW2 6381   5.344   3.908   1.028
 1828SOL     OW 6382   1.653   3.365   5.278
 1828SOL    HW1 6383   1.728   3.432   5.270
 1828SOL    HW2 6384   1.673   3.303   5.353
 1829SOL     OW 6385   3.693   0.771   3.580
 1829SOL    HW1 6386   3.600   0.739   3.562
 1829SOL    HW2 6387   3.727   0.727   3.663
 1830SOL     OW 6388   5.017   6.567   5.089
 1830SOL    HW1 6389   5.038   6.661   5.062
 1830SOL    HW2 6390   5.090   6.532   5.147
 1831SOL     OW 6391   4.591   5.574   1.483
 1831SOL    HW1 6392   4.682   5.588   1.444
 1831SOL    HW2 6393   4.563   5.656   1.532
 1832SOL     OW 6394   2.699   3.651   0.600
 1832SOL    HW1 6395   2.784   3.600   0.591
 1832SOL    HW2 6396   2.629   3.593   0.642
 1833SOL     OW 6397   5.104   0.155   0.836
 1833SOL    HW1 6398   5.162   0.075   0.827
 1833SOL    HW2 6399   5.014   0.136   0.796
 1834SOL     OW 6400   2.395   2.533   6.331
 1834SOL    HW1 6401   2.357   2.625   6.318
 1834SOL    HW2 6402   2.325   2.465   6.308
 1835SOL     OW 6403   6.669   5.803   0.798
 1835SOL    HW1 6404   6.738   5.781   0.729
 1835SOL    HW2 6405   6.591   5.740   0.790
 1836SOL     OW 6406   5.242   2.102   1.762
 1836SOL    HW1 6407   5.242   2.059   1.852
 1836SOL    HW2 6408   5.151   2.136   1.741
 1837SOL     OW 6409   3.073   1.802   6.544
 1837SOL    HW1 6410   3.031   1.786   6.455
 1837SOL    HW2 6411   3.013   1.859   6.600
 1838SOL     OW 6412   6.679   1.160   0.492
 1838SOL    HW1 6413   6.685   1.099   0.571
 1838SOL    HW2 6414   6.586   1.158   0.455
 1839SOL     OW 6415   0.177   1.331   6.816
 1839SOL    HW1 6416   0.108   1.302   6.883
 1839SOL    HW2 6417   0.216   1.250   6.772
 1840SOL     OW 6418   4.620   6.467   3.396
 1840SOL    HW1 6419   4.715   6.496   3.389
 1840SOL    HW2 6420   4.582   6.498   3.483
 1841SOL     OW 6421   2.133   1.036   2.276
 1841SOL    HW1 6422   2.183   1.007   2.195
 1841SOL    HW2 6423   2.118   1.135   2.272
 1842SOL     OW 6424   1.364   5.151   0.119
 1842SOL    HW1 6425   1.388   5.054   0.115
 1842SOL    HW2 6426   1.329   5.181   0.030
 1843SOL     OW 6427   3.554   1.176   4.601
 1843SOL    HW1 6428   3.566   1.093   4.547
 1843SOL    HW2 6429   3.547   1.255   4.541
 1844SOL     OW 6430   5.455   1.851   7.023
 1844SOL    HW1 6431   5.554   1.856   7.012
 1844SOL    HW2 6432   5.414   1.939   6.996
 1845SOL     OW 6433   1.536   1.251   2.957
 1845SOL    HW1 6434   1.500   1.160   2.940
 1845SOL    HW2 6435   1.583   1.252   3.046
 1846SOL     OW 6436   4.224   1.432   2.162
 1846SOL    HW1 6437   4.312   1.397   2.194
 1846SOL    HW2 6438   4.156   1.423   2.234
 1847SOL     OW 6439   2.196   0.179   5.386
 1847SOL    HW1 6440   2.238   0.097   5.346
 1847SOL    HW2 6441   2.250   0.209   5.465
 1848SOL     OW 6442   2.595   5.615   4.397
 1848SOL    HW1 6443   2.550   5.599   4.309
 1848SOL    HW2 6444   2.596   5.713   4.417
 1849SOL     OW 6445   4.640   2.747   1.871
 1849SOL    HW1 6446   4.707   2.715   1.938
 1849SOL    HW2 6447   4.620   2.844   1.888
 1850SOL     OW 6448   5.194   1.723   1.676
 1850SOL    HW1 6449   5.095   1.713   1.676
 1850SOL    HW2 6450   5.221   1.785   1.602
 1851SOL     OW 6451   6.974   3.822   5.038
 1851SOL    HW1 6452   6.902   3.886   5.067
 1851SOL    HW2 6453   6.942   3.770   4.959
 1852SOL     OW 6454   1.301   5.879   2.276
 1852SOL    HW1 6455   1.253   5.857   2.191
 1852SOL    HW2 6456   1.371   5.809   2.293
 1853SOL     OW 6457   0.122   2.663   4.560
 1853SOL    HW1 6458   0.059   2.611   4.619
 1853SOL    HW2 6459   0.148   2.747   4.607
 1854SOL     OW 6460   0.171   6.965   3.738
 1854SOL    HW1 6461   0.105   6.893   3.715
 1854SOL    HW2 6462   0.236   6.930   3.806
 1855SOL     OW 6463   4.866   3.163   4.802
 1855SOL    HW1 6464   4.794   3.208   4.750
 1855SOL    HW2 6465   4.834   3.147   4.896
 1856SOL     OW 6466   3.816   2.515   6.866
 1856SOL    HW1 6467   3.880   2.446   6.900
 1856SOL    HW2 6468   3.832   2.529   6.768
 1857SOL     OW 6469   4.566   1.280   1.028
 1857SOL    HW1 6470   4.532   1.274   1.122
 1857SOL    HW2 6471   4.666   1.290   1.030
 1858SOL     OW 6472   4.259   2.274   4.333
 1858SOL    HW1 6473   4.235   2.250   4.427
 1858SOL    HW2 6474   4.319   2.354   4.334
 1859SOL     OW 6475   5.830   2.094   4.058
 1859SOL    HW1 6476   5.889   2.123   4.134
 1859SOL    HW2 6477   5.883   2.037   3.995
 1860SOL     OW 6478   1.179   1.252   4.678
 1860SOL    HW1 6479   1.085   1.244   4.712
 1860SOL    HW2 6480   1.177   1.284   4.583
 1861SOL     OW 6481   6.579   0.037   3.330
 1861SOL    HW1 6482   6.603   6.988   3.393
 1861SOL    HW2 6483   6.492   0.015   3.286
 1862SOL     OW 6484   2.600   6.090   6.541
 1862SOL    HW1 6485   2.567   6.036   6.463
 1862SOL    HW2 6486   2.656   6.032   6.600
 1863SOL     OW 6487   0.893   2.721   1.134
 1863SOL    HW1 6488   0.942   2.682   1.212
 1863SOL    HW2 6489   0.797   2.735   1.158
 1864SOL     OW 6490   3.839   5.643   2.766
 1864SOL    HW1 6491   3.876   5.695   2.844
 1864SOL    HW2 6492   3.838   5.546   2.789
 1865SOL     OW 6493   5.430   1.402   6.390
 1865SOL    HW1 6494   5.411   1.324   6.330
 1865SOL    HW2 6495   5.364   1.403   6.465
 1866SOL     OW 6496   0.401   4.709   3.252
 1866SOL    HW1 6497   0.491   4.751   3.250
 1866SOL    HW2 6498   0.388   4.654   3.170
 1867SOL     OW 6499   2.511   2.231   1.533
 1867SOL    HW1 6500   2.595   2.175   1.539
 1867SOL    HW2 6501   2.526   2.305   1.468
 1868SOL     OW 6502   5.760   4.447   5.662
 1868SOL    HW1 6503   5.804   4.484   5.579
 1868SOL    HW2 6504   5.830   4.430   5.732
 1869SOL     OW 6505   5.075   1.816   4.260
 1869SOL    HW1 6506   5.145   1.880   4.292
 1869SOL    HW2 6507   4.996   1.819   4.322
 1870SOL     OW 6508   6.999   5.529   4.584
 1870SOL    HW1 6509   6.939   5.608   4.571
 1870SOL    HW2 6510   0.068   5.561   4.605
 1871SOL     OW 6511   0.499   6.427   0.830
 1871SOL    HW1 6512   0.555   6.446   0.911
 1871SOL    HW2 6513   0.437   6.503   0.814
 1872SOL     OW 6514   2.614   2.624   1.150
 1872SOL    HW1 6515   2.707   2.654   1.172
 1872SOL    HW2 6516   2.612   2.590   1.056
 1873SOL     OW 6517   6.959   1.676   0.218
 1873SOL    HW1 6518   0.029   1.706   0.226
 1873SOL    HW2 6519   6.955   1.576   0.223
 1874SOL     OW 6520   0.648   6.451   0.090
 1874SOL    HW1 6521   0.598   6.428   0.173
 1874SOL    HW2 6522   0.707   6.530   0.107
 1875SOL     OW 6523   6.467   4.881   0.478
 1875SOL    HW1 6524   6.405   4.802   0.481
 1875SOL    HW2 6525   6.497   4.902   0.571
 1876SOL     OW 6526   6.955   6.293   7.006
 1876SOL    HW1 6527   6.908   6.262   6.923
 1876SOL    HW2 6528   6.937   6.391   7.020
 1877SOL     OW 6529   0.278   0.677   2.460
 1877SOL    HW1 6530   0.318   0.634   2.542
 1877SOL    HW2 6531   0.336   0.656   2.381
 1878SOL     OW 6532   6.351   4.299   3.491
 1878SOL    HW1 6533   6.445   4.286   3.521
 1878SOL    HW2 6534   6.347   4.292   3.391
 1879SOL     OW 6535   4.249   5.584   4.830
 1879SOL    HW1 6536   4.294   5.585   4.741
 1879SOL    HW2 6537   4.230   5.678   4.859
 1880SOL     OW 6538   0.752   1.422   4.217
 1880SOL    HW1 6539   0.746   1.516   4.250
 1880SOL    HW2 6540   0.825   1.415   4.148
 1881SOL     OW 6541   1.088   1.516   4.351
 1881SOL    HW1 6542   1.089   1.416   4.353
 1881SOL    HW2 6543   1.181   1.551   4.342
 1882SOL     OW 6544   1.389   5.301   6.693
 1882SOL    HW1 6545   1.470   5.263   6.649
 1882SOL    HW2 6546   1.416   5.362   6.767
 1883SOL     OW 6547   1.723   2.967   2.830
 1883SOL    HW1 6548   1.744   3.043   2.891
 1883SOL    HW2 6549   1.808   2.918   2.807
 1884SOL     OW 6550   2.978   1.051   0.400
 1884SOL    HW1 6551   3.013   1.020   0.311
 1884SOL    HW2 6552   2.897   1.107   0.386
 1885SOL     OW 6553   0.150   2.212   1.309
 1885SOL    HW1 6554   0.090   2.170   1.241
 1885SOL    HW2 6555   0.098   2.228   1.393
 1886SOL     OW 6556   3.220   3.196   6.321
 1886SOL    HW1 6557   3.126   3.232   6.317
 1886SOL    HW2 6558   3.218   3.099   6.342
 1887SOL     OW 6559   0.521   6.591   5.509
 1887SOL    HW1 6560   0.451   6.523   5.488
 1887SOL    HW2 6561   0.482   6.682   5.502
 1888SOL     OW 6562   2.192   2.137   5.757
 1888SOL    HW1 6563   2.113   2.179   5.802
 1888SOL    HW2 6564   2.259   2.207   5.734
 1889SOL     OW 6565   4.088   2.783   0.245
 1889SOL    HW1 6566   4.037   2.869   0.236
 1889SOL    HW2 6567   4.115   2.771   0.341
 1890SOL     OW 6568   6.470   5.037   6.614
 1890SOL    HW1 6569   6.387   5.014   6.665
 1890SOL    HW2 6570   6.505   4.954   6.570
 1891SOL     OW 6571   6.159   3.634   5.501
 1891SOL    HW1 6572   6.098   3.705   5.465
 1891SOL    HW2 6573   6.248   3.641   5.456
 1892SOL     OW 6574   4.194   5.712   1.496
 1892SOL    HW1 6575   4.099   5.720   1.524
 1892SOL    HW2 6576   4.244   5.656   1.562
 1893SOL     OW 6577   3.917   1.908   4.348
 1893SOL    HW1 6578   3.818   1.899   4.358
 1893SOL    HW2 6579   3.938   1.996   4.305
 1894SOL     OW 6580   4.055   3.976   0.860
 1894SOL    HW1 6581   4.101   3.933   0.937
 1894SOL    HW2 6582   3.999   3.908   0.812
 1895SOL     OW 6583   5.404   0.327   3.359
 1895SOL    HW1 6584   5.433   0.393   3.428
 1895SOL    HW2 6585   5.400   0.371   3.269
 1896SOL     OW 6586   6.722   1.215   5.788
 1896SOL    HW1 6587   6.756   1.309   5.789
 1896SOL    HW2 6588   6.635   1.211   5.740
 1897SOL     OW 6589   5.871   4.779   3.452
 1897SOL    HW1 6590   5.773   4.796   3.457
 1897SOL    HW2 6591   5.919   4.848   3.507
 1898SOL     OW 6592   6.043   4.740   0.213
 1898SOL    HW1 6593   6.117   4.801   0.183
 1898SOL    HW2 6594   6.036   4.664   0.149
 1899SOL     OW 6595   1.135   3.188   2.600
 1899SOL    HW1 6596   1.190   3.162   2.679
 1899SOL    HW2 6597   1.195   3.199   2.520
 1900SOL     OW 6598   1.974   5.540   6.035
 1900SOL    HW1 6599   1.935   5.465   5.982
 1900SOL    HW2 6600   1.902   5.605   6.061
 1901SOL     OW 6601   1.413   1.033   6.612
 1901SOL    HW1 6602   1.383   1.069   6.524
 1901SOL    HW2 6603   1.513   1.034   6.617
 1902SOL     OW 6604   0.696   3.292   4.609
 1902SOL    HW1 6605   0.650   3.204   4.615
 1902SOL    HW2 6606   0.795   3.278   4.614
 1903SOL     OW 6607   6.203   3.002   3.838
 1903SOL    HW1 6608   6.231   2.906   3.845
 1903SOL    HW2 6609   6.148   3.014   3.756
 1904SOL     OW 6610   6.350   6.496   3.706
 1904SOL    HW1 6611   6.404   6.569   3.663
 1904SOL    HW2 6612   6.276   6.537   3.759
 1905SOL     OW 6613   6.689   2.743   3.710
 1905SOL    HW1 6614   6.744   2.776   3.633
 1905SOL    HW2 6615   6.618   2.810   3.732
 1906SOL     OW 6616   2.672   0.553   0.127
 1906SOL    HW1 6617   2.738   0.610   0.175
 1906SOL    HW2 6618   2.586   0.550   0.179
 1907SOL     OW 6619   3.943   5.794   3.658
 1907SOL    HW1 6620   4.014   5.863   3.672
 1907SOL    HW2 6621   3.948   5.760   3.564
 1908SOL     OW 6622   4.252   1.333   6.503
 1908SOL    HW1 6623   4.170   1.326   6.560
 1908SOL    HW2 6624   4.263   1.427   6.471
 1909SOL     OW 6625   2.516   5.043   4.398
 1909SOL    HW1 6626   2.549   4.963   4.346
 1909SOL    HW2 6627   2.587   5.113   4.400
 1910SOL     OW 6628   4.919   1.667   5.586
 1910SOL    HW1 6629   4.868   1.743   5.625
 1910SOL    HW2 6630   4.951   1.607   5.659
 1911SOL     OW 6631   6.278   3.100   5.036
 1911SOL    HW1 6632   6.235   3.190   5.044
 1911SOL    HW2 6633   6.238   3.037   5.103
 1912SOL     OW 6634   3.941   0.234   3.180
 1912SOL    HW1 6635   3.858   0.200   3.137
 1912SOL    HW2 6636   3.921   0.320   3.228
 1913SOL     OW 6637   1.776   4.752   5.472
 1913SOL    HW1 6638   1.694   4.787   5.426
 1913SOL    HW2 6639   1.854   4.811   5.452
 1914SOL     OW 6640   3.385   2.133   6.163
 1914SOL    HW1 6641   3.426   2.047   6.194
 1914SOL    HW2 6642   3.451   2.184   6.108
 1915SOL     OW 6643   3.293   6.900   5.536
 1915SOL    HW1 6644   3.356   6.881   5.461
 1915SOL    HW2 6645   3.258   6.814   5.573
 1916SOL     OW 6646   3.418   6.185   1.590
 1916SOL    HW1 6647   3.489   6.241   1.632
 1916SOL    HW2 6648   3.461   6.113   1.535
 1917SOL     OW 6649   2.939   3.609   4.135
 1917SOL    HW1 6650   2.949   3.695   4.086
 1917SOL    HW2 6651   3.029   3.573   4.159
 1918SOL     OW 6652   5.505   6.591   4.353
 1918SOL    HW1 6653   5.432   6.660   4.345
 1918SOL    HW2 6654   5.470   6.502   4.323
 1919SOL     OW 6655   6.587   0.190   1.693
 1919SOL    HW1 6656   6.559   0.101   1.656
 1919SOL    HW2 6657   6.645   0.175   1.773
 1920SOL     OW 6658   6.699   6.063   4.233
 1920SOL    HW1 6659   6.713   6.061   4.332
 1920SOL    HW2 6660   6.602   6.055   4.212
 1921SOL     OW 6661   1.097   6.640   6.689
 1921SOL    HW1 6662   1.112   6.592   6.776
 1921SOL    HW2 6663   1.005   6.679   6.689
 1922SOL     OW 6664   3.870   4.159   0.891
 1922SOL    HW1 6665   3.888   4.233   0.826
 1922SOL    HW2 6666   3.947   4.096   0.891
 1923SOL     OW 6667   1.897   1.751   0.835
 1923SOL    HW1 6668   1.800   1.728   0.843
 1923SOL    HW2 6669   1.924   1.810   0.911
 1924SOL     OW 6670   0.427   4.647   1.732
 1924SOL    HW1 6671   0.498   4.606   1.788
 1924SOL    HW2 6672   0.355   4.579   1.715
 1925SOL     OW 6673   3.165   4.124   1.202
 1925SOL    HW1 6674   3.234   4.079   1.258
 1925SOL    HW2 6675   3.083   4.068   1.199
 1926SOL     OW 6676   1.479   6.503   3.726
 1926SOL    HW1 6677   1.463   6.478   3.821
 1926SOL    HW2 6678   1.570   6.544   3.717
 1927SOL     OW 6679   3.785   3.771   6.693
 1927SOL    HW1 6680   3.846   3.692   6.700
 1927SOL    HW2 6681   3.742   3.771   6.603
 1928SOL     OW 6682   6.131   4.330   5.716
 1928SOL    HW1 6683   6.180   4.347   5.630
 1928SOL    HW2 6684   6.189   4.277   5.777
 1929SOL     OW 6685   1.174   6.953   1.579
 1929SOL    HW1 6686   1.151   6.899   1.659
 1929SOL    HW2 6687   1.202   0.021   1.608
 1930SOL     OW 6688   5.665   4.132   5.980
 1930SOL    HW1 6689   5.614   4.078   6.047
 1930SOL    HW2 6690   5.665   4.086   5.891
 1931SOL     OW 6691   0.674   3.015   4.201
 1931SOL    HW1 6692   0.737   3.046   4.130
 1931SOL    HW2 6693   0.655   2.918   4.188
 1932SOL     OW 6694   5.863   3.873   1.297
 1932SOL    HW1 6695   5.781   3.861   1.241
 1932SOL    HW2 6696   5.858   3.960   1.346
 1933SOL     OW 6697   2.958   4.378   1.154
 1933SOL    HW1 6698   3.011   4.329   1.224
 1933SOL    HW2 6699   3.005   4.371   1.066
 1934SOL     OW 6700   0.842   6.363   5.623
 1934SOL    HW1 6701   0.883   6.332   5.709
 1934SOL    HW2 6702   0.794   6.449   5.638
 1935SOL     OW 6703   2.504   0.597   3.689
 1935SOL    HW1 6704   2.476   0.521   3.747
 1935SOL    HW2 6705   2.424   0.654   3.668
 1936SOL     OW 6706   6.298   5.641   5.284
 1936SOL    HW1 6707   6.261   5.731   5.308
 1936SOL    HW2 6708   6.393   5.652   5.253
 1937SOL     OW 6709   4.053   6.240   1.783
 1937SOL    HW1 6710   3.992   6.314   1.753
 1937SOL    HW2 6711   4.033   6.157   1.729
 1938SOL     OW 6712   4.444   0.967   3.672
 1938SOL    HW1 6713   4.463   1.055   3.717
 1938SOL    HW2 6714   4.423   0.898   3.741
 1939SOL     OW 6715   1.853   1.064   3.608
 1939SOL    HW1 6716   1.869   0.975   3.566
 1939SOL    HW2 6717   1.754   1.078   3.618
 1940SOL     OW 6718   6.836   5.196   0.299
 1940SOL    HW1 6719   6.871   5.238   0.383
 1940SOL    HW2 6720   6.911   5.153   0.250
 1941SOL     OW 6721   5.112   3.915   2.014
 1941SOL    HW1 6722   5.197   3.865   2.030
 1941SOL    HW2 6723   5.127   3.989   1.949
 1942SOL     OW 6724   6.605   5.211   2.459
 1942SOL    HW1 6725   6.645   5.120   2.456
 1942SOL    HW2 6726   6.651   5.270   2.393
 1943SOL     OW 6727   2.666   4.692   3.355
 1943SOL    HW1 6728   2.764   4.708   3.358
 1943SOL    HW2 6729   2.617   4.779   3.360
 1944SOL     OW 6730   6.639   1.034   0.734
 1944SOL    HW1 6731   6.736   1.046   0.753
 1944SOL    HW2 6732   6.612   0.941   0.757
 1945SOL     OW 6733   3.494   4.944   3.845
 1945SOL    HW1 6734   3.441   4.916   3.925
 1945SOL    HW2 6735   3.434   4.950   3.765
 1946SOL     OW 6736   1.232   0.413   0.072
 1946SOL    HW1 6737   1.274   0.336   0.025
 1946SOL    HW2 6738   1.206   0.483   0.006
 1947SOL     OW 6739   5.592   5.690   3.359
 1947SOL    HW1 6740   5.493   5.697   3.354
 1947SOL    HW2 6741   5.626   5.642   3.278
 1948SOL     OW 6742   6.647   5.514   4.595
 1948SOL    HW1 6743   6.603   5.479   4.677
 1948SOL    HW2 6744   6.699   5.597   4.617
 1949SOL     OW 6745   3.921   4.218   6.648
 1949SOL    HW1 6746   3.918   4.155   6.725
 1949SOL    HW2 6747   3.834   4.266   6.640
 1950SOL     OW 6748   3.200   4.022   6.447
 1950SOL    HW1 6749   3.207   4.013   6.348
 1950SOL    HW2 6750   3.275   4.079   6.480
 1951SOL     OW 6751   5.904   1.253   6.400
 1951SOL    HW1 6752   5.963   1.256   6.480
 1951SOL    HW2 6753   5.822   1.308   6.417
 1952SOL     OW 6754   3.977   2.112   0.288
 1952SOL    HW1 6755   4.037   2.108   0.208
 1952SOL    HW2 6756   4.012   2.178   0.354
 1953SOL     OW 6757   6.981   2.594   6.179
 1953SOL    HW1 6758   7.005   2.497   6.171
 1953SOL    HW2 6759   7.004   2.641   6.093
 1954SOL     OW 6760   3.647   2.093   4.202
 1954SOL    HW1 6761   3.709   2.139   4.140
 1954SOL    HW2 6762   3.557   2.136   4.198
 1955SOL     OW 6763   0.125   6.406   2.625
 1955SOL    HW1 6764   0.211   6.393   2.673
 1955SOL    HW2 6765   0.116   6.337   2.553
 1956SOL     OW 6766   6.003   5.529   2.669
 1956SOL    HW1 6767   6.096   5.498   2.692
 1956SOL    HW2 6768   5.949   5.452   2.636
 1957SOL     OW 6769   0.333   6.331   5.106
 1957SOL    HW1 6770   0.245   6.286   5.096
 1957SOL    HW2 6771   0.326   6.425   5.074
 1958SOL     OW 6772   5.207   3.431   5.813
 1958SOL    HW1 6773   5.269   3.433   5.892
 1958SOL    HW2 6774   5.258   3.400   5.733
 1959SOL     OW 6775   1.373   2.004   6.431
 1959SOL    HW1 6776   1.388   1.986   6.334
 1959SOL    HW2 6777   1.286   2.051   6.443
 1960SOL     OW 6778   5.801   5.470   0.696
 1960SOL    HW1 6779   5.832   5.393   0.752
 1960SOL    HW2 6780   5.745   5.436   0.621
 1961SOL     OW 6781   5.958   4.187   3.702
 1961SOL    HW1 6782   5.940   4.093   3.732
 1961SOL    HW2 6783   5.878   4.244   3.722
 1962SOL     OW 6784   1.565   5.991   3.280
 1962SOL    HW1 6785   1.572   6.078   3.230
 1962SOL    HW2 6786   1.531   5.920   3.218
 1963SOL     OW 6787   1.089   0.412   2.694
 1963SOL    HW1 6788   1.142   0.476   2.637
 1963SOL    HW2 6789   1.082   0.448   2.787
 1964SOL     OW 6790   4.683   2.868   2.854
 1964SOL    HW1 6791   4.692   2.880   2.952
 1964SOL    HW2 6792   4.614   2.797   2.835
 1965SOL     OW 6793   0.997   3.703   3.201
 1965SOL    HW1 6794   0.914   3.648   3.208
 1965SOL    HW2 6795   1.004   3.762   3.282
 1966SOL     OW 6796   6.563   5.505   5.402
 1966SOL    HW1 6797   6.508   5.442   5.456
 1966SOL    HW2 6798   6.632   5.548   5.461
 1967SOL     OW 6799   4.557   2.857   5.231
 1967SOL    HW1 6800   4.467   2.822   5.255
 1967SOL    HW2 6801   4.582   2.824   5.140
 1968SOL     OW 6802   2.655   6.237   0.222
 1968SOL    HW1 6803   2.694   6.213   0.134
 1968SOL    HW2 6804   2.727   6.235   0.292
 1969SOL     OW 6805   7.014   2.213   1.537
 1969SOL    HW1 6806   0.070   2.208   1.597
 1969SOL    HW2 6807   6.947   2.146   1.566
 1970SOL     OW 6808   1.653   0.052   4.589
 1970SOL    HW1 6809   1.626   6.999   4.532
 1970SOL    HW2 6810   1.745   0.037   4.624
 1971SOL     OW 6811   0.461   6.887   6.901
 1971SOL    HW1 6812   0.405   6.834   6.838
 1971SOL    HW2 6813   0.555   6.891   6.867
 1972SOL     OW 6814   1.035   4.594   3.699
 1972SOL    HW1 6815   1.117   4.567   3.750
 1972SOL    HW2 6816   0.990   4.671   3.746
 1973SOL     OW 6817   3.543   2.539   1.516
 1973SOL    HW1 6818   3.476   2.593   1.567
 1973SOL    HW2 6819   3.567   2.586   1.431
 1974SOL     OW 6820   5.325   0.494   3.954
 1974SOL    HW1 6821   5.288   0.582   3.926
 1974SOL    HW2 6822   5.311   0.481   4.052
 1975SOL     OW 6823   3.431   0.532   4.023
 1975SOL    HW1 6824   3.523   0.516   3.986
 1975SOL    HW2 6825   3.382   0.445   4.028
 1976SOL     OW 6826   0.313   6.086   0.522
 1976SOL    HW1 6827   0.214   6.092   0.509
 1976SOL    HW2 6828   0.345   5.995   0.499
 1977SOL     OW 6829   1.133   2.543   4.832
 1977SOL    HW1 6830   1.142   2.484   4.752
 1977SOL    HW2 6831   1.209   2.527   4.894
 1978SOL     OW 6832   6.735   1.901   4.592
 1978SOL    HW1 6833   6.705   1.811   4.560
 1978SOL    HW2 6834   6.803   1.938   4.529
 1979SOL     OW 6835   6.504   4.683   4.085
 1979SOL    HW1 6836   6.445   4.687   4.004
 1979SOL    HW2 6837   6.595   4.717   4.062
 1980SOL     OW 6838   3.937   0.215   1.385
 1980SOL    HW1 6839   3.958   0.267   1.302
 1980SOL    HW2 6840   3.942   0.117   1.366
 1981SOL     OW 6841   4.932   2.892   1.896
 1981SOL    HW1 6842   4.952   2.984   1.863
 1981SOL    HW2 6843   4.852   2.895   1.957
 1982SOL     OW 6844   5.645   5.422   4.814
 1982SOL    HW1 6845   5.717   5.445   4.748
 1982SOL    HW2 6846   5.606   5.506   4.851
 1983SOL     OW 6847   1.235   2.839   3.216
 1983SOL    HW1 6848   1.289   2.909   3.262
 1983SOL    HW2 6849   1.238   2.853   3.117
 1984SOL     OW 6850   3.915   1.961   5.828
 1984SOL    HW1 6851   3.916   2.051   5.872
 1984SOL    HW2 6852   3.824   1.944   5.790
 1985SOL     OW 6853   1.266   1.090   1.652
 1985SOL    HW1 6854   1.224   1.017   1.707
 1985SOL    HW2 6855   1.325   1.145   1.710
 1986SOL     OW 6856   1.406   2.080   6.915
 1986SOL    HW1 6857   1.364   2.170   6.907
 1986SOL    HW2 6858   1.449   2.071   7.005
 1987SOL     OW 6859   2.532   3.403   1.339
 1987SOL    HW1 6860   2.509   3.421   1.434
 1987SOL    HW2 6861   2.577   3.313   1.331
 1988SOL     OW 6862   4.765   3.727   6.801
 1988SOL    HW1 6863   4.696   3.660   6.775
 1988SOL    HW2 6864   4.826   3.687   6.870
 1989SOL     OW 6865   2.281   0.341   4.421
 1989SOL    HW1 6866   2.243   0.430   4.447
 1989SOL    HW2 6867   2.276   0.330   4.322
 1990SOL     OW 6868   3.173   0.513   1.017
 1990SOL    HW1 6869   3.255   0.477   0.972
 1990SOL    HW2 6870   3.163   0.471   1.107
 1991SOL     OW 6871   3.506   5.718   4.737
 1991SOL    HW1 6872   3.586   5.696   4.793
 1991SOL    HW2 6873   3.423   5.693   4.786
 1992SOL     OW 6874   2.207   6.889   4.923
 1992SOL    HW1 6875   2.200   6.989   4.919
 1992SOL    HW2 6876   2.116   6.849   4.929
 1993SOL     OW 6877   3.576   3.717   5.321
 1993SOL    HW1 6878   3.547   3.647   5.256
 1993SOL    HW2 6879   3.499   3.778   5.340
 1994SOL     OW 6880   6.733   1.942   2.223
 1994SOL    HW1 6881   6.640   1.908   2.213
 1994SOL    HW2 6882   6.781   1.886   2.291
 1995SOL     OW 6883   6.005   1.962   1.276
 1995SOL    HW1 6884   5.913   1.966   1.316
 1995SOL    HW2 6885   5.998   1.964   1.176
 1996SOL     OW 6886   3.225   4.428   0.180
 1996SOL    HW1 6887   3.288   4.366   0.134
 1996SOL    HW2 6888   3.131   4.395   0.169
 1997SOL     OW 6889   5.123   6.930   4.345
 1997SOL    HW1 6890   5.107   7.021   4.307
 1997SOL    HW2 6891   5.061   6.865   4.302
 1998SOL     OW 6892   2.631   4.235   6.755
 1998SOL    HW1 6893   2.657   4.215   6.661
 1998SOL    HW2 6894   2.547   4.289   6.756
 1999SOL     OW 6895   2.554   6.884   2.057
 1999SOL    HW1 6896   2.494   6.894   1.978
 1999SOL    HW2 6897   2.499   6.883   2.141
 2000SOL     OW 6898   3.722   1.002   4.822
 2000SOL    HW1 6899   3.715   0.906   4.797
 2000SOL    HW2 6900   3.681   1.058   4.751
 2001SOL     OW 6901   2.878   1.374   1.237
 2001SOL    HW1 6902   2.798   1.365   1.297
 2001SOL    HW2 6903   2.942   1.300   1.256
 2002SOL     OW 6904   2.017   5.896   5.815
 2002SOL    HW1 6905   2.084   5.854   5.877
 2002SOL    HW2 6906   1.988   5.829   5.748
 2003SOL     OW 6907   5.962   6.232   3.510
 2003SOL    HW1 6908   5.945   6.134   3.501
 2003SOL    HW2 6909   5.880   6.282   3.486
 2004SOL     OW 6910   3.279   0.938   5.925
 2004SOL    HW1 6911   3.316   0.852   5.890
 2004SOL    HW2 6912   3.289   1.010   5.855
 2005SOL     OW 6913   2.259   6.241   5.986
 2005SOL    HW1 6914   2.195   6.298   6.039
 2005SOL    HW2 6915   2.336   6.215   6.044
 2006SOL     OW 6916   4.401   4.878   4.330
 2006SOL    HW1 6917   4.457   4.846   4.406
 2006SOL    HW2 6918   4.420   4.974   4.312
 2007SOL     OW 6919   5.187   5.477   0.201
 2007SOL    HW1 6920   5.175   5.529   0.286
 2007SOL    HW2 6921   5.267   5.417   0.210
 2008SOL     OW 6922   6.690   6.375   3.283
 2008SOL    HW1 6923   6.612   6.393   3.343
 2008SOL    HW2 6924   6.764   6.440   3.304
 2009SOL     OW 6925   0.414   0.534   1.980
 2009SOL    HW1 6926   0.426   0.626   1.944
 2009SOL    HW2 6927   0.487   0.475   1.944
 2010SOL     OW 6928   0.687   0.627   1.054
 2010SOL    HW1 6929   0.761   0.651   0.990
 2010SOL    HW2 6930   0.602   0.672   1.025
 2011SOL     OW 6931   6.500   2.110   4.887
 2011SOL    HW1 6932   6.546   2.022   4.881
 2011SOL    HW2 6933   6.557   2.180   4.843
 2012SOL     OW 6934   1.477   4.393   1.430
 2012SOL    HW1 6935   1.412   4.318   1.443
 2012SOL    HW2 6936   1.533   4.375   1.349
 2013SOL     OW 6937   5.759   2.235   2.709
 2013SOL    HW1 6938   5.771   2.291   2.626
 2013SOL    HW2 6939   5.848   2.205   2.742
 2014SOL     OW 6940   1.668   6.296   4.045
 2014SOL    HW1 6941   1.743   6.305   4.110
 2014SOL    HW2 6942   1.655   6.200   4.021
 2015SOL     OW 6943   3.633   0.356   0.098
 2015SOL    HW1 6944   3.669   0.290   0.163
 2015SOL    HW2 6945   3.533   0.357   0.103
 2016SOL     OW 6946   0.922   5.704   4.354
 2016SOL    HW1 6947   0.888   5.714   4.261
 2016SOL    HW2 6948   0.885   5.620   4.394
 2017SOL     OW 6949   2.343   5.871   2.962
 2017SOL    HW1 6950   2.323   5.891   3.058
 2017SOL    HW2 6951   2.259   5.844   2.916
 2018SOL     OW 6952   0.403   5.831   5.948
 2018SOL    HW1 6953   0.440   5.848   5.856
 2018SOL    HW2 6954   0.321   5.775   5.941
 2019SOL     OW 6955   6.130   2.411   1.317
 2019SOL    HW1 6956   6.155   2.315   1.321
 2019SOL    HW2 6957   6.181   2.455   1.243
 2020SOL     OW 6958   2.300   4.907   3.735
 2020SOL    HW1 6959   2.253   4.820   3.753
 2020SOL    HW2 6960   2.395   4.889   3.711
 2021SOL     OW 6961   1.695   0.816   2.524
 2021SOL    HW1 6962   1.786   0.846   2.495
 2021SOL    HW2 6963   1.628   0.886   2.498
 2022SOL     OW 6964   2.253   3.645   1.737
 2022SOL    HW1 6965   2.219   3.727   1.784
 2022SOL    HW2 6966   2.240   3.565   1.797
 2023SOL     OW 6967   6.656   1.402   6.514
 2023SOL    HW1 6968   6.753   1.417   6.533
 2023SOL    HW2 6969   6.623   1.326   6.569
 2024SOL     OW 6970   6.385   0.537   3.681
 2024SOL    HW1 6971   6.300   0.568   3.637
 2024SOL    HW2 6972   6.363   0.480   3.760
 2025SOL     OW 6973   0.460   2.050   1.718
 2025SOL    HW1 6974   0.506   2.006   1.795
 2025SOL    HW2 6975   0.375   2.093   1.749
 2026SOL     OW 6976   2.441   2.127   5.517
 2026SOL    HW1 6977   2.405   2.210   5.474
 2026SOL    HW2 6978   2.539   2.137   5.531
 2027SOL     OW 6979   1.346   1.203   2.280
 2027SOL    HW1 6980   1.328   1.205   2.379
 2027SOL    HW2 6981   1.346   1.297   2.245
 2028SOL     OW 6982   3.601   1.854   0.323
 2028SOL    HW1 6983   3.603   1.761   0.359
 2028SOL    HW2 6984   3.606   1.919   0.398
 2029SOL     OW 6985   1.041   1.238   6.452
 2029SOL    HW1 6986   1.001   1.292   6.378
 2029SOL    HW2 6987   1.136   1.215   6.429
 2030SOL     OW 6988   1.729   2.253   3.784
 2030SOL    HW1 6989   1.722   2.337   3.730
 2030SOL    HW2 6990   1.800   2.194   3.744
 2031SOL     OW 6991   5.670   6.084   1.936
 2031SOL    HW1 6992   5.761   6.112   1.908
 2031SOL    HW2 6993   5.649   6.121   2.026
 2032SOL     OW 6994   5.126   6.152   6.945
 2032SOL    HW1 6995   5.157   6.187   6.857
 2032SOL    HW2 6996   5.051   6.208   6.979
 2033SOL     OW 6997   5.203   4.832   6.647
 2033SOL    HW1 6998   5.178   4.821   6.550
 2033SOL    HW2 6999   5.121   4.831   6.703
 2034SOL     OW 7000   2.852   6.512   3.135
 2034SOL    HW1 7001   2.853   6.608   3.109
 2034SOL    HW2 7002   2.946   6.476   3.133
 2035SOL     OW 7003   0.695   1.709   2.580
 2035SOL    HW1 7004   0.635   1.754   2.513
 2035SOL    HW2 7005   0.639   1.666   2.650
 2036SOL     OW 7006   0.416   5.372   0.891
 2036SOL    HW1 7007   0.481   5.435   0.933
 2036SOL    HW2 7008   0.424   5.282   0.933
 2037SOL     OW 7009   6.597   2.284   5.489
 2037SOL    HW1 7010   6.590   2.283   5.389
 2037SOL    HW2 7011   6.547   2.206   5.526
 2038SOL     OW 7012   0.521   1.544   4.784
 2038SOL    HW1 7013   0.519   1.468   4.849
 2038SOL    HW2 7014   0.460   1.617   4.816
 2039SOL     OW 7015   6.387   5.474   3.597
 2039SOL    HW1 7016   6.467   5.455   3.653
 2039SOL    HW2 7017   6.314   5.410   3.619
 2040SOL     OW 7018   4.003   3.241   4.391
 2040SOL    HW1 7019   3.962   3.150   4.379
 2040SOL    HW2 7020   3.930   3.309   4.394
 2041SOL     OW 7021   5.814   4.737   5.927
 2041SOL    HW1 7022   5.731   4.789   5.905
 2041SOL    HW2 7023   5.788   4.649   5.968
 2042SOL     OW 7024   4.937   4.839   0.560
 2042SOL    HW1 7025   4.843   4.867   0.540
 2042SOL    HW2 7026   4.995   4.920   0.566
 2043SOL     OW 7027   5.586   4.894   2.635
 2043SOL    HW1 7028   5.686   4.888   2.646
 2043SOL    HW2 7029   5.563   4.983   2.596
 2044SOL     OW 7030   5.833   0.179   1.927
 2044SOL    HW1 7031   5.804   0.098   1.978
 2044SOL    HW2 7032   5.823   0.163   1.829
 2045SOL     OW 7033   2.365   4.727   6.342
 2045SOL    HW1 7034   2.462   4.721   6.367
 2045SOL    HW2 7035   2.332   4.637   6.314
 2046SOL     OW 7036   6.578   0.728   4.251
 2046SOL    HW1 7037   6.525   0.784   4.188
 2046SOL    HW2 7038   6.613   0.648   4.204
 2047SOL     OW 7039   4.776   2.269   1.274
 2047SOL    HW1 7040   4.730   2.330   1.339
 2047SOL    HW2 7041   4.770   2.175   1.307
 2048SOL     OW 7042   3.914   0.199   0.036
 2048SOL    HW1 7043   3.862   0.205   0.122
 2048SOL    HW2 7044   3.897   0.111   7.017
 2049SOL     OW 7045   4.481   1.141   0.048
 2049SOL    HW1 7046   4.527   1.071   7.018
 2049SOL    HW2 7047   4.388   1.112   0.068
 2050SOL     OW 7048   6.097   2.615   3.993
 2050SOL    HW1 7049   6.163   2.656   3.929
 2050SOL    HW2 7050   6.023   2.573   3.941
 2051SOL     OW 7051   1.174   5.837   0.030
 2051SOL    HW1 7052   1.268   5.838   7.018
 2051SOL    HW2 7053   1.119   5.905   7.006
 2052SOL     OW 7054   1.026   3.116   6.674
 2052SOL    HW1 7055   1.069   3.185   6.732
 2052SOL    HW2 7056   0.974   3.161   6.602
 2053SOL     OW 7057   6.438   1.059   0.203
 2053SOL    HW1 7058   6.480   1.112   0.129
 2053SOL    HW2 7059   6.428   0.964   0.175
 2054SOL     OW 7060   6.375   2.946   0.756
 2054SOL    HW1 7061   6.430   2.883   0.700
 2054SOL    HW2 7062   6.299   2.981   0.701
 2055SOL     OW 7063   5.595   2.638   3.354
 2055SOL    HW1 7064   5.564   2.733   3.363
 2055SOL    HW2 7065   5.570   2.587   3.436
 2056SOL     OW 7066   2.079   1.340   3.234
 2056SOL    HW1 7067   2.131   1.324   3.150
 2056SOL    HW2 7068   2.057   1.437   3.243
 2057SOL     OW 7069   6.154   2.387   4.163
 2057SOL    HW1 7070   6.106   2.471   4.140
 2057SOL    HW2 7071   6.173   2.335   4.079
 2058SOL     OW 7072   0.357   2.214   3.240
 2058SOL    HW1 7073   0.278   2.270   3.265
 2058SOL    HW2 7074   0.429   2.274   3.203
 2059SOL     OW 7075   2.167   1.221   6.551
 2059SOL    HW1 7076   2.201   1.281   6.623
 2059SOL    HW2 7077   2.244   1.181   6.502
 2060SOL     OW 7078   0.113   4.696   2.162
 2060SOL    HW1 7079   0.089   4.663   2.253
 2060SOL    HW2 7080   0.039   4.674   2.098
 2061SOL     OW 7081   0.197   1.188   2.618
 2061SOL    HW1 7082   0.180   1.110   2.557
 2061SOL    HW2 7083   0.120   1.197   2.682
 2062SOL     OW 7084   4.405   7.001   2.261
 2062SOL    HW1 7085   4.395   6.949   2.346
 2062SOL    HW2 7086   4.322   0.029   2.244
 2063SOL     OW 7087   1.831   2.778   6.266
 2063SOL    HW1 7088   1.877   2.866   6.279
 2063SOL    HW2 7089   1.821   2.732   6.354
 2064SOL     OW 7090   0.857   2.401   5.433
 2064SOL    HW1 7091   0.778   2.364   5.384
 2064SOL    HW2 7092   0.837   2.494   5.463
 2065SOL     OW 7093   6.194   3.452   2.135
 2065SOL    HW1 7094   6.289   3.427   2.113
 2065SOL    HW2 7095   6.132   3.380   2.103
 2066SOL     OW 7096   0.260   6.223   4.754
 2066SOL    HW1 7097   0.194   6.200   4.825
 2066SOL    HW2 7098   0.323   6.147   4.740
 2067SOL     OW 7099   6.712   6.815   0.762
 2067SOL    HW1 7100   6.648   6.876   0.716
 2067SOL    HW2 7101   6.794   6.804   0.705
 2068SOL     OW 7102   2.235   1.245   5.373
 2068SOL    HW1 7103   2.324   1.281   5.344
 2068SOL    HW2 7104   2.173   1.322   5.391
 2069SOL     OW 7105   0.653   2.984   2.271
 2069SOL    HW1 7106   0.698   2.929   2.202
 2069SOL    HW2 7107   0.719   3.047   2.312
 2070SOL     OW 7108   1.459   0.684   2.557
 2070SOL    HW1 7109   1.446   0.634   2.642
 2070SOL    HW2 7110   1.553   0.719   2.552
 2071SOL     OW 7111   0.454   6.622   3.901
 2071SOL    HW1 7112   0.458   6.671   3.814
 2071SOL    HW2 7113   0.381   6.662   3.957
 2072SOL     OW 7114   4.868   6.058   1.878
 2072SOL    HW1 7115   4.781   6.109   1.878
 2072SOL    HW2 7116   4.943   6.121   1.861
 2073SOL     OW 7117   3.832   6.814   5.173
 2073SOL    HW1 7118   3.808   6.744   5.106
 2073SOL    HW2 7119   3.897   6.776   5.239
 2074SOL     OW 7120   6.750   1.724   0.839
 2074SOL    HW1 7121   6.785   1.764   0.754
 2074SOL    HW2 7122   6.827   1.702   0.900
 2075SOL     OW 7123   4.348   3.018   0.966
 2075SOL    HW1 7124   4.290   2.937   0.980
 2075SOL    HW2 7125   4.290   3.099   0.955
 2076SOL     OW 7126   5.445   5.867   0.053
 2076SOL    HW1 7127   5.534   5.880   0.096
 2076SOL    HW2 7128   5.400   5.955   0.042
 2077SOL     OW 7129   5.725   1.492   2.430
 2077SOL    HW1 7130   5.693   1.449   2.515
 2077SOL    HW2 7131   5.825   1.491   2.429
 2078SOL     OW 7132   2.868   5.737   6.500
 2078SOL    HW1 7133   2.887   5.796   6.422
 2078SOL    HW2 7134   2.831   5.650   6.468
 2079SOL     OW 7135   5.698   0.702   3.713
 2079SOL    HW1 7136   5.689   0.620   3.657
 2079SOL    HW2 7137   5.607   0.736   3.738
 2080SOL     OW 7138   2.618   2.140   4.944
 2080SOL    HW1 7139   2.600   2.122   4.847
 2080SOL    HW2 7140   2.645   2.235   4.956
 2081SOL     OW 7141   1.093   6.732   5.131
 2081SOL    HW1 7142   1.003   6.726   5.175
 2081SOL    HW2 7143   1.158   6.775   5.194
 2082SOL     OW 7144   5.311   0.657   1.199
 2082SOL    HW1 7145   5.296   0.560   1.220
 2082SOL    HW2 7146   5.226   0.696   1.162
 2083SOL     OW 7147   3.612   5.623   0.046
 2083SOL    HW1 7148   3.628   5.701   0.106
 2083SOL    HW2 7149   3.526   5.579   0.070
 2084SOL     OW 7150   6.914   2.294   3.262
 2084SOL    HW1 7151   6.941   2.331   3.173
 2084SOL    HW2 7152   6.815   2.306   3.274
 2085SOL     OW 7153   4.342   1.044   6.506
 2085SOL    HW1 7154   4.343   1.121   6.570
 2085SOL    HW2 7155   4.281   1.066   6.429
 2086SOL     OW 7156   3.620   4.152   6.835
 2086SOL    HW1 7157   3.627   4.245   6.870
 2086SOL    HW2 7158   3.704   4.102   6.856
 2087SOL     OW 7159   5.358   6.313   2.826
 2087SOL    HW1 7160   5.316   6.367   2.899
 2087SOL    HW2 7161   5.294   6.303   2.750
 2088SOL     OW 7162   3.408   6.328   1.171
 2088SOL    HW1 7163   3.369   6.276   1.095
 2088SOL    HW2 7164   3.378   6.424   1.165
 2089SOL     OW 7165   4.843   1.459   0.086
 2089SOL    HW1 7166   4.860   1.450   7.012
 2089SOL    HW2 7167   4.787   1.382   0.118
 2090SOL     OW 7168   3.923   3.872   4.421
 2090SOL    HW1 7169   3.871   3.942   4.372
 2090SOL    HW2 7170   3.975   3.915   4.495
 2091SOL     OW 7171   0.367   5.806   0.766
 2091SOL    HW1 7172   0.343   5.830   0.672
 2091SOL    HW2 7173   0.395   5.888   0.815
 2092SOL     OW 7174   5.674   5.962   0.909
 2092SOL    HW1 7175   5.626   6.046   0.935
 2092SOL    HW2 7176   5.690   5.963   0.811
 2093SOL     OW 7177   1.139   2.699   2.235
 2093SOL    HW1 7178   1.236   2.683   2.212
 2093SOL    HW2 7179   1.129   2.790   2.275
 2094SOL     OW 7180   5.906   0.444   2.050
 2094SOL    HW1 7181   5.882   0.351   2.021
 2094SOL    HW2 7182   5.844   0.509   2.006
 2095SOL     OW 7183   5.334   5.924   3.811
 2095SOL    HW1 7184   5.312   6.003   3.868
 2095SOL    HW2 7185   5.256   5.903   3.752
 2096SOL     OW 7186   4.861   4.080   2.350
 2096SOL    HW1 7187   4.905   4.163   2.384
 2096SOL    HW2 7188   4.827   4.027   2.428
 2097SOL     OW 7189   0.923   2.852   6.688
 2097SOL    HW1 7190   0.895   2.848   6.784
 2097SOL    HW2 7191   0.934   2.948   6.660
 2098SOL     OW 7192   4.560   6.055   3.871
 2098SOL    HW1 7193   4.504   5.978   3.841
 2098SOL    HW2 7194   4.548   6.069   3.969
 2099SOL     OW 7195   3.031   1.119   4.903
 2099SOL    HW1 7196   3.041   1.161   4.813
 2099SOL    HW2 7197   3.103   1.051   4.916
 2100SOL     OW 7198   4.005   3.931   6.752
 2100SOL    HW1 7199   3.931   3.867   6.730
 2100SOL    HW2 7200   4.074   3.927   6.680
 2101SOL     OW 7201   0.518   0.196   3.193
 2101SOL    HW1 7202   0.557   0.287   3.179
 2101SOL    HW2 7203   0.589   0.133   3.222
 2102SOL     OW 7204   0.414   5.930   2.663
 2102SOL    HW1 7205   0.429   5.832   2.674
 2102SOL    HW2 7206   0.318   5.951   2.684
 2103SOL     OW 7207   3.369   3.528   6.773
 2103SOL    HW1 7208   3.347   3.603   6.712
 2103SOL    HW2 7209   3.289   3.505   6.828
 2104SOL     OW 7210   1.638   3.266   5.989
 2104SOL    HW1 7211   1.609   3.329   6.062
 2104SOL    HW2 7212   1.558   3.240   5.934
 2105SOL     OW 7213   5.483   5.475   2.799
 2105SOL    HW1 7214   5.515   5.404   2.861
 2105SOL    HW2 7215   5.389   5.456   2.771
 2106SOL     OW 7216   4.352   4.998   6.736
 2106SOL    HW1 7217   4.400   5.085   6.736
 2106SOL    HW2 7218   4.324   4.975   6.829
 2107SOL     OW 7219   3.964   4.245   5.812
 2107SOL    HW1 7220   4.028   4.309   5.770
 2107SOL    HW2 7221   3.969   4.156   5.765
 2108SOL     OW 7222   6.173   5.215   5.465
 2108SOL    HW1 7223   6.097   5.231   5.401
 2108SOL    HW2 7224   6.146   5.147   5.532
 2109SOL     OW 7225   5.517   6.054   3.056
 2109SOL    HW1 7226   5.607   6.093   3.038
 2109SOL    HW2 7227   5.489   5.997   2.979
 2110SOL     OW 7228   2.813   4.826   6.651
 2110SOL    HW1 7229   2.806   4.908   6.595
 2110SOL    HW2 7230   2.875   4.761   6.607
 2111SOL     OW 7231   0.821   2.474   6.029
 2111SOL    HW1 7232   0.723   2.455   6.024
 2111SOL    HW2 7233   0.854   2.453   6.121
 2112SOL     OW 7234   4.076   2.839   1.727
 2112SOL    HW1 7235   4.024   2.897   1.790
 2112SOL    HW2 7236   4.146   2.894   1.682
 2113SOL     OW 7237   1.789   0.132   2.542
 2113SOL    HW1 7238   1.712   0.138   2.605
 2113SOL    HW2 7239   1.875   0.138   2.593
 2114SOL     OW 7240   1.380   4.206   0.561
 2114SOL    HW1 7241   1.286   4.202   0.596
 2114SOL    HW2 7242   1.431   4.276   0.610
 2115SOL     OW 7243   2.513   4.473   2.949
 2115SOL    HW1 7244   2.453   4.398   2.921
 2115SOL    HW2 7245   2.544   4.523   2.868
 2116SOL     OW 7246   6.792   3.868   2.976
 2116SOL    HW1 7247   6.801   3.951   2.921
 2116SOL    HW2 7248   6.842   3.793   2.933
 2117SOL     OW 7249   6.987   4.490   1.672
 2117SOL    HW1 7250   6.946   4.580   1.688
 2117SOL    HW2 7251   6.924   4.432   1.621
 2118SOL     OW 7252   0.060   3.620   2.354
 2118SOL    HW1 7253   0.005   3.543   2.387
 2118SOL    HW2 7254   0.042   3.635   2.257
 2119SOL     OW 7255   1.900   5.654   0.814
 2119SOL    HW1 7256   1.950   5.571   0.839
 2119SOL    HW2 7257   1.805   5.630   0.793
 2120SOL     OW 7258   6.272   4.109   2.606
 2120SOL    HW1 7259   6.344   4.178   2.616
 2120SOL    HW2 7260   6.294   4.048   2.531
 2121SOL     OW 7261   0.494   5.818   5.235
 2121SOL    HW1 7262   0.578   5.837   5.286
 2121SOL    HW2 7263   0.514   5.760   5.157
 2122SOL     OW 7264   5.736   4.148   5.544
 2122SOL    HW1 7265   5.694   4.077   5.600
 2122SOL    HW2 7266   5.687   4.234   5.556
 2123SOL     OW 7267   6.972   4.371   2.678
 2123SOL    HW1 7268   6.948   4.433   2.753
 2123SOL    HW2 7269   0.018   4.307   2.709
 2124SOL     OW 7270   1.631   1.243   1.515
 2124SOL    HW1 7271   1.595   1.300   1.441
 2124SOL    HW2 7272   1.567   1.244   1.592
 2125SOL     OW 7273   2.113   0.956   6.939
 2125SOL    HW1 7274   2.208   0.925   6.948
 2125SOL    HW2 7275   2.063   0.935   7.023
 2126SOL     OW 7276   2.522   1.144   6.891
 2126SOL    HW1 7277   2.458   1.209   6.849
 2126SOL    HW2 7278   2.575   1.191   6.962
 2127SOL     OW 7279   6.093   2.670   4.495
 2127SOL    HW1 7280   6.135   2.761   4.502
 2127SOL    HW2 7281   6.154   2.608   4.447
 2128SOL     OW 7282   0.749   4.627   4.847
 2128SOL    HW1 7283   0.808   4.551   4.875
 2128SOL    HW2 7284   0.752   4.699   4.916
 2129SOL     OW 7285   4.555   2.920   5.682
 2129SOL    HW1 7286   4.517   2.850   5.743
 2129SOL    HW2 7287   4.610   2.876   5.611
 2130SOL     OW 7288   5.334   6.740   2.648
 2130SOL    HW1 7289   5.411   6.755   2.710
 2130SOL    HW2 7290   5.252   6.782   2.686
 2131SOL     OW 7291   0.021   1.334   0.334
 2131SOL    HW1 7292   0.074   1.365   0.256
 2131SOL    HW2 7293   0.068   1.360   0.419
 2132SOL     OW 7294   2.978   3.029   1.068
 2132SOL    HW1 7295   2.977   2.962   1.143
 2132SOL    HW2 7296   3.051   3.005   1.004
 2133SOL     OW 7297   2.583   2.561   6.089
 2133SOL    HW1 7298   2.531   2.554   6.003
 2133SOL    HW2 7299   2.519   2.563   6.166
 2134SOL     OW 7300   6.459   2.012   1.295
 2134SOL    HW1 7301   6.437   1.916   1.315
 2134SOL    HW2 7302   6.538   2.016   1.235
 2135SOL     OW 7303   0.931   4.202   4.253
 2135SOL    HW1 7304   0.894   4.151   4.175
 2135SOL    HW2 7305   1.011   4.155   4.288
 2136SOL     OW 7306   2.561   5.738   1.604
 2136SOL    HW1 7307   2.637   5.691   1.559
 2136SOL    HW2 7308   2.582   5.836   1.611
 2137SOL     OW 7309   3.195   5.736   5.094
 2137SOL    HW1 7310   3.278   5.788   5.072
 2137SOL    HW2 7311   3.215   5.672   5.168
 2138SOL     OW 7312   6.180   1.024   3.134
 2138SOL    HW1 7313   6.192   1.122   3.113
 2138SOL    HW2 7314   6.213   0.970   3.057
 2139SOL     OW 7315   3.194   0.909   5.531
 2139SOL    HW1 7316   3.205   1.008   5.518
 2139SOL    HW2 7317   3.167   0.867   5.444
 2140SOL     OW 7318   2.846   0.905   4.988
 2140SOL    HW1 7319   2.917   0.834   4.994
 2140SOL    HW2 7320   2.887   0.990   4.955
 2141SOL     OW 7321   6.134   4.336   2.270
 2141SOL    HW1 7322   6.144   4.397   2.349
 2141SOL    HW2 7323   6.212   4.273   2.267
 2142SOL     OW 7324   1.652   3.054   4.106
 2142SOL    HW1 7325   1.741   3.013   4.085
 2142SOL    HW2 7326   1.621   3.109   4.029
 2143SOL     OW 7327   2.656   5.379   1.257
 2143SOL    HW1 7328   2.696   5.292   1.285
 2143SOL    HW2 7329   2.569   5.363   1.212
 2144SOL     OW 7330   6.904   5.288   4.650
 2144SOL    HW1 7331   6.857   5.316   4.733
 2144SOL    HW2 7332   6.942   5.369   4.605
 2145SOL     OW 7333   3.912   6.502   4.346
 2145SOL    HW1 7334   3.982   6.451   4.396
 2145SOL    HW2 7335   3.929   6.495   4.248
 2146SOL     OW 7336   2.323   2.553   1.180
 2146SOL    HW1 7337   2.286   2.628   1.124
 2146SOL    HW2 7338   2.423   2.558   1.179
 2147SOL     OW 7339   6.595   1.700   5.432
 2147SOL    HW1 7340   6.635   1.651   5.510
 2147SOL    HW2 7341   6.499   1.722   5.451
 2148SOL     OW 7342   0.109   2.820   6.369
 2148SOL    HW1 7343   0.081   2.858   6.280
 2148SOL    HW2 7344   0.029   2.780   6.414
 2149SOL     OW 7345   0.853   0.660   0.827
 2149SOL    HW1 7346   0.927   0.727   0.819
 2149SOL    HW2 7347   0.804   0.655   0.740
 2150SOL     OW 7348   2.391   2.745   1.831
 2150SOL    HW1 7349   2.415   2.684   1.906
 2150SOL    HW2 7350   2.364   2.691   1.751
 2151SOL     OW 7351   1.027   6.568   0.140
 2151SOL    HW1 7352   1.006   6.481   0.183
 2151SOL    HW2 7353   0.945   6.625   0.137
 2152SOL     OW 7354   4.059   5.633   2.378
 2152SOL    HW1 7355   4.031   5.672   2.290
 2152SOL    HW2 7356   4.077   5.535   2.367
 2153SOL     OW 7357   4.542   0.990   2.591
 2153SOL    HW1 7358   4.606   0.918   2.617
 2153SOL    HW2 7359   4.570   1.076   2.635
 2154SOL     OW 7360   3.227   6.455   3.806
 2154SOL    HW1 7361   3.298   6.391   3.778
 2154SOL    HW2 7362   3.185   6.496   3.725
 2155SOL     OW 7363   3.999   6.979   1.295
 2155SOL    HW1 7364   4.098   6.993   1.289
 2155SOL    HW2 7365   3.978   6.883   1.280
 2156SOL     OW 7366   6.451   1.500   3.539
 2156SOL    HW1 7367   6.466   1.421   3.599
 2156SOL    HW2 7368   6.359   1.495   3.499
 2157SOL     OW 7369   3.943   5.374   3.643
 2157SOL    HW1 7370   3.949   5.285   3.689
 2157SOL    HW2 7371   3.968   5.446   3.707
 2158SOL     OW 7372   4.170   0.319   0.682
 2158SOL    HW1 7373   4.119   0.322   0.595
 2158SOL    HW2 7374   4.225   0.402   0.691
 2159SOL     OW 7375   1.114   0.386   5.579
 2159SOL    HW1 7376   1.179   0.461   5.590
 2159SOL    HW2 7377   1.022   0.419   5.601
 2160SOL     OW 7378   5.225   5.708   0.006
 2160SOL    HW1 7379   5.309   5.763   0.011
 2160SOL    HW2 7380   5.246   5.613   0.031
 2161SOL     OW 7381   1.107   3.904   2.360
 2161SOL    HW1 7382   1.148   3.867   2.443
 2161SOL    HW2 7383   1.061   3.831   2.310
 2162SOL     OW 7384   2.751   6.917   3.217
 2162SOL    HW1 7385   2.769   7.014   3.232
 2162SOL    HW2 7386   2.759   6.867   3.304
 2163SOL     OW 7387   1.871   3.193   0.291
 2163SOL    HW1 7388   1.821   3.159   0.211
 2163SOL    HW2 7389   1.895   3.289   0.277
 2164SOL     OW 7390   2.119   2.420   1.054
 2164SOL    HW1 7391   2.200   2.473   1.079
 2164SOL    HW2 7392   2.134   2.324   1.078
 2165SOL     OW 7393   0.211   1.378   3.818
 2165SOL    HW1 7394   0.135   1.378   3.883
 2165SOL    HW2 7395   0.178   1.348   3.729
 2166SOL     OW 7396   0.641   4.246   3.948
 2166SOL    HW1 7397   0.690   4.179   4.005
 2166SOL    HW2 7398   0.601   4.316   4.007
 2167SOL     OW 7399   1.546   2.812   4.169
 2167SOL    HW1 7400   1.463   2.776   4.127
 2167SOL    HW2 7401   1.572   2.898   4.125
 2168SOL     OW 7402   1.239   1.976   2.965
 2168SOL    HW1 7403   1.188   1.893   2.945
 2168SOL    HW2 7404   1.176   2.054   2.969
 2169SOL     OW 7405   0.436   0.847   1.278
 2169SOL    HW1 7406   0.480   0.759   1.297
 2169SOL    HW2 7407   0.357   0.833   1.218
 2170SOL     OW 7408   0.929   4.420   4.931
 2170SOL    HW1 7409   0.939   4.341   4.992
 2170SOL    HW2 7410   0.988   4.408   4.852
 2171SOL     OW 7411   0.284   5.523   1.445
 2171SOL    HW1 7412   0.273   5.520   1.544
 2171SOL    HW2 7413   0.357   5.587   1.422
 2172SOL     OW 7414   0.171   1.937   5.165
 2172SOL    HW1 7415   0.100   1.905   5.227
 2172SOL    HW2 7416   0.232   1.861   5.141
 2173SOL     OW 7417   5.622   0.697   5.586
 2173SOL    HW1 7418   5.570   0.613   5.573
 2173SOL    HW2 7419   5.578   0.772   5.536
 2174SOL     OW 7420   0.304   6.004   5.080
 2174SOL    HW1 7421   0.310   5.931   5.148
 2174SOL    HW2 7422   0.396   6.038   5.060
 2175SOL     OW 7423   2.526   2.944   5.605
 2175SOL    HW1 7424   2.600   2.997   5.649
 2175SOL    HW2 7425   2.480   3.002   5.538
 2176SOL     OW 7426   5.190   2.708   1.362
 2176SOL    HW1 7427   5.168   2.632   1.423
 2176SOL    HW2 7428   5.227   2.673   1.276
 2177SOL     OW 7429   6.920   0.682   3.070
 2177SOL    HW1 7430   6.897   0.593   3.110
 2177SOL    HW2 7431   6.860   0.752   3.109
 2178SOL     OW 7432   1.278   1.554   1.942
 2178SOL    HW1 7433   1.256   1.497   2.021
 2178SOL    HW2 7434   1.376   1.553   1.926
 2179SOL     OW 7435   1.982   4.565   6.564
 2179SOL    HW1 7436   1.931   4.585   6.647
 2179SOL    HW2 7437   2.079   4.556   6.585
 2180SOL     OW 7438   1.445   4.444   2.100
 2180SOL    HW1 7439   1.349   4.425   2.077
 2180SOL    HW2 7440   1.494   4.471   2.017
 2181SOL     OW 7441   4.785   4.642   4.702
 2181SOL    HW1 7442   4.864   4.594   4.663
 2181SOL    HW2 7443   4.788   4.637   4.801
 2182SOL     OW 7444   1.025   4.416   3.340
 2182SOL    HW1 7445   0.985   4.416   3.431
 2182SOL    HW2 7446   1.087   4.338   3.330
 2183SOL     OW 7447   3.539   3.594   0.040
 2183SOL    HW1 7448   3.594   3.652   7.005
 2183SOL    HW2 7449   3.526   3.639   0.129
 2184SOL     OW 7450   6.108   0.555   0.328
 2184SOL    HW1 7451   6.166   0.520   0.254
 2184SOL    HW2 7452   6.048   0.482   0.360
 2185SOL     OW 7453   0.519   1.538   6.650
 2185SOL    HW1 7454   0.609   1.570   6.677
 2185SOL    HW2 7455   0.522   1.507   6.555
 2186SOL     OW 7456   6.255   4.650   5.089
 2186SOL    HW1 7457   6.187   4.718   5.065
 2186SOL    HW2 7458   6.260   4.641   5.189
 2187SOL     OW 7459   0.474   5.333   2.923
 2187SOL    HW1 7460   0.465   5.352   3.021
 2187SOL    HW2 7461   0.386   5.303   2.887
 2188SOL     OW 7462   2.123   6.048   6.938
 2188SOL    HW1 7463   2.174   5.967   6.964
 2188SOL    HW2 7464   2.184   6.127   6.938
 2189SOL     OW 7465   2.195   1.207   1.869
 2189SOL    HW1 7466   2.267   1.252   1.815
 2189SOL    HW2 7467   2.122   1.272   1.888
 2190SOL     OW 7468   6.657   3.804   2.457
 2190SOL    HW1 7469   6.621   3.763   2.540
 2190SOL    HW2 7470   6.605   3.770   2.378
 2191SOL     OW 7471   1.872   1.112   5.055
 2191SOL    HW1 7472   1.946   1.101   5.121
 2191SOL    HW2 7473   1.861   1.209   5.033
 2192SOL     OW 7474   5.258   0.572   2.004
 2192SOL    HW1 7475   5.194   0.562   1.929
 2192SOL    HW2 7476   5.215   0.542   2.090
 2193SOL     OW 7477   6.217   6.980   6.473
 2193SOL    HW1 7478   6.152   6.912   6.507
 2193SOL    HW2 7479   6.281   7.005   6.546
 2194SOL     OW 7480   0.483   4.265   5.409
 2194SOL    HW1 7481   0.575   4.296   5.434
 2194SOL    HW2 7482   0.470   4.171   5.442
 2195SOL     OW 7483   0.389   5.470   6.183
 2195SOL    HW1 7484   0.466   5.415   6.151
 2195SOL    HW2 7485   0.330   5.414   6.242
 2196SOL     OW 7486   2.849   6.800   5.282
 2196SOL    HW1 7487   2.822   6.720   5.228
 2196SOL    HW2 7488   2.946   6.793   5.305
 2197SOL     OW 7489   2.827   3.311   6.120
 2197SOL    HW1 7490   2.809   3.222   6.077
 2197SOL    HW2 7491   2.899   3.358   6.069
 2198SOL     OW 7492   0.069   0.273   0.083
 2198SOL    HW1 7493   0.043   0.343   0.016
 2198SOL    HW2 7494   0.149   0.224   0.051
 2199SOL     OW 7495   5.095   6.824   4.595
 2199SOL    HW1 7496   5.099   6.879   4.512
 2199SOL    HW2 7497   5.065   6.731   4.573
 2200SOL     OW 7498   3.485   1.269   4.096
 2200SOL    HW1 7499   3.395   1.271   4.140
 2200SOL    HW2 7500   3.487   1.197   4.026
 2201SOL     OW 7501   6.541   2.899   3.074
 2201SOL    HW1 7502   6.452   2.861   3.048
 2201SOL    HW2 7503   6.589   2.834   3.132
 2202SOL     OW 7504   3.370   5.254   3.104
 2202SOL    HW1 7505   3.339   5.162   3.082
 2202SOL    HW2 7506   3.331   5.319   3.039
 2203SOL     OW 7507   2.498   4.268   1.044
 2203SOL    HW1 7508   2.448   4.187   1.075
 2203SOL    HW2 7509   2.572   4.288   1.109
 2204SOL     OW 7510   4.045   2.586   1.075
 2204SOL    HW1 7511   4.103   2.505   1.081
 2204SOL    HW2 7512   3.958   2.568   1.120
 2205SOL     OW 7513   1.581   6.664   0.755
 2205SOL    HW1 7514   1.524   6.621   0.686
 2205SOL    HW2 7515   1.677   6.648   0.734
 2206SOL     OW 7516   2.556   4.000   6.271
 2206SOL    HW1 7517   2.528   3.906   6.291
 2206SOL    HW2 7518   2.534   4.023   6.177
 2207SOL     OW 7519   3.721   5.699   0.654
 2207SOL    HW1 7520   3.743   5.777   0.595
 2207SOL    HW2 7521   3.800   5.679   0.713
 2208SOL     OW 7522   1.133   5.841   3.441
 2208SOL    HW1 7523   1.040   5.861   3.474
 2208SOL    HW2 7524   1.199   5.886   3.501
 2209SOL     OW 7525   2.717   5.465   4.782
 2209SOL    HW1 7526   2.641   5.416   4.824
 2209SOL    HW2 7527   2.722   5.441   4.685
 2210SOL     OW 7528   6.329   5.852   2.100
 2210SOL    HW1 7529   6.411   5.827   2.048
 2210SOL    HW2 7530   6.250   5.803   2.062
 2211SOL     OW 7531   6.028   0.851   0.822
 2211SOL    HW1 7532   6.098   0.784   0.798
 2211SOL    HW2 7533   5.965   0.812   0.889
 2212SOL     OW 7534   1.906   5.898   6.804
 2212SOL    HW1 7535   1.882   5.946   6.720
 2212SOL    HW2 7536   1.985   5.942   6.846
 2213SOL     OW 7537   4.802   2.862   4.708
 2213SOL    HW1 7538   4.877   2.869   4.774
 2213SOL    HW2 7539   4.798   2.945   4.653
 2214SOL     OW 7540   3.883   2.911   5.541
 2214SOL    HW1 7541   3.912   2.862   5.459
 2214SOL    HW2 7542   3.909   3.007   5.534
 2215SOL     OW 7543   5.564   1.766   6.101
 2215SOL    HW1 7544   5.616   1.847   6.125
 2215SOL    HW2 7545   5.524   1.726   6.183
 2216SOL     OW 7546   0.448   6.325   6.054
 2216SOL    HW1 7547   0.400   6.353   6.137
 2216SOL    HW2 7548   0.540   6.365   6.054
 2217SOL     OW 7549   4.624   0.616   3.738
 2217SOL    HW1 7550   4.566   0.696   3.752
 2217SOL    HW2 7551   4.624   0.591   3.641
 2218SOL     OW 7552   0.257   5.273   6.917
 2218SOL    HW1 7553   0.334   5.319   6.872
 2218SOL    HW2 7554   0.263   5.287   7.016
 2219SOL     OW 7555   6.048   2.017   1.004
 2219SOL    HW1 7556   6.025   2.087   0.937
 2219SOL    HW2 7557   6.146   2.021   1.025
 2220SOL     OW 7558   2.070   6.303   5.366
 2220SOL    HW1 7559   2.043   6.319   5.461
 2220SOL    HW2 7560   2.157   6.255   5.364
 2221SOL     OW 7561   6.571   1.518   4.619
 2221SOL    HW1 7562   6.513   1.467   4.682
 2221SOL    HW2 7563   6.667   1.503   4.642
 2222SOL     OW 7564   6.330   6.947   0.910
 2222SOL    HW1 7565   6.258   6.878   0.924
 2222SOL    HW2 7566   6.289   0.010   0.888
 2223SOL     OW 7567   6.782   0.946   5.668
 2223SOL    HW1 7568   6.795   1.041   5.699
 2223SOL    HW2 7569   6.685   0.923   5.672
 2224SOL     OW 7570   5.930   3.660   2.057
 2224SOL    HW1 7571   6.022   3.622   2.066
 2224SOL    HW2 7572   5.919   3.736   2.122
 2225SOL     OW 7573   0.036   6.509   3.371
 2225SOL    HW1 7574   6.967   6.506   3.407
 2225SOL    HW2 7575   0.040   6.461   3.284
 2226SOL     OW 7576   3.599   5.474   0.714
 2226SOL    HW1 7577   3.645   5.557   0.684
 2226SOL    HW2 7578   3.599   5.407   0.639
 2227SOL     OW 7579   4.421   2.802   1.463
 2227SOL    HW1 7580   4.386   2.710   1.480
 2227SOL    HW2 7581   4.499   2.819   1.523
 2228SOL     OW 7582   4.624   5.154   0.326
 2228SOL    HW1 7583   4.579   5.133   0.240
 2228SOL    HW2 7584   4.557   5.191   0.391
 2229SOL     OW 7585   3.565   3.576   4.831
 2229SOL    HW1 7586   3.551   3.674   4.816
 2229SOL    HW2 7587   3.618   3.537   4.756
 2230SOL     OW 7588   5.035   6.190   1.429
 2230SOL    HW1 7589   5.109   6.127   1.407
 2230SOL    HW2 7590   4.976   6.201   1.348
 2231SOL     OW 7591   0.648   1.245   6.215
 2231SOL    HW1 7592   0.642   1.147   6.195
 2231SOL    HW2 7593   0.708   1.260   6.294
 2232SOL     OW 7594   0.381   0.615   5.117
 2232SOL    HW1 7595   0.420   0.524   5.098
 2232SOL    HW2 7596   0.455   0.681   5.127
 2233SOL     OW 7597   3.364   3.543   0.662
 2233SOL    HW1 7598   3.461   3.535   0.688
 2233SOL    HW2 7599   3.313   3.587   0.736
 2234SOL     OW 7600   3.605   1.616   0.758
 2234SOL    HW1 7601   3.544   1.574   0.825
 2234SOL    HW2 7602   3.571   1.706   0.732
 2235SOL     OW 7603   2.623   0.352   2.774
 2235SOL    HW1 7604   2.525   0.370   2.783
 2235SOL    HW2 7605   2.674   0.417   2.830
 2236SOL     OW 7606   2.267   3.839   5.721
 2236SOL    HW1 7607   2.289   3.770   5.652
 2236SOL    HW2 7608   2.172   3.828   5.750
 2237SOL     OW 7609   6.138   5.073   4.280
 2237SOL    HW1 7610   6.129   4.974   4.275
 2237SOL    HW2 7611   6.109   5.105   4.370
 2238SOL     OW 7612   4.708   4.812   2.452
 2238SOL    HW1 7613   4.689   4.806   2.354
 2238SOL    HW2 7614   4.631   4.857   2.498
 2239SOL     OW 7615   3.953   5.266   4.358
 2239SOL    HW1 7616   4.008   5.230   4.283
 2239SOL    HW2 7617   4.012   5.312   4.424
 2240SOL     OW 7618   3.548   5.547   2.376
 2240SOL    HW1 7619   3.546   5.589   2.285
 2240SOL    HW2 7620   3.626   5.582   2.427
 2241SOL     OW 7621   6.611   6.930   2.070
 2241SOL    HW1 7622   6.578   7.022   2.048
 2241SOL    HW2 7623   6.689   6.908   2.011
 2242SOL     OW 7624   5.463   3.323   2.208
 2242SOL    HW1 7625   5.427   3.399   2.154
 2242SOL    HW2 7626   5.487   3.355   2.299
 2243SOL     OW 7627   2.392   6.619   6.904
 2243SOL    HW1 7628   2.340   6.539   6.934
 2243SOL    HW2 7629   2.418   6.673   6.984
 2244SOL     OW 7630   3.025   0.165   1.343
 2244SOL    HW1 7631   3.121   0.145   1.319
 2244SOL    HW2 7632   3.019   0.191   1.439
 2245SOL     OW 7633   0.238   1.655   0.618
 2245SOL    HW1 7634   0.176   1.581   0.643
 2245SOL    HW2 7635   0.330   1.635   0.653
 2246SOL     OW 7636   1.929   0.219   4.034
 2246SOL    HW1 7637   1.921   0.222   3.934
 2246SOL    HW2 7638   1.863   0.282   4.075
 2247SOL     OW 7639   3.173   3.538   2.520
 2247SOL    HW1 7640   3.235   3.544   2.442
 2247SOL    HW2 7641   3.120   3.623   2.525
 2248SOL     OW 7642   6.749   4.125   3.967
 2248SOL    HW1 7643   6.674   4.172   3.922
 2248SOL    HW2 7644   6.719   4.035   3.997
 2249SOL     OW 7645   3.947   6.507   4.076
 2249SOL    HW1 7646   4.039   6.508   4.036
 2249SOL    HW2 7647   3.879   6.520   4.004
 2250SOL     OW 7648   3.360   3.956   5.619
 2250SOL    HW1 7649   3.305   3.874   5.631
 2250SOL    HW2 7650   3.370   3.975   5.521
 2251SOL     OW 7651   5.373   0.369   6.041
 2251SOL    HW1 7652   5.370   0.415   6.129
 2251SOL    HW2 7653   5.353   0.271   6.054
 2252SOL     OW 7654   5.149   1.748   3.000
 2252SOL    HW1 7655   5.073   1.766   2.938
 2252SOL    HW2 7656   5.114   1.731   3.092
 2253SOL     OW 7657   0.277   3.320   6.822
 2253SOL    HW1 7658   0.207   3.381   6.858
 2253SOL    HW2 7659   0.351   3.375   6.782
 2254SOL     OW 7660   3.604   3.444   3.264
 2254SOL    HW1 7661   3.682   3.420   3.323
 2254SOL    HW2 7662   3.537   3.370   3.266
 2255SOL     OW 7663   3.004   3.691   5.609
 2255SOL    HW1 7664   2.972   3.613   5.554
 2255SOL    HW2 7665   3.010   3.772   5.551
 2256SOL     OW 7666   4.307   6.622   2.330
 2256SOL    HW1 7667   4.209   6.633   2.311
 2256SOL    HW2 7668   4.330   6.525   2.328
 2257SOL     OW 7669   0.720   1.231   4.400
 2257SOL    HW1 7670   0.729   1.312   4.342
 2257SOL    HW2 7671   0.687   1.259   4.490
 2258SOL     OW 7672   2.194   6.016   3.774
 2258SOL    HW1 7673   2.162   5.958   3.849
 2258SOL    HW2 7674   2.189   5.964   3.688
 2259SOL     OW 7675   5.369   2.651   4.648
 2259SOL    HW1 7676   5.432   2.704   4.704
 2259SOL    HW2 7677   5.412   2.564   4.623
 2260SOL     OW 7678   0.736   3.609   1.340
 2260SOL    HW1 7679   0.741   3.550   1.259
 2260SOL    HW2 7680   0.650   3.660   1.338
 2261SOL     OW 7681   6.644   4.439   0.663
 2261SOL    HW1 7682   6.638   4.449   0.762
 2261SOL    HW2 7683   6.738   4.460   0.634
 2262SOL     OW 7684   6.374   0.489   2.931
 2262SOL    HW1 7685   6.340   0.518   2.842
 2262SOL    HW2 7686   6.298   0.464   2.990
 2263SOL     OW 7687   1.786   5.949   0.585
 2263SOL    HW1 7688   1.733   6.034   0.586
 2263SOL    HW2 7689   1.770   5.901   0.499
 2264SOL     OW 7690   2.669   0.283   6.730
 2264SOL    HW1 7691   2.724   0.312   6.808
 2264SOL    HW2 7692   2.577   0.258   6.761
 2265SOL     OW 7693   2.010   0.509   4.103
 2265SOL    HW1 7694   2.082   0.564   4.146
 2265SOL    HW2 7695   1.920   0.547   4.126
 2266SOL     OW 7696   4.520   1.303   6.377
 2266SOL    HW1 7697   4.425   1.273   6.385
 2266SOL    HW2 7698   4.558   1.272   6.290
 2267SOL     OW 7699   4.780   2.785   5.003
 2267SOL    HW1 7700   4.760   2.786   4.905
 2267SOL    HW2 7701   4.799   2.878   5.034
 2268SOL     OW 7702   5.994   3.507   6.429
 2268SOL    HW1 7703   5.961   3.594   6.393
 2268SOL    HW2 7704   6.000   3.440   6.354
 2269SOL     OW 7705   0.930   3.552   4.720
 2269SOL    HW1 7706   0.859   3.619   4.697
 2269SOL    HW2 7707   1.013   3.572   4.670
 2270SOL     OW 7708   3.915   3.165   6.116
 2270SOL    HW1 7709   3.863   3.217   6.185
 2270SOL    HW2 7710   3.987   3.223   6.080
 2271SOL     OW 7711   5.489   4.748   6.958
 2271SOL    HW1 7712   5.455   4.703   0.017
 2271SOL    HW2 7713   5.462   4.695   6.878
 2272SOL     OW 7714   7.016   1.694   6.542
 2272SOL    HW1 7715   6.953   1.661   6.472
 2272SOL    HW2 7716   7.023   1.627   6.616
 2273SOL     OW 7717   1.697   2.267   2.583
 2273SOL    HW1 7718   1.599   2.285   2.591
 2273SOL    HW2 7719   1.748   2.348   2.613
 2274SOL     OW 7720   0.501   1.417   6.397
 2274SOL    HW1 7721   0.435   1.482   6.360
 2274SOL    HW2 7722   0.536   1.360   6.323
 2275SOL     OW 7723   5.899   5.785   2.654
 2275SOL    HW1 7724   5.920   5.855   2.723
 2275SOL    HW2 7725   5.947   5.700   2.677
 2276SOL     OW 7726   1.576   5.979   1.641
 2276SOL    HW1 7727   1.504   6.010   1.702
 2276SOL    HW2 7728   1.665   5.996   1.683
 2277SOL     OW 7729   3.316   3.601   4.519
 2277SOL    HW1 7730   3.369   3.679   4.551
 2277SOL    HW2 7731   3.377   3.523   4.506
 2278SOL     OW 7732   6.295   2.699   3.793
 2278SOL    HW1 7733   6.322   2.604   3.809
 2278SOL    HW2 7734   6.312   2.723   3.698
 2279SOL     OW 7735   6.302   6.674   5.974
 2279SOL    HW1 7736   6.371   6.618   5.930
 2279SOL    HW2 7737   6.315   6.770   5.948
 2280SOL     OW 7738   6.174   0.895   4.685
 2280SOL    HW1 7739   6.242   0.851   4.626
 2280SOL    HW2 7740   6.219   0.964   4.742
 2281SOL     OW 7741   3.628   0.554   2.061
 2281SOL    HW1 7742   3.581   0.520   2.143
 2281SOL    HW2 7743   3.609   0.651   2.050
 2282SOL     OW 7744   5.074   6.140   5.677
 2282SOL    HW1 7745   5.018   6.178   5.603
 2282SOL    HW2 7746   5.149   6.203   5.697
 2283SOL     OW 7747   1.495   0.642   1.952
 2283SOL    HW1 7748   1.486   0.663   2.050
 2283SOL    HW2 7749   1.493   0.726   1.899
 2284SOL     OW 7750   0.903   3.608   6.010
 2284SOL    HW1 7751   0.832   3.660   6.057
 2284SOL    HW2 7752   0.861   3.537   5.954
 2285SOL     OW 7753   1.531   3.132   0.249
 2285SOL    HW1 7754   1.565   3.179   0.330
 2285SOL    HW2 7755   1.607   3.113   0.187
 2286SOL     OW 7756   5.496   0.109   3.447
 2286SOL    HW1 7757   5.448   0.092   3.534
 2286SOL    HW2 7758   5.455   0.188   3.402
 2287SOL     OW 7759   2.848   0.907   3.707
 2287SOL    HW1 7760   2.789   0.984   3.682
 2287SOL    HW2 7761   2.908   0.886   3.630
 2288SOL     OW 7762   0.385   5.697   4.100
 2288SOL    HW1 7763   0.387   5.707   4.200
 2288SOL    HW2 7764   0.342   5.611   4.076
 2289SOL     OW 7765   6.789   5.061   1.019
 2289SOL    HW1 7766   6.689   5.062   1.020
 2289SOL    HW2 7767   6.823   5.020   1.103
 2290SOL     OW 7768   0.557   4.216   1.241
 2290SOL    HW1 7769   0.563   4.256   1.332
 2290SOL    HW2 7770   0.602   4.127   1.240
 2291SOL     OW 7771   2.388   2.337   5.720
 2291SOL    HW1 7772   2.408   2.408   5.788
 2291SOL    HW2 7773   2.473   2.298   5.686
 2292SOL     OW 7774   1.536   1.215   4.508
 2292SOL    HW1 7775   1.509   1.309   4.488
 2292SOL    HW2 7776   1.615   1.215   4.570
 2293SOL     OW 7777   5.551   6.086   2.184
 2293SOL    HW1 7778   5.482   6.109   2.253
 2293SOL    HW2 7779   5.562   5.987   2.180
 2294SOL     OW 7780   3.473   0.171   0.361
 2294SOL    HW1 7781   3.497   0.100   0.295
 2294SOL    HW2 7782   3.374   0.171   0.374
 2295SOL     OW 7783   0.526   1.517   2.384
 2295SOL    HW1 7784   0.462   1.565   2.445
 2295SOL    HW2 7785   0.577   1.449   2.437
 2296SOL     OW 7786   3.292   6.665   0.882
 2296SOL    HW1 7787   3.282   6.753   0.929
 2296SOL    HW2 7788   3.383   6.628   0.899
 2297SOL     OW 7789   3.678   4.214   5.311
 2297SOL    HW1 7790   3.688   4.137   5.374
 2297SOL    HW2 7791   3.756   4.217   5.249
 2298SOL     OW 7792   3.402   2.256   1.694
 2298SOL    HW1 7793   3.332   2.320   1.726
 2298SOL    HW2 7794   3.407   2.178   1.757
 2299SOL     OW 7795   6.047   0.607   6.624
 2299SOL    HW1 7796   6.068   0.577   6.531
 2299SOL    HW2 7797   6.046   0.707   6.627
 2300SOL     OW 7798   1.950   5.118   1.923
 2300SOL    HW1 7799   1.972   5.215   1.916
 2300SOL    HW2 7800   1.977   5.071   1.839
 2301SOL     OW 7801   3.044   3.591   2.904
 2301SOL    HW1 7802   2.987   3.519   2.864
 2301SOL    HW2 7803   3.031   3.676   2.854
 2302SOL     OW 7804   3.702   0.122   2.529
 2302SOL    HW1 7805   3.639   0.062   2.480
 2302SOL    HW2 7806   3.686   0.217   2.502
 2303SOL     OW 7807   1.740   3.628   5.500
 2303SOL    HW1 7808   1.642   3.645   5.511
 2303SOL    HW2 7809   1.756   3.529   5.501
 2304SOL     OW 7810   2.560   0.344   3.290
 2304SOL    HW1 7811   2.563   0.444   3.292
 2304SOL    HW2 7812   2.521   0.314   3.203
 2305SOL     OW 7813   3.672   5.776   3.425
 2305SOL    HW1 7814   3.579   5.746   3.406
 2305SOL    HW2 7815   3.726   5.699   3.460
 2306SOL     OW 7816   2.266   5.800   1.459
 2306SOL    HW1 7817   2.291   5.766   1.549
 2306SOL    HW2 7818   2.179   5.849   1.465
 2307SOL     OW 7819   2.334   4.380   2.714
 2307SOL    HW1 7820   2.257   4.386   2.652
 2307SOL    HW2 7821   2.390   4.463   2.707
 2308SOL     OW 7822   1.312   0.204   6.944
 2308SOL    HW1 7823   1.291   0.122   6.891
 2308SOL    HW2 7824   1.338   0.278   6.882
 2309SOL     OW 7825   2.776   6.712   0.121
 2309SOL    HW1 7826   2.834   6.758   0.053
 2309SOL    HW2 7827   2.770   6.768   0.203
 2310SOL     OW 7828   6.409   6.883   1.380
 2310SOL    HW1 7829   6.488   6.826   1.402
 2310SOL    HW2 7830   6.433   6.946   1.307
 2311SOL     OW 7831   2.455   7.003   2.283
 2311SOL    HW1 7832   2.485   7.018   2.377
 2311SOL    HW2 7833   2.433   0.066   2.240
 2312SOL     OW 7834   3.265   6.995   3.688
 2312SOL    HW1 7835   3.242   6.929   3.759
 2312SOL    HW2 7836   3.205   6.982   3.609
 2313SOL     OW 7837   4.506   5.191   1.895
 2313SOL    HW1 7838   4.585   5.151   1.849
 2313SOL    HW2 7839   4.533   5.274   1.943
 2314SOL     OW 7840   5.854   0.721   3.258
 2314SOL    HW1 7841   5.911   0.646   3.292
 2314SOL    HW2 7842   5.887   0.808   3.297
 2315SOL     OW 7843   5.066   3.464   5.415
 2315SOL    HW1 7844   5.164   3.474   5.432
 2315SOL    HW2 7845   5.015   3.527   5.473
 2316SOL     OW 7846   2.761   1.542   5.243
 2316SOL    HW1 7847   2.765   1.443   5.256
 2316SOL    HW2 7848   2.756   1.586   5.333
 2317SOL     OW 7849   6.515   6.399   3.937
 2317SOL    HW1 7850   6.470   6.428   3.852
 2317SOL    HW2 7851   6.454   6.413   4.014
 2318SOL     OW 7852   2.106   3.409   4.437
 2318SOL    HW1 7853   2.117   3.314   4.409
 2318SOL    HW2 7854   2.116   3.416   4.536
 2319SOL     OW 7855   3.318   5.220   5.370
 2319SOL    HW1 7856   3.313   5.248   5.466
 2319SOL    HW2 7857   3.298   5.123   5.362
 2320SOL     OW 7858   0.597   1.964   4.821
 2320SOL    HW1 7859   0.638   1.876   4.799
 2320SOL    HW2 7860   0.663   2.037   4.801
 2321SOL     OW 7861   2.306   6.164   6.628
 2321SOL    HW1 7862   2.376   6.140   6.560
 2321SOL    HW2 7863   2.344   6.153   6.720
 2322SOL     OW 7864   2.076   4.160   2.088
 2322SOL    HW1 7865   2.174   4.144   2.075
 2322SOL    HW2 7866   2.024   4.084   2.048
 2323SOL     OW 7867   3.303   4.775   1.867
 2323SOL    HW1 7868   3.396   4.739   1.865
 2323SOL    HW2 7869   3.244   4.716   1.811
 2324SOL     OW 7870   6.688   5.830   1.095
 2324SOL    HW1 7871   6.771   5.791   1.133
 2324SOL    HW2 7872   6.697   5.839   0.996
 2325SOL     OW 7873   0.230   4.780   1.398
 2325SOL    HW1 7874   0.175   4.863   1.397
 2325SOL    HW2 7875   0.172   4.701   1.377
 2326SOL     OW 7876   1.459   6.411   6.339
 2326SOL    HW1 7877   1.553   6.427   6.369
 2326SOL    HW2 7878   1.459   6.391   6.241
 2327SOL     OW 7879   0.374   0.849   3.303
 2327SOL    HW1 7880   0.420   0.771   3.345
 2327SOL    HW2 7881   0.442   0.919   3.280
 2328SOL     OW 7882   1.793   2.061   2.936
 2328SOL    HW1 7883   1.794   2.159   2.952
 2328SOL    HW2 7884   1.707   2.022   2.968
 2329SOL     OW 7885   0.569   4.974   4.842
 2329SOL    HW1 7886   0.648   4.977   4.781
 2329SOL    HW2 7887   0.521   5.061   4.839
 2330SOL     OW 7888   0.345   2.777   0.313
 2330SOL    HW1 7889   0.423   2.793   0.254
 2330SOL    HW2 7890   0.320   2.862   0.360
 2331SOL     OW 7891   3.646   5.322   0.445
 2331SOL    HW1 7892   3.724   5.368   0.404
 2331SOL    HW2 7893   3.677   5.248   0.504
 2332SOL     OW 7894   0.048   0.069   5.826
 2332SOL    HW1 7895   0.076   0.096   5.919
 2332SOL    HW2 7896   0.027   6.995   5.825
 2333SOL     OW 7897   0.070   4.913   2.976
 2333SOL    HW1 7898   0.038   4.863   3.057
 2333SOL    HW2 7899   0.107   4.848   2.910
 2334SOL     OW 7900   1.677   1.016   6.706
 2334SOL    HW1 7901   1.772   1.045   6.693
 2334SOL    HW2 7902   1.674   0.938   6.768
 2335SOL     OW 7903   5.763   6.834   3.785
 2335SOL    HW1 7904   5.821   6.784   3.720
 2335SOL    HW2 7905   5.668   6.830   3.756
 2336SOL     OW 7906   3.302   1.434   4.295
 2336SOL    HW1 7907   3.350   1.495   4.232
 2336SOL    HW2 7908   3.256   1.362   4.243
 2337SOL     OW 7909   4.030   0.568   1.587
 2337SOL    HW1 7910   4.075   0.520   1.662
 2337SOL    HW2 7911   4.039   0.515   1.503
 2338SOL     OW 7912   0.482   3.314   4.249
 2338SOL    HW1 7913   0.534   3.229   4.243
 2338SOL    HW2 7914   0.511   3.365   4.330
 2339SOL     OW 7915   3.734   4.068   3.358
 2339SOL    HW1 7916   3.656   4.011   3.334
 2339SOL    HW2 7917   3.754   4.132   3.284
 2340SOL     OW 7918   0.143   4.328   6.699
 2340SOL    HW1 7919   0.222   4.280   6.737
 2340SOL    HW2 7920   0.070   4.262   6.682
 2341SOL     OW 7921   2.904   4.944   2.311
 2341SOL    HW1 7922   2.866   4.856   2.282
 2341SOL    HW2 7923   2.935   4.995   2.231
 2342SOL     OW 7924   1.756   0.318   5.138
 2342SOL    HW1 7925   1.661   0.304   5.109
 2342SOL    HW2 7926   1.814   0.247   5.098
 2343SOL     OW 7927   1.515   5.657   2.288
 2343SOL    HW1 7928   1.573   5.587   2.330
 2343SOL    HW2 7929   1.515   5.645   2.189
 2344SOL     OW 7930   0.364   5.909   6.890
 2344SOL    HW1 7931   0.367   5.977   6.963
 2344SOL    HW2 7932   0.269   5.895   6.861
 2345SOL     OW 7933   2.501   5.346   4.878
 2345SOL    HW1 7934   2.456   5.297   4.803
 2345SOL    HW2 7935   2.458   5.436   4.889
 2346SOL     OW 7936   3.594   3.282   5.701
 2346SOL    HW1 7937   3.631   3.298   5.609
 2346SOL    HW2 7938   3.561   3.188   5.708
 2347SOL     OW 7939   2.615   2.554   1.587
 2347SOL    HW1 7940   2.613   2.638   1.642
 2347SOL    HW2 7941   2.561   2.483   1.633
 2348SOL     OW 7942   1.704   6.229   3.645
 2348SOL    HW1 7943   1.784   6.284   3.665
 2348SOL    HW2 7944   1.676   6.244   3.550
 2349SOL     OW 7945   0.917   4.851   5.541
 2349SOL    HW1 7946   0.983   4.920   5.511
 2349SOL    HW2 7947   0.964   4.764   5.555
 2350SOL     OW 7948   6.411   5.518   6.092
 2350SOL    HW1 7949   6.426   5.579   6.015
 2350SOL    HW2 7950   6.354   5.440   6.063
 2351SOL     OW 7951   3.240   4.935   4.414
 2351SOL    HW1 7952   3.175   4.887   4.473
 2351SOL    HW2 7953   3.332   4.929   4.455
 2352SOL     OW 7954   0.296   3.576   2.465
 2352SOL    HW1 7955   0.318   3.492   2.415
 2352SOL    HW2 7956   0.211   3.615   2.428
 2353SOL     OW 7957   3.477   4.929   4.564
 2353SOL    HW1 7958   3.576   4.942   4.563
 2353SOL    HW2 7959   3.441   4.958   4.653
 2354SOL     OW 7960   2.366   2.020   4.642
 2354SOL    HW1 7961   2.331   2.112   4.625
 2354SOL    HW2 7962   2.317   1.980   4.719
 2355SOL     OW 7963   1.851   6.654   5.635
 2355SOL    HW1 7964   1.925   6.642   5.701
 2355SOL    HW2 7965   1.774   6.597   5.660
 2356SOL     OW 7966   1.162   3.142   6.169
 2356SOL    HW1 7967   1.134   3.052   6.136
 2356SOL    HW2 7968   1.235   3.132   6.236
 2357SOL     OW 7969   4.254   0.406   2.522
 2357SOL    HW1 7970   4.306   0.477   2.569
 2357SOL    HW2 7971   4.170   0.446   2.485
 2358SOL     OW 7972   3.250   5.327   5.624
 2358SOL    HW1 7973   3.272   5.422   5.648
 2358SOL    HW2 7974   3.279   5.267   5.699
 2359SOL     OW 7975   6.781   0.977   5.352
 2359SOL    HW1 7976   6.684   0.954   5.362
 2359SOL    HW2 7977   6.813   1.021   5.436
 2360SOL     OW 7978   5.620   3.046   6.605
 2360SOL    HW1 7979   5.669   2.962   6.627
 2360SOL    HW2 7980   5.609   3.054   6.506
 2361SOL     OW 7981   2.005   0.536   6.282
 2361SOL    HW1 7982   2.022   0.522   6.380
 2361SOL    HW2 7983   2.060   0.613   6.249
 2362SOL     OW 7984   2.570   5.854   3.648
 2362SOL    HW1 7985   2.539   5.939   3.689
 2362SOL    HW2 7986   2.525   5.841   3.559
 2363SOL     OW 7987   4.643   2.160   4.838
 2363SOL    HW1 7988   4.649   2.089   4.768
 2363SOL    HW2 7989   4.574   2.134   4.906
 2364SOL     OW 7990   1.034   2.613   2.476
 2364SOL    HW1 7991   1.078   2.645   2.392
 2364SOL    HW2 7992   0.954   2.558   2.452
 2365SOL     OW 7993   6.636   2.440   6.896
 2365SOL    HW1 7994   6.721   2.493   6.900
 2365SOL    HW2 7995   6.563   2.496   6.858
 2366SOL     OW 7996   2.284   5.581   6.484
 2366SOL    HW1 7997   2.221   5.626   6.547
 2366SOL    HW2 7998   2.246   5.583   6.392
 2367SOL     OW 7999   2.395   3.835   1.055
 2367SOL    HW1 8000   2.433   3.767   1.117
 2367SOL    HW2 8001   2.340   3.790   0.985
 2368SOL     OW 8002   4.625   6.521   4.618
 2368SOL    HW1 8003   4.656   6.457   4.548
 2368SOL    HW2 8004   4.671   6.609   4.606
 2369SOL     OW 8005   2.298   1.058   4.844
 2369SOL    HW1 8006   2.223   1.079   4.906
 2369SOL    HW2 8007   2.265   1.003   4.768
 2370SOL     OW 8008   5.136   2.980   0.170
 2370SOL    HW1 8009   5.190   2.896   0.178
 2370SOL    HW2 8010   5.039   2.958   0.167
 2371SOL     OW 8011   1.225   6.961   1.310
 2371SOL    HW1 8012   1.229   0.029   1.272
 2371SOL    HW2 8013   1.199   6.966   1.407
 2372SOL     OW 8014   0.248   2.891   1.880
 2372SOL    HW1 8015   0.170   2.924   1.933
 2372SOL    HW2 8016   0.244   2.791   1.873
 2373SOL     OW 8017   1.039   2.909   5.991
 2373SOL    HW1 8018   0.960   2.920   5.932
 2373SOL    HW2 8019   1.099   2.838   5.954
 2374SOL     OW 8020   6.125   1.512   3.876
 2374SOL    HW1 8021   6.102   1.513   3.974
 2374SOL    HW2 8022   6.042   1.497   3.823
 2375SOL     OW 8023   3.245   6.221   4.687
 2375SOL    HW1 8024   3.229   6.135   4.735
 2375SOL    HW2 8025   3.195   6.295   4.733
 2376SOL     OW 8026   6.811   2.624   4.530
 2376SOL    HW1 8027   6.749   2.600   4.455
 2376SOL    HW2 8028   6.811   2.723   4.543
 2377SOL     OW 8029   3.741   3.759   3.647
 2377SOL    HW1 8030   3.831   3.799   3.669
 2377SOL    HW2 8031   3.669   3.819   3.679
 2378SOL     OW 8032   4.834   1.482   0.827
 2378SOL    HW1 8033   4.811   1.546   0.901
 2378SOL    HW2 8034   4.829   1.388   0.861
 2379SOL     OW 8035   0.226   1.724   0.357
 2379SOL    HW1 8036   0.197   1.820   0.355
 2379SOL    HW2 8037   0.220   1.689   0.451
 2380SOL     OW 8038   0.391   1.816   6.436
 2380SOL    HW1 8039   0.394   1.861   6.525
 2380SOL    HW2 8040   0.345   1.728   6.444
 2381SOL     OW 8041   1.876   5.062   4.679
 2381SOL    HW1 8042   1.848   5.135   4.742
 2381SOL    HW2 8043   1.958   5.017   4.715
 2382SOL     OW 8044   2.143   3.860   4.524
 2382SOL    HW1 8045   2.174   3.939   4.471
 2382SOL    HW2 8046   2.175   3.867   4.618
 2383SOL     OW 8047   5.008   6.515   0.407
 2383SOL    HW1 8048   5.104   6.489   0.415
 2383SOL    HW2 8049   4.951   6.433   0.411
 2384SOL     OW 8050   5.910   0.987   2.885
 2384SOL    HW1 8051   5.885   1.061   2.947
 2384SOL    HW2 8052   5.874   0.901   2.921
 2385SOL     OW 8053   1.092   6.896   0.453
 2385SOL    HW1 8054   1.183   6.869   0.485
 2385SOL    HW2 8055   1.041   6.938   0.529
 2386SOL     OW 8056   6.104   5.821   4.197
 2386SOL    HW1 8057   6.061   5.908   4.171
 2386SOL    HW2 8058   6.074   5.750   4.133
 2387SOL     OW 8059   1.298   2.133   4.031
 2387SOL    HW1 8060   1.344   2.127   3.943
 2387SOL    HW2 8061   1.215   2.188   4.022
 2388SOL     OW 8062   0.520   2.011   3.864
 2388SOL    HW1 8063   0.470   1.969   3.940
 2388SOL    HW2 8064   0.460   2.018   3.785
 2389SOL     OW 8065   4.905   4.320   2.548
 2389SOL    HW1 8066   4.957   4.402   2.522
 2389SOL    HW2 8067   4.967   4.255   2.593
 2390SOL     OW 8068   3.682   2.898   3.329
 2390SOL    HW1 8069   3.729   2.835   3.391
 2390SOL    HW2 8070   3.664   2.984   3.376
 2391SOL     OW 8071   5.332   4.141   5.451
 2391SOL    HW1 8072   5.358   4.169   5.544
 2391SOL    HW2 8073   5.236   4.164   5.435
 2392SOL     OW 8074   3.759   6.354   5.049
 2392SOL    HW1 8075   3.699   6.319   5.121
 2392SOL    HW2 8076   3.737   6.309   4.962
 2393SOL     OW 8077   4.996   3.941   6.010
 2393SOL    HW1 8078   5.068   4.001   5.975
 2393SOL    HW2 8079   4.967   3.878   5.938
 2394SOL     OW 8080   1.146   3.997   4.561
 2394SOL    HW1 8081   1.157   4.022   4.465
 2394SOL    HW2 8082   1.214   4.045   4.616
 2395SOL     OW 8083   4.764   1.382   5.800
 2395SOL    HW1 8084   4.861   1.406   5.795
 2395SOL    HW2 8085   4.741   1.358   5.895
 2396SOL     OW 8086   3.565   5.130   1.387
 2396SOL    HW1 8087   3.641   5.166   1.441
 2396SOL    HW2 8088   3.566   5.030   1.391
 2397SOL     OW 8089   0.064   3.501   5.844
 2397SOL    HW1 8090   0.074   3.402   5.842
 2397SOL    HW2 8091   0.076   3.538   5.752
 2398SOL     OW 8092   3.899   4.121   6.902
 2398SOL    HW1 8093   3.961   4.054   6.860
 2398SOL    HW2 8094   3.919   4.129   6.999
 2399SOL     OW 8095   4.186   1.037   1.660
 2399SOL    HW1 8096   4.178   0.987   1.746
 2399SOL    HW2 8097   4.139   0.987   1.587
 2400SOL     OW 8098   2.715   4.339   0.860
 2400SOL    HW1 8099   2.656   4.343   0.941
 2400SOL    HW2 8100   2.730   4.243   0.835
 2401SOL     OW 8101   5.269   6.256   6.650
 2401SOL    HW1 8102   5.334   6.233   6.723
 2401SOL    HW2 8103   5.319   6.283   6.568
 2402SOL     OW 8104   0.502   0.696   3.522
 2402SOL    HW1 8105   0.484   0.779   3.574
 2402SOL    HW2 8106   0.448   0.621   3.560
 2403SOL     OW 8107   2.017   2.311   6.658
 2403SOL    HW1 8108   1.929   2.263   6.658
 2403SOL    HW2 8109   2.088   2.251   6.621
 2404SOL     OW 8110   2.835   0.607   1.140
 2404SOL    HW1 8111   2.816   0.637   1.046
 2404SOL    HW2 8112   2.926   0.565   1.144
 2405SOL     OW 8113   3.601   3.470   2.367
 2405SOL    HW1 8114   3.677   3.472   2.301
 2405SOL    HW2 8115   3.628   3.519   2.450
 2406SOL     OW 8116   2.757   0.222   2.138
 2406SOL    HW1 8117   2.743   0.206   2.041
 2406SOL    HW2 8118   2.669   0.210   2.186
 2407SOL     OW 8119   5.706   1.469   2.982
 2407SOL    HW1 8120   5.641   1.398   3.010
 2407SOL    HW2 8121   5.678   1.506   2.893
 2408SOL     OW 8122   4.732   4.254   3.447
 2408SOL    HW1 8123   4.827   4.258   3.477
 2408SOL    HW2 8124   4.673   4.298   3.515
 2409SOL     OW 8125   2.234   4.858   1.491
 2409SOL    HW1 8126   2.264   4.913   1.570
 2409SOL    HW2 8127   2.234   4.761   1.516
 2410SOL     OW 8128   4.118   3.355   5.170
 2410SOL    HW1 8129   4.150   3.354   5.076
 2410SOL    HW2 8130   4.142   3.269   5.215
 2411SOL     OW 8131   4.816   5.670   4.688
 2411SOL    HW1 8132   4.892   5.646   4.749
 2411SOL    HW2 8133   4.849   5.676   4.594
 2412SOL     OW 8134   5.403   4.323   1.082
 2412SOL    HW1 8135   5.355   4.299   1.166
 2412SOL    HW2 8136   5.502   4.322   1.099
 2413SOL     OW 8137   6.320   0.802   0.861
 2413SOL    HW1 8138   6.287   0.752   0.781
 2413SOL    HW2 8139   6.420   0.806   0.859
 2414SOL     OW 8140   4.777   4.354   2.793
 2414SOL    HW1 8141   4.763   4.356   2.694
 2414SOL    HW2 8142   4.772   4.446   2.830
 2415SOL     OW 8143   6.511   1.039   3.023
 2415SOL    HW1 8144   6.493   1.000   3.114
 2415SOL    HW2 8145   6.449   1.116   3.008
 2416SOL     OW 8146   5.166   2.424   4.995
 2416SOL    HW1 8147   5.095   2.360   5.024
 2416SOL    HW2 8148   5.131   2.483   4.922
 2417SOL     OW 8149   3.769   3.524   4.633
 2417SOL    HW1 8150   3.756   3.487   4.541
 2417SOL    HW2 8151   3.851   3.583   4.633
 2418SOL     OW 8152   3.751   2.855   4.865
 2418SOL    HW1 8153   3.732   2.782   4.799
 2418SOL    HW2 8154   3.774   2.814   4.953
 2419SOL     OW 8155   6.787   0.178   4.106
 2419SOL    HW1 8156   6.842   0.229   4.172
 2419SOL    HW2 8157   6.693   0.170   4.139
 2420SOL     OW 8158   3.301   0.755   3.095
 2420SOL    HW1 8159   3.214   0.798   3.070
 2420SOL    HW2 8160   3.369   0.826   3.115
 2421SOL     OW 8161   2.143   2.615   5.068
 2421SOL    HW1 8162   2.137   2.713   5.085
 2421SOL    HW2 8163   2.177   2.599   4.975
 2422SOL     OW 8164   5.554   1.186   0.992
 2422SOL    HW1 8165   5.556   1.263   1.056
 2422SOL    HW2 8166   5.544   1.220   0.899
 2423SOL     OW 8167   1.622   5.922   2.678
 2423SOL    HW1 8168   1.638   5.941   2.581
 2423SOL    HW2 8169   1.661   5.996   2.733
 2424SOL     OW 8170   6.304   6.897   6.146
 2424SOL    HW1 8171   6.311   6.798   6.136
 2424SOL    HW2 8172   6.275   6.920   6.239
 2425SOL     OW 8173   5.651   0.403   4.227
 2425SOL    HW1 8174   5.663   0.465   4.149
 2425SOL    HW2 8175   5.570   0.346   4.212
 2426SOL     OW 8176   1.442   5.978   5.260
 2426SOL    HW1 8177   1.513   5.925   5.307
 2426SOL    HW2 8178   1.464   5.986   5.163
 2427SOL     OW 8179   5.307   6.267   5.474
 2427SOL    HW1 8180   5.291   6.316   5.560
 2427SOL    HW2 8181   5.252   6.183   5.473
 2428SOL     OW 8182   0.138   0.416   2.351
 2428SOL    HW1 8183   0.089   0.498   2.380
 2428SOL    HW2 8184   0.130   0.405   2.252
 2429SOL     OW 8185   5.875   5.278   2.634
 2429SOL    HW1 8186   5.849   5.293   2.729
 2429SOL    HW2 8187   5.966   5.236   2.630
 2430SOL     OW 8188   6.131   0.966   1.828
 2430SOL    HW1 8189   6.180   0.942   1.912
 2430SOL    HW2 8190   6.042   0.922   1.827
 2431SOL     OW 8191   3.832   0.381   1.997
 2431SOL    HW1 8192   3.828   0.377   1.897
 2431SOL    HW2 8193   3.776   0.456   2.030
 2432SOL     OW 8194   3.878   6.285   2.906
 2432SOL    HW1 8195   3.928   6.370   2.922
 2432SOL    HW2 8196   3.855   6.243   2.994
 2433SOL     OW 8197   4.085   1.709   0.206
 2433SOL    HW1 8198   3.995   1.741   0.239
 2433SOL    HW2 8199   4.154   1.726   0.276
 2434SOL     OW 8200   3.972   1.529   5.953
 2434SOL    HW1 8201   3.940   1.438   5.980
 2434SOL    HW2 8202   4.070   1.527   5.939
 2435SOL     OW 8203   5.052   5.438   5.396
 2435SOL    HW1 8204   5.073   5.471   5.305
 2435SOL    HW2 8205   5.097   5.495   5.465
 2436SOL     OW 8206   1.591   5.150   6.552
 2436SOL    HW1 8207   1.673   5.172   6.605
 2436SOL    HW2 8208   1.579   5.051   6.548
 2437SOL     OW 8209   5.921   6.864   6.710
 2437SOL    HW1 8210   5.875   6.886   6.624
 2437SOL    HW2 8211   5.870   6.793   6.758
 2438SOL     OW 8212   3.145   1.750   0.054
 2438SOL    HW1 8213   3.141   1.834   0.109
 2438SOL    HW2 8214   3.165   1.773   6.983
 2439SOL     OW 8215   0.674   4.678   6.363
 2439SOL    HW1 8216   0.679   4.744   6.287
 2439SOL    HW2 8217   0.681   4.585   6.326
 2440SOL     OW 8218   4.618   5.866   6.142
 2440SOL    HW1 8219   4.682   5.942   6.143
 2440SOL    HW2 8220   4.608   5.832   6.049
 2441SOL     OW 8221   6.888   2.551   6.616
 2441SOL    HW1 8222   6.873   2.561   6.714
 2441SOL    HW2 8223   6.850   2.464   6.585
 2442SOL     OW 8224   1.080   3.792   5.486
 2442SOL    HW1 8225   1.005   3.825   5.542
 2442SOL    HW2 8226   1.166   3.800   5.537
 2443SOL     OW 8227   3.320   5.152   6.354
 2443SOL    HW1 8228   3.255   5.091   6.398
 2443SOL    HW2 8229   3.371   5.203   6.424
 2444SOL     OW 8230   2.765   5.044   6.506
 2444SOL    HW1 8231   2.671   5.018   6.483
 2444SOL    HW2 8232   2.821   5.043   6.424
 2445SOL     OW 8233   0.102   1.072   1.165
 2445SOL    HW1 8234   0.105   1.100   1.070
 2445SOL    HW2 8235   0.169   1.124   1.218
 2446SOL     OW 8236   6.174   3.965   4.265
 2446SOL    HW1 8237   6.152   3.978   4.361
 2446SOL    HW2 8238   6.273   3.955   4.255
 2447SOL     OW 8239   2.114   2.326   6.911
 2447SOL    HW1 8240   2.089   2.244   6.962
 2447SOL    HW2 8241   2.068   2.324   6.822
 2448SOL     OW 8242   0.630   0.733   4.522
 2448SOL    HW1 8243   0.540   0.729   4.480
 2448SOL    HW2 8244   0.644   0.653   4.580
 2449SOL     OW 8245   0.197   3.553   0.416
 2449SOL    HW1 8246   0.138   3.632   0.428
 2449SOL    HW2 8247   0.204   3.531   0.318
 2450SOL     OW 8248   2.682   4.680   3.053
 2450SOL    HW1 8249   2.628   4.597   3.036
 2450SOL    HW2 8250   2.686   4.697   3.152
 2451SOL     OW 8251   1.965   6.568   4.167
 2451SOL    HW1 8252   2.005   6.555   4.076
 2451SOL    HW2 8253   2.027   6.531   4.236
 2452SOL     OW 8254   1.496   3.658   2.962
 2452SOL    HW1 8255   1.506   3.607   2.877
 2452SOL    HW2 8256   1.585   3.666   3.006
 2453SOL     OW 8257   6.474   4.420   1.074
 2453SOL    HW1 8258   6.430   4.384   0.991
 2453SOL    HW2 8259   6.455   4.358   1.150
 2454SOL     OW 8260   3.229   0.649   2.625
 2454SOL    HW1 8261   3.133   0.627   2.641
 2454SOL    HW2 8262   3.279   0.645   2.712
 2455SOL     OW 8263   5.325   5.400   1.082
 2455SOL    HW1 8264   5.287   5.476   1.135
 2455SOL    HW2 8265   5.374   5.436   1.003
 2456SOL     OW 8266   5.226   6.321   2.152
 2456SOL    HW1 8267   5.229   6.419   2.130
 2456SOL    HW2 8268   5.133   6.288   2.138
 2457SOL     OW 8269   5.957   0.190   0.757
 2457SOL    HW1 8270   5.965   0.255   0.832
 2457SOL    HW2 8271   5.970   0.097   0.792
 2458SOL     OW 8272   2.390   6.377   3.175
 2458SOL    HW1 8273   2.300   6.355   3.136
 2458SOL    HW2 8274   2.461   6.346   3.113
 2459SOL     OW 8275   2.162   0.211   0.162
 2459SOL    HW1 8276   2.143   0.133   0.220
 2459SOL    HW2 8277   2.079   0.237   0.113
 2460SOL     OW 8278   2.678   5.659   2.178
 2460SOL    HW1 8279   2.602   5.594   2.184
 2460SOL    HW2 8280   2.656   5.730   2.112
 2461SOL     OW 8281   5.577   0.264   2.019
 2461SOL    HW1 8282   5.631   0.223   1.946
 2461SOL    HW2 8283   5.617   0.241   2.108
 2462SOL     OW 8284   2.341   5.282   6.911
 2462SOL    HW1 8285   2.392   5.285   6.825
 2462SOL    HW2 8286   2.323   5.187   6.935
 2463SOL     OW 8287   6.393   1.779   3.452
 2463SOL    HW1 8288   6.484   1.812   3.425
 2463SOL    HW2 8289   6.399   1.684   3.480
 2464SOL     OW 8290   1.011   3.456   1.179
 2464SOL    HW1 8291   0.921   3.434   1.141
 2464SOL    HW2 8292   1.009   3.446   1.278
 2465SOL     OW 8293   0.360   5.755   2.240
 2465SOL    HW1 8294   0.305   5.820   2.292
 2465SOL    HW2 8295   0.448   5.742   2.285
 2466SOL     OW 8296   3.963   2.067   2.786
 2466SOL    HW1 8297   3.989   1.971   2.775
 2466SOL    HW2 8298   3.920   2.080   2.875
 2467SOL     OW 8299   7.001   0.919   5.845
 2467SOL    HW1 8300   0.036   0.841   5.824
 2467SOL    HW2 8301   6.912   0.906   5.799
 2468SOL     OW 8302   6.838   6.230   1.499
 2468SOL    HW1 8303   6.876   6.261   1.586
 2468SOL    HW2 8304   6.793   6.141   1.513
 2469SOL     OW 8305   2.867   3.848   5.217
 2469SOL    HW1 8306   2.885   3.875   5.122
 2469SOL    HW2 8307   2.870   3.749   5.225
 2470SOL     OW 8308   3.909   3.511   6.672
 2470SOL    HW1 8309   3.815   3.492   6.644
 2470SOL    HW2 8310   3.952   3.426   6.704
 2471SOL     OW 8311   0.332   6.351   2.821
 2471SOL    HW1 8312   0.289   6.438   2.841
 2471SOL    HW2 8313   0.385   6.320   2.900
 2472SOL     OW 8314   5.510   2.577   4.352
 2472SOL    HW1 8315   5.610   2.577   4.346
 2472SOL    HW2 8316   5.475   2.665   4.319
 2473SOL     OW 8317   0.731   5.833   4.495
 2473SOL    HW1 8318   0.655   5.880   4.450
 2473SOL    HW2 8319   0.796   5.800   4.426
 2474SOL     OW 8320   6.639   4.818   5.328
 2474SOL    HW1 8321   6.579   4.818   5.248
 2474SOL    HW2 8322   6.698   4.737   5.325
 2475SOL     OW 8323   4.291   2.477   0.531
 2475SOL    HW1 8324   4.218   2.411   0.512
 2475SOL    HW2 8325   4.368   2.429   0.574
 2476SOL     OW 8326   0.797   1.851   3.486
 2476SOL    HW1 8327   0.781   1.866   3.583
 2476SOL    HW2 8328   0.834   1.758   3.472
 2477SOL     OW 8329   5.483   5.367   1.612
 2477SOL    HW1 8330   5.547   5.350   1.686
 2477SOL    HW2 8331   5.503   5.455   1.570
 2478SOL     OW 8332   5.932   6.567   2.490
 2478SOL    HW1 8333   5.833   6.564   2.500
 2478SOL    HW2 8334   5.970   6.641   2.545
 2479SOL     OW 8335   0.403   2.224   0.727
 2479SOL    HW1 8336   0.430   2.317   0.702
 2479SOL    HW2 8337   0.332   2.228   0.797
 2480SOL     OW 8338   0.041   3.596   1.399
 2480SOL    HW1 8339   0.084   3.508   1.422
 2480SOL    HW2 8340   0.069   3.623   1.307
 2481SOL     OW 8341   4.144   5.410   2.264
 2481SOL    HW1 8342   4.199   5.332   2.295
 2481SOL    HW2 8343   4.102   5.389   2.177
 2482SOL     OW 8344   5.317   2.895   4.921
 2482SOL    HW1 8345   5.231   2.936   4.893
 2482SOL    HW2 8346   5.306   2.850   5.010
 2483SOL     OW 8347   1.085   1.301   6.988
 2483SOL    HW1 8348   1.075   1.253   6.901
 2483SOL    HW2 8349   1.138   1.385   6.974
 2484SOL     OW 8350   3.349   1.323   0.531
 2484SOL    HW1 8351   3.447   1.329   0.550
 2484SOL    HW2 8352   3.307   1.414   0.544
 2485SOL     OW 8353   0.560   5.491   2.583
 2485SOL    HW1 8354   0.584   5.580   2.544
 2485SOL    HW2 8355   0.591   5.488   2.678
 2486SOL     OW 8356   1.592   5.660   2.789
 2486SOL    HW1 8357   1.619   5.675   2.884
 2486SOL    HW2 8358   1.578   5.748   2.744
 2487SOL     OW 8359   3.949   0.117   1.037
 2487SOL    HW1 8360   3.992   0.074   0.958
 2487SOL    HW2 8361   3.985   0.076   1.121
 2488SOL     OW 8362   2.493   5.206   1.487
 2488SOL    HW1 8363   2.477   5.227   1.390
 2488SOL    HW2 8364   2.578   5.153   1.496
 2489SOL     OW 8365   1.577   5.578   4.838
 2489SOL    HW1 8366   1.636   5.499   4.823
 2489SOL    HW2 8367   1.596   5.648   4.771
 2490SOL     OW 8368   6.043   3.918   0.954
 2490SOL    HW1 8369   6.069   3.892   1.047
 2490SOL    HW2 8370   6.043   3.837   0.895
 2491SOL     OW 8371   2.661   5.290   3.253
 2491SOL    HW1 8372   2.632   5.274   3.347
 2491SOL    HW2 8373   2.757   5.319   3.252
 2492SOL     OW 8374   4.935   3.486   6.466
 2492SOL    HW1 8375   4.915   3.493   6.564
 2492SOL    HW2 8376   5.033   3.496   6.452
 2493SOL     OW 8377   5.749   1.750   3.041
 2493SOL    HW1 8378   5.801   1.748   3.126
 2493SOL    HW2 8379   5.733   1.657   3.009
 2494SOL     OW 8380   4.809   2.948   2.627
 2494SOL    HW1 8381   4.753   2.944   2.710
 2494SOL    HW2 8382   4.750   2.947   2.546
 2495SOL     OW 8383   5.532   1.200   5.009
 2495SOL    HW1 8384   5.595   1.122   5.017
 2495SOL    HW2 8385   5.497   1.223   5.100
 2496SOL     OW 8386   0.995   5.979   6.872
 2496SOL    HW1 8387   1.031   6.046   6.808
 2496SOL    HW2 8388   0.896   5.986   6.875
 2497SOL     OW 8389   6.902   1.417   6.627
 2497SOL    HW1 8390   6.981   1.356   6.631
 2497SOL    HW2 8391   6.891   1.463   6.715
 2498SOL     OW 8392   1.930   3.087   4.692
 2498SOL    HW1 8393   2.019   3.074   4.736
 2498SOL    HW2 8394   1.910   3.008   4.633
 2499SOL     OW 8395   5.302   0.675   4.688
 2499SOL    HW1 8396   5.385   0.619   4.679
 2499SOL    HW2 8397   5.325   0.771   4.672
 2500SOL     OW 8398   4.762   2.883   6.371
 2500SOL    HW1 8399   4.833   2.820   6.403
 2500SOL    HW2 8400   4.717   2.924   6.450
 2501SOL     OW 8401   6.831   4.361   6.892
 2501SOL    HW1 8402   6.928   4.345   6.910
 2501SOL    HW2 8403   6.810   4.457   6.907
 2502SOL     OW 8404   2.781   0.099   2.891
 2502SOL    HW1 8405   2.795   0.127   2.986
 2502SOL    HW2 8406   2.760   0.179   2.835
 2503SOL     OW 8407   4.253   4.988   5.648
 2503SOL    HW1 8408   4.227   4.910   5.590
 2503SOL    HW2 8409   4.352   5.001   5.643
 2504SOL     OW 8410   1.448   4.788   4.360
 2504SOL    HW1 8411   1.485   4.708   4.314
 2504SOL    HW2 8412   1.505   4.812   4.438
 2505SOL     OW 8413   4.447   5.146   4.390
 2505SOL    HW1 8414   4.388   5.224   4.412
 2505SOL    HW2 8415   4.517   5.137   4.461
 2506SOL     OW 8416   6.727   2.651   6.264
 2506SOL    HW1 8417   6.689   2.586   6.330
 2506SOL    HW2 8418   6.815   2.618   6.232
 2507SOL     OW 8419   6.396   5.959   0.558
 2507SOL    HW1 8420   6.424   5.868   0.527
 2507SOL    HW2 8421   6.442   5.981   0.645
 2508SOL     OW 8422   2.552   2.064   2.161
 2508SOL    HW1 8423   2.519   1.970   2.153
 2508SOL    HW2 8424   2.652   2.064   2.167
 2509SOL     OW 8425   5.083   2.952   3.729
 2509SOL    HW1 8426   5.176   2.916   3.716
 2509SOL    HW2 8427   5.087   3.051   3.743
 2510SOL     OW 8428   3.936   5.614   0.810
 2510SOL    HW1 8429   4.014   5.610   0.748
 2510SOL    HW2 8430   3.924   5.526   0.856
 2511SOL     OW 8431   0.836   0.628   5.017
 2511SOL    HW1 8432   0.752   0.590   5.056
 2511SOL    HW2 8433   0.880   0.689   5.083
 2512SOL     OW 8434   5.178   3.697   4.812
 2512SOL    HW1 8435   5.191   3.675   4.715
 2512SOL    HW2 8436   5.255   3.752   4.845
 2513SOL     OW 8437   0.881   2.789   0.171
 2513SOL    HW1 8438   0.953   2.858   0.175
 2513SOL    HW2 8439   0.916   2.703   0.208
 2514SOL     OW 8440   1.526   0.730   3.674
 2514SOL    HW1 8441   1.530   0.806   3.609
 2514SOL    HW2 8442   1.608   0.730   3.731
 2515SOL     OW 8443   0.806   5.709   0.746
 2515SOL    HW1 8444   0.822   5.800   0.708
 2515SOL    HW2 8445   0.882   5.684   0.806
 2516SOL     OW 8446   5.524   6.505   3.602
 2516SOL    HW1 8447   5.453   6.446   3.640
 2516SOL    HW2 8448   5.612   6.480   3.642
 2517SOL     OW 8449   2.084   4.728   0.172
 2517SOL    HW1 8450   2.042   4.639   0.154
 2517SOL    HW2 8451   2.012   4.797   0.182
 2518SOL     OW 8452   2.752   2.703   6.629
 2518SOL    HW1 8453   2.722   2.632   6.565
 2518SOL    HW2 8454   2.707   2.790   6.607
 2519SOL     OW 8455   4.721   4.937   4.775
 2519SOL    HW1 8456   4.738   4.840   4.757
 2519SOL    HW2 8457   4.622   4.953   4.776
 2520SOL     OW 8458   2.337   4.109   1.775
 2520SOL    HW1 8459   2.419   4.068   1.734
 2520SOL    HW2 8460   2.294   4.171   1.709
 2521SOL     OW 8461   5.808   0.156   5.467
 2521SOL    HW1 8462   5.735   0.194   5.523
 2521SOL    HW2 8463   5.868   0.229   5.435
 2522SOL     OW 8464   0.614   3.465   4.435
 2522SOL    HW1 8465   0.641   3.388   4.494
 2522SOL    HW2 8466   0.694   3.497   4.384
 2523SOL     OW 8467   0.991   3.679   7.005
 2523SOL    HW1 8468   0.963   3.583   7.014
 2523SOL    HW2 8469   0.923   3.738   0.024
 2524SOL     OW 8470   1.722   6.559   4.019
 2524SOL    HW1 8471   1.686   6.468   3.998
 2524SOL    HW2 8472   1.797   6.551   4.084
 2525SOL     OW 8473   1.165   3.599   3.661
 2525SOL    HW1 8474   1.169   3.543   3.578
 2525SOL    HW2 8475   1.184   3.542   3.740
 2526SOL     OW 8476   6.770   1.648   4.432
 2526SOL    HW1 8477   6.744   1.706   4.355
 2526SOL    HW2 8478   6.740   1.554   4.415
 2527SOL     OW 8479   5.691   6.576   3.932
 2527SOL    HW1 8480   5.681   6.485   3.895
 2527SOL    HW2 8481   5.706   6.642   3.858
 2528SOL     OW 8482   6.560   5.799   0.108
 2528SOL    HW1 8483   6.624   5.791   0.031
 2528SOL    HW2 8484   6.575   5.724   0.171
 2529SOL     OW 8485   5.092   4.264   4.159
 2529SOL    HW1 8486   5.015   4.324   4.139
 2529SOL    HW2 8487   5.117   4.273   4.255
 2530SOL     OW 8488   1.063   0.796   3.794
 2530SOL    HW1 8489   0.976   0.838   3.768
 2530SOL    HW2 8490   1.116   0.774   3.712
 2531SOL     OW 8491   3.867   1.503   6.741
 2531SOL    HW1 8492   3.769   1.493   6.758
 2531SOL    HW2 8493   3.882   1.578   6.677
 2532SOL     OW 8494   1.006   4.817   6.863
 2532SOL    HW1 8495   0.984   4.748   6.794
 2532SOL    HW2 8496   0.932   4.823   6.930
 2533SOL     OW 8497   5.671   6.896   5.962
 2533SOL    HW1 8498   5.738   6.826   5.988
 2533SOL    HW2 8499   5.689   6.980   6.013
 2534SOL     OW 8500   1.107   1.221   3.393
 2534SOL    HW1 8501   1.193   1.219   3.342
 2534SOL    HW2 8502   1.096   1.136   3.444
 2535SOL     OW 8503   2.342   1.293   3.960
 2535SOL    HW1 8504   2.250   1.332   3.957
 2535SOL    HW2 8505   2.387   1.305   3.872
 2536SOL     OW 8506   5.836   0.920   3.638
 2536SOL    HW1 8507   5.816   0.834   3.686
 2536SOL    HW2 8508   5.751   0.970   3.623
 2537SOL     OW 8509   5.092   5.618   1.592
 2537SOL    HW1 8510   5.146   5.534   1.595
 2537SOL    HW2 8511   5.149   5.693   1.559
 2538SOL     OW 8512   2.191   4.606   4.277
 2538SOL    HW1 8513   2.276   4.554   4.265
 2538SOL    HW2 8514   2.142   4.610   4.190
 2539SOL     OW 8515   4.117   6.712   5.594
 2539SOL    HW1 8516   4.173   6.743   5.671
 2539SOL    HW2 8517   4.034   6.767   5.589
 2540SOL     OW 8518   5.610   1.469   2.084
 2540SOL    HW1 8519   5.625   1.484   2.182
 2540SOL    HW2 8520   5.515   1.488   2.061
 2541SOL     OW 8521   1.330   6.257   6.526
 2541SOL    HW1 8522   1.344   6.174   6.472
 2541SOL    HW2 8523   1.342   6.337   6.468
 2542SOL     OW 8524   3.212   2.173   4.567
 2542SOL    HW1 8525   3.307   2.167   4.535
 2542SOL    HW2 8526   3.210   2.170   4.667
 2543SOL     OW 8527   0.568   1.562   3.603
 2543SOL    HW1 8528   0.518   1.627   3.546
 2543SOL    HW2 8529   0.534   1.566   3.697
 2544SOL     OW 8530   6.464   4.995   1.485
 2544SOL    HW1 8531   6.485   4.897   1.486
 2544SOL    HW2 8532   6.528   5.044   1.544
 2545SOL     OW 8533   0.462   1.882   1.481
 2545SOL    HW1 8534   0.466   1.936   1.565
 2545SOL    HW2 8535   0.458   1.943   1.402
 2546SOL     OW 8536   6.998   3.872   1.924
 2546SOL    HW1 8537   6.923   3.938   1.924
 2546SOL    HW2 8538   0.060   3.920   1.941
 2547SOL     OW 8539   5.559   3.582   0.484
 2547SOL    HW1 8540   5.486   3.645   0.513
 2547SOL    HW2 8541   5.647   3.619   0.512
 2548SOL     OW 8542   6.977   0.167   5.010
 2548SOL    HW1 8543   0.041   0.149   4.968
 2548SOL    HW2 8544   6.980   0.254   5.059
 2549SOL     OW 8545   2.462   2.466   0.888
 2549SOL    HW1 8546   2.549   2.504   0.856
 2549SOL    HW2 8547   2.387   2.508   0.836
 2550SOL     OW 8548   4.235   6.996   6.239
 2550SOL    HW1 8549   4.264   6.954   6.153
 2550SOL    HW2 8550   4.287   0.056   6.254
 2551SOL     OW 8551   2.966   5.881   0.241
 2551SOL    HW1 8552   3.009   5.846   0.158
 2551SOL    HW2 8553   2.867   5.884   0.228
 2552SOL     OW 8554   1.984   6.055   0.762
 2552SOL    HW1 8555   1.918   6.002   0.710
 2552SOL    HW2 8556   2.012   6.004   0.843
 2553SOL     OW 8557   4.226   1.519   6.760
 2553SOL    HW1 8558   4.176   1.437   6.731
 2553SOL    HW2 8559   4.293   1.494   6.830
 2554SOL     OW 8560   1.592   5.795   1.426
 2554SOL    HW1 8561   1.584   5.856   1.505
 2554SOL    HW2 8562   1.552   5.839   1.346
 2555SOL     OW 8563   5.795   6.017   5.429
 2555SOL    HW1 8564   5.711   6.065   5.405
 2555SOL    HW2 8565   5.868   6.083   5.447
 2556SOL     OW 8566   4.274   6.644   1.566
 2556SOL    HW1 8567   4.218   6.701   1.625
 2556SOL    HW2 8568   4.313   6.569   1.620
 2557SOL     OW 8569   3.956   6.856   0.132
 2557SOL    HW1 8570   3.956   6.771   0.184
 2557SOL    HW2 8571   4.049   6.879   0.105
 2558SOL     OW 8572   5.882   4.034   6.299
 2558SOL    HW1 8573   5.794   3.998   6.266
 2558SOL    HW2 8574   5.883   4.134   6.289
 2559SOL     OW 8575   1.127   4.591   4.047
 2559SOL    HW1 8576   1.162   4.573   4.139
 2559SOL    HW2 8577   1.054   4.527   4.026
 2560SOL     OW 8578   5.042   1.962   3.330
 2560SOL    HW1 8579   5.118   1.958   3.266
 2560SOL    HW2 8580   5.071   2.012   3.412
 2561SOL     OW 8581   3.168   0.499   4.324
 2561SOL    HW1 8582   3.144   0.416   4.272
 2561SOL    HW2 8583   3.267   0.514   4.318
 2562SOL     OW 8584   3.457   0.132   3.594
 2562SOL    HW1 8585   3.396   0.057   3.619
 2562SOL    HW2 8586   3.413   0.190   3.525
 2563SOL     OW 8587   3.631   1.362   0.529
 2563SOL    HW1 8588   3.671   1.401   0.612
 2563SOL    HW2 8589   3.642   1.263   0.530
 2564SOL     OW 8590   1.525   1.395   0.515
 2564SOL    HW1 8591   1.580   1.333   0.570
 2564SOL    HW2 8592   1.578   1.477   0.492
 2565SOL     OW 8593   1.698   2.271   6.820
 2565SOL    HW1 8594   1.653   2.182   6.810
 2565SOL    HW2 8595   1.638   2.343   6.785
 2566SOL     OW 8596   2.667   0.499   1.307
 2566SOL    HW1 8597   2.741   0.533   1.248
 2566SOL    HW2 8598   2.642   0.406   1.279
 2567SOL     OW 8599   1.524   0.496   0.460
 2567SOL    HW1 8600   1.532   0.400   0.434
 2567SOL    HW2 8601   1.514   0.502   0.560
 2568SOL     OW 8602   2.783   6.268   1.484
 2568SOL    HW1 8603   2.782   6.178   1.527
 2568SOL    HW2 8604   2.833   6.332   1.542
 2569SOL     OW 8605   0.405   1.030   1.474
 2569SOL    HW1 8606   0.414   0.954   1.410
 2569SOL    HW2 8607   0.493   1.047   1.518
 2570SOL     OW 8608   5.440   6.322   6.468
 2570SOL    HW1 8609   5.525   6.371   6.447
 2570SOL    HW2 8610   5.428   6.248   6.402
 2571SOL     OW 8611   3.572   3.051   4.757
 2571SOL    HW1 8612   3.652   3.023   4.809
 2571SOL    HW2 8613   3.546   3.144   4.784
 2572SOL     OW 8614   2.078   6.258   1.745
 2572SOL    HW1 8615   2.002   6.241   1.682
 2572SOL    HW2 8616   2.095   6.356   1.750
 2573SOL     OW 8617   6.918   2.150   3.785
 2573SOL    HW1 8618   6.990   2.166   3.718
 2573SOL    HW2 8619   6.829   2.155   3.739
 2574SOL     OW 8620   0.541   4.021   1.517
 2574SOL    HW1 8621   0.614   4.008   1.449
 2574SOL    HW2 8622   0.520   4.118   1.526
 2575SOL     OW 8623   5.741   4.157   0.294
 2575SOL    HW1 8624   5.689   4.158   0.208
 2575SOL    HW2 8625   5.804   4.080   0.294
 2576SOL     OW 8626   2.205   6.923   3.081
 2576SOL    HW1 8627   2.207   6.956   2.987
 2576SOL    HW2 8628   2.299   6.910   3.114
 2577SOL     OW 8629   2.563   6.464   2.853
 2577SOL    HW1 8630   2.475   6.511   2.854
 2577SOL    HW2 8631   2.548   6.365   2.863
 2578SOL     OW 8632   5.194   2.882   4.560
 2578SOL    HW1 8633   5.289   2.855   4.573
 2578SOL    HW2 8634   5.155   2.833   4.483
 2579SOL     OW 8635   0.312   2.317   6.808
 2579SOL    HW1 8636   0.323   2.260   6.726
 2579SOL    HW2 8637   0.215   2.323   6.832
 2580SOL     OW 8638   1.797   2.704   6.785
 2580SOL    HW1 8639   1.826   2.618   6.826
 2580SOL    HW2 8640   1.833   2.781   6.838
 2581SOL     OW 8641   6.116   6.107   2.965
 2581SOL    HW1 8642   6.034   6.068   2.923
 2581SOL    HW2 8643   6.194   6.093   2.904
 2582SOL     OW 8644   0.842   5.331   2.358
 2582SOL    HW1 8645   0.875   5.317   2.265
 2582SOL    HW2 8646   0.829   5.428   2.375
 2583SOL     OW 8647   1.370   0.166   0.654
 2583SOL    HW1 8648   1.431   0.092   0.682
 2583SOL    HW2 8649   1.407   0.211   0.573
 2584SOL     OW 8650   3.701   6.152   1.047
 2584SOL    HW1 8651   3.761   6.078   1.076
 2584SOL    HW2 8652   3.669   6.203   1.127
 2585SOL     OW 8653   3.684   0.227   1.503
 2585SOL    HW1 8654   3.646   0.278   1.426
 2585SOL    HW2 8655   3.782   0.211   1.487
 2586SOL     OW 8656   6.153   2.094   3.774
 2586SOL    HW1 8657   6.097   2.043   3.838
 2586SOL    HW2 8658   6.211   2.031   3.722
 2587SOL     OW 8659   5.896   5.949   4.009
 2587SOL    HW1 8660   5.944   6.007   4.075
 2587SOL    HW2 8661   5.815   5.910   4.052
 2588SOL     OW 8662   5.370   0.451   1.719
 2588SOL    HW1 8663   5.442   0.478   1.782
 2588SOL    HW2 8664   5.394   0.365   1.675
 2589SOL     OW 8665   6.534   6.356   5.804
 2589SOL    HW1 8666   6.592   6.287   5.761
 2589SOL    HW2 8667   6.483   6.314   5.880
 2590SOL     OW 8668   5.097   6.713   2.906
 2590SOL    HW1 8669   5.039   6.643   2.948
 2590SOL    HW2 8670   5.117   6.784   2.974
 2591SOL     OW 8671   5.262   6.305   1.841
 2591SOL    HW1 8672   5.234   6.341   1.930
 2591SOL    HW2 8673   5.182   6.270   1.793
 2592SOL     OW 8674   3.492   5.517   2.073
 2592SOL    HW1 8675   3.419   5.476   2.126
 2592SOL    HW2 8676   3.578   5.469   2.090
 2593SOL     OW 8677   3.294   6.526   2.751
 2593SOL    HW1 8678   3.272   6.622   2.732
 2593SOL    HW2 8679   3.306   6.477   2.664
 2594SOL     OW 8680   0.390   6.942   6.558
 2594SOL    HW1 8681   0.344   6.992   6.484
 2594SOL    HW2 8682   0.343   6.855   6.573
 2595SOL     OW 8683   6.104   3.448   4.723
 2595SOL    HW1 8684   6.042   3.439   4.645
 2595SOL    HW2 8685   6.198   3.436   4.692
 2596SOL     OW 8686   3.956   2.208   1.956
 2596SOL    HW1 8687   4.004   2.257   2.030
 2596SOL    HW2 8688   3.862   2.240   1.951
 2597SOL     OW 8689   2.328   3.859   0.602
 2597SOL    HW1 8690   2.300   3.794   0.532
 2597SOL    HW2 8691   2.388   3.928   0.562
 2598SOL     OW 8692   6.578   3.038   3.432
 2598SOL    HW1 8693   6.666   2.990   3.428
 2598SOL    HW2 8694   6.582   3.119   3.373
 2599SOL     OW 8695   3.808   5.434   0.269
 2599SOL    HW1 8696   3.900   5.444   0.307
 2599SOL    HW2 8697   3.807   5.468   0.175
 2600SOL     OW 8698   5.897   3.386   3.156
 2600SOL    HW1 8699   5.804   3.417   3.135
 2600SOL    HW2 8700   5.892   3.300   3.207
 2601SOL     OW 8701   3.487   3.759   6.003
 2601SOL    HW1 8702   3.459   3.681   6.058
 2601SOL    HW2 8703   3.518   3.727   5.913
 2602SOL     OW 8704   6.631   5.430   4.064
 2602SOL    HW1 8705   6.685   5.438   4.148
 2602SOL    HW2 8706   6.617   5.333   4.043
 2603SOL     OW 8707   2.915   1.824   1.350
 2603SOL    HW1 8708   2.855   1.873   1.286
 2603SOL    HW2 8709   2.874   1.825   1.441
 2604SOL     OW 8710   5.517   0.724   1.371
 2604SOL    HW1 8711   5.434   0.694   1.323
 2604SOL    HW2 8712   5.517   0.823   1.379
 2605SOL     OW 8713   4.443   5.069   4.755
 2605SOL    HW1 8714   4.371   5.137   4.744
 2605SOL    HW2 8715   4.519   5.090   4.693
 2606SOL     OW 8716   6.447   4.431   0.284
 2606SOL    HW1 8717   6.392   4.369   0.228
 2606SOL    HW2 8718   6.463   4.516   0.233
 2607SOL     OW 8719   0.903   0.482   3.366
 2607SOL    HW1 8720   0.835   0.549   3.337
 2607SOL    HW2 8721   0.977   0.478   3.299
 2608SOL     OW 8722   4.981   0.571   1.230
 2608SOL    HW1 8723   5.029   0.618   1.156
 2608SOL    HW2 8724   5.012   0.606   1.318
 2609SOL     OW 8725   0.872   2.142   2.647
 2609SOL    HW1 8726   0.927   2.094   2.715
 2609SOL    HW2 8727   0.794   2.085   2.621
 2610SOL     OW 8728   5.955   5.555   4.991
 2610SOL    HW1 8729   6.044   5.525   4.955
 2610SOL    HW2 8730   5.905   5.476   5.025
 2611SOL     OW 8731   5.406   6.481   1.420
 2611SOL    HW1 8732   5.397   6.419   1.342
 2611SOL    HW2 8733   5.320   6.483   1.470
 2612SOL     OW 8734   5.506   6.622   3.344
 2612SOL    HW1 8735   5.560   6.561   3.286
 2612SOL    HW2 8736   5.491   6.579   3.433
 2613SOL     OW 8737   3.801   0.193   2.208
 2613SOL    HW1 8738   3.771   0.253   2.283
 2613SOL    HW2 8739   3.818   0.248   2.126
 2614SOL     OW 8740   6.352   6.592   6.280
 2614SOL    HW1 8741   6.381   6.559   6.191
 2614SOL    HW2 8742   6.253   6.576   6.291
 2615SOL     OW 8743   5.018   4.906   2.874
 2615SOL    HW1 8744   4.973   4.945   2.794
 2615SOL    HW2 8745   5.070   4.978   2.921
 2616SOL     OW 8746   3.979   3.062   2.915
 2616SOL    HW1 8747   4.050   3.014   2.965
 2616SOL    HW2 8748   3.927   3.120   2.977
 2617SOL     OW 8749   3.642   6.225   1.304
 2617SOL    HW1 8750   3.610   6.152   1.366
 2617SOL    HW2 8751   3.568   6.290   1.289
 2618SOL     OW 8752   6.988   0.591   0.829
 2618SOL    HW1 8753   6.970   0.521   0.760
 2618SOL    HW2 8754   7.024   0.549   0.912
 2619SOL     OW 8755   4.398   2.001   2.225
 2619SOL    HW1 8756   4.370   2.011   2.130
 2619SOL    HW2 8757   4.479   1.942   2.231
 2620SOL     OW 8758   0.957   5.288   3.610
 2620SOL    HW1 8759   1.045   5.241   3.610
 2620SOL    HW2 8760   0.890   5.234   3.661
 2621SOL     OW 8761   0.839   5.693   3.674
 2621SOL    HW1 8762   0.861   5.616   3.614
 2621SOL    HW2 8763   0.761   5.669   3.732
 2622SOL     OW 8764   2.754   2.621   6.894
 2622SOL    HW1 8765   2.801   2.707   6.912
 2622SOL    HW2 8766   2.728   2.618   6.797
 2623SOL     OW 8767   3.568   1.339   5.474
 2623SOL    HW1 8768   3.646   1.319   5.534
 2623SOL    HW2 8769   3.602   1.358   5.382
 2624SOL     OW 8770   5.872   2.650   3.279
 2624SOL    HW1 8771   5.905   2.556   3.269
 2624SOL    HW2 8772   5.779   2.649   3.315
 2625SOL     OW 8773   2.879   2.716   5.674
 2625SOL    HW1 8774   2.944   2.660   5.621
 2625SOL    HW2 8775   2.811   2.755   5.612
 2626SOL     OW 8776   1.991   6.455   3.277
 2626SOL    HW1 8777   2.052   6.442   3.198
 2626SOL    HW2 8778   1.986   6.552   3.299
 2627SOL     OW 8779   0.338   0.314   4.821
 2627SOL    HW1 8780   0.414   0.284   4.764
 2627SOL    HW2 8781   0.272   0.365   4.766
 2628SOL     OW 8782   3.856   6.336   0.067
 2628SOL    HW1 8783   3.774   6.357   0.012
 2628SOL    HW2 8784   3.886   6.243   0.047
 2629SOL     OW 8785   3.902   4.282   1.454
 2629SOL    HW1 8786   3.973   4.235   1.401
 2629SOL    HW2 8787   3.896   4.378   1.425
 2630SOL     OW 8788   3.641   1.549   2.338
 2630SOL    HW1 8789   3.712   1.505   2.283
 2630SOL    HW2 8790   3.636   1.646   2.313
 2631SOL     OW 8791   4.660   6.523   4.214
 2631SOL    HW1 8792   4.675   6.608   4.264
 2631SOL    HW2 8793   4.628   6.544   4.122
 2632SOL     OW 8794   3.398   1.557   6.906
 2632SOL    HW1 8795   3.461   1.559   6.829
 2632SOL    HW2 8796   3.321   1.619   6.889
 2633SOL     OW 8797   5.981   2.542   6.794
 2633SOL    HW1 8798   5.890   2.578   6.812
 2633SOL    HW2 8799   6.034   2.540   6.879
 2634SOL     OW 8800   1.786   3.980   1.425
 2634SOL    HW1 8801   1.695   3.975   1.468
 2634SOL    HW2 8802   1.856   3.959   1.493
 2635SOL     OW 8803   5.535   4.948   4.363
 2635SOL    HW1 8804   5.511   4.885   4.289
 2635SOL    HW2 8805   5.624   4.989   4.344
 2636SOL     OW 8806   5.175   0.335   5.823
 2636SOL    HW1 8807   5.190   0.424   5.781
 2636SOL    HW2 8808   5.251   0.314   5.884
 2637SOL     OW 8809   5.339   6.248   3.143
 2637SOL    HW1 8810   5.330   6.266   3.241
 2637SOL    HW2 8811   5.413   6.183   3.127
 2638SOL     OW 8812   5.513   6.168   0.991
 2638SOL    HW1 8813   5.490   6.123   1.078
 2638SOL    HW2 8814   5.536   6.264   1.009
 2639SOL     OW 8815   5.904   6.649   1.145
 2639SOL    HW1 8816   5.871   6.646   1.239
 2639SOL    HW2 8817   5.999   6.617   1.142
 2640SOL     OW 8818   6.918   6.157   5.384
 2640SOL    HW1 8819   6.863   6.240   5.369
 2640SOL    HW2 8820   6.999   6.159   5.326
 2641SOL     OW 8821   5.216   4.148   6.073
 2641SOL    HW1 8822   5.235   4.246   6.073
 2641SOL    HW2 8823   5.242   4.110   6.162
 2642SOL     OW 8824   4.984   0.384   4.079
 2642SOL    HW1 8825   4.917   0.387   4.153
 2642SOL    HW2 8826   5.012   0.478   4.056
 2643SOL     OW 8827   0.099   6.744   3.487
 2643SOL    HW1 8828   0.059   6.662   3.447
 2643SOL    HW2 8829   0.047   6.825   3.458
 2644SOL     OW 8830   0.599   5.107   5.662
 2644SOL    HW1 8831   0.627   5.024   5.613
 2644SOL    HW2 8832   0.581   5.084   5.758
 2645SOL     OW 8833   5.323   6.237   6.026
 2645SOL    HW1 8834   5.421   6.245   6.010
 2645SOL    HW2 8835   5.296   6.297   6.101
 2646SOL     OW 8836   0.076   0.078   6.307
 2646SOL    HW1 8837   7.014   0.061   6.259
 2646SOL    HW2 8838   0.150   0.085   6.241
 2647SOL     OW 8839   4.277   1.682   1.217
 2647SOL    HW1 8840   4.232   1.767   1.244
 2647SOL    HW2 8841   4.214   1.627   1.162
 2648SOL     OW 8842   5.971   0.131   2.222
 2648SOL    HW1 8843   6.039   0.062   2.245
 2648SOL    HW2 8844   5.961   0.136   2.122
 2649SOL     OW 8845   3.302   1.474   6.239
 2649SOL    HW1 8846   3.274   1.536   6.166
 2649SOL    HW2 8847   3.265   1.506   6.327
 2650SOL     OW 8848   0.460   5.379   3.363
 2650SOL    HW1 8849   0.363   5.360   3.349
 2650SOL    HW2 8850   0.508   5.295   3.388
 2651SOL     OW 8851   0.139   1.269   1.868
 2651SOL    HW1 8852   0.170   1.174   1.874
 2651SOL    HW2 8853   0.040   1.272   1.881
 2652SOL     OW 8854   3.024   3.254   3.121
 2652SOL    HW1 8855   2.995   3.225   3.030
 2652SOL    HW2 8856   3.092   3.326   3.113
 2653SOL     OW 8857   5.716   0.096   6.073
 2653SOL    HW1 8858   5.677   0.185   6.048
 2653SOL    HW2 8859   5.815   0.106   6.087
 2654SOL     OW 8860   4.955   1.984   6.304
 2654SOL    HW1 8861   4.892   1.966   6.380
 2654SOL    HW2 8862   4.905   1.975   6.218
 2655SOL     OW 8863   4.388   6.100   4.764
 2655SOL    HW1 8864   4.471   6.132   4.810
 2655SOL    HW2 8865   4.308   6.145   4.806
 2656SOL     OW 8866   5.387   3.994   3.379
 2656SOL    HW1 8867   5.289   4.013   3.380
 2656SOL    HW2 8868   5.411   3.944   3.296
 2657SOL     OW 8869   1.859   4.575   6.800
 2657SOL    HW1 8870   1.763   4.551   6.787
 2657SOL    HW2 8871   1.907   4.497   6.841
 2658SOL     OW 8872   5.987   4.058   5.943
 2658SOL    HW1 8873   5.891   4.047   5.917
 2658SOL    HW2 8874   5.992   4.108   6.029
 2659SOL     OW 8875   0.001   2.474   4.741
 2659SOL    HW1 8876   7.010   2.502   4.836
 2659SOL    HW2 8877   6.955   2.408   4.714
 2660SOL     OW 8878   6.405   2.068   2.451
 2660SOL    HW1 8879   6.406   1.968   2.457
 2660SOL    HW2 8880   6.374   2.096   2.360
 2661SOL     OW 8881   3.735   5.773   1.351
 2661SOL    HW1 8882   3.717   5.799   1.257
 2661SOL    HW2 8883   3.763   5.853   1.404
 2662SOL     OW 8884   4.317   6.427   5.004
 2662SOL    HW1 8885   4.309   6.421   5.104
 2662SOL    HW2 8886   4.262   6.355   4.962
 2663SOL     OW 8887   2.173   4.979   2.259
 2663SOL    HW1 8888   2.250   5.040   2.240
 2663SOL    HW2 8889   2.177   4.900   2.198
 2664SOL     OW 8890   4.082   3.594   2.938
 2664SOL    HW1 8891   4.086   3.656   3.017
 2664SOL    HW2 8892   4.115   3.504   2.966
 2665SOL     OW 8893   3.696   1.410   5.218
 2665SOL    HW1 8894   3.725   1.348   5.145
 2665SOL    HW2 8895   3.662   1.495   5.177
 2666SOL     OW 8896   4.982   4.323   1.078
 2666SOL    HW1 8897   4.985   4.234   1.123
 2666SOL    HW2 8898   5.070   4.342   1.035
 2667SOL     OW 8899   1.867   6.000   5.019
 2667SOL    HW1 8900   1.872   6.081   5.077
 2667SOL    HW2 8901   1.953   5.949   5.024
 2668SOL     OW 8902   6.709   3.274   5.139
 2668SOL    HW1 8903   6.694   3.371   5.160
 2668SOL    HW2 8904   6.622   3.232   5.111
 2669SOL     OW 8905   4.602   5.583   5.647
 2669SOL    HW1 8906   4.520   5.525   5.653
 2669SOL    HW2 8907   4.660   5.552   5.572
 2670SOL     OW 8908   0.892   0.984   0.067
 2670SOL    HW1 8909   0.828   1.012   7.019
 2670SOL    HW2 8910   0.925   1.064   0.116
 2671SOL     OW 8911   2.464   4.054   6.521
 2671SOL    HW1 8912   2.367   4.054   6.499
 2671SOL    HW2 8913   2.518   4.052   6.437
 2672SOL     OW 8914   2.024   5.234   0.349
 2672SOL    HW1 8915   2.031   5.282   0.261
 2672SOL    HW2 8916   2.086   5.277   0.415
 2673SOL     OW 8917   4.103   2.017   3.210
 2673SOL    HW1 8918   4.172   1.954   3.174
 2673SOL    HW2 8919   4.083   1.993   3.305
 2674SOL     OW 8920   0.294   5.297   4.454
 2674SOL    HW1 8921   0.213   5.238   4.460
 2674SOL    HW2 8922   0.280   5.379   4.509
 2675SOL     OW 8923   0.347   4.470   5.492
 2675SOL    HW1 8924   0.253   4.442   5.512
 2675SOL    HW2 8925   0.401   4.389   5.466
 2676SOL     OW 8926   4.662   1.636   1.851
 2676SOL    HW1 8927   4.608   1.574   1.794
 2676SOL    HW2 8928   4.715   1.583   1.917
 2677SOL     OW 8929   1.900   4.583   1.296
 2677SOL    HW1 8930   1.808   4.563   1.262
 2677SOL    HW2 8931   1.915   4.534   1.381
 2678SOL     OW 8932   1.172   5.020   6.191
 2678SOL    HW1 8933   1.222   5.101   6.222
 2678SOL    HW2 8934   1.175   4.950   6.262
 2679SOL     OW 8935   3.443   5.176   1.040
 2679SOL    HW1 8936   3.393   5.229   1.107
 2679SOL    HW2 8937   3.519   5.230   1.004
 2680SOL     OW 8938   2.234   1.837   1.052
 2680SOL    HW1 8939   2.169   1.761   1.054
 2680SOL    HW2 8940   2.200   1.910   0.993
 2681SOL     OW 8941   0.893   3.466   4.391
 2681SOL    HW1 8942   0.940   3.417   4.464
 2681SOL    HW2 8943   0.858   3.553   4.426
 2682SOL     OW 8944   5.244   3.172   2.181
 2682SOL    HW1 8945   5.330   3.219   2.201
 2682SOL    HW2 8946   5.252   3.076   2.205
 2683SOL     OW 8947   0.850   5.513   0.949
 2683SOL    HW1 8948   0.858   5.432   1.006
 2683SOL    HW2 8949   0.895   5.590   0.994
 2684SOL     OW 8950   3.394   6.800   2.977
 2684SOL    HW1 8951   3.344   6.773   2.894
 2684SOL    HW2 8952   3.358   6.748   3.055
 2685SOL     OW 8953   5.124   5.912   4.945
 2685SOL    HW1 8954   5.145   5.819   4.916
 2685SOL    HW2 8955   5.038   5.942   4.904
 2686SOL     OW 8956   2.279   2.856   4.348
 2686SOL    HW1 8957   2.323   2.903   4.425
 2686SOL    HW2 8958   2.342   2.790   4.309
 2687SOL     OW 8959   3.880   5.132   2.259
 2687SOL    HW1 8960   3.868   5.181   2.346
 2687SOL    HW2 8961   3.829   5.047   2.262
 2688SOL     OW 8962   4.831   4.870   6.513
 2688SOL    HW1 8963   4.909   4.930   6.493
 2688SOL    HW2 8964   4.780   4.907   6.591
 2689SOL     OW 8965   1.099   2.465   3.336
 2689SOL    HW1 8966   1.027   2.525   3.301
 2689SOL    HW2 8967   1.097   2.466   3.436
 2690SOL     OW 8968   3.635   2.921   3.634
 2690SOL    HW1 8969   3.659   2.909   3.731
 2690SOL    HW2 8970   3.646   3.017   3.609
 2691SOL     OW 8971   1.713   5.196   2.371
 2691SOL    HW1 8972   1.793   5.139   2.351
 2691SOL    HW2 8973   1.634   5.138   2.389
 2692SOL     OW 8974   0.214   5.690   3.857
 2692SOL    HW1 8975   0.286   5.707   3.790
 2692SOL    HW2 8976   0.204   5.769   3.916
 2693SOL     OW 8977   1.674   3.461   3.662
 2693SOL    HW1 8978   1.749   3.451   3.596
 2693SOL    HW2 8979   1.602   3.517   3.622
 2694SOL     OW 8980   3.070   6.951   3.474
 2694SOL    HW1 8981   2.984   6.950   3.525
 2694SOL    HW2 8982   3.051   6.948   3.376
 2695SOL     OW 8983   5.109   2.077   2.598
 2695SOL    HW1 8984   5.070   2.059   2.688
 2695SOL    HW2 8985   5.189   2.137   2.608
 2696SOL     OW 8986   3.712   3.692   5.579
 2696SOL    HW1 8987   3.797   3.651   5.613
 2696SOL    HW2 8988   3.702   3.671   5.482
 2697SOL     OW 8989   3.832   2.135   3.673
 2697SOL    HW1 8990   3.898   2.068   3.640
 2697SOL    HW2 8991   3.743   2.090   3.686
 2698SOL     OW 8992   0.829   3.945   0.543
 2698SOL    HW1 8993   0.898   4.016   0.528
 2698SOL    HW2 8994   0.739   3.981   0.519
 2699SOL     OW 8995   3.612   5.535   1.475
 2699SOL    HW1 8996   3.702   5.528   1.517
 2699SOL    HW2 8997   3.605   5.619   1.422
 2700SOL     OW 8998   1.908   3.509   2.876
 2700SOL    HW1 8999   1.824   3.558   2.853
 2700SOL    HW2 9000   1.987   3.568   2.860
 2701SOL     OW 9001   3.277   0.223   6.371
 2701SOL    HW1 9002   3.239   0.305   6.415
 2701SOL    HW2 9003   3.344   0.181   6.432
 2702SOL     OW 9004   0.053   1.551   3.046
 2702SOL    HW1 9005   7.022   1.470   3.029
 2702SOL    HW2 9006   0.137   1.546   2.993
 2703SOL     OW 9007   2.574   1.675   2.590
 2703SOL    HW1 9008   2.672   1.658   2.582
 2703SOL    HW2 9009   2.555   1.729   2.672
 2704SOL     OW 9010   2.769   5.226   1.795
 2704SOL    HW1 9011   2.790   5.263   1.886
 2704SOL    HW2 9012   2.781   5.297   1.727
 2705SOL     OW 9013   6.161   5.891   3.876
 2705SOL    HW1 9014   6.069   5.902   3.915
 2705SOL    HW2 9015   6.171   5.952   3.797
 2706SOL     OW 9016   6.696   1.345   2.295
 2706SOL    HW1 9017   6.733   1.257   2.323
 2706SOL    HW2 9018   6.746   1.418   2.342
 2707SOL     OW 9019   1.597   2.039   6.727
 2707SOL    HW1 9020   1.590   1.968   6.657
 2707SOL    HW2 9021   1.537   2.015   6.804
 2708SOL     OW 9022   2.139   2.615   2.268
 2708SOL    HW1 9023   2.118   2.605   2.170
 2708SOL    HW2 9024   2.222   2.564   2.290
 2709SOL     OW 9025   5.265   6.110   1.220
 2709SOL    HW1 9026   5.352   6.074   1.252
 2709SOL    HW2 9027   5.237   6.062   1.137
 2710SOL     OW 9028   6.941   3.852   2.399
 2710SOL    HW1 9029   6.981   3.764   2.375
 2710SOL    HW2 9030   6.856   3.837   2.450
 2711SOL     OW 9031   1.080   0.612   1.679
 2711SOL    HW1 9032   1.017   0.627   1.755
 2711SOL    HW2 9033   1.058   0.526   1.634
 2712SOL     OW 9034   2.243   4.522   0.384
 2712SOL    HW1 9035   2.242   4.541   0.482
 2712SOL    HW2 9036   2.180   4.584   0.337
 2713SOL     OW 9037   2.210   3.252   5.134
 2713SOL    HW1 9038   2.275   3.206   5.194
 2713SOL    HW2 9039   2.232   3.350   5.131
 2714SOL     OW 9040   5.085   0.833   6.047
 2714SOL    HW1 9041   4.987   0.813   6.058
 2714SOL    HW2 9042   5.108   0.831   5.949
 2715SOL     OW 9043   5.283   1.846   0.249
 2715SOL    HW1 9044   5.345   1.862   0.173
 2715SOL    HW2 9045   5.212   1.781   0.221
 2716SOL     OW 9046   6.932   5.585   2.371
 2716SOL    HW1 9047   6.902   5.568   2.465
 2716SOL    HW2 9048   6.975   5.675   2.366
 2717SOL     OW 9049   0.985   6.642   2.577
 2717SOL    HW1 9050   0.988   6.712   2.505
 2717SOL    HW2 9051   0.900   6.591   2.570
 2718SOL     OW 9052   1.811   3.902   4.162
 2718SOL    HW1 9053   1.841   3.807   4.165
 2718SOL    HW2 9054   1.796   3.936   4.256
 2719SOL     OW 9055   4.321   5.145   2.602
 2719SOL    HW1 9056   4.268   5.064   2.578
 2719SOL    HW2 9057   4.393   5.159   2.534
 2720SOL     OW 9058   1.868   6.216   4.257
 2720SOL    HW1 9059   1.928   6.148   4.215
 2720SOL    HW2 9060   1.912   6.255   4.337
 2721SOL     OW 9061   2.904   0.040   4.670
 2721SOL    HW1 9062   2.875   0.134   4.651
 2721SOL    HW2 9063   2.986   0.042   4.727
 2722SOL     OW 9064   0.250   5.569   3.466
 2722SOL    HW1 9065   0.237   5.596   3.371
 2722SOL    HW2 9066   0.329   5.617   3.505
 2723SOL     OW 9067   1.698   0.982   5.784
 2723SOL    HW1 9068   1.748   0.920   5.724
 2723SOL    HW2 9069   1.640   1.042   5.729
 2724SOL     OW 9070   3.677   5.542   6.782
 2724SOL    HW1 9071   3.614   5.608   6.822
 2724SOL    HW2 9072   3.639   5.450   6.791
 2725SOL     OW 9073   4.362   4.674   3.018
 2725SOL    HW1 9074   4.447   4.636   2.981
 2725SOL    HW2 9075   4.284   4.632   2.973
 2726SOL     OW 9076   4.761   4.607   1.714
 2726SOL    HW1 9077   4.717   4.566   1.794
 2726SOL    HW2 9078   4.802   4.535   1.658
 2727SOL     OW 9079   0.803   4.673   2.595
 2727SOL    HW1 9080   0.743   4.599   2.625
 2727SOL    HW2 9081   0.762   4.761   2.618
 2728SOL     OW 9082   2.666   6.707   5.475
 2728SOL    HW1 9083   2.642   6.789   5.527
 2728SOL    HW2 9084   2.728   6.731   5.401
 2729SOL     OW 9085   6.450   4.869   3.185
 2729SOL    HW1 9086   6.375   4.879   3.119
 2729SOL    HW2 9087   6.501   4.785   3.165
 2730SOL     OW 9088   2.350   0.024   0.395
 2730SOL    HW1 9089   2.257   0.004   0.366
 2730SOL    HW2 9090   2.403   6.964   0.398
 2731SOL     OW 9091   2.943   3.777   1.792
 2731SOL    HW1 9092   2.968   3.841   1.865
 2731SOL    HW2 9093   2.981   3.687   1.813
 2732SOL     OW 9094   5.873   2.548   2.050
 2732SOL    HW1 9095   5.774   2.535   2.052
 2732SOL    HW2 9096   5.902   2.592   2.135
 2733SOL     OW 9097   1.114   6.870   5.413
 2733SOL    HW1 9098   1.079   6.868   5.507
 2733SOL    HW2 9099   1.040   6.892   5.350
 2734SOL     OW 9100   1.944   6.337   3.703
 2734SOL    HW1 9101   1.948   6.426   3.657
 2734SOL    HW2 9102   1.979   6.347   3.796
 2735SOL     OW 9103   1.437   4.495   2.534
 2735SOL    HW1 9104   1.476   4.571   2.482
 2735SOL    HW2 9105   1.468   4.500   2.629
 2736SOL     OW 9106   3.963   0.331   5.217
 2736SOL    HW1 9107   4.035   0.391   5.252
 2736SOL    HW2 9108   3.978   0.314   5.120
 2737SOL     OW 9109   3.860   3.759   5.985
 2737SOL    HW1 9110   3.954   3.733   6.007
 2737SOL    HW2 9111   3.798   3.684   6.010
 2738SOL     OW 9112   5.621   5.202   4.976
 2738SOL    HW1 9113   5.627   5.274   4.907
 2738SOL    HW2 9114   5.556   5.230   5.047
 2739SOL     OW 9115   5.499   3.720   0.829
 2739SOL    HW1 9116   5.539   3.812   0.831
 2739SOL    HW2 9117   5.456   3.704   0.740
 2740SOL     OW 9118   6.034   2.304   2.658
 2740SOL    HW1 9119   5.994   2.343   2.574
 2740SOL    HW2 9120   6.060   2.209   2.641
 2741SOL     OW 9121   0.115   1.903   5.613
 2741SOL    HW1 9122   0.110   1.805   5.597
 2741SOL    HW2 9123   0.064   1.926   5.697
 2742SOL     OW 9124   1.646   5.636   6.553
 2742SOL    HW1 9125   1.604   5.584   6.627
 2742SOL    HW2 9126   1.601   5.615   6.466
 2743SOL     OW 9127   5.557   4.884   1.390
 2743SOL    HW1 9128   5.553   4.798   1.441
 2743SOL    HW2 9129   5.623   4.876   1.315
 2744SOL     OW 9130   3.808   2.239   6.486
 2744SOL    HW1 9131   3.829   2.234   6.583
 2744SOL    HW2 9132   3.852   2.164   6.437
 2745SOL     OW 9133   2.176   6.189   0.960
 2745SOL    HW1 9134   2.110   6.187   0.884
 2745SOL    HW2 9135   2.130   6.161   1.044
 2746SOL     OW 9136   1.898   1.952   5.384
 2746SOL    HW1 9137   1.810   1.964   5.432
 2746SOL    HW2 9138   1.973   1.963   5.449
 2747SOL     OW 9139   5.443   6.341   4.321
 2747SOL    HW1 9140   5.513   6.292   4.373
 2747SOL    HW2 9141   5.365   6.280   4.304
 2748SOL     OW 9142   4.316   1.484   3.069
 2748SOL    HW1 9143   4.388   1.477   2.999
 2748SOL    HW2 9144   4.289   1.393   3.099
 2749SOL     OW 9145   4.442   4.509   4.229
 2749SOL    HW1 9146   4.412   4.525   4.323
 2749SOL    HW2 9147   4.380   4.557   4.166
 2750SOL     OW 9148   0.617   5.707   2.389
 2750SOL    HW1 9149   0.663   5.775   2.447
 2750SOL    HW2 9150   0.674   5.686   2.310
 2751SOL     OW 9151   2.059   6.974   6.530
 2751SOL    HW1 9152   2.123   0.013   6.574
 2751SOL    HW2 9153   1.969   7.017   6.525
 2752SOL     OW 9154   6.058   6.136   5.397
 2752SOL    HW1 9155   6.136   6.081   5.425
 2752SOL    HW2 9156   6.079   6.233   5.411
 2753SOL     OW 9157   3.894   5.973   6.558
 2753SOL    HW1 9158   3.899   5.877   6.584
 2753SOL    HW2 9159   3.857   6.026   6.634
 2754SOL     OW 9160   0.738   0.282   4.343
 2754SOL    HW1 9161   0.769   0.364   4.392
 2754SOL    HW2 9162   0.650   0.252   4.381
 2755SOL     OW 9163   3.169   6.177   2.256
 2755SOL    HW1 9164   3.254   6.125   2.258
 2755SOL    HW2 9165   3.093   6.117   2.282
 2756SOL     OW 9166   6.294   3.141   5.680
 2756SOL    HW1 9167   6.337   3.175   5.764
 2756SOL    HW2 9168   6.299   3.042   5.678
 2757SOL     OW 9169   4.334   2.328   0.156
 2757SOL    HW1 9170   4.267   2.401   0.142
 2757SOL    HW2 9171   4.418   2.367   0.192
 2758SOL     OW 9172   5.243   4.781   2.723
 2758SOL    HW1 9173   5.179   4.782   2.800
 2758SOL    HW2 9174   5.337   4.775   2.758
 2759SOL     OW 9175   3.296   4.567   6.359
 2759SOL    HW1 9176   3.333   4.660   6.366
 2759SOL    HW2 9177   3.211   4.570   6.306
 2760SOL     OW 9178   5.037   5.553   3.732
 2760SOL    HW1 9179   5.003   5.490   3.663
 2760SOL    HW2 9180   5.083   5.630   3.688
 2761SOL     OW 9181   2.151   3.679   2.837
 2761SOL    HW1 9182   2.219   3.630   2.891
 2761SOL    HW2 9183   2.134   3.769   2.876
 2762SOL     OW 9184   1.828   1.886   0.361
 2762SOL    HW1 9185   1.872   1.909   0.448
 2762SOL    HW2 9186   1.818   1.787   0.354
 2763SOL     OW 9187   4.451   1.583   5.556
 2763SOL    HW1 9188   4.370   1.534   5.525
 2763SOL    HW2 9189   4.531   1.523   5.550
 2764SOL     OW 9190   0.878   3.869   2.012
 2764SOL    HW1 9191   0.850   3.904   1.923
 2764SOL    HW2 9192   0.978   3.861   2.015
 2765SOL     OW 9193   6.054   6.677   0.042
 2765SOL    HW1 9194   6.100   6.760   0.009
 2765SOL    HW2 9195   6.013   6.695   0.131
 2766SOL     OW 9196   5.780   0.886   0.060
 2766SOL    HW1 9197   5.828   0.903   6.999
 2766SOL    HW2 9198   5.838   0.831   0.121
 2767SOL     OW 9199   6.815   4.830   6.252
 2767SOL    HW1 9200   6.734   4.784   6.217
 2767SOL    HW2 9201   6.866   4.871   6.176
 2768SOL     OW 9202   4.800   0.088   0.999
 2768SOL    HW1 9203   4.780   0.170   1.052
 2768SOL    HW2 9204   4.896   0.089   0.971
 2769SOL     OW 9205   1.935   4.576   5.710
 2769SOL    HW1 9206   1.923   4.515   5.631
 2769SOL    HW2 9207   1.891   4.664   5.692
 2770SOL     OW 9208   2.486   6.793   0.137
 2770SOL    HW1 9209   2.567   6.851   0.136
 2770SOL    HW2 9210   2.509   6.703   0.173
 2771SOL     OW 9211   4.514   0.256   4.640
 2771SOL    HW1 9212   4.461   0.274   4.723
 2771SOL    HW2 9213   4.491   0.323   4.570
 2772SOL     OW 9214   4.022   0.961   2.871
 2772SOL    HW1 9215   4.116   0.949   2.838
 2772SOL    HW2 9216   3.959   0.959   2.794
 2773SOL     OW 9217   5.903   2.820   4.054
 2773SOL    HW1 9218   5.947   2.910   4.064
 2773SOL    HW2 9219   5.973   2.751   4.034
 2774SOL     OW 9220   5.168   1.590   3.522
 2774SOL    HW1 9221   5.089   1.623   3.573
 2774SOL    HW2 9222   5.230   1.540   3.583
 2775SOL     OW 9223   0.758   4.550   4.572
 2775SOL    HW1 9224   0.798   4.626   4.520
 2775SOL    HW2 9225   0.738   4.580   4.665
 2776SOL     OW 9226   5.021   4.550   5.958
 2776SOL    HW1 9227   4.934   4.503   5.970
 2776SOL    HW2 9228   5.037   4.611   6.036
 2777SOL     OW 9229   3.056   2.431   6.296
 2777SOL    HW1 9230   2.975   2.481   6.265
 2777SOL    HW2 9231   3.116   2.412   6.218
 2778SOL     OW 9232   2.648   6.342   6.530
 2778SOL    HW1 9233   2.629   6.398   6.610
 2778SOL    HW2 9234   2.636   6.245   6.553
 2779SOL     OW 9235   5.886   6.440   2.178
 2779SOL    HW1 9236   5.945   6.366   2.143
 2779SOL    HW2 9237   5.851   6.415   2.268
 2780SOL     OW 9238   0.278   1.801   5.988
 2780SOL    HW1 9239   0.300   1.897   6.003
 2780SOL    HW2 9240   0.325   1.769   5.906
 2781SOL     OW 9241   6.356   0.228   2.474
 2781SOL    HW1 9242   6.278   0.264   2.423
 2781SOL    HW2 9243   6.334   0.227   2.572
 2782SOL     OW 9244   4.193   1.047   6.844
 2782SOL    HW1 9245   4.120   1.031   6.778
 2782SOL    HW2 9246   4.249   0.964   6.852
 2783SOL     OW 9247   5.537   3.542   1.785
 2783SOL    HW1 9248   5.591   3.584   1.712
 2783SOL    HW2 9249   5.451   3.508   1.747
 2784SOL     OW 9250   1.334   1.759   0.678
 2784SOL    HW1 9251   1.276   1.797   0.605
 2784SOL    HW2 9252   1.387   1.832   0.720
 2785SOL     OW 9253   5.387   2.924   1.511
 2785SOL    HW1 9254   5.362   2.830   1.485
 2785SOL    HW2 9255   5.457   2.921   1.582
 2786SOL     OW 9256   6.787   6.073   0.361
 2786SOL    HW1 9257   6.767   6.151   0.421
 2786SOL    HW2 9258   6.702   6.041   0.320
 2787SOL     OW 9259   6.217   4.841   6.110
 2787SOL    HW1 9260   6.281   4.909   6.146
 2787SOL    HW2 9261   6.143   4.888   6.061
 2788SOL     OW 9262   3.483   6.060   5.664
 2788SOL    HW1 9263   3.423   6.066   5.584
 2788SOL    HW2 9264   3.459   5.979   5.718
 2789SOL     OW 9265   0.920   2.473   4.988
 2789SOL    HW1 9266   0.864   2.427   4.919
 2789SOL    HW2 9267   1.005   2.504   4.946
 2790SOL     OW 9268   2.033   5.845   0.949
 2790SOL    HW1 9269   1.961   5.787   0.912
 2790SOL    HW2 9270   2.095   5.790   1.004
 2791SOL     OW 9271   6.987   3.869   3.383
 2791SOL    HW1 9272   6.903   3.843   3.335
 2791SOL    HW2 9273   0.042   3.834   3.332
 2792SOL     OW 9274   3.154   1.567   5.272
 2792SOL    HW1 9275   3.231   1.587   5.211
 2792SOL    HW2 9276   3.122   1.652   5.314
 2793SOL     OW 9277   3.536   4.273   1.420
 2793SOL    HW1 9278   3.630   4.271   1.455
 2793SOL    HW2 9279   3.497   4.364   1.436
 2794SOL     OW 9280   0.308   2.069   6.035
 2794SOL    HW1 9281   0.305   2.075   6.135
 2794SOL    HW2 9282   0.215   2.072   5.998
 2795SOL     OW 9283   1.300   5.037   1.656
 2795SOL    HW1 9284   1.339   5.126   1.679
 2795SOL    HW2 9285   1.374   4.971   1.641
 2796SOL     OW 9286   1.297   6.175   5.349
 2796SOL    HW1 9287   1.310   6.196   5.446
 2796SOL    HW2 9288   1.365   6.108   5.320
 2797SOL     OW 9289   5.466   0.006   3.710
 2797SOL    HW1 9290   5.448   0.011   3.809
 2797SOL    HW2 9291   5.472   6.934   3.683
 2798SOL     OW 9292   5.947   6.922   1.764
 2798SOL    HW1 9293   5.889   6.878   1.695
 2798SOL    HW2 9294   5.936   6.875   1.851
 2799SOL     OW 9295   3.860   6.018   4.953
 2799SOL    HW1 9296   3.761   6.025   4.938
 2799SOL    HW2 9297   3.879   5.943   5.017
 2800SOL     OW 9298   6.596   0.917   6.922
 2800SOL    HW1 9299   6.496   0.912   6.926
 2800SOL    HW2 9300   6.635   0.831   6.954
 2801SOL     OW 9301   0.664   5.041   5.250
 2801SOL    HW1 9302   0.592   4.990   5.298
 2801SOL    HW2 9303   0.625   5.124   5.211
 2802SOL     OW 9304   6.789   5.568   5.573
 2802SOL    HW1 9305   6.759   5.648   5.625
 2802SOL    HW2 9306   6.802   5.491   5.636
 2803SOL     OW 9307   3.981   3.197   6.745
 2803SOL    HW1 9308   4.052   3.223   6.680
 2803SOL    HW2 9309   4.023   3.174   6.833
 2804SOL     OW 9310   0.095   2.707   3.544
 2804SOL    HW1 9311   0.051   2.671   3.462
 2804SOL    HW2 9312   0.185   2.666   3.555
 2805SOL     OW 9313   4.170   3.280   1.271
 2805SOL    HW1 9314   4.136   3.195   1.232
 2805SOL    HW2 9315   4.270   3.280   1.269
 2806SOL     OW 9316   0.467   5.102   5.917
 2806SOL    HW1 9317   0.468   5.201   5.928
 2806SOL    HW2 9318   0.496   5.058   6.002
 2807SOL     OW 9319   3.120   0.326   3.496
 2807SOL    HW1 9320   3.207   0.298   3.454
 2807SOL    HW2 9321   3.134   0.412   3.546
 2808SOL     OW 9322   6.612   4.932   6.887
 2808SOL    HW1 9323   6.630   5.029   6.901
 2808SOL    HW2 9324   6.635   4.907   6.793
 2809SOL     OW 9325   6.750   4.887   2.315
 2809SOL    HW1 9326   6.809   4.816   2.352
 2809SOL    HW2 9327   6.690   4.921   2.387
 2810SOL     OW 9328   2.371   5.272   3.428
 2810SOL    HW1 9329   2.302   5.200   3.421
 2810SOL    HW2 9330   2.394   5.305   3.337
 2811SOL     OW 9331   1.006   0.634   1.982
 2811SOL    HW1 9332   1.011   0.592   2.072
 2811SOL    HW2 9333   0.932   0.702   1.981
 2812SOL     OW 9334   0.648   3.113   1.068
 2812SOL    HW1 9335   0.581   3.075   1.004
 2812SOL    HW2 9336   0.734   3.063   1.061
 2813SOL     OW 9337   0.872   2.356   1.690
 2813SOL    HW1 9338   0.956   2.409   1.684
 2813SOL    HW2 9339   0.889   2.262   1.659
 2814SOL     OW 9340   1.754   4.319   0.006
 2814SOL    HW1 9341   1.762   4.260   0.087
 2814SOL    HW2 9342   1.844   4.328   6.987
 2815SOL     OW 9343   0.568   5.844   5.611
 2815SOL    HW1 9344   0.541   5.756   5.650
 2815SOL    HW2 9345   0.623   5.828   5.529
 2816SOL     OW 9346   0.110   6.181   6.069
 2816SOL    HW1 9347   0.104   6.280   6.082
 2816SOL    HW2 9348   0.205   6.155   6.051
 2817SOL     OW 9349   4.293   0.675   2.028
 2817SOL    HW1 9350   4.236   0.608   2.075
 2817SOL    HW2 9351   4.353   0.720   2.094
 2818SOL     OW 9352   1.030   0.398   1.225
 2818SOL    HW1 9353   1.086   0.480   1.209
 2818SOL    HW2 9354   0.945   0.405   1.172
 2819SOL     OW 9355   0.677   0.407   0.687
 2819SOL    HW1 9356   0.628   0.485   0.726
 2819SOL    HW2 9357   0.765   0.438   0.650
 2820SOL     OW 9358   1.286   3.058   1.299
 2820SOL    HW1 9359   1.208   3.115   1.324
 2820SOL    HW2 9360   1.338   3.035   1.381
 2821SOL     OW 9361   3.027   4.288   6.649
 2821SOL    HW1 9362   3.102   4.337   6.603
 2821SOL    HW2 9363   3.040   4.189   6.637
 2822SOL     OW 9364   4.677   2.557   0.679
 2822SOL    HW1 9365   4.608   2.615   0.723
 2822SOL    HW2 9366   4.736   2.614   0.621
 2823SOL     OW 9367   5.501   2.065   1.230
 2823SOL    HW1 9368   5.583   2.122   1.217
 2823SOL    HW2 9369   5.504   2.023   1.320
 2824SOL     OW 9370   1.043   3.514   5.543
 2824SOL    HW1 9371   1.076   3.605   5.517
 2824SOL    HW2 9372   0.947   3.520   5.570
 2825SOL     OW 9373   5.467   1.659   6.335
 2825SOL    HW1 9374   5.392   1.698   6.390
 2825SOL    HW2 9375   5.475   1.562   6.355
 2826SOL     OW 9376   2.244   3.945   6.433
 2826SOL    HW1 9377   2.299   3.883   6.376
 2826SOL    HW2 9378   2.183   3.891   6.490
 2827SOL     OW 9379   6.946   0.890   6.428
 2827SOL    HW1 9380   6.891   0.853   6.354
 2827SOL    HW2 9381   6.932   0.989   6.434
 2828SOL     OW 9382   1.440   3.953   0.892
 2828SOL    HW1 9383   1.493   3.908   0.821
 2828SOL    HW2 9384   1.461   3.912   0.981
 2829SOL     OW 9385   3.953   3.865   3.366
 2829SOL    HW1 9386   3.880   3.932   3.376
 2829SOL    HW2 9387   3.991   3.843   3.456
 2830SOL     OW 9388   3.570   5.211   5.734
 2830SOL    HW1 9389   3.570   5.276   5.657
 2830SOL    HW2 9390   3.500   5.142   5.718
 2831SOL     OW 9391   6.395   1.847   2.174
 2831SOL    HW1 9392   6.430   1.791   2.099
 2831SOL    HW2 9393   6.295   1.842   2.176
 2832SOL     OW 9394   0.555   3.611   0.971
 2832SOL    HW1 9395   0.538   3.553   1.051
 2832SOL    HW2 9396   0.632   3.574   0.920
 2833SOL     OW 9397   1.636   2.237   1.535
 2833SOL    HW1 9398   1.679   2.195   1.615
 2833SOL    HW2 9399   1.611   2.166   1.469
 2834SOL     OW 9400   3.870   6.093   5.293
 2834SOL    HW1 9401   3.943   6.112   5.228
 2834SOL    HW2 9402   3.907   6.096   5.386
 2835SOL     OW 9403   0.385   6.594   0.571
 2835SOL    HW1 9404   0.330   6.656   0.514
 2835SOL    HW2 9405   0.371   6.616   0.667
 2836SOL     OW 9406   3.421   6.350   2.999
 2836SOL    HW1 9407   3.417   6.397   2.910
 2836SOL    HW2 9408   3.351   6.278   3.002
 2837SOL     OW 9409   5.206   4.198   2.153
 2837SOL    HW1 9410   5.200   4.112   2.205
 2837SOL    HW2 9411   5.117   4.242   2.151
 2838SOL     OW 9412   5.265   4.427   6.086
 2838SOL    HW1 9413   5.283   4.472   6.173
 2838SOL    HW2 9414   5.176   4.458   6.051
 2839SOL     OW 9415   5.816   2.917   4.945
 2839SOL    HW1 9416   5.877   2.993   4.923
 2839SOL    HW2 9417   5.868   2.843   4.988
 2840SOL     OW 9418   0.243   6.493   3.580
 2840SOL    HW1 9419   0.197   6.532   3.501
 2840SOL    HW2 9420   0.336   6.531   3.586
 2841SOL     OW 9421   5.967   2.836   1.926
 2841SOL    HW1 9422   5.955   2.902   2.000
 2841SOL    HW2 9423   6.061   2.804   1.924
 2842SOL     OW 9424   1.510   6.705   3.201
 2842SOL    HW1 9425   1.564   6.640   3.147
 2842SOL    HW2 9426   1.514   6.795   3.159
 2843SOL     OW 9427   2.301   2.757   3.371
 2843SOL    HW1 9428   2.317   2.845   3.325
 2843SOL    HW2 9429   2.381   2.699   3.360
 2844SOL     OW 9430   4.907   4.708   1.301
 2844SOL    HW1 9431   4.876   4.613   1.297
 2844SOL    HW2 9432   4.852   4.758   1.367
 2845SOL     OW 9433   3.589   2.067   2.902
 2845SOL    HW1 9434   3.566   2.117   2.819
 2845SOL    HW2 9435   3.619   1.974   2.877
 2846SOL     OW 9436   5.301   0.667   0.275
 2846SOL    HW1 9437   5.274   0.636   0.366
 2846SOL    HW2 9438   5.308   0.767   0.275
 2847SOL     OW 9439   5.057   4.412   2.245
 2847SOL    HW1 9440   5.058   4.482   2.174
 2847SOL    HW2 9441   5.136   4.425   2.306
 2848SOL     OW 9442   0.906   4.178   5.132
 2848SOL    HW1 9443   0.907   4.116   5.210
 2848SOL    HW2 9444   0.859   4.135   5.055
 2849SOL     OW 9445   4.923   0.666   2.591
 2849SOL    HW1 9446   4.925   0.573   2.629
 2849SOL    HW2 9447   4.886   0.663   2.498
 2850SOL     OW 9448   2.665   6.717   2.749
 2850SOL    HW1 9449   2.717   6.770   2.817
 2850SOL    HW2 9450   2.638   6.630   2.790
 2851SOL     OW 9451   3.848   3.334   0.817
 2851SOL    HW1 9452   3.884   3.294   0.902
 2851SOL    HW2 9453   3.837   3.432   0.829
 2852SOL     OW 9454   6.067   3.864   5.787
 2852SOL    HW1 9455   5.986   3.824   5.744
 2852SOL    HW2 9456   6.039   3.938   5.848
 2853SOL     OW 9457   0.521   3.960   6.737
 2853SOL    HW1 9458   0.465   4.010   6.670
 2853SOL    HW2 9459   0.464   3.894   6.786
 2854SOL     OW 9460   3.387   1.839   6.185
 2854SOL    HW1 9461   3.458   1.769   6.180
 2854SOL    HW2 9462   3.369   1.860   6.281
 2855SOL     OW 9463   1.896   1.673   4.756
 2855SOL    HW1 9464   1.836   1.637   4.827
 2855SOL    HW2 9465   1.970   1.608   4.739
 2856SOL     OW 9466   0.378   4.545   3.510
 2856SOL    HW1 9467   0.323   4.583   3.436
 2856SOL    HW2 9468   0.349   4.585   3.597
 2857SOL     OW 9469   6.867   3.228   0.386
 2857SOL    HW1 9470   6.882   3.250   0.290
 2857SOL    HW2 9471   6.935   3.161   0.416
 2858SOL     OW 9472   4.782   4.716   2.870
 2858SOL    HW1 9473   4.701   4.774   2.881
 2858SOL    HW2 9474   4.861   4.773   2.847
 2859SOL     OW 9475   5.461   4.614   1.454
 2859SOL    HW1 9476   5.463   4.515   1.464
 2859SOL    HW2 9477   5.372   4.649   1.482
 2860SOL     OW 9478   1.101   6.122   1.809
 2860SOL    HW1 9479   1.059   6.081   1.890
 2860SOL    HW2 9480   1.050   6.093   1.728
 2861SOL     OW 9481   4.503   5.043   0.076
 2861SOL    HW1 9482   4.420   4.993   0.050
 2861SOL    HW2 9483   4.579   4.979   0.083
 2862SOL     OW 9484   4.035   2.804   0.522
 2862SOL    HW1 9485   3.955   2.757   0.484
 2862SOL    HW2 9486   4.005   2.873   0.588
 2863SOL     OW 9487   5.868   0.556   5.469
 2863SOL    HW1 9488   5.798   0.625   5.486
 2863SOL    HW2 9489   5.901   0.520   5.557
 2864SOL     OW 9490   4.513   4.007   0.582
 2864SOL    HW1 9491   4.536   4.002   0.679
 2864SOL    HW2 9492   4.437   3.944   0.563
 2865SOL     OW 9493   5.035   5.591   4.798
 2865SOL    HW1 9494   5.046   5.501   4.755
 2865SOL    HW2 9495   5.122   5.620   4.838
 2866SOL     OW 9496   3.995   4.328   0.085
 2866SOL    HW1 9497   3.946   4.405   0.127
 2866SOL    HW2 9498   4.093   4.344   0.090
 2867SOL     OW 9499   5.620   6.110   1.665
 2867SOL    HW1 9500   5.646   6.087   1.758
 2867SOL    HW2 9501   5.544   6.175   1.666
 2868SOL     OW 9502   1.258   1.546   6.208
 2868SOL    HW1 9503   1.184   1.610   6.229
 2868SOL    HW2 9504   1.272   1.542   6.109
 2869SOL     OW 9505   5.393   5.370   4.305
 2869SOL    HW1 9506   5.353   5.383   4.396
 2869SOL    HW2 9507   5.344   5.427   4.239
 2870SOL     OW 9508   6.843   1.992   1.455
 2870SOL    HW1 9509   6.933   1.958   1.427
 2870SOL    HW2 9510   6.777   1.974   1.382
 2871SOL     OW 9511   5.248   1.824   1.417
 2871SOL    HW1 9512   5.191   1.905   1.399
 2871SOL    HW2 9513   5.223   1.752   1.352
 2872SOL     OW 9514   2.640   2.006   2.519
 2872SOL    HW1 9515   2.684   1.959   2.442
 2872SOL    HW2 9516   2.542   1.983   2.520
 2873SOL     OW 9517   0.837   6.516   1.243
 2873SOL    HW1 9518   0.870   6.455   1.171
 2873SOL    HW2 9519   0.914   6.563   1.285
 2874SOL     OW 9520   2.432   0.999   3.039
 2874SOL    HW1 9521   2.419   1.010   2.941
 2874SOL    HW2 9522   2.350   0.956   3.079
 2875SOL     OW 9523   3.275   6.763   3.476
 2875SOL    HW1 9524   3.362   6.811   3.462
 2875SOL    HW2 9525   3.200   6.827   3.458
 2876SOL     OW 9526   1.473   5.886   2.033
 2876SOL    HW1 9527   1.456   5.934   2.119
 2876SOL    HW2 9528   1.454   5.947   1.957
 2877SOL     OW 9529   1.285   1.323   5.790
 2877SOL    HW1 9530   1.215   1.383   5.751
 2877SOL    HW2 9531   1.376   1.357   5.766
 2878SOL     OW 9532   4.132   3.394   4.200
 2878SOL    HW1 9533   4.120   3.351   4.290
 2878SOL    HW2 9534   4.151   3.324   4.132
 2879SOL     OW 9535   4.542   4.299   0.099
 2879SOL    HW1 9536   4.459   4.272   0.148
 2879SOL    HW2 9537   4.520   4.313   0.002
 2880SOL     OW 9538   1.268   1.018   4.784
 2880SOL    HW1 9539   1.239   1.112   4.765
 2880SOL    HW2 9540   1.368   1.013   4.786
 2881SOL     OW 9541   3.997   6.217   6.786
 2881SOL    HW1 9542   3.927   6.152   6.817
 2881SOL    HW2 9543   3.952   6.298   6.748
 2882SOL     OW 9544   4.519   6.487   0.340
 2882SOL    HW1 9545   4.522   6.449   0.433
 2882SOL    HW2 9546   4.530   6.586   0.344
 2883SOL     OW 9547   6.549   6.112   3.762
 2883SOL    HW1 9548   6.543   6.149   3.855
 2883SOL    HW2 9549   6.568   6.186   3.698
 2884SOL     OW 9550   0.233   5.157   2.859
 2884SOL    HW1 9551   0.234   5.059   2.877
 2884SOL    HW2 9552   0.206   5.172   2.764
 2885SOL     OW 9553   0.765   2.795   2.831
 2885SOL    HW1 9554   0.747   2.879   2.780
 2885SOL    HW2 9555   0.856   2.800   2.873
 2886SOL     OW 9556   2.659   4.572   6.115
 2886SOL    HW1 9557   2.571   4.553   6.071
 2886SOL    HW2 9558   2.725   4.502   6.090
 2887SOL     OW 9559   1.549   5.657   3.598
 2887SOL    HW1 9560   1.500   5.740   3.625
 2887SOL    HW2 9561   1.627   5.682   3.540
 2888SOL     OW 9562   6.270   6.883   0.473
 2888SOL    HW1 9563   6.257   6.815   0.545
 2888SOL    HW2 9564   6.325   6.959   0.508
 2889SOL     OW 9565   3.325   6.336   3.377
 2889SOL    HW1 9566   3.296   6.240   3.375
 2889SOL    HW2 9567   3.280   6.383   3.453
 2890SOL     OW 9568   2.636   0.191   1.286
 2890SOL    HW1 9569   2.562   0.191   1.218
 2890SOL    HW2 9570   2.676   0.099   1.291
 2891SOL     OW 9571   0.367   2.622   3.573
 2891SOL    HW1 9572   0.411   2.699   3.528
 2891SOL    HW2 9573   0.418   2.598   3.655
 2892SOL     OW 9574   6.978   3.679   2.108
 2892SOL    HW1 9575   6.882   3.661   2.083
 2892SOL    HW2 9576   7.012   3.756   2.054
 2893SOL     OW 9577   0.098   5.145   4.544
 2893SOL    HW1 9578   0.022   5.181   4.598
 2893SOL    HW2 9579   0.062   5.093   4.466
 2894SOL     OW 9580   1.344   5.120   2.715
 2894SOL    HW1 9581   1.345   5.125   2.616
 2894SOL    HW2 9582   1.407   5.049   2.746
 2895SOL     OW 9583   3.970   6.946   6.192
 2895SOL    HW1 9584   3.920   0.007   6.207
 2895SOL    HW2 9585   4.067   6.960   6.212
 2896SOL     OW 9586   6.012   6.029   5.132
 2896SOL    HW1 9587   5.993   6.106   5.072
 2896SOL    HW2 9588   5.974   6.047   5.222
 2897SOL     OW 9589   3.890   4.867   2.875
 2897SOL    HW1 9590   3.935   4.813   2.804
 2897SOL    HW2 9591   3.915   4.831   2.965
 2898SOL     OW 9592   5.743   3.797   2.212
 2898SOL    HW1 9593   5.678   3.871   2.226
 2898SOL    HW2 9594   5.747   3.774   2.115
 2899SOL     OW 9595   0.192   3.103   0.920
 2899SOL    HW1 9596   0.152   3.031   0.976
 2899SOL    HW2 9597   0.192   3.189   0.971
 2900SOL     OW 9598   2.618   4.204   0.053
 2900SOL    HW1 9599   2.657   4.267   0.121
 2900SOL    HW2 9600   2.672   4.209   6.993
 2901SOL     OW 9601   1.531   4.027   3.342
 2901SOL    HW1 9602   1.462   4.059   3.407
 2901SOL    HW2 9603   1.493   3.952   3.287
 2902SOL     OW 9604   1.036   5.784   4.028
 2902SOL    HW1 9605   0.956   5.732   4.059
 2902SOL    HW2 9606   1.034   5.875   4.068
 2903SOL     OW 9607   4.802   5.540   0.886
 2903SOL    HW1 9608   4.773   5.552   0.791
 2903SOL    HW2 9609   4.898   5.566   0.895
 2904SOL     OW 9610   2.255   4.412   5.212
 2904SOL    HW1 9611   2.332   4.419   5.274
 2904SOL    HW2 9612   2.283   4.367   5.127
 2905SOL     OW 9613   0.679   4.949   1.460
 2905SOL    HW1 9614   0.613   4.874   1.472
 2905SOL    HW2 9615   0.771   4.911   1.454
 2906SOL     OW 9616   6.125   5.366   3.277
 2906SOL    HW1 9617   6.162   5.459   3.284
 2906SOL    HW2 9618   6.025   5.370   3.278
 2907SOL     OW 9619   0.890   0.623   3.613
 2907SOL    HW1 9620   0.850   0.709   3.645
 2907SOL    HW2 9621   0.867   0.610   3.516
 2908SOL     OW 9622   4.447   0.014   2.813
 2908SOL    HW1 9623   4.501   0.098   2.823
 2908SOL    HW2 9624   4.424   7.002   2.903
 2909SOL     OW 9625   1.057   5.788   2.457
 2909SOL    HW1 9626   1.123   5.812   2.386
 2909SOL    HW2 9627   1.061   5.854   2.531
 2910SOL     OW 9628   0.035   1.006   3.443
 2910SOL    HW1 9629   0.073   0.983   3.532
 2910SOL    HW2 9630   0.095   0.971   3.371
 2911SOL     OW 9631   6.794   4.056   4.477
 2911SOL    HW1 9632   6.774   3.999   4.398
 2911SOL    HW2 9633   6.887   4.038   4.509
 2912SOL     OW 9634   6.992   6.816   1.079
 2912SOL    HW1 9635   6.944   6.895   1.041
 2912SOL    HW2 9636   0.020   6.771   1.006
 2913SOL     OW 9637   2.378   5.748   0.937
 2913SOL    HW1 9638   2.347   5.823   0.877
 2913SOL    HW2 9639   2.301   5.716   0.992
 2914SOL     OW 9640   4.790   4.960   0.195
 2914SOL    HW1 9641   4.728   4.994   0.265
 2914SOL    HW2 9642   4.826   4.871   0.222
 2915SOL     OW 9643   2.968   1.233   3.116
 2915SOL    HW1 9644   2.945   1.176   3.195
 2915SOL    HW2 9645   2.885   1.271   3.077
 2916SOL     OW 9646   1.421   5.573   0.181
 2916SOL    HW1 9647   1.359   5.497   0.202
 2916SOL    HW2 9648   1.419   5.639   0.256
 2917SOL     OW 9649   3.013   6.802   4.140
 2917SOL    HW1 9650   2.957   6.722   4.163
 2917SOL    HW2 9651   3.096   6.801   4.196
 2918SOL     OW 9652   6.113   3.499   1.223
 2918SOL    HW1 9653   6.044   3.565   1.191
 2918SOL    HW2 9654   6.075   3.446   1.299
 2919SOL     OW 9655   1.552   5.664   4.053
 2919SOL    HW1 9656   1.594   5.726   3.987
 2919SOL    HW2 9657   1.453   5.661   4.038
 2920SOL     OW 9658   1.875   2.347   2.104
 2920SOL    HW1 9659   1.836   2.256   2.091
 2920SOL    HW2 9660   1.965   2.338   2.146
 2921SOL     OW 9661   0.553   0.325   5.483
 2921SOL    HW1 9662   0.631   0.264   5.469
 2921SOL    HW2 9663   0.492   0.285   5.552
 2922SOL     OW 9664   3.867   0.473   3.325
 2922SOL    HW1 9665   3.856   0.453   3.422
 2922SOL    HW2 9666   3.934   0.547   3.313
 2923SOL     OW 9667   5.873   5.368   4.637
 2923SOL    HW1 9668   5.847   5.274   4.614
 2923SOL    HW2 9669   5.947   5.398   4.577
 2924SOL     OW 9670   6.158   2.614   5.558
 2924SOL    HW1 9671   6.218   2.544   5.596
 2924SOL    HW2 9672   6.082   2.571   5.511
 2925SOL     OW 9673   5.078   0.387   6.356
 2925SOL    HW1 9674   5.148   0.326   6.393
 2925SOL    HW2 9675   5.105   0.418   6.265
 2926SOL     OW 9676   0.301   2.250   4.543
 2926SOL    HW1 9677   0.333   2.213   4.630
 2926SOL    HW2 9678   0.348   2.203   4.468
 2927SOL     OW 9679   1.325   2.422   1.764
 2927SOL    HW1 9680   1.383   2.409   1.845
 2927SOL    HW2 9681   1.333   2.343   1.704
 2928SOL     OW 9682   0.175   2.769   0.615
 2928SOL    HW1 9683   0.252   2.826   0.587
 2928SOL    HW2 9684   0.090   2.809   0.579
 2929SOL     OW 9685   1.700   2.563   4.839
 2929SOL    HW1 9686   1.776   2.568   4.905
 2929SOL    HW2 9687   1.735   2.586   4.748
 2930SOL     OW 9688   6.776   5.069   5.366
 2930SOL    HW1 9689   6.866   5.033   5.344
 2930SOL    HW2 9690   6.707   4.999   5.346
 2931SOL     OW 9691   4.789   4.160   5.887
 2931SOL    HW1 9692   4.765   4.080   5.942
 2931SOL    HW2 9693   4.887   4.161   5.870
 2932SOL     OW 9694   6.732   5.477   0.495
 2932SOL    HW1 9695   6.829   5.500   0.504
 2932SOL    HW2 9696   6.709   5.405   0.560
 2933SOL     OW 9697   1.494   0.512   0.723
 2933SOL    HW1 9698   1.435   0.480   0.797
 2933SOL    HW2 9699   1.511   0.610   0.735
 2934SOL     OW 9700   4.151   4.440   0.376
 2934SOL    HW1 9701   4.143   4.507   0.450
 2934SOL    HW2 9702   4.177   4.486   0.291
 2935SOL     OW 9703   6.967   2.406   5.925
 2935SOL    HW1 9704   6.904   2.332   5.945
 2935SOL    HW2 9705   0.008   2.377   5.855
 2936SOL     OW 9706   4.916   6.876   1.253
 2936SOL    HW1 9707   4.852   6.883   1.177
 2936SOL    HW2 9708   4.999   6.830   1.222
 2937SOL     OW 9709   4.603   5.429   2.012
 2937SOL    HW1 9710   4.615   5.488   1.932
 2937SOL    HW2 9711   4.692   5.408   2.051
 2938SOL     OW 9712   6.157   5.689   6.757
 2938SOL    HW1 9713   6.150   5.703   6.856
 2938SOL    HW2 9714   6.193   5.597   6.739
 2939SOL     OW 9715   0.203   5.815   1.160
 2939SOL    HW1 9716   0.131   5.802   1.228
 2939SOL    HW2 9717   0.163   5.822   1.069
 2940SOL     OW 9718   4.427   5.802   3.831
 2940SOL    HW1 9719   4.464   5.763   3.747
 2940SOL    HW2 9720   4.455   5.745   3.909
 2941SOL     OW 9721   1.873   3.319   4.121
 2941SOL    HW1 9722   1.874   3.231   4.169
 2941SOL    HW2 9723   1.842   3.390   4.184
 2942SOL     OW 9724   3.747   1.679   1.095
 2942SOL    HW1 9725   3.658   1.637   1.081
 2942SOL    HW2 9726   3.790   1.695   1.006
 2943SOL     OW 9727   6.009   4.158   3.306
 2943SOL    HW1 9728   6.064   4.074   3.305
 2943SOL    HW2 9729   6.063   4.233   3.344
 2944SOL     OW 9730   2.068   5.833   3.045
 2944SOL    HW1 9731   2.116   5.782   3.117
 2944SOL    HW2 9732   2.007   5.900   3.087
 2945SOL     OW 9733   5.125   4.508   1.355
 2945SOL    HW1 9734   5.156   4.580   1.418
 2945SOL    HW2 9735   5.113   4.547   1.264
 2946SOL     OW 9736   2.989   4.164   5.992
 2946SOL    HW1 9737   2.960   4.150   5.897
 2946SOL    HW2 9738   3.006   4.076   6.035
 2947SOL     OW 9739   5.827   0.022   0.567
 2947SOL    HW1 9740   5.892   0.089   0.532
 2947SOL    HW2 9741   5.825   0.026   0.667
 2948SOL     OW 9742   6.260   3.812   2.168
 2948SOL    HW1 9743   6.162   3.801   2.186
 2948SOL    HW2 9744   6.273   3.854   2.078
 2949SOL     OW 9745   1.485   6.929   0.792
 2949SOL    HW1 9746   1.520   6.837   0.773
 2949SOL    HW2 9747   1.396   6.922   0.836
 2950SOL     OW 9748   4.970   4.883   2.459
 2950SOL    HW1 9749   4.886   4.834   2.479
 2950SOL    HW2 9750   5.048   4.821   2.466
 2951SOL     OW 9751   6.148   1.645   1.951
 2951SOL    HW1 9752   6.066   1.595   1.922
 2951SOL    HW2 9753   6.185   1.602   2.034
 2952SOL     OW 9754   5.706   1.326   4.380
 2952SOL    HW1 9755   5.667   1.304   4.290
 2952SOL    HW2 9756   5.719   1.425   4.388
 2953SOL     OW 9757   0.773   5.734   4.123
 2953SOL    HW1 9758   0.690   5.786   4.105
 2953SOL    HW2 9759   0.772   5.649   4.071
 2954SOL     OW 9760   0.287   4.832   5.891
 2954SOL    HW1 9761   0.335   4.913   5.859
 2954SOL    HW2 9762   0.275   4.768   5.815
 2955SOL     OW 9763   1.937   4.804   6.954
 2955SOL    HW1 9764   1.888   4.752   6.885
 2955SOL    HW2 9765   2.003   4.745   7.001
 2956SOL     OW 9766   6.024   4.484   3.322
 2956SOL    HW1 9767   6.043   4.525   3.411
 2956SOL    HW2 9768   6.060   4.543   3.249
 2957SOL     OW 9769   2.389   5.373   1.669
 2957SOL    HW1 9770   2.423   5.307   1.603
 2957SOL    HW2 9771   2.389   5.331   1.760
 2958SOL     OW 9772   2.429   5.425   3.184
 2958SOL    HW1 9773   2.427   5.506   3.126
 2958SOL    HW2 9774   2.521   5.387   3.185
 2959SOL     OW 9775   6.859   2.726   3.143
 2959SOL    HW1 9776   6.872   2.811   3.093
 2959SOL    HW2 9777   6.764   2.718   3.171
 2960SOL     OW 9778   4.540   1.007   0.555
 2960SOL    HW1 9779   4.539   0.960   0.643
 2960SOL    HW2 9780   4.633   1.034   0.533
 2961SOL     OW 9781   5.744   4.113   2.089
 2961SOL    HW1 9782   5.645   4.126   2.094
 2961SOL    HW2 9783   5.788   4.167   2.160
 2962SOL     OW 9784   0.327   6.765   2.332
 2962SOL    HW1 9785   0.251   6.713   2.371
 2962SOL    HW2 9786   0.303   6.795   2.240
 2963SOL     OW 9787   1.676   1.269   4.771
 2963SOL    HW1 9788   1.775   1.279   4.755
 2963SOL    HW2 9789   1.643   1.348   4.822
 2964SOL     OW 9790   0.981   2.429   6.885
 2964SOL    HW1 9791   0.888   2.466   6.888
 2964SOL    HW2 9792   1.044   2.500   6.853
 2965SOL     OW 9793   0.722   0.061   4.724
 2965SOL    HW1 9794   0.791   0.018   4.666
 2965SOL    HW2 9795   0.720   0.016   4.813
 2966SOL     OW 9796   4.265   5.701   3.482
 2966SOL    HW1 9797   4.266   5.776   3.417
 2966SOL    HW2 9798   4.172   5.666   3.491
 2967SOL     OW 9799   6.406   0.150   5.380
 2967SOL    HW1 9800   6.455   0.163   5.466
 2967SOL    HW2 9801   6.469   0.113   5.311
 2968SOL     OW 9802   2.056   2.368   1.432
 2968SOL    HW1 9803   2.041   2.459   1.393
 2968SOL    HW2 9804   1.998   2.356   1.513
 2969SOL     OW 9805   5.203   3.433   4.477
 2969SOL    HW1 9806   5.287   3.391   4.511
 2969SOL    HW2 9807   5.187   3.406   4.383
 2970SOL     OW 9808   2.450   2.689   4.245
 2970SOL    HW1 9809   2.509   2.661   4.169
 2970SOL    HW2 9810   2.431   2.610   4.304
 2971SOL     OW 9811   5.333   2.991   6.249
 2971SOL    HW1 9812   5.261   3.027   6.308
 2971SOL    HW2 9813   5.293   2.926   6.184
 2972SOL     OW 9814   5.810   4.648   6.907
 2972SOL    HW1 9815   5.737   4.696   6.956
 2972SOL    HW2 9816   5.853   4.710   6.842
 2973SOL     OW 9817   4.713   0.099   2.316
 2973SOL    HW1 9818   4.713   0.010   2.362
 2973SOL    HW2 9819   4.700   0.086   2.218
 2974SOL     OW 9820   4.620   5.530   3.173
 2974SOL    HW1 9821   4.671   5.533   3.260
 2974SOL    HW2 9822   4.527   5.500   3.190
 2975SOL     OW 9823   4.878   4.407   4.100
 2975SOL    HW1 9824   4.787   4.372   4.119
 2975SOL    HW2 9825   4.891   4.417   4.002
 2976SOL     OW 9826   4.128   2.287   2.160
 2976SOL    HW1 9827   4.217   2.241   2.164
 2976SOL    HW2 9828   4.137   2.380   2.197
 2977SOL     OW 9829   1.129   0.876   1.752
 2977SOL    HW1 9830   1.037   0.888   1.789
 2977SOL    HW2 9831   1.141   0.782   1.721
 2978SOL     OW 9832   4.669   4.986   6.713
 2978SOL    HW1 9833   4.666   5.085   6.723
 2978SOL    HW2 9834   4.576   4.950   6.706
 2979SOL     OW 9835   3.178   0.972   4.114
 2979SOL    HW1 9836   3.139   0.935   4.030
 2979SOL    HW2 9837   3.149   1.067   4.126
 2980SOL     OW 9838   3.684   4.249   5.690
 2980SOL    HW1 9839   3.751   4.237   5.763
 2980SOL    HW2 9840   3.707   4.329   5.635
 2981SOL     OW 9841   1.345   1.142   1.037
 2981SOL    HW1 9842   1.339   1.162   0.940
 2981SOL    HW2 9843   1.428   1.090   1.056
 2982SOL     OW 9844   0.634   1.058   1.611
 2982SOL    HW1 9845   0.703   1.076   1.540
 2982SOL    HW2 9846   0.646   0.964   1.644
 2983SOL     OW 9847   5.864   3.012   6.374
 2983SOL    HW1 9848   5.887   3.032   6.469
 2983SOL    HW2 9849   5.778   2.960   6.371
 2984SOL     OW 9850   6.999   4.485   0.167
 2984SOL    HW1 9851   0.025   4.564   0.132
 2984SOL    HW2 9852   7.013   4.407   0.106
 2985SOL     OW 9853   6.991   6.593   4.521
 2985SOL    HW1 9854   0.020   6.531   4.578
 2985SOL    HW2 9855   0.026   6.666   4.487
 2986SOL     OW 9856   3.471   4.047   2.598
 2986SOL    HW1 9857   3.383   4.086   2.625
 2986SOL    HW2 9858   3.519   4.111   2.538
 2987SOL     OW 9859   1.914   0.896   4.260
 2987SOL    HW1 9860   2.011   0.907   4.238
 2987SOL    HW2 9861   1.877   0.983   4.291
 2988SOL     OW 9862   0.726   1.829   0.385
 2988SOL    HW1 9863   0.652   1.830   0.452
 2988SOL    HW2 9864   0.782   1.747   0.397
 2989SOL     OW 9865   5.416   3.641   4.177
 2989SOL    HW1 9866   5.484   3.661   4.107
 2989SOL    HW2 9867   5.346   3.712   4.178
 2990SOL     OW 9868   5.020   1.909   4.831
 2990SOL    HW1 9869   5.116   1.937   4.834
 2990SOL    HW2 9870   4.962   1.989   4.842
 2991SOL     OW 9871   5.874   3.928   0.696
 2991SOL    HW1 9872   5.860   4.024   0.670
 2991SOL    HW2 9873   5.948   3.922   0.762
 2992SOL     OW 9874   0.620   3.174   5.441
 2992SOL    HW1 9875   0.700   3.225   5.411
 2992SOL    HW2 9876   0.540   3.234   5.443
 2993SOL     OW 9877   1.097   4.412   0.482
 2993SOL    HW1 9878   1.115   4.343   0.412
 2993SOL    HW2 9879   1.016   4.385   0.534
 2994SOL     OW 9880   4.521   0.027   6.970
 2994SOL    HW1 9881   4.561   7.011   6.887
 2994SOL    HW2 9882   4.543   0.125   6.974
 2995SOL     OW 9883   5.152   0.031   1.245
 2995SOL    HW1 9884   5.093   6.979   1.272
 2995SOL    HW2 9885   5.100   0.116   1.249
 2996SOL     OW 9886   0.323   1.749   4.793
 2996SOL    HW1 9887   0.352   1.777   4.701
 2996SOL    HW2 9888   0.247   1.806   4.822
 2997SOL     OW 9889   5.086   0.178   3.910
 2997SOL    HW1 9890   5.068   0.258   3.966
 2997SOL    HW2 9891   5.174   0.190   3.863
 2998SOL     OW 9892   2.420   1.426   2.546
 2998SOL    HW1 9893   2.463   1.364   2.481
 2998SOL    HW2 9894   2.480   1.504   2.564
 2999SOL     OW 9895   2.480   4.422   0.296
 2999SOL    HW1 9896   2.519   4.418   0.388
 2999SOL    HW2 9897   2.385   4.450   0.302
 3000SOL     OW 9898   3.089   3.640   4.881
 3000SOL    HW1 9899   3.077   3.662   4.785
 3000SOL    HW2 9900   3.186   3.623   4.900
 3001SOL     OW 9901   6.290   0.591   5.831
 3001SOL    HW1 9902   6.219   0.618   5.767
 3001SOL    HW2 9903   6.378   0.587   5.784
 3002SOL     OW 9904   2.609   1.479   1.780
 3002SOL    HW1 9905   2.515   1.514   1.769
 3002SOL    HW2 9906   2.645   1.509   1.868
 3003SOL     OW 9907   1.506   6.289   6.986
 3003SOL    HW1 9908   1.505   6.386   6.960
 3003SOL    HW2 9909   1.578   6.242   6.934
 3004SOL     OW 9910   2.423   6.134   3.903
 3004SOL    HW1 9911   2.466   6.076   3.973
 3004SOL    HW2 9912   2.345   6.085   3.863
 3005SOL     OW 9913   1.115   2.396   5.298
 3005SOL    HW1 9914   1.032   2.392   5.354
 3005SOL    HW2 9915   1.103   2.339   5.217
 3006SOL     OW 9916   5.385   1.489   5.787
 3006SOL    HW1 9917   5.337   1.525   5.707
 3006SOL    HW2 9918   5.479   1.466   5.762
 3007SOL     OW 9919   5.186   4.150   6.369
 3007SOL    HW1 9920   5.092   4.121   6.383
 3007SOL    HW2 9921   5.199   4.244   6.402
 3008SOL     OW 9922   4.584   2.181   5.931
 3008SOL    HW1 9923   4.518   2.167   5.857
 3008SOL    HW2 9924   4.570   2.111   6.001
 3009SOL     OW 9925   0.373   3.347   2.309
 3009SOL    HW1 9926   0.338   3.299   2.229
 3009SOL    HW2 9927   0.456   3.397   2.286
 3010SOL     OW 9928   4.234   5.910   6.151
 3010SOL    HW1 9929   4.307   5.847   6.180
 3010SOL    HW2 9930   4.274   5.998   6.126
 3011SOL     OW 9931   6.721   0.109   1.096
 3011SOL    HW1 9932   6.798   0.110   1.033
 3011SOL    HW2 9933   6.677   0.199   1.098
 3012SOL     OW 9934   2.618   2.848   6.139
 3012SOL    HW1 9935   2.611   2.925   6.076
 3012SOL    HW2 9936   2.629   2.763   6.087
 3013SOL     OW 9937   0.618   5.654   4.821
 3013SOL    HW1 9938   0.586   5.651   4.727
 3013SOL    HW2 9939   0.548   5.614   4.881
 3014SOL     OW 9940   4.893   0.133   5.563
 3014SOL    HW1 9941   4.964   0.108   5.496
 3014SOL    HW2 9942   4.825   0.060   5.569
 3015SOL     OW 9943   1.367   1.529   0.181
 3015SOL    HW1 9944   1.324   1.474   0.109
 3015SOL    HW2 9945   1.312   1.611   0.198
 3016SOL     OW 9946   2.185   6.706   4.718
 3016SOL    HW1 9947   2.102   6.723   4.664
 3016SOL    HW2 9948   2.206   6.786   4.774
 3017SOL     OW 9949   0.053   5.500   1.079
 3017SOL    HW1 9950   0.110   5.555   1.017
 3017SOL    HW2 9951   7.024   5.435   1.025
 3018SOL     OW 9952   3.372   0.330   0.124
 3018SOL    HW1 9953   3.375   0.371   0.215
 3018SOL    HW2 9954   3.279   0.338   0.087
 3019SOL     OW 9955   2.048   0.482   4.910
 3019SOL    HW1 9956   2.063   0.485   5.009
 3019SOL    HW2 9957   1.976   0.547   4.886
 3020SOL     OW 9958   5.146   3.163   6.993
 3020SOL    HW1 9959   5.145   3.092   0.040
 3020SOL    HW2 9960   5.204   3.239   7.022
 3021SOL     OW 9961   3.797   6.083   4.686
 3021SOL    HW1 9962   3.852   6.042   4.758
 3021SOL    HW2 9963   3.787   6.019   4.610
 3022SOL     OW 9964   4.187   5.565   4.055
 3022SOL    HW1 9965   4.097   5.557   4.013
 3022SOL    HW2 9966   4.258   5.550   3.986
 3023SOL     OW 9967   4.748   6.554   3.088
 3023SOL    HW1 9968   4.837   6.578   3.127
 3023SOL    HW2 9969   4.684   6.631   3.100
 3024SOL     OW 9970   0.268   6.749   6.750
 3024SOL    HW1 9971   0.191   6.800   6.787
 3024SOL    HW2 9972   0.267   6.655   6.786
 3025SOL     OW 9973   3.630   6.331   0.587
 3025SOL    HW1 9974   3.627   6.338   0.687
 3025SOL    HW2 9975   3.538   6.345   0.550
 3026SOL     OW 9976   6.334   0.994   0.451
 3026SOL    HW1 9977   6.346   1.003   0.352
 3026SOL    HW2 9978   6.254   0.936   0.469
 3027SOL     OW 9979   4.914   1.432   1.215
 3027SOL    HW1 9980   4.885   1.520   1.176
 3027SOL    HW2 9981   4.986   1.449   1.282
 3028SOL     OW 9982   2.871   4.474   5.783
 3028SOL    HW1 9983   2.901   4.437   5.871
 3028SOL    HW2 9984   2.778   4.444   5.764
 3029SOL     OW 9985   0.666   2.701   4.205
 3029SOL    HW1 9986   0.664   2.609   4.166
 3029SOL    HW2 9987   0.627   2.700   4.297
 3030SOL     OW 9988   2.670   3.030   0.359
 3030SOL    HW1 9989   2.661   3.010   0.261
 3030SOL    HW2 9990   2.580   3.033   0.401
 3031SOL     OW 9991   1.085   6.604   1.394
 3031SOL    HW1 9992   1.088   6.693   1.440
 3031SOL    HW2 9993   1.156   6.544   1.434
 3032SOL     OW 9994   2.390   0.643   2.329
 3032SOL    HW1 9995   2.290   0.646   2.328
 3032SOL    HW2 9996   2.424   0.610   2.240
 3033SOL     OW 9997   6.838   2.008   4.226
 3033SOL    HW1 9998   6.776   1.935   4.254
 3033SOL    HW2 9999   6.788   2.074   4.169
 3034SOL     OW10000   0.221   5.201   3.238
 3034SOL    HW110001   0.179   5.239   3.156
 3034SOL    HW210002   0.150   5.159   3.296
 3035SOL     OW10003   1.178   2.870   6.423
 3035SOL    HW110004   1.097   2.866   6.365
 3035SOL    HW210005   1.208   2.964   6.433
 3036SOL     OW10006   3.364   2.514   6.487
 3036SOL    HW110007   3.419   2.431   6.482
 3036SOL    HW210008   3.303   2.519   6.408
 3037SOL     OW10009   0.236   5.621   0.202
 3037SOL    HW110010   0.233   5.567   0.286
 3037SOL    HW210011   0.217   5.562   0.124
 3038SOL     OW10012   5.345   3.961   6.470
 3038SOL    HW110013   5.312   3.928   6.558
 3038SOL    HW210014   5.285   4.034   6.438
 3039SOL     OW10015   6.872   3.912   6.815
 3039SOL    HW110016   6.859   3.884   6.720
 3039SOL    HW210017   6.819   3.995   6.833
 3040SOL     OW10018   4.609   3.747   5.788
 3040SOL    HW110019   4.621   3.648   5.796
 3040SOL    HW210020   4.670   3.794   5.852
 3041SOL     OW10021   2.265   4.317   4.945
 3041SOL    HW110022   2.271   4.232   4.997
 3041SOL    HW210023   2.184   4.315   4.886
 3042SOL     OW10024   0.079   5.326   3.034
 3042SOL    HW110025   0.031   5.239   3.021
 3042SOL    HW210026   0.114   5.358   2.947
 3043SOL     OW10027   3.156   4.981   0.634
 3043SOL    HW110028   3.105   4.988   0.548
 3043SOL    HW210029   3.231   5.047   0.634
 3044SOL     OW10030   3.328   3.261   5.049
 3044SOL    HW110031   3.318   3.185   5.114
 3044SOL    HW210032   3.266   3.335   5.075
 3045SOL     OW10033   4.801   1.325   1.957
 3045SOL    HW110034   4.830   1.412   1.998
 3045SOL    HW210035   4.853   1.250   1.998
 3046SOL     OW10036   5.598   5.542   0.874
 3046SOL    HW110037   5.567   5.449   0.855
 3046SOL    HW210038   5.682   5.561   0.824
 3047SOL     OW10039   6.154   1.007   6.379
 3047SOL    HW110040   6.214   1.024   6.456
 3047SOL    HW210041   6.189   1.054   6.298
 3048SOL     OW10042   3.824   3.600   0.844
 3048SOL    HW110043   3.861   3.673   0.785
 3048SOL    HW210044   3.724   3.610   0.850
 3049SOL     OW10045   1.537   0.756   4.159
 3049SOL    HW110046   1.501   0.738   4.250
 3049SOL    HW210047   1.461   0.759   4.094
 3050SOL     OW10048   2.903   2.484   1.483
 3050SOL    HW110049   2.932   2.557   1.546
 3050SOL    HW210050   2.834   2.427   1.528
 3051SOL     OW10051   2.465   6.078   5.124
 3051SOL    HW110052   2.529   6.086   5.048
 3051SOL    HW210053   2.407   6.159   5.128
 3052SOL     OW10054   6.597   6.388   2.349
 3052SOL    HW110055   6.695   6.399   2.365
 3052SOL    HW210056   6.582   6.309   2.289
 3053SOL     OW10057   1.552   4.441   0.211
 3053SOL    HW110058   1.457   4.460   0.236
 3053SOL    HW210059   1.558   4.353   0.165
 3054SOL     OW10060   5.663   1.300   2.654
 3054SOL    HW110061   5.584   1.320   2.597
 3054SOL    HW210062   5.648   1.214   2.703
 3055SOL     OW10063   6.009   5.645   6.190
 3055SOL    HW110064   5.940   5.711   6.222
 3055SOL    HW210065   6.092   5.655   6.245
 3056SOL     OW10066   4.468   1.462   6.032
 3056SOL    HW110067   4.563   1.458   6.063
 3056SOL    HW210068   4.455   1.398   5.956
 3057SOL     OW10069   5.876   5.069   2.937
 3057SOL    HW110070   5.841   5.155   2.974
 3057SOL    HW210071   5.809   4.996   2.952
 3058SOL     OW10072   0.043   4.676   6.806
 3058SOL    HW110073   0.084   4.729   6.732
 3058SOL    HW210074   0.110   4.611   6.842
 3059SOL     OW10075   2.432   2.295   4.391
 3059SOL    HW110076   2.512   2.316   4.447
 3059SOL    HW210077   2.449   2.212   4.338
 3060SOL     OW10078   5.003   4.831   5.325
 3060SOL    HW110079   4.907   4.827   5.354
 3060SOL    HW210080   5.053   4.753   5.363
 3061SOL     OW10081   5.604   5.465   5.255
 3061SOL    HW110082   5.532   5.476   5.187
 3061SOL    HW210083   5.685   5.427   5.211
 3062SOL     OW10084   4.933   4.288   1.830
 3062SOL    HW110085   4.870   4.338   1.771
 3062SOL    HW210086   4.881   4.232   1.895
 3063SOL     OW10087   0.276   4.445   1.544
 3063SOL    HW110088   0.221   4.484   1.618
 3063SOL    HW210089   0.242   4.477   1.456
 3064SOL     OW10090   4.429   1.936   6.837
 3064SOL    HW110091   4.450   1.843   6.866
 3064SOL    HW210092   4.353   1.935   6.773
 3065SOL     OW10093   0.500   1.123   6.476
 3065SOL    HW110094   0.429   1.097   6.410
 3065SOL    HW210095   0.589   1.123   6.431
 3066SOL     OW10096   5.186   5.980   5.953
 3066SOL    HW110097   5.106   6.039   5.965
 3066SOL    HW210098   5.269   6.035   5.954
 3067SOL     OW10099   2.116   2.614   6.286
 3067SOL    HW110100   2.099   2.584   6.380
 3067SOL    HW210101   2.040   2.672   6.255
 3068SOL     OW10102   0.563   1.059   1.193
 3068SOL    HW110103   0.657   1.042   1.162
 3068SOL    HW210104   0.518   0.973   1.215
 3069SOL     OW10105   5.045   0.088   2.896
 3069SOL    HW110106   5.040   0.181   2.861
 3069SOL    HW210107   4.956   0.062   2.934
 3070SOL     OW10108   2.804   0.850   1.340
 3070SOL    HW110109   2.850   0.763   1.357
 3070SOL    HW210110   2.862   0.907   1.281
 3071SOL     OW10111   0.031   3.309   3.700
 3071SOL    HW110112   6.974   3.251   3.705
 3071SOL    HW210113   0.073   3.316   3.790
 3072SOL     OW10114   2.140   6.611   6.132
 3072SOL    HW110115   2.133   6.711   6.140
 3072SOL    HW210116   2.054   6.575   6.096
 3073SOL     OW10117   6.285   5.235   0.439
 3073SOL    HW110118   6.259   5.329   0.417
 3073SOL    HW210119   6.204   5.182   0.464
 3074SOL     OW10120   2.416   3.178   1.153
 3074SOL    HW110121   2.400   3.277   1.162
 3074SOL    HW210122   2.358   3.129   1.219
 3075SOL     OW10123   2.517   5.299   2.451
 3075SOL    HW110124   2.421   5.274   2.435
 3075SOL    HW210125   2.537   5.293   2.549
 3076SOL     OW10126   0.022   0.310   4.551
 3076SOL    HW110127   6.994   0.347   4.629
 3076SOL    HW210128   0.113   0.351   4.549
 3077SOL     OW10129   6.401   3.814   1.867
 3077SOL    HW110130   6.335   3.754   1.822
 3077SOL    HW210131   6.467   3.848   1.801
 3078SOL     OW10132   6.921   2.897   1.697
 3078SOL    HW110133   6.912   2.953   1.615
 3078SOL    HW210134   6.909   2.801   1.674
 3079SOL     OW10135   2.749   3.468   5.400
 3079SOL    HW110136   2.704   3.380   5.391
 3079SOL    HW210137   2.834   3.458   5.451
 3080SOL     OW10138   4.310   5.143   0.954
 3080SOL    HW110139   4.290   5.055   0.998
 3080SOL    HW210140   4.323   5.213   1.023
 3081SOL     OW10141   1.760   4.153   0.499
 3081SOL    HW110142   1.703   4.234   0.488
 3081SOL    HW210143   1.711   4.086   0.555
 3082SOL     OW10144   4.222   5.167   5.049
 3082SOL    HW110145   4.136   5.198   5.088
 3082SOL    HW210146   4.274   5.117   5.119
 3083SOL     OW10147   2.730   5.566   2.550
 3083SOL    HW110148   2.668   5.644   2.559
 3083SOL    HW210149   2.784   5.557   2.633
 3084SOL     OW10150   0.523   3.207   3.858
 3084SOL    HW110151   0.476   3.295   3.847
 3084SOL    HW210152   0.562   3.179   3.770
 3085SOL     OW10153   5.225   4.420   0.889
 3085SOL    HW110154   5.290   4.412   0.965
 3085SOL    HW210155   5.259   4.490   0.825
 3086SOL     OW10156   6.051   0.852   6.648
 3086SOL    HW110157   6.145   0.885   6.641
 3086SOL    HW210158   6.003   0.870   6.562
 3087SOL     OW10159   2.675   0.297   2.524
 3087SOL    HW110160   2.641   0.319   2.616
 3087SOL    HW210161   2.749   0.360   2.500
 3088SOL     OW10162   1.474   2.700   5.376
 3088SOL    HW110163   1.377   2.675   5.370
 3088SOL    HW210164   1.502   2.748   5.292
 3089SOL     OW10165   4.802   6.775   4.716
 3089SOL    HW110166   4.861   6.738   4.645
 3089SOL    HW210167   4.850   6.848   4.765
 3090SOL     OW10168   1.502   2.273   1.994
 3090SOL    HW110169   1.416   2.236   2.028
 3090SOL    HW210170   1.535   2.343   2.056
 3091SOL     OW10171   0.883   2.300   0.949
 3091SOL    HW110172   0.798   2.353   0.951
 3091SOL    HW210173   0.870   2.221   0.889
 3092SOL     OW10174   6.786   0.239   2.220
 3092SOL    HW110175   6.793   0.143   2.190
 3092SOL    HW210176   6.847   0.254   2.297
 3093SOL     OW10177   4.975   4.854   6.797
 3093SOL    HW110178   4.991   4.849   6.895
 3093SOL    HW210179   4.877   4.848   6.778
 3094SOL     OW10180   3.162   1.515   5.917
 3094SOL    HW110181   3.260   1.530   5.909
 3094SOL    HW210182   3.121   1.588   5.971
 3095SOL     OW10183   1.935   3.538   5.225
 3095SOL    HW110184   1.916   3.569   5.318
 3095SOL    HW210185   2.032   3.519   5.215
 3096SOL     OW10186   0.332   4.067   4.310
 3096SOL    HW110187   0.352   3.980   4.266
 3096SOL    HW210188   0.288   4.051   4.398
 3097SOL     OW10189   5.240   2.020   6.100
 3097SOL    HW110190   5.322   2.076   6.092
 3097SOL    HW210191   5.159   2.078   6.095
 3098SOL     OW10192   1.946   2.608   2.466
 3098SOL    HW110193   2.023   2.635   2.409
 3098SOL    HW210194   1.872   2.675   2.457
 3099SOL     OW10195   0.257   6.038   3.858
 3099SOL    HW110196   0.237   6.043   3.955
 3099SOL    HW210197   0.326   6.106   3.834
 3100SOL     OW10198   0.103   5.385   2.409
 3100SOL    HW110199   0.047   5.464   2.383
 3100SOL    HW210200   0.064   5.342   2.490
 3101SOL     OW10201   3.923   6.135   5.558
 3101SOL    HW110202   3.860   6.094   5.624
 3101SOL    HW210203   3.958   6.221   5.594
 3102SOL     OW10204   6.976   4.641   0.866
 3102SOL    HW110205   0.042   4.611   0.898
 3102SOL    HW210206   6.945   4.718   0.921
 3103SOL     OW10207   3.440   0.175   1.555
 3103SOL    HW110208   3.537   0.194   1.544
 3103SOL    HW210209   3.389   0.261   1.562
 3104SOL     OW10210   4.628   0.073   6.306
 3104SOL    HW110211   4.724   0.101   6.307
 3104SOL    HW210212   4.621   6.999   6.320
 3105SOL     OW10213   5.830   3.338   0.129
 3105SOL    HW110214   5.794   3.429   0.111
 3105SOL    HW210215   5.810   3.313   0.224
 3106SOL     OW10216   5.919   0.277   4.941
 3106SOL    HW110217   5.958   0.367   4.926
 3106SOL    HW210218   5.977   0.207   4.898
 3107SOL     OW10219   3.840   0.976   6.176
 3107SOL    HW110220   3.748   0.937   6.168
 3107SOL    HW210221   3.891   0.960   6.091
 3108SOL     OW10222   1.838   4.478   3.929
 3108SOL    HW110223   1.808   4.457   4.022
 3108SOL    HW210224   1.906   4.552   3.933
 3109SOL     OW10225   6.754   5.945   3.843
 3109SOL    HW110226   6.793   5.854   3.855
 3109SOL    HW210227   6.656   5.936   3.824
 3110SOL     OW10228   1.590   4.737   3.608
 3110SOL    HW110229   1.684   4.769   3.608
 3110SOL    HW210230   1.551   4.750   3.699
 3111SOL     OW10231   5.935   4.355   4.225
 3111SOL    HW110232   5.941   4.402   4.137
 3111SOL    HW210233   5.875   4.275   4.215
 3112SOL     OW10234   3.720   2.089   6.941
 3112SOL    HW110235   3.727   2.173   6.995
 3112SOL    HW210236   3.694   2.013   7.001
 3113SOL     OW10237   1.995   5.515   3.647
 3113SOL    HW110238   1.979   5.595   3.705
 3113SOL    HW210239   2.071   5.461   3.684
 3114SOL     OW10240   4.264   0.793   6.850
 3114SOL    HW110241   4.204   0.780   6.929
 3114SOL    HW210242   4.241   0.725   6.780
 3115SOL     OW10243   4.540   5.009   5.514
 3115SOL    HW110244   4.606   5.016   5.439
 3115SOL    HW210245   4.535   4.915   5.545
 3116SOL     OW10246   0.572   2.014   1.147
 3116SOL    HW110247   0.542   2.020   1.052
 3116SOL    HW210248   0.505   2.060   1.206
 3117SOL     OW10249   4.981   1.553   5.354
 3117SOL    HW110250   5.065   1.590   5.316
 3117SOL    HW210251   4.963   1.594   5.444
 3118SOL     OW10252   1.685   1.225   3.189
 3118SOL    HW110253   1.734   1.149   3.148
 3118SOL    HW210254   1.740   1.265   3.262
 3119SOL     OW10255   4.500   4.296   5.948
 3119SOL    HW110256   4.421   4.269   5.894
 3119SOL    HW210257   4.584   4.283   5.895
 3120SOL     OW10258   2.054   6.455   4.783
 3120SOL    HW110259   2.085   6.546   4.757
 3120SOL    HW210260   2.015   6.458   4.875
 3121SOL     OW10261   4.482   1.195   4.876
 3121SOL    HW110262   4.387   1.170   4.855
 3121SOL    HW210263   4.526   1.229   4.793
 3122SOL     OW10264   3.978   5.246   5.199
 3122SOL    HW110265   3.980   5.173   5.267
 3122SOL    HW210266   3.889   5.247   5.154
 3123SOL     OW10267   2.577   1.651   3.876
 3123SOL    HW110268   2.562   1.679   3.781
 3123SOL    HW210269   2.531   1.716   3.937
 3124SOL     OW10270   4.806   0.072   3.818
 3124SOL    HW110271   4.732   0.125   3.859
 3124SOL    HW210272   4.893   0.120   3.829
 3125SOL     OW10273   1.617   2.284   5.233
 3125SOL    HW110274   1.527   2.244   5.212
 3125SOL    HW210275   1.670   2.294   5.149
 3126SOL     OW10276   5.757   4.878   4.681
 3126SOL    HW110277   5.812   4.797   4.657
 3126SOL    HW210278   5.747   4.883   4.780
 3127SOL     OW10279   0.180   1.524   4.711
 3127SOL    HW110280   0.163   1.541   4.614
 3127SOL    HW210281   0.270   1.561   4.736
 3128SOL     OW10282   4.685   0.911   0.229
 3128SOL    HW110283   4.612   0.915   0.161
 3128SOL    HW210284   4.734   0.998   0.231
 3129SOL     OW10285   4.651   3.144   0.654
 3129SOL    HW110286   4.731   3.188   0.694
 3129SOL    HW210287   4.630   3.060   0.703
 3130SOL     OW10288   1.086   4.588   1.635
 3130SOL    HW110289   1.028   4.507   1.647
 3130SOL    HW210290   1.030   4.663   1.599
 3131SOL     OW10291   6.587   4.004   2.640
 3131SOL    HW110292   6.631   3.956   2.564
 3131SOL    HW210293   6.551   4.091   2.608
 3132SOL     OW10294   4.035   4.820   0.057
 3132SOL    HW110295   4.028   4.762   7.000
 3132SOL    HW210296   3.981   4.903   0.043
 3133SOL     OW10297   4.134   0.872   3.764
 3133SOL    HW110298   4.116   0.785   3.717
 3133SOL    HW210299   4.112   0.947   3.702
 3134SOL     OW10300   4.040   5.246   2.687
 3134SOL    HW110301   4.139   5.247   2.672
 3134SOL    HW210302   3.994   5.285   2.607
 3135SOL     OW10303   5.446   6.793   6.107
 3135SOL    HW110304   5.377   6.820   6.040
 3135SOL    HW210305   5.537   6.823   6.076
 3136SOL     OW10306   5.963   1.557   2.869
 3136SOL    HW110307   5.960   1.479   2.806
 3136SOL    HW210308   5.914   1.534   2.953
 3137SOL     OW10309   6.719   6.734   6.953
 3137SOL    HW110310   6.667   6.758   6.870
 3137SOL    HW210311   6.773   6.814   6.982
 3138SOL     OW10312   5.683   4.932   3.901
 3138SOL    HW110313   5.612   4.939   3.971
 3138SOL    HW210314   5.676   4.843   3.855
 3139SOL     OW10315   2.612   4.748   0.994
 3139SOL    HW110316   2.688   4.686   0.977
 3139SOL    HW210317   2.586   4.744   1.091
 3140SOL     OW10318   6.787   6.677   6.482
 3140SOL    HW110319   6.783   6.641   6.389
 3140SOL    HW210320   6.881   6.674   6.515
 3141SOL     OW10321   6.216   2.422   6.488
 3141SOL    HW110322   6.131   2.474   6.488
 3141SOL    HW210323   6.278   2.459   6.419
 3142SOL     OW10324   5.102   0.935   2.825
 3142SOL    HW110325   5.088   0.902   2.731
 3142SOL    HW210326   5.198   0.961   2.837
 3143SOL     OW10327   6.488   1.609   0.145
 3143SOL    HW110328   6.489   1.513   0.171
 3143SOL    HW210329   6.425   1.659   0.205
 3144SOL     OW10330   3.860   4.023   6.443
 3144SOL    HW110331   3.769   4.042   6.407
 3144SOL    HW210332   3.876   4.079   6.524
 3145SOL     OW10333   0.831   5.991   1.426
 3145SOL    HW110334   0.790   5.927   1.361
 3145SOL    HW210335   0.820   6.084   1.392
 3146SOL     OW10336   0.484   0.350   5.063
 3146SOL    HW110337   0.544   0.277   5.030
 3146SOL    HW210338   0.418   0.374   4.992
 3147SOL     OW10339   4.031   5.019   6.647
 3147SOL    HW110340   3.944   5.065   6.628
 3147SOL    HW210341   4.085   5.076   6.710
 3148SOL     OW10342   0.201   5.792   2.853
 3148SOL    HW110343   0.144   5.812   2.774
 3148SOL    HW210344   0.198   5.694   2.873
 3149SOL     OW10345   3.038   0.917   0.901
 3149SOL    HW110346   3.118   0.860   0.922
 3149SOL    HW210347   3.058   1.012   0.926
 3150SOL     OW10348   6.863   5.696   5.334
 3150SOL    HW110349   6.819   5.781   5.361
 3150SOL    HW210350   6.872   5.636   5.414
 3151SOL     OW10351   6.289   1.678   5.703
 3151SOL    HW110352   6.356   1.614   5.741
 3151SOL    HW210353   6.252   1.736   5.775
 3152SOL     OW10354   1.220   2.716   5.898
 3152SOL    HW110355   1.182   2.695   5.808
 3152SOL    HW210356   1.320   2.717   5.893
 3153SOL     OW10357   6.500   5.044   1.026
 3153SOL    HW110358   6.453   4.958   1.044
 3153SOL    HW210359   6.497   5.064   0.928
 3154SOL     OW10360   5.148   1.423   1.024
 3154SOL    HW110361   5.175   1.361   0.951
 3154SOL    HW210362   5.053   1.404   1.051
 3155SOL     OW10363   0.420   4.601   1.055
 3155SOL    HW110364   0.433   4.697   1.081
 3155SOL    HW210365   0.329   4.590   1.015
 3156SOL     OW10366   3.557   4.138   2.020
 3156SOL    HW110367   3.652   4.144   2.048
 3156SOL    HW210368   3.548   4.169   1.925
 3157SOL     OW10369   0.712   1.934   5.155
 3157SOL    HW110370   0.795   1.988   5.154
 3157SOL    HW210371   0.728   1.847   5.108
 3158SOL     OW10372   2.842   1.202   5.569
 3158SOL    HW110373   2.874   1.151   5.489
 3158SOL    HW210374   2.892   1.288   5.576
 3159SOL     OW10375   5.886   6.837   0.237
 3159SOL    HW110376   5.875   6.819   0.335
 3159SOL    HW210377   5.842   6.924   0.214
 3160SOL     OW10378   2.341   0.235   5.939
 3160SOL    HW110379   2.421   0.180   5.963
 3160SOL    HW210380   2.361   0.289   5.858
 3161SOL     OW10381   2.168   2.656   3.126
 3161SOL    HW110382   2.200   2.575   3.075
 3161SOL    HW210383   2.206   2.654   3.218
 3162SOL     OW10384   2.026   5.623   0.521
 3162SOL    HW110385   2.009   5.666   0.609
 3162SOL    HW210386   1.961   5.657   0.454
 3163SOL     OW10387   4.768   4.119   0.494
 3163SOL    HW110388   4.792   4.095   0.400
 3163SOL    HW210389   4.674   4.090   0.512
 3164SOL     OW10390   2.675   6.109   3.098
 3164SOL    HW110391   2.671   6.116   3.198
 3164SOL    HW210392   2.730   6.029   3.073
 3165SOL     OW10393   0.758   6.120   0.896
 3165SOL    HW110394   0.800   6.106   0.985
 3165SOL    HW210395   0.682   6.184   0.905
 3166SOL     OW10396   4.080   0.786   5.237
 3166SOL    HW110397   4.006   0.844   5.271
 3166SOL    HW210398   4.168   0.830   5.256
 3167SOL     OW10399   4.999   3.739   0.722
 3167SOL    HW110400   5.016   3.687   0.806
 3167SOL    HW210401   4.928   3.693   0.668
 3168SOL     OW10402   4.229   1.770   0.436
 3168SOL    HW110403   4.228   1.864   0.472
 3168SOL    HW210404   4.298   1.717   0.486
 3169SOL     OW10405   1.894   4.616   2.139
 3169SOL    HW110406   1.830   4.641   2.212
 3169SOL    HW210407   1.902   4.692   2.074
 3170SOL     OW10408   3.453   5.167   3.393
 3170SOL    HW110409   3.492   5.226   3.323
 3170SOL    HW210410   3.424   5.081   3.351
 3171SOL     OW10411   5.493   2.745   2.749
 3171SOL    HW110412   5.508   2.695   2.663
 3171SOL    HW210413   5.468   2.840   2.728
 3172SOL     OW10414   0.360   4.715   0.638
 3172SOL    HW110415   0.395   4.622   0.625
 3172SOL    HW210416   0.346   4.758   0.548
 3173SOL     OW10417   3.323   1.646   0.244
 3173SOL    HW110418   3.274   1.699   0.175
 3173SOL    HW210419   3.398   1.596   0.200
 3174SOL     OW10420   3.090   3.405   6.031
 3174SOL    HW110421   3.158   3.381   6.100
 3174SOL    HW210422   3.076   3.327   5.969
 3175SOL     OW10423   6.777   0.489   3.877
 3175SOL    HW110424   6.865   0.500   3.831
 3175SOL    HW210425   6.758   0.391   3.889
 3176SOL     OW10426   0.981   4.805   4.728
 3176SOL    HW110427   0.977   4.755   4.815
 3176SOL    HW210428   0.908   4.872   4.724
 3177SOL     OW10429   5.602   3.931   2.842
 3177SOL    HW110430   5.543   3.904   2.917
 3177SOL    HW210431   5.644   3.850   2.801
 3178SOL     OW10432   6.713   1.010   1.033
 3178SOL    HW110433   6.713   1.085   0.967
 3178SOL    HW210434   6.747   0.927   0.989
 3179SOL     OW10435   0.923   1.777   1.836
 3179SOL    HW110436   0.934   1.726   1.751
 3179SOL    HW210437   0.839   1.748   1.881
 3180SOL     OW10438   6.728   5.696   6.896
 3180SOL    HW110439   6.670   5.777   6.893
 3180SOL    HW210440   6.816   5.717   6.854
 3181SOL     OW10441   0.650   1.185   4.669
 3181SOL    HW110442   0.565   1.226   4.636
 3181SOL    HW210443   0.640   1.157   4.764
 3182SOL     OW10444   3.092   0.616   0.413
 3182SOL    HW110445   3.056   0.535   0.461
 3182SOL    HW210446   3.020   0.655   0.356
 3183SOL     OW10447   4.659   4.502   1.973
 3183SOL    HW110448   4.686   4.492   2.069
 3183SOL    HW210449   4.605   4.422   1.945
 3184SOL     OW10450   0.229   2.477   4.388
 3184SOL    HW110451   0.183   2.554   4.432
 3184SOL    HW210452   0.247   2.405   4.455
 3185SOL     OW10453   6.978   5.987   6.227
 3185SOL    HW110454   6.897   5.941   6.192
 3185SOL    HW210455   7.014   6.050   6.158
 3186SOL     OW10456   0.719   1.593   6.092
 3186SOL    HW110457   0.669   1.518   6.048
 3186SOL    HW210458   0.817   1.577   6.084
 3187SOL     OW10459   3.945   5.749   3.003
 3187SOL    HW110460   3.986   5.825   2.952
 3187SOL    HW210461   3.899   5.785   3.084
 3188SOL     OW10462   2.177   4.979   5.684
 3188SOL    HW110463   2.157   4.910   5.613
 3188SOL    HW210464   2.260   5.028   5.660
 3189SOL     OW10465   2.840   1.497   0.402
 3189SOL    HW110466   2.906   1.510   0.327
 3189SOL    HW210467   2.847   1.575   0.465
 3190SOL     OW10468   6.868   6.027   4.492
 3190SOL    HW110469   6.871   5.966   4.412
 3190SOL    HW210470   6.959   6.068   4.505
 3191SOL     OW10471   4.638   5.549   1.792
 3191SOL    HW110472   4.687   5.626   1.753
 3191SOL    HW210473   4.564   5.521   1.730
 3192SOL     OW10474   6.360   2.115   2.197
 3192SOL    HW110475   6.397   2.024   2.178
 3192SOL    HW210476   6.380   2.176   2.121
 3193SOL     OW10477   3.686   0.361   5.495
 3193SOL    HW110478   3.773   0.399   5.526
 3193SOL    HW210479   3.703   0.293   5.423
 3194SOL     OW10480   0.968   1.430   5.681
 3194SOL    HW110481   0.893   1.392   5.626
 3194SOL    HW210482   0.932   1.502   5.740
 3195SOL     OW10483   0.124   1.655   1.695
 3195SOL    HW110484   0.102   1.743   1.736
 3195SOL    HW210485   0.157   1.593   1.765
 3196SOL     OW10486   6.380   0.209   4.739
 3196SOL    HW110487   6.409   0.201   4.643
 3196SOL    HW210488   6.433   0.280   4.784
 3197SOL     OW10489   1.997   0.585   5.827
 3197SOL    HW110490   2.064   0.555   5.895
 3197SOL    HW210491   1.941   0.658   5.865
 3198SOL     OW10492   6.492   2.471   3.369
 3198SOL    HW110493   6.498   2.372   3.381
 3198SOL    HW210494   6.441   2.511   3.445
 3199SOL     OW10495   5.726   4.367   2.885
 3199SOL    HW110496   5.814   4.321   2.880
 3199SOL    HW210497   5.736   4.453   2.936
 3200SOL     OW10498   5.434   3.115   3.787
 3200SOL    HW110499   5.338   3.142   3.784
 3200SOL    HW210500   5.479   3.140   3.702
 3201SOL     OW10501   6.013   3.821   2.371
 3201SOL    HW110502   5.917   3.795   2.363
 3201SOL    HW210503   6.020   3.917   2.397
 3202SOL     OW10504   1.156   5.295   0.803
 3202SOL    HW110505   1.192   5.335   0.719
 3202SOL    HW210506   1.178   5.355   0.880
 3203SOL     OW10507   4.198   6.147   0.998
 3203SOL    HW110508   4.163   6.145   1.092
 3203SOL    HW210509   4.240   6.236   0.980
 3204SOL     OW10510   3.252   1.348   3.879
 3204SOL    HW110511   3.280   1.441   3.854
 3204SOL    HW210512   3.289   1.284   3.812
 3205SOL     OW10513   5.613   2.800   5.535
 3205SOL    HW110514   5.708   2.797   5.503
 3205SOL    HW210515   5.612   2.821   5.633
 3206SOL     OW10516   2.653   2.781   1.730
 3206SOL    HW110517   2.687   2.875   1.728
 3206SOL    HW210518   2.568   2.778   1.783
 3207SOL     OW10519   0.866   0.169   5.139
 3207SOL    HW110520   0.861   0.243   5.206
 3207SOL    HW210521   0.845   0.082   5.183
 3208SOL     OW10522   6.394   5.993   5.580
 3208SOL    HW110523   6.444   5.987   5.494
 3208SOL    HW210524   6.315   5.931   5.577
 3209SOL     OW10525   4.859   5.733   5.905
 3209SOL    HW110526   4.887   5.814   5.853
 3209SOL    HW210527   4.859   5.755   6.003
 3210SOL     OW10528   6.967   4.924   1.197
 3210SOL    HW110529   7.022   4.990   1.249
 3210SOL    HW210530   6.890   4.892   1.252
 3211SOL     OW10531   1.425   5.898   6.925
 3211SOL    HW110532   1.387   5.989   6.910
 3211SOL    HW210533   1.518   5.906   6.962
 3212SOL     OW10534   2.822   6.810   2.973
 3212SOL    HW110535   2.896   6.875   2.958
 3212SOL    HW210536   2.772   6.835   3.056
 3213SOL     OW10537   1.573   1.190   6.344
 3213SOL    HW110538   1.631   1.118   6.307
 3213SOL    HW210539   1.601   1.279   6.307
 3214SOL     OW10540   3.777   1.270   3.005
 3214SOL    HW110541   3.682   1.244   2.993
 3214SOL    HW210542   3.811   1.235   3.093
 3215SOL     OW10543   1.513   2.909   0.619
 3215SOL    HW110544   1.512   2.869   0.711
 3215SOL    HW210545   1.438   2.871   0.566
 3216SOL     OW10546   5.777   4.446   0.691
 3216SOL    HW110547   5.795   4.538   0.658
 3216SOL    HW210548   5.734   4.451   0.781
 3217SOL     OW10549   0.743   4.456   3.255
 3217SOL    HW110550   0.685   4.395   3.309
 3217SOL    HW210551   0.839   4.434   3.270
 3218SOL     OW10552   6.867   1.971   2.848
 3218SOL    HW110553   6.896   1.988   2.943
 3218SOL    HW210554   6.858   2.059   2.800
 3219SOL     OW10555   6.794   0.709   5.030
 3219SOL    HW110556   6.695   0.701   5.033
 3219SOL    HW210557   6.821   0.748   4.942
 3220SOL     OW10558   6.635   5.189   6.904
 3220SOL    HW110559   6.721   5.227   6.871
 3220SOL    HW210560   6.567   5.191   6.831
 3221SOL     OW10561   4.276   0.232   2.278
 3221SOL    HW110562   4.346   0.196   2.339
 3221SOL    HW210563   4.274   0.332   2.284
 3222SOL     OW10564   2.920   1.442   2.386
 3222SOL    HW110565   2.842   1.379   2.381
 3222SOL    HW210566   3.000   1.393   2.420
 3223SOL     OW10567   1.389   6.513   0.924
 3223SOL    HW110568   1.411   6.580   0.853
 3223SOL    HW210569   1.324   6.552   0.989
 3224SOL     OW10570   4.629   2.470   4.576
 3224SOL    HW110571   4.635   2.490   4.674
 3224SOL    HW210572   4.721   2.461   4.538
 3225SOL     OW10573   4.014   0.568   4.037
 3225SOL    HW110574   4.048   0.475   4.057
 3225SOL    HW210575   4.082   0.635   4.067
 3226SOL     OW10576   0.883   0.222   1.961
 3226SOL    HW110577   0.957   0.284   1.939
 3226SOL    HW210578   0.893   0.190   2.055
 3227SOL     OW10579   4.295   2.864   6.056
 3227SOL    HW110580   4.271   2.922   5.978
 3227SOL    HW210581   4.282   2.915   6.141
 3228SOL     OW10582   0.948   4.313   0.674
 3228SOL    HW110583   1.006   4.358   0.742
 3228SOL    HW210584   0.890   4.246   0.718
 3229SOL     OW10585   2.675   1.579   6.340
 3229SOL    HW110586   2.658   1.668   6.383
 3229SOL    HW210587   2.598   1.518   6.359
 3230SOL     OW10588   2.745   5.676   5.411
 3230SOL    HW110589   2.832   5.696   5.366
 3230SOL    HW210590   2.763   5.647   5.505
 3231SOL     OW10591   2.806   1.188   2.322
 3231SOL    HW110592   2.902   1.192   2.350
 3231SOL    HW210593   2.800   1.160   2.226
 3232SOL     OW10594   3.953   5.599   4.230
 3232SOL    HW110595   4.031   5.558   4.182
 3232SOL    HW210596   3.869   5.555   4.198
 3233SOL     OW10597   0.739   2.514   6.911
 3233SOL    HW110598   0.718   2.424   6.873
 3233SOL    HW210599   0.656   2.570   6.913
 3234SOL     OW10600   2.516   3.175   0.855
 3234SOL    HW110601   2.482   3.201   0.946
 3234SOL    HW210602   2.613   3.148   0.863
 3235SOL     OW10603   6.632   6.035   2.112
 3235SOL    HW110604   6.547   6.088   2.107
 3235SOL    HW210605   6.710   6.098   2.113
 3236SOL     OW10606   2.646   4.445   0.610
 3236SOL    HW110607   2.565   4.403   0.569
 3236SOL    HW210608   2.681   4.387   0.684
 3237SOL     OW10609   6.147   1.234   5.196
 3237SOL    HW110610   6.204   1.287   5.133
 3237SOL    HW210611   6.136   1.284   5.282
 3238SOL     OW10612   6.394   5.173   0.679
 3238SOL    HW110613   6.347   5.166   0.591
 3238SOL    HW210614   6.473   5.234   0.670
 3239SOL     OW10615   0.395   0.263   3.539
 3239SOL    HW110616   0.343   0.182   3.512
 3239SOL    HW210617   0.350   0.345   3.501
 3240SOL     OW10618   0.358   0.319   6.136
 3240SOL    HW110619   0.295   0.325   6.213
 3240SOL    HW210620   0.444   0.365   6.159
 3241SOL     OW10621   5.292   1.506   6.599
 3241SOL    HW110622   5.360   1.572   6.632
 3241SOL    HW210623   5.238   1.472   6.677
 3242SOL     OW10624   4.595   4.190   5.518
 3242SOL    HW110625   4.593   4.237   5.606
 3242SOL    HW210626   4.658   4.237   5.456
 3243SOL     OW10627   4.413   5.024   6.155
 3243SOL    HW110628   4.459   4.960   6.216
 3243SOL    HW210629   4.480   5.090   6.119
 3244SOL     OW10630   5.608   6.624   6.472
 3244SOL    HW110631   5.551   6.635   6.390
 3244SOL    HW210632   5.649   6.711   6.497
 3245SOL     OW10633   4.392   1.759   4.012
 3245SOL    HW110634   4.398   1.859   4.020
 3245SOL    HW210635   4.480   1.723   3.979
 3246SOL     OW10636   0.577   0.093   2.322
 3246SOL    HW110637   0.655   0.043   2.360
 3246SOL    HW210638   0.555   0.056   2.232
 3247SOL     OW10639   0.257   4.105   2.454
 3247SOL    HW110640   0.220   4.162   2.527
 3247SOL    HW210641   0.336   4.054   2.489
 3248SOL     OW10642   5.442   2.069   2.984
 3248SOL    HW110643   5.480   2.002   2.920
 3248SOL    HW210644   5.496   2.153   2.979
 3249SOL     OW10645   3.630   3.530   3.655
 3249SOL    HW110646   3.660   3.625   3.646
 3249SOL    HW210647   3.536   3.522   3.622
 3250SOL     OW10648   5.189   5.869   2.399
 3250SOL    HW110649   5.093   5.841   2.394
 3250SOL    HW210650   5.234   5.850   2.311
 3251SOL     OW10651   2.592   1.077   4.826
 3251SOL    HW110652   2.598   0.982   4.793
 3251SOL    HW210653   2.496   1.104   4.831
 3252SOL     OW10654   2.956   1.384   3.918
 3252SOL    HW110655   2.914   1.350   4.002
 3252SOL    HW210656   3.053   1.401   3.934
 3253SOL     OW10657   6.210   2.978   1.141
 3253SOL    HW110658   6.309   2.973   1.133
 3253SOL    HW210659   6.171   3.012   1.055
 3254SOL     OW10660   6.104   0.984   0.135
 3254SOL    HW110661   6.068   1.039   0.211
 3254SOL    HW210662   6.178   0.926   0.169
 3255SOL     OW10663   6.249   4.648   1.469
 3255SOL    HW110664   6.273   4.694   1.555
 3255SOL    HW210665   6.159   4.679   1.438
 3256SOL     OW10666   4.486   2.247   1.492
 3256SOL    HW110667   4.451   2.335   1.523
 3256SOL    HW210668   4.417   2.202   1.434
 3257SOL     OW10669   2.813   2.229   2.535
 3257SOL    HW110670   2.747   2.154   2.527
 3257SOL    HW210671   2.765   2.317   2.536
 3258SOL     OW10672   2.540   5.782   3.387
 3258SOL    HW110673   2.628   5.744   3.356
 3258SOL    HW210674   2.490   5.817   3.308
 3259SOL     OW10675   5.359   4.343   4.289
 3259SOL    HW110676   5.404   4.301   4.210
 3259SOL    HW210677   5.402   4.431   4.308
 3260SOL     OW10678   2.182   4.365   1.319
 3260SOL    HW110679   2.152   4.454   1.353
 3260SOL    HW210680   2.252   4.378   1.248
 3261SOL     OW10681   4.635   0.811   3.200
 3261SOL    HW110682   4.650   0.870   3.120
 3261SOL    HW210683   4.684   0.848   3.278
 3262SOL     OW10684   3.743   2.142   2.657
 3262SOL    HW110685   3.733   2.112   2.562
 3262SOL    HW210686   3.832   2.110   2.692
 3263SOL     OW10687   2.610   1.502   3.151
 3263SOL    HW110688   2.580   1.413   3.117
 3263SOL    HW210689   2.550   1.574   3.115
 3264SOL     OW10690   2.331   5.357   0.174
 3264SOL    HW110691   2.352   5.346   0.077
 3264SOL    HW210692   2.322   5.455   0.195
 3265SOL     OW10693   6.009   5.486   5.666
 3265SOL    HW110694   6.045   5.519   5.579
 3265SOL    HW210695   6.070   5.513   5.740
 3266SOL     OW10696   3.151   4.831   0.260
 3266SOL    HW110697   3.083   4.829   0.187
 3266SOL    HW210698   3.148   4.921   0.305
 3267SOL     OW10699   4.512   0.144   1.257
 3267SOL    HW110700   4.449   0.178   1.187
 3267SOL    HW210701   4.589   0.206   1.266
 3268SOL     OW10702   6.790   4.848   1.387
 3268SOL    HW110703   6.702   4.831   1.432
 3268SOL    HW210704   6.850   4.896   1.451
 3269SOL     OW10705   1.108   5.203   2.488
 3269SOL    HW110706   1.072   5.146   2.413
 3269SOL    HW210707   1.032   5.235   2.544
 3270SOL     OW10708   0.762   2.521   5.181
 3270SOL    HW110709   0.830   2.498   5.112
 3270SOL    HW210710   0.711   2.439   5.207
 3271SOL     OW10711   0.129   3.410   2.061
 3271SOL    HW110712   0.072   3.492   2.071
 3271SOL    HW210713   0.212   3.434   2.010
 3272SOL     OW10714   4.418   6.074   0.110
 3272SOL    HW110715   4.358   6.135   0.161
 3272SOL    HW210716   4.453   6.121   0.029
 3273SOL     OW10717   4.170   3.703   6.088
 3273SOL    HW110718   4.172   3.783   6.148
 3273SOL    HW210719   4.221   3.724   6.004
 3274SOL     OW10720   6.116   1.063   6.915
 3274SOL    HW110721   6.111   1.077   7.014
 3274SOL    HW210722   6.026   1.037   6.880
 3275SOL     OW10723   4.553   0.548   1.007
 3275SOL    HW110724   4.474   0.564   1.067
 3275SOL    HW210725   4.522   0.509   0.920
 3276SOL     OW10726   4.979   0.040   0.235
 3276SOL    HW110727   4.929   0.099   0.298
 3276SOL    HW210728   5.072   0.075   0.222
 3277SOL     OW10729   3.193   1.700   2.031
 3277SOL    HW110730   3.293   1.697   2.025
 3277SOL    HW210731   3.154   1.693   1.940
 3278SOL     OW10732   0.339   0.430   6.744
 3278SOL    HW110733   0.253   0.398   6.783
 3278SOL    HW210734   0.333   0.431   6.644
 3279SOL     OW10735   4.447   6.556   1.199
 3279SOL    HW110736   4.394   6.637   1.222
 3279SOL    HW210737   4.518   6.580   1.133
 3280SOL     OW10738   5.587   3.490   4.345
 3280SOL    HW110739   5.532   3.542   4.279
 3280SOL    HW210740   5.598   3.396   4.312
 3281SOL     OW10741   6.920   4.328   1.946
 3281SOL    HW110742   6.974   4.294   2.023
 3281SOL    HW210743   6.981   4.363   1.875
 3282SOL     OW10744   0.455   3.929   5.154
 3282SOL    HW110745   0.470   4.023   5.124
 3282SOL    HW210746   0.486   3.865   5.083
 3283SOL     OW10747   3.375   1.093   1.393
 3283SOL    HW110748   3.390   1.004   1.435
 3283SOL    HW210749   3.429   1.162   1.441
 3284SOL     OW10750   1.902   5.749   4.755
 3284SOL    HW110751   1.871   5.746   4.850
 3284SOL    HW210752   1.824   5.764   4.694
 3285SOL     OW10753   5.411   0.938   4.621
 3285SOL    HW110754   5.485   0.980   4.674
 3285SOL    HW210755   5.402   0.984   4.533
 3286SOL     OW10756   3.267   1.945   1.727
 3286SOL    HW110757   3.304   1.952   1.819
 3286SOL    HW210758   3.331   1.894   1.669
 3287SOL     OW10759   1.495   0.292   6.501
 3287SOL    HW110760   1.558   0.365   6.474
 3287SOL    HW210761   1.432   0.273   6.426
 3288SOL     OW10762   1.709   6.396   0.573
 3288SOL    HW110763   1.803   6.394   0.608
 3288SOL    HW210764   1.705   6.456   0.493
 3289SOL     OW10765   3.389   1.351   6.532
 3289SOL    HW110766   3.428   1.294   6.604
 3289SOL    HW210767   3.430   1.443   6.537
 3290SOL     OW10768   6.667   5.302   0.686
 3290SOL    HW110769   6.676   5.322   0.783
 3290SOL    HW210770   6.697   5.209   0.668
 3291SOL     OW10771   4.605   6.982   5.860
 3291SOL    HW110772   4.626   0.054   5.873
 3291SOL    HW210773   4.688   6.928   5.868
 3292SOL     OW10774   0.526   1.584   0.707
 3292SOL    HW110775   0.520   1.501   0.762
 3292SOL    HW210776   0.622   1.611   0.698
 3293SOL     OW10777   6.146   5.220   2.683
 3293SOL    HW110778   6.214   5.190   2.615
 3293SOL    HW210779   6.187   5.220   2.774
 3294SOL     OW10780   5.070   2.388   5.620
 3294SOL    HW110781   5.012   2.466   5.641
 3294SOL    HW210782   5.104   2.396   5.526
 3295SOL     OW10783   1.707   3.043   0.946
 3295SOL    HW110784   1.677   3.025   1.040
 3295SOL    HW210785   1.651   3.117   0.908
 3296SOL     OW10786   6.995   0.024   5.458
 3296SOL    HW110787   6.978   0.033   5.556
 3296SOL    HW210788   0.013   0.108   5.423
 3297SOL     OW10789   3.056   1.878   5.233
 3297SOL    HW110790   2.990   1.869   5.308
 3297SOL    HW210791   3.139   1.922   5.267
 3298SOL     OW10792   6.037   3.696   4.875
 3298SOL    HW110793   6.039   3.602   4.841
 3298SOL    HW210794   5.946   3.735   4.858
 3299SOL     OW10795   3.562   4.948   3.567
 3299SOL    HW110796   3.484   4.890   3.590
 3299SOL    HW210797   3.530   5.025   3.512
 3300SOL     OW10798   1.933   0.039   5.448
 3300SOL    HW110799   1.867   0.105   5.414
 3300SOL    HW210800   2.026   0.074   5.435
 3301SOL     OW10801   1.718   3.313   2.469
 3301SOL    HW110802   1.795   3.303   2.531
 3301SOL    HW210803   1.690   3.409   2.464
 3302SOL     OW10804   2.506   5.020   5.582
 3302SOL    HW110805   2.452   4.950   5.535
 3302SOL    HW210806   2.522   4.992   5.677
 3303SOL     OW10807   3.511   2.657   0.385
 3303SOL    HW110808   3.475   2.622   0.298
 3303SOL    HW210809   3.436   2.675   0.448
 3304SOL     OW10810   2.631   4.741   6.429
 3304SOL    HW110811   2.697   4.675   6.392
 3304SOL    HW210812   2.645   4.751   6.527
 3305SOL     OW10813   3.537   0.378   1.326
 3305SOL    HW110814   3.560   0.372   1.229
 3305SOL    HW210815   3.451   0.429   1.337
 3306SOL     OW10816   1.444   0.158   0.131
 3306SOL    HW110817   1.521   0.213   0.099
 3306SOL    HW210818   1.380   0.143   0.056
 3307SOL     OW10819   1.214   0.123   4.949
 3307SOL    HW110820   1.123   0.142   4.915
 3307SOL    HW210821   1.275   0.100   4.873
 3308SOL     OW10822   3.870   4.524   1.322
 3308SOL    HW110823   3.771   4.521   1.310
 3308SOL    HW210824   3.908   4.598   1.268
 3309SOL     OW10825   5.118   4.312   3.775
 3309SOL    HW110826   5.191   4.245   3.759
 3309SOL    HW210827   5.070   4.330   3.689
 3310SOL     OW10828   0.531   5.127   4.487
 3310SOL    HW110829   0.447   5.182   4.482
 3310SOL    HW210830   0.592   5.165   4.555
 3311SOL     OW10831   3.220   3.650   0.388
 3311SOL    HW110832   3.171   3.564   0.375
 3311SOL    HW210833   3.283   3.641   0.465
 3312SOL     OW10834   5.246   2.698   6.553
 3312SOL    HW110835   5.276   2.791   6.533
 3312SOL    HW210836   5.148   2.698   6.575
 3313SOL     OW10837   1.162   0.800   2.956
 3313SOL    HW110838   1.140   0.861   3.032
 3313SOL    HW210839   1.119   0.834   2.873
 3314SOL     OW10840   2.482   6.965   3.401
 3314SOL    HW110841   2.498   6.981   3.303
 3314SOL    HW210842   2.535   0.006   3.454
 3315SOL     OW10843   0.007   5.322   5.073
 3315SOL    HW110844   0.084   5.344   5.133
 3315SOL    HW210845   6.945   5.333   5.124
 3316SOL     OW10846   2.875   1.200   6.763
 3316SOL    HW110847   2.804   1.131   6.781
 3316SOL    HW210848   2.833   1.283   6.728
 3317SOL     OW10849   5.135   2.728   2.006
 3317SOL    HW110850   5.221   2.753   1.962
 3317SOL    HW210851   5.059   2.750   1.945
 3318SOL     OW10852   2.977   2.622   0.076
 3318SOL    HW110853   2.917   2.552   0.039
 3318SOL    HW210854   2.944   2.712   0.050
 3319SOL     OW10855   6.762   6.809   2.944
 3319SOL    HW110856   6.791   6.896   2.905
 3319SOL    HW210857   6.798   6.801   3.038
 3320SOL     OW10858   6.283   0.461   1.082
 3320SOL    HW110859   6.200   0.517   1.084
 3320SOL    HW210860   6.359   0.513   1.122
 3321SOL     OW10861   5.840   1.528   0.803
 3321SOL    HW110862   5.897   1.595   0.756
 3321SOL    HW210863   5.753   1.517   0.754
 3322SOL     OW10864   6.423   3.175   0.924
 3322SOL    HW110865   6.426   3.092   0.868
 3322SOL    HW210866   6.513   3.190   0.965
 3323SOL     OW10867   2.394   1.816   1.622
 3323SOL    HW110868   2.422   1.902   1.665
 3323SOL    HW210869   2.455   1.796   1.545
 3324SOL     OW10870   4.838   5.466   5.909
 3324SOL    HW110871   4.767   5.437   5.972
 3324SOL    HW210872   4.831   5.565   5.894
 3325SOL     OW10873   1.330   3.435   6.650
 3325SOL    HW110874   1.390   3.515   6.650
 3325SOL    HW210875   1.321   3.400   6.557
 3326SOL     OW10876   5.529   0.964   3.036
 3326SOL    HW110877   5.488   0.902   2.969
 3326SOL    HW210878   5.619   0.929   3.063
 3327SOL     OW10879   1.242   5.975   1.293
 3327SOL    HW110880   1.194   5.989   1.206
 3327SOL    HW210881   1.340   5.994   1.280
 3328SOL     OW10882   3.308   1.412   1.051
 3328SOL    HW110883   3.249   1.361   1.114
 3328SOL    HW210884   3.251   1.457   0.982
 3329SOL     OW10885   6.734   5.775   5.770
 3329SOL    HW110886   6.806   5.833   5.732
 3329SOL    HW210887   6.653   5.830   5.789
 3330SOL     OW10888   6.383   2.598   2.152
 3330SOL    HW110889   6.339   2.652   2.081
 3330SOL    HW210890   6.313   2.550   2.206
 3331SOL     OW10891   1.432   2.200   1.138
 3331SOL    HW110892   1.509   2.234   1.084
 3331SOL    HW210893   1.387   2.276   1.184
 3332SOL     OW10894   5.459   4.648   0.205
 3332SOL    HW110895   5.480   4.696   0.290
 3332SOL    HW210896   5.505   4.559   0.205
 3333SOL     OW10897   4.184   5.153   6.442
 3333SOL    HW110898   4.130   5.097   6.505
 3333SOL    HW210899   4.129   5.231   6.412
 3334SOL     OW10900   3.396   3.437   1.393
 3334SOL    HW110901   3.472   3.418   1.455
 3334SOL    HW210902   3.350   3.521   1.421
 3335SOL     OW10903   4.786   4.894   5.673
 3335SOL    HW110904   4.873   4.880   5.721
 3335SOL    HW210905   4.732   4.962   5.722
 3336SOL     OW10906   2.989   5.616   6.187
 3336SOL    HW110907   3.026   5.611   6.094
 3336SOL    HW210908   2.923   5.691   6.192
 3337SOL     OW10909   3.476   2.019   1.919
 3337SOL    HW110910   3.452   1.990   2.012
 3337SOL    HW210911   3.557   2.079   1.924
 3338SOL     OW10912   6.937   4.073   1.312
 3338SOL    HW110913   7.002   4.031   1.248
 3338SOL    HW210914   6.906   4.004   1.378
 3339SOL     OW10915   6.611   5.938   6.848
 3339SOL    HW110916   6.598   5.887   6.763
 3339SOL    HW210917   6.586   6.033   6.835
 3340SOL     OW10918   3.322   6.580   2.139
 3340SOL    HW110919   3.247   6.614   2.082
 3340SOL    HW210920   3.285   6.546   2.226
 3341SOL     OW10921   0.712   6.976   2.738
 3341SOL    HW110922   0.623   7.007   2.704
 3341SOL    HW210923   0.775   0.029   2.740
 3342SOL     OW10924   1.749   6.874   4.313
 3342SOL    HW110925   1.657   6.914   4.308
 3342SOL    HW210926   1.813   6.933   4.264
 3343SOL     OW10927   4.804   2.555   0.922
 3343SOL    HW110928   4.857   2.640   0.912
 3343SOL    HW210929   4.765   2.530   0.834
 3344SOL     OW10930   5.586   3.972   4.980
 3344SOL    HW110931   5.593   4.014   5.070
 3344SOL    HW210932   5.489   3.963   4.955
 3345SOL     OW10933   3.076   4.027   5.750
 3345SOL    HW110934   3.055   4.018   5.652
 3345SOL    HW210935   3.175   4.026   5.763
 3346SOL     OW10936   0.605   1.249   2.039
 3346SOL    HW110937   0.526   1.296   2.079
 3346SOL    HW210938   0.650   1.194   2.109
 3347SOL     OW10939   6.373   3.809   4.148
 3347SOL    HW110940   6.320   3.751   4.210
 3347SOL    HW210941   6.362   3.776   4.054
 3348SOL     OW10942   3.139   3.459   3.989
 3348SOL    HW110943   3.136   3.408   3.903
 3348SOL    HW210944   3.144   3.557   3.970
 3349SOL     OW10945   6.715   3.731   3.896
 3349SOL    HW110946   6.755   3.639   3.893
 3349SOL    HW210947   6.776   3.794   3.848
 3350SOL     OW10948   1.996   1.040   6.704
 3350SOL    HW110949   2.043   1.033   6.792
 3350SOL    HW210950   2.024   1.124   6.658
 3351SOL     OW10951   5.570   0.994   1.182
 3351SOL    HW110952   5.587   1.046   1.266
 3351SOL    HW210953   5.573   1.056   1.103
 3352SOL     OW10954   0.713   4.269   0.886
 3352SOL    HW110955   0.706   4.295   0.983
 3352SOL    HW210956   0.774   4.190   0.878
 3353SOL     OW10957   1.677   6.914   6.712
 3353SOL    HW110958   1.696   6.825   6.670
 3353SOL    HW210959   1.745   6.933   6.783
 3354SOL     OW10960   0.024   2.201   3.512
 3354SOL    HW110961   7.007   2.247   3.434
 3354SOL    HW210962   0.121   2.184   3.493
 3355SOL     OW10963   0.419   2.147   1.314
 3355SOL    HW110964   0.324   2.173   1.297
 3355SOL    HW210965   0.449   2.184   1.402
 3356SOL     OW10966   2.845   3.697   0.046
 3356SOL    HW110967   2.919   3.745   7.024
 3356SOL    HW210968   2.780   3.764   0.082
 3357SOL     OW10969   2.586   5.112   1.193
 3357SOL    HW110970   2.679   5.127   1.158
 3357SOL    HW210971   2.520   5.119   1.118
 3358SOL     OW10972   4.622   6.533   2.431
 3358SOL    HW110973   4.585   6.558   2.341
 3358SOL    HW210974   4.671   6.447   2.424
 3359SOL     OW10975   0.808   0.763   2.673
 3359SOL    HW110976   0.796   0.664   2.678
 3359SOL    HW210977   0.720   0.806   2.653
 3360SOL     OW10978   0.627   1.023   0.418
 3360SOL    HW110979   0.706   1.060   0.467
 3360SOL    HW210980   0.658   0.962   0.346
 3361SOL     OW10981   6.210   5.880   3.094
 3361SOL    HW110982   6.300   5.873   3.137
 3361SOL    HW210983   6.192   5.975   3.068
 3362SOL     OW10984   3.337   1.188   4.748
 3362SOL    HW110985   3.427   1.180   4.707
 3362SOL    HW210986   3.285   1.260   4.702
 3363SOL     OW10987   0.367   1.876   6.747
 3363SOL    HW110988   0.287   1.932   6.728
 3363SOL    HW210989   0.339   1.795   6.798
 3364SOL     OW10990   0.919   5.753   5.909
 3364SOL    HW110991   0.963   5.775   5.822
 3364SOL    HW210992   0.955   5.814   5.980
 3365SOL     OW10993   0.253   2.411   4.816
 3365SOL    HW110994   0.174   2.419   4.755
 3365SOL    HW210995   0.226   2.438   4.908
 3366SOL     OW10996   5.168   0.707   5.409
 3366SOL    HW110997   5.094   0.710   5.343
 3366SOL    HW210998   5.179   0.613   5.442
 3367SOL     OW10999   1.626   2.472   2.122
 3367SOL    HW111000   1.633   2.551   2.061
 3367SOL    HW211001   1.710   2.417   2.114
 3368SOL     OW11002   6.245   5.448   6.579
 3368SOL    HW111003   6.280   5.391   6.505
 3368SOL    HW211004   6.155   5.414   6.607
 3369SOL     OW11005   3.715   0.452   0.514
 3369SOL    HW111006   3.641   0.507   0.554
 3369SOL    HW211007   3.724   0.476   0.417
 3370SOL     OW11008   6.599   6.725   5.147
 3370SOL    HW111009   6.590   6.788   5.224
 3370SOL    HW211010   6.684   6.673   5.158
 3371SOL     OW11011   1.122   4.662   1.924
 3371SOL    HW111012   1.124   4.614   1.837
 3371SOL    HW211013   1.033   4.707   1.936
 3372SOL     OW11014   0.569   0.849   2.298
 3372SOL    HW111015   0.534   0.759   2.271
 3372SOL    HW211016   0.516   0.920   2.251
 3373SOL     OW11017   5.907   1.255   4.604
 3373SOL    HW111018   5.937   1.166   4.569
 3373SOL    HW211019   5.814   1.274   4.572
 3374SOL     OW11020   3.376   6.177   5.386
 3374SOL    HW111021   3.297   6.214   5.434
 3374SOL    HW211022   3.404   6.240   5.313
 3375SOL     OW11023   4.579   4.367   5.073
 3375SOL    HW111024   4.597   4.292   5.010
 3375SOL    HW211025   4.510   4.428   5.035
 3376SOL     OW11026   3.391   2.872   2.663
 3376SOL    HW111027   3.363   2.857   2.758
 3376SOL    HW211028   3.483   2.837   2.649
 3377SOL     OW11029   1.439   6.508   4.902
 3377SOL    HW111030   1.475   6.537   4.813
 3377SOL    HW211031   1.458   6.411   4.916
 3378SOL     OW11032   6.754   1.210   1.457
 3378SOL    HW111033   6.832   1.271   1.444
 3378SOL    HW211034   6.692   1.249   1.526
 3379SOL     OW11035   0.652   4.860   5.540
 3379SOL    HW111036   0.620   4.773   5.579
 3379SOL    HW211037   0.751   4.854   5.524
 3380SOL     OW11038   6.916   4.595   6.542
 3380SOL    HW111039   6.906   4.541   6.459
 3380SOL    HW211040   6.999   4.569   6.590
 3381SOL     OW11041   2.949   2.566   0.670
 3381SOL    HW111042   2.990   2.618   0.595
 3381SOL    HW211043   2.872   2.618   0.708
 3382SOL     OW11044   0.100   1.928   7.014
 3382SOL    HW111045   0.163   1.945   6.937
 3382SOL    HW211046   0.137   1.853   0.046
 3383SOL     OW11047   6.157   4.524   2.686
 3383SOL    HW111048   6.241   4.548   2.734
 3383SOL    HW211049   6.137   4.427   2.698
 3384SOL     OW11050   3.091   3.030   4.857
 3384SOL    HW111051   3.183   2.996   4.879
 3384SOL    HW211052   3.084   3.045   4.759
 3385SOL     OW11053   6.490   3.725   3.598
 3385SOL    HW111054   6.586   3.702   3.613
 3385SOL    HW211055   6.464   3.801   3.659
 3386SOL     OW11056   6.086   4.326   4.441
 3386SOL    HW111057   6.174   4.370   4.419
 3386SOL    HW211058   6.028   4.326   4.359
 3387SOL     OW11059   2.503   2.495   2.725
 3387SOL    HW111060   2.542   2.444   2.648
 3387SOL    HW211061   2.561   2.483   2.806
 3388SOL     OW11062   5.945   2.383   1.081
 3388SOL    HW111063   6.036   2.361   1.115
 3388SOL    HW211064   5.930   2.481   1.085
 3389SOL     OW11065   4.706   4.259   3.864
 3389SOL    HW111066   4.681   4.337   3.805
 3389SOL    HW211067   4.655   4.264   3.949
 3390SOL     OW11068   4.888   2.532   5.932
 3390SOL    HW111069   4.885   2.433   5.946
 3390SOL    HW211070   4.835   2.577   6.004
 3391SOL     OW11071   3.710   1.830   4.809
 3391SOL    HW111072   3.769   1.878   4.744
 3391SOL    HW211073   3.764   1.768   4.865
 3392SOL     OW11074   2.459   0.582   4.106
 3392SOL    HW111075   2.460   0.511   4.035
 3392SOL    HW211076   2.504   0.547   4.188
 3393SOL     OW11077   6.665   6.575   0.556
 3393SOL    HW111078   6.673   6.620   0.645
 3393SOL    HW211079   6.616   6.635   0.492
 3394SOL     OW11080   5.713   2.636   0.873
 3394SOL    HW111081   5.712   2.611   0.776
 3394SOL    HW211082   5.680   2.559   0.928
 3395SOL     OW11083   0.298   3.448   4.123
 3395SOL    HW111084   0.234   3.372   4.137
 3395SOL    HW211085   0.391   3.417   4.144
 3396SOL     OW11086   0.146   3.447   3.245
 3396SOL    HW111087   0.125   3.362   3.196
 3396SOL    HW211088   0.163   3.520   3.179
 3397SOL     OW11089   3.860   0.170   5.660
 3397SOL    HW111090   3.864   0.252   5.603
 3397SOL    HW211091   3.768   0.158   5.696
 3398SOL     OW11092   0.927   0.451   4.177
 3398SOL    HW111093   1.009   0.409   4.140
 3398SOL    HW211094   0.912   0.418   4.270
 3399SOL     OW11095   4.408   4.549   4.492
 3399SOL    HW111096   4.368   4.550   4.583
 3399SOL    HW211097   4.489   4.608   4.490
 3400SOL     OW11098   5.016   2.211   6.204
 3400SOL    HW111099   4.968   2.200   6.118
 3400SOL    HW211100   5.014   2.125   6.255
 3401SOL     OW11101   0.208   3.425   0.116
 3401SOL    HW111102   0.112   3.396   0.116
 3401SOL    HW211103   0.218   3.506   0.058
 3402SOL     OW11104   5.511   5.605   1.494
 3402SOL    HW111105   5.442   5.652   1.439
 3402SOL    HW211106   5.537   5.663   1.571
 3403SOL     OW11107   3.892   0.079   4.879
 3403SOL    HW111108   3.809   0.048   4.925
 3403SOL    HW211109   3.970   0.067   4.939
 3404SOL     OW11110   3.963   1.276   0.649
 3404SOL    HW111111   3.904   1.345   0.692
 3404SOL    HW211112   3.944   1.272   0.551
 3405SOL     OW11113   6.218   4.044   6.241
 3405SOL    HW111114   6.258   3.954   6.221
 3405SOL    HW211115   6.143   4.032   6.306
 3406SOL     OW11116   2.494   4.536   1.657
 3406SOL    HW111117   2.467   4.498   1.745
 3406SOL    HW211118   2.523   4.631   1.669
 3407SOL     OW11119   1.695   5.506   1.849
 3407SOL    HW111120   1.668   5.471   1.759
 3407SOL    HW211121   1.619   5.555   1.890
 3408SOL     OW11122   4.825   3.975   3.129
 3408SOL    HW111123   4.869   3.969   3.040
 3408SOL    HW211124   4.735   4.018   3.118
 3409SOL     OW11125   3.774   0.132   6.098
 3409SOL    HW111126   3.750   0.211   6.042
 3409SOL    HW211127   3.691   0.095   6.141
 3410SOL     OW11128   6.005   5.316   6.901
 3410SOL    HW111129   6.090   5.335   6.950
 3410SOL    HW211130   5.987   5.217   6.902
 3411SOL     OW11131   5.026   2.310   1.956
 3411SOL    HW111132   5.094   2.268   2.016
 3411SOL    HW211133   4.966   2.240   1.918
 3412SOL     OW11134   4.290   3.323   6.939
 3412SOL    HW111135   4.317   3.412   6.975
 3412SOL    HW211136   4.249   3.335   6.848
 3413SOL     OW11137   4.278   1.628   2.765
 3413SOL    HW111138   4.363   1.670   2.733
 3413SOL    HW211139   4.293   1.530   2.780
 3414SOL     OW11140   2.983   1.759   4.685
 3414SOL    HW111141   2.977   1.853   4.718
 3414SOL    HW211142   2.901   1.736   4.633
 3415SOL     OW11143   1.021   5.075   3.966
 3415SOL    HW111144   1.027   5.095   3.869
 3415SOL    HW211145   1.083   5.000   3.989
 3416SOL     OW11146   0.374   4.052   5.835
 3416SOL    HW111147   0.390   4.150   5.827
 3416SOL    HW211148   0.344   4.030   5.928
 3417SOL     OW11149   6.863   6.381   2.371
 3417SOL    HW111150   6.853   6.468   2.420
 3417SOL    HW211151   6.945   6.334   2.403
 3418SOL     OW11152   3.338   1.425   4.989
 3418SOL    HW111153   3.324   1.514   4.946
 3418SOL    HW211154   3.407   1.374   4.939
 3419SOL     OW11155   4.331   4.770   6.602
 3419SOL    HW111156   4.313   4.853   6.655
 3419SOL    HW211157   4.331   4.691   6.663
 3420SOL     OW11158   5.241   1.616   3.859
 3420SOL    HW111159   5.277   1.708   3.871
 3420SOL    HW211160   5.205   1.582   3.946
 3421SOL     OW11161   6.528   0.519   5.698
 3421SOL    HW111162   6.600   0.459   5.734
 3421SOL    HW211163   6.478   0.472   5.625
 3422SOL     OW11164   3.439   0.041   0.981
 3422SOL    HW111165   3.531   0.079   0.978
 3422SOL    HW211166   3.373   0.112   0.958
 3423SOL     OW11167   2.215   0.432   0.310
 3423SOL    HW111168   2.196   0.346   0.263
 3423SOL    HW211169   2.221   0.416   0.409
 3424SOL     OW11170   3.406   1.394   2.482
 3424SOL    HW111171   3.452   1.449   2.413
 3424SOL    HW211172   3.321   1.439   2.510
 3425SOL     OW11173   5.031   4.577   1.984
 3425SOL    HW111174   4.972   4.657   1.969
 3425SOL    HW211175   4.981   4.495   1.960
 3426SOL     OW11176   3.695   3.516   0.381
 3426SOL    HW111177   3.634   3.582   0.337
 3426SOL    HW211178   3.778   3.561   0.412
 3427SOL     OW11179   6.571   6.858   0.164
 3427SOL    HW111180   6.533   6.942   0.125
 3427SOL    HW211181   6.596   6.795   0.090
 3428SOL     OW11182   3.845   4.941   1.942
 3428SOL    HW111183   3.760   4.902   1.979
 3428SOL    HW211184   3.839   4.947   1.843
 3429SOL     OW11185   0.914   2.367   6.612
 3429SOL    HW111186   0.946   2.419   6.691
 3429SOL    HW211187   0.945   2.412   6.528
 3430SOL     OW11188   1.306   6.879   6.896
 3430SOL    HW111189   1.350   6.814   6.834
 3430SOL    HW211190   1.290   6.835   6.985
 3431SOL     OW11191   1.760   6.133   1.275
 3431SOL    HW111192   1.692   6.174   1.336
 3431SOL    HW211193   1.839   6.194   1.268
 3432SOL     OW11194   2.742   2.312   5.220
 3432SOL    HW111195   2.663   2.276   5.269
 3432SOL    HW211196   2.803   2.237   5.193
 3433SOL     OW11197   2.552   0.946   6.071
 3433SOL    HW111198   2.648   0.960   6.047
 3433SOL    HW211199   2.543   0.937   6.170
 3434SOL     OW11200   3.798   2.696   0.877
 3434SOL    HW111201   3.809   2.790   0.910
 3434SOL    HW211202   3.772   2.636   0.954
 3435SOL     OW11203   0.177   2.615   1.911
 3435SOL    HW111204   0.088   2.570   1.919
 3435SOL    HW211205   0.244   2.565   1.967
 3436SOL     OW11206   4.359   6.784   5.011
 3436SOL    HW111207   4.444   6.784   4.958
 3436SOL    HW211208   4.310   6.698   4.995
 3437SOL     OW11209   4.470   0.186   6.071
 3437SOL    HW111210   4.564   0.152   6.062
 3437SOL    HW211211   4.469   0.284   6.051
 3438SOL     OW11212   2.111   2.768   6.769
 3438SOL    HW111213   2.109   2.840   6.699
 3438SOL    HW211214   2.088   2.807   6.858
 3439SOL     OW11215   2.756   0.030   5.206
 3439SOL    HW111216   2.674   0.047   5.262
 3439SOL    HW211217   2.798   6.967   5.234
 3440SOL     OW11218   4.501   3.617   0.991
 3440SOL    HW111219   4.555   3.551   0.939
 3440SOL    HW211220   4.562   3.690   1.024
 3441SOL     OW11221   4.206   6.608   4.006
 3441SOL    HW111222   4.176   6.669   3.933
 3441SOL    HW211223   4.257   6.531   3.967
 3442SOL     OW11224   1.992   5.146   3.410
 3442SOL    HW111225   1.922   5.092   3.363
 3442SOL    HW211226   1.993   5.239   3.372
 3443SOL     OW11227   5.704   1.641   3.369
 3443SOL    HW111228   5.632   1.625   3.300
 3443SOL    HW211229   5.662   1.647   3.459
 3444SOL     OW11230   4.980   5.996   6.329
 3444SOL    HW111231   4.905   6.029   6.386
 3444SOL    HW211232   5.047   6.069   6.317
 3445SOL     OW11233   6.743   3.848   4.304
 3445SOL    HW111234   6.821   3.801   4.263
 3445SOL    HW211235   6.668   3.852   4.237
 3446SOL     OW11236   4.282   1.346   2.773
 3446SOL    HW111237   4.230   1.298   2.702
 3446SOL    HW211238   4.248   1.320   2.863
 3447SOL     OW11239   5.609   5.066   0.054
 3447SOL    HW111240   5.677   5.000   0.086
 3447SOL    HW211241   5.518   5.026   0.064
 3448SOL     OW11242   3.842   6.670   1.022
 3448SOL    HW111243   3.871   6.712   0.936
 3448SOL    HW211244   3.871   6.575   1.024
 3449SOL     OW11245   6.496   6.644   2.277
 3449SOL    HW111246   6.531   6.554   2.303
 3449SOL    HW211247   6.570   6.711   2.281
 3450SOL     OW11248   0.722   1.807   1.283
 3450SOL    HW111249   0.669   1.877   1.235
 3450SOL    HW211250   0.783   1.761   1.218
 3451SOL     OW11251   0.876   5.917   3.538
 3451SOL    HW111252   0.791   5.934   3.488
 3451SOL    HW211253   0.876   5.824   3.573
 3452SOL     OW11254   6.837   0.743   6.752
 3452SOL    HW111255   6.935   0.737   6.733
 3452SOL    HW211256   6.785   0.716   6.671
 3453SOL     OW11257   5.564   5.663   4.892
 3453SOL    HW111258   5.531   5.738   4.833
 3453SOL    HW211259   5.625   5.700   4.961
 3454SOL     OW11260   1.999   1.523   6.865
 3454SOL    HW111261   1.954   1.607   6.837
 3454SOL    HW211262   1.974   1.449   6.803
 3455SOL     OW11263   1.414   3.266   4.808
 3455SOL    HW111264   1.316   3.281   4.820
 3455SOL    HW211265   1.464   3.337   4.858
 3456SOL     OW11266   5.922   5.949   2.323
 3456SOL    HW111267   5.853   5.876   2.319
 3456SOL    HW211268   6.006   5.913   2.363
 3457SOL     OW11269   2.668   5.248   4.071
 3457SOL    HW111270   2.678   5.306   3.990
 3457SOL    HW211271   2.637   5.157   4.043
 3458SOL     OW11272   6.028   0.156   0.431
 3458SOL    HW111273   6.080   0.182   0.512
 3458SOL    HW211274   6.079   0.086   0.380
 3459SOL     OW11275   0.467   3.197   3.135
 3459SOL    HW111276   0.372   3.197   3.105
 3459SOL    HW211277   0.475   3.243   3.223
 3460SOL     OW11278   3.243   3.256   0.614
 3460SOL    HW111279   3.196   3.247   0.526
 3460SOL    HW211280   3.275   3.351   0.624
 3461SOL     OW11281   3.565   5.264   4.449
 3461SOL    HW111282   3.632   5.338   4.443
 3461SOL    HW211283   3.473   5.303   4.453
 3462SOL     OW11284   6.016   2.709   2.220
 3462SOL    HW111285   6.089   2.759   2.266
 3462SOL    HW211286   6.041   2.694   2.124
 3463SOL     OW11287   0.319   3.175   2.523
 3463SOL    HW111288   0.339   3.246   2.455
 3463SOL    HW211289   0.371   3.092   2.501
 3464SOL     OW11290   5.692   2.499   6.921
 3464SOL    HW111291   5.629   2.526   6.849
 3464SOL    HW211292   5.689   2.400   6.933
 3465SOL     OW11293   2.202   3.466   1.407
 3465SOL    HW111294   2.294   3.497   1.431
 3465SOL    HW211295   2.135   3.515   1.463
 3466SOL     OW11296   5.325   4.955   5.888
 3466SOL    HW111297   5.284   4.911   5.969
 3466SOL    HW211298   5.275   5.039   5.867
 3467SOL     OW11299   3.120   1.521   0.851
 3467SOL    HW111300   3.034   1.498   0.805
 3467SOL    HW211301   3.188   1.547   0.783
 3468SOL     OW11302   4.813   1.587   2.078
 3468SOL    HW111303   4.720   1.596   2.114
 3468SOL    HW211304   4.879   1.617   2.148
 3469SOL     OW11305   4.885   0.204   6.318
 3469SOL    HW111306   4.896   0.182   6.415
 3469SOL    HW211307   4.912   0.299   6.303
 3470SOL     OW11308   0.618   2.757   1.503
 3470SOL    HW111309   0.669   2.757   1.417
 3470SOL    HW211310   0.681   2.780   1.578
 3471SOL     OW11311   4.691   4.234   3.175
 3471SOL    HW111312   4.715   4.202   3.266
 3471SOL    HW211313   4.619   4.304   3.182
 3472SOL     OW11314   4.287   1.936   2.671
 3472SOL    HW111315   4.371   1.882   2.669
 3472SOL    HW211316   4.266   1.969   2.579
 3473SOL     OW11317   6.789   3.671   3.542
 3473SOL    HW111318   6.772   3.669   3.443
 3473SOL    HW211319   6.745   3.591   3.584
 3474SOL     OW11320   0.132   4.225   3.998
 3474SOL    HW111321   0.069   4.175   4.058
 3474SOL    HW211322   0.198   4.274   4.054
 3475SOL     OW11323   0.790   5.031   4.110
 3475SOL    HW111324   0.880   5.069   4.089
 3475SOL    HW211325   0.767   4.958   4.045
 3476SOL     OW11326   1.849   1.336   3.677
 3476SOL    HW111327   1.835   1.238   3.659
 3476SOL    HW211328   1.817   1.357   3.769
 3477SOL     OW11329   1.012   3.480   0.354
 3477SOL    HW111330   0.977   3.466   0.262
 3477SOL    HW211331   1.099   3.431   0.364
 3478SOL     OW11332   2.462   0.232   6.894
 3478SOL    HW111333   2.481   0.225   6.992
 3478SOL    HW211334   2.445   0.328   6.870
 3479SOL     OW11335   0.853   2.255   4.011
 3479SOL    HW111336   0.768   2.301   3.986
 3479SOL    HW211337   0.886   2.292   4.099
 3480SOL     OW11338   1.295   5.996   6.413
 3480SOL    HW111339   1.279   5.946   6.498
 3480SOL    HW211340   1.358   5.944   6.355
 3481SOL     OW11341   5.577   1.071   0.660
 3481SOL    HW111342   5.542   0.982   0.689
 3481SOL    HW211343   5.653   1.097   0.719
 3482SOL     OW11344   5.740   2.018   3.048
 3482SOL    HW111345   5.712   1.923   3.037
 3482SOL    HW211346   5.812   2.024   3.118
 3483SOL     OW11347   5.547   2.521   3.098
 3483SOL    HW111348   5.604   2.438   3.099
 3483SOL    HW211349   5.530   2.550   3.192
 3484SOL     OW11350   1.817   3.527   6.727
 3484SOL    HW111351   1.872   3.567   6.800
 3484SOL    HW211352   1.726   3.570   6.726
 3485SOL     OW11353   0.210   2.587   5.375
 3485SOL    HW111354   0.225   2.489   5.363
 3485SOL    HW211355   0.117   2.603   5.408
 3486SOL     OW11356   2.218   0.327   4.135
 3486SOL    HW111357   2.140   0.375   4.096
 3486SOL    HW211358   2.247   0.254   4.074
 3487SOL     OW11359   6.531   2.185   6.728
 3487SOL    HW111360   6.530   2.103   6.785
 3487SOL    HW211361   6.585   2.256   6.773
 3488SOL     OW11362   5.698   0.554   4.930
 3488SOL    HW111363   5.685   0.542   5.029
 3488SOL    HW211364   5.789   0.523   4.905
 3489SOL     OW11365   3.365   6.609   1.181
 3489SOL    HW111366   3.420   6.693   1.181
 3489SOL    HW211367   3.271   6.631   1.204
 3490SOL     OW11368   3.888   4.869   1.424
 3490SOL    HW111369   3.790   4.888   1.433
 3490SOL    HW211370   3.933   4.946   1.379
 3491SOL     OW11371   4.458   4.086   6.389
 3491SOL    HW111372   4.496   4.159   6.332
 3491SOL    HW211373   4.507   4.001   6.370
 3492SOL     OW11374   6.648   3.976   1.221
 3492SOL    HW111375   6.642   3.890   1.170
 3492SOL    HW211376   6.694   4.044   1.164
 3493SOL     OW11377   6.465   4.192   3.819
 3493SOL    HW111378   6.425   4.262   3.879
 3493SOL    HW211379   6.397   4.165   3.751
 3494SOL     OW11380   3.151   1.279   1.867
 3494SOL    HW111381   3.165   1.262   1.770
 3494SOL    HW211382   3.055   1.301   1.885
 3495SOL     OW11383   0.608   3.792   2.280
 3495SOL    HW111384   0.653   3.704   2.264
 3495SOL    HW211385   0.666   3.865   2.245
 3496SOL     OW11386   5.698   4.868   1.175
 3496SOL    HW111387   5.774   4.804   1.185
 3496SOL    HW211388   5.664   4.865   1.081
 3497SOL     OW11389   3.386   1.266   3.632
 3497SOL    HW111390   3.424   1.242   3.542
 3497SOL    HW211391   3.449   1.326   3.680
 3498SOL     OW11392   2.946   1.527   2.136
 3498SOL    HW111393   2.932   1.504   2.233
 3498SOL    HW211394   3.012   1.601   2.129
 3499SOL     OW11395   6.325   5.809   4.912
 3499SOL    HW111396   6.334   5.714   4.943
 3499SOL    HW211397   6.376   5.821   4.828
 3500SOL     OW11398   1.998   2.860   4.303
 3500SOL    HW111399   1.974   2.840   4.208
 3500SOL    HW211400   2.098   2.860   4.313
 3501SOL     OW11401   2.516   6.830   6.068
 3501SOL    HW111402   2.449   6.775   6.118
 3501SOL    HW211403   2.566   6.772   6.003
 3502SOL     OW11404   6.037   3.369   1.431
 3502SOL    HW111405   6.021   3.422   1.514
 3502SOL    HW211406   6.022   3.272   1.450
 3503SOL     OW11407   6.855   6.294   5.921
 3503SOL    HW111408   6.839   6.335   5.831
 3503SOL    HW211409   6.932   6.338   5.965
 3504SOL     OW11410   1.947   0.885   2.392
 3504SOL    HW111411   2.022   0.931   2.345
 3504SOL    HW211412   1.891   0.953   2.440
 3505SOL     OW11413   6.031   5.533   5.364
 3505SOL    HW111414   6.130   5.542   5.373
 3505SOL    HW211415   5.994   5.613   5.317
 3506SOL     OW11416   5.710   4.629   4.926
 3506SOL    HW111417   5.752   4.595   5.010
 3506SOL    HW211418   5.671   4.720   4.943
 3507SOL     OW11419   2.308   6.540   0.369
 3507SOL    HW111420   2.323   6.486   0.453
 3507SOL    HW211421   2.388   6.533   0.310
 3508SOL     OW11422   3.149   2.450   6.682
 3508SOL    HW111423   3.104   2.538   6.695
 3508SOL    HW211424   3.205   2.452   6.600
 3509SOL     OW11425   5.516   6.528   0.130
 3509SOL    HW111426   5.506   6.625   0.107
 3509SOL    HW211427   5.473   6.473   0.058
 3510SOL     OW11428   1.740   0.626   1.204
 3510SOL    HW111429   1.679   0.564   1.254
 3510SOL    HW211430   1.801   0.672   1.269
 3511SOL     OW11431   1.863   4.327   1.501
 3511SOL    HW111432   1.782   4.339   1.558
 3511SOL    HW211433   1.864   4.233   1.465
 3512SOL     OW11434   1.281   3.304   0.599
 3512SOL    HW111435   1.216   3.258   0.660
 3512SOL    HW211436   1.281   3.258   0.510
 3513SOL     OW11437   5.790   2.037   1.420
 3513SOL    HW111438   5.850   2.103   1.464
 3513SOL    HW211439   5.728   1.997   1.489
 3514SOL     OW11440   5.655   0.436   2.396
 3514SOL    HW111441   5.595   0.505   2.356
 3514SOL    HW211442   5.679   0.463   2.489
 3515SOL     OW11443   5.208   6.195   4.205
 3515SOL    HW111444   5.145   6.189   4.282
 3515SOL    HW211445   5.184   6.275   4.149
 3516SOL     OW11446   5.301   6.372   1.166
 3516SOL    HW111447   5.246   6.399   1.086
 3516SOL    HW211448   5.276   6.280   1.193
 3517SOL     OW11449   0.468   1.490   1.790
 3517SOL    HW111450   0.512   1.545   1.719
 3517SOL    HW211451   0.449   1.399   1.754
 3518SOL     OW11452   5.090   1.903   5.148
 3518SOL    HW111453   5.147   1.952   5.082
 3518SOL    HW211454   5.047   1.968   5.210
 3519SOL     OW11455   2.115   1.037   6.184
 3519SOL    HW111456   2.038   1.073   6.236
 3519SOL    HW211457   2.082   0.994   6.100
 3520SOL     OW11458   3.288   6.811   0.224
 3520SOL    HW111459   3.220   6.833   0.294
 3520SOL    HW211460   3.379   6.832   0.259
 3521SOL     OW11461   3.827   2.956   6.547
 3521SOL    HW111462   3.781   2.892   6.609
 3521SOL    HW211463   3.824   2.919   6.454
 3522SOL     OW11464   6.223   5.011   6.707
 3522SOL    HW111465   6.158   4.957   6.760
 3522SOL    HW211466   6.189   5.021   6.613
 3523SOL     OW11467   1.235   4.520   5.380
 3523SOL    HW111468   1.326   4.560   5.373
 3523SOL    HW211469   1.243   4.422   5.402
 3524SOL     OW11470   4.990   2.136   2.327
 3524SOL    HW111471   5.031   2.161   2.415
 3524SOL    HW211472   4.893   2.115   2.341
 3525SOL     OW11473   6.005   3.250   4.382
 3525SOL    HW111474   5.907   3.265   4.372
 3525SOL    HW211475   6.053   3.337   4.381
 3526SOL     OW11476   2.089   6.707   3.300
 3526SOL    HW111477   2.044   6.777   3.357
 3526SOL    HW211478   2.184   6.696   3.330
 3527SOL     OW11479   5.737   3.306   6.390
 3527SOL    HW111480   5.646   3.268   6.407
 3527SOL    HW211481   5.792   3.240   6.338
 3528SOL     OW11482   2.308   5.968   4.858
 3528SOL    HW111483   2.237   5.913   4.902
 3528SOL    HW211484   2.302   5.957   4.759
 3529SOL     OW11485   3.970   6.674   0.363
 3529SOL    HW111486   3.905   6.609   0.326
 3529SOL    HW211487   4.063   6.640   0.347
 3530SOL     OW11488   6.964   4.973   1.542
 3530SOL    HW111489   6.915   5.058   1.560
 3530SOL    HW211490   0.038   4.989   1.551
 3531SOL     OW11491   5.928   2.670   1.226
 3531SOL    HW111492   5.990   2.739   1.263
 3531SOL    HW211493   5.871   2.633   1.300
 3532SOL     OW11494   2.626   1.191   1.706
 3532SOL    HW111495   2.723   1.168   1.695
 3532SOL    HW211496   2.616   1.290   1.713
 3533SOL     OW11497   0.698   1.369   2.576
 3533SOL    HW111498   0.638   1.308   2.628
 3533SOL    HW211499   0.751   1.425   2.640
 3534SOL     OW11500   0.878   2.166   1.913
 3534SOL    HW111501   0.798   2.119   1.874
 3534SOL    HW211502   0.909   2.237   1.849
 3535SOL     OW11503   1.817   5.524   5.746
 3535SOL    HW111504   1.899   5.539   5.691
 3535SOL    HW211505   1.813   5.428   5.773
 3536SOL     OW11506   3.013   2.140   3.572
 3536SOL    HW111507   2.970   2.169   3.658
 3536SOL    HW211508   3.094   2.195   3.554
 3537SOL     OW11509   1.992   5.458   1.851
 3537SOL    HW111510   1.894   5.474   1.862
 3537SOL    HW211511   2.026   5.515   1.776
 3538SOL     OW11512   2.635   5.436   5.701
 3538SOL    HW111513   2.615   5.424   5.604
 3538SOL    HW211514   2.561   5.397   5.756
 3539SOL     OW11515   3.427   3.332   4.433
 3539SOL    HW111516   3.470   3.242   4.430
 3539SOL    HW211517   3.366   3.343   4.354
 3540SOL     OW11518   2.037   2.307   4.718
 3540SOL    HW111519   2.066   2.291   4.813
 3540SOL    HW211520   1.940   2.286   4.709
 3541SOL     OW11521   2.835   2.779   5.943
 3541SOL    HW111522   2.916   2.763   6.000
 3541SOL    HW211523   2.846   2.730   5.857
 3542SOL     OW11524   1.061   5.008   2.893
 3542SOL    HW111525   1.156   5.035   2.878
 3542SOL    HW211526   1.004   5.090   2.903
 3543SOL     OW11527   6.246   2.679   3.121
 3543SOL    HW111528   6.180   2.745   3.085
 3543SOL    HW211529   6.277   2.709   3.211
 3544SOL     OW11530   2.157   4.252   6.592
 3544SOL    HW111531   2.151   4.225   6.496
 3544SOL    HW211532   2.082   4.211   6.644
 3545SOL     OW11533   3.848   6.423   6.712
 3545SOL    HW111534   3.809   6.435   6.621
 3545SOL    HW211535   3.878   6.512   6.746
 3546SOL     OW11536   0.508   4.329   3.367
 3546SOL    HW111537   0.500   4.417   3.413
 3546SOL    HW211538   0.466   4.258   3.423
 3547SOL     OW11539   4.620   4.771   3.771
 3547SOL    HW111540   4.547   4.837   3.786
 3547SOL    HW211541   4.706   4.808   3.808
 3548SOL     OW11542   4.875   1.649   6.050
 3548SOL    HW111543   4.874   1.654   6.150
 3548SOL    HW211544   4.967   1.664   6.017
 3549SOL     OW11545   6.770   4.882   4.700
 3549SOL    HW111546   6.759   4.976   4.669
 3549SOL    HW211547   6.864   4.852   4.682
 3550SOL     OW11548   5.089   2.960   2.581
 3550SOL    HW111549   4.992   2.984   2.579
 3550SOL    HW211550   5.118   2.943   2.675
 3551SOL     OW11551   3.776   6.125   3.137
 3551SOL    HW111552   3.746   6.057   3.070
 3551SOL    HW211553   3.697   6.176   3.171
 3552SOL     OW11554   4.736   6.254   2.468
 3552SOL    HW111555   4.754   6.238   2.371
 3552SOL    HW211556   4.649   6.212   2.493
 3553SOL     OW11557   5.815   3.256   1.290
 3553SOL    HW111558   5.885   3.306   1.341
 3553SOL    HW211559   5.726   3.300   1.304
 3554SOL     OW11560   3.692   3.252   0.465
 3554SOL    HW111561   3.640   3.246   0.550
 3554SOL    HW211562   3.689   3.347   0.431
 3555SOL     OW11563   0.686   3.002   2.692
 3555SOL    HW111564   0.656   3.078   2.750
 3555SOL    HW211565   0.616   2.982   2.624
 3556SOL     OW11566   3.800   0.546   5.238
 3556SOL    HW111567   3.870   0.476   5.241
 3556SOL    HW211568   3.760   0.549   5.146
 3557SOL     OW11569   0.696   0.463   4.040
 3557SOL    HW111570   0.785   0.466   4.084
 3557SOL    HW211571   0.681   0.372   4.001
 3558SOL     OW11572   6.970   5.591   1.987
 3558SOL    HW111573   7.002   5.532   1.914
 3558SOL    HW211574   0.024   5.626   2.039
 3559SOL     OW11575   0.466   0.061   4.422
 3559SOL    HW111576   0.379   0.013   4.416
 3559SOL    HW211577   0.539   0.002   4.391
 3560SOL     OW11578   1.490   5.898   1.186
 3560SOL    HW111579   1.535   5.971   1.134
 3560SOL    HW211580   1.489   5.814   1.131
 3561SOL     OW11581   5.000   5.118   5.741
 3561SOL    HW111582   5.071   5.146   5.676
 3561SOL    HW211583   4.923   5.181   5.734
 3562SOL     OW11584   4.702   0.635   4.503
 3562SOL    HW111585   4.698   0.713   4.565
 3562SOL    HW211586   4.615   0.586   4.505
 3563SOL     OW11587   5.263   0.886   1.834
 3563SOL    HW111588   5.258   0.981   1.803
 3563SOL    HW211589   5.304   0.884   1.925
 3564SOL     OW11590   1.416   4.529   3.994
 3564SOL    HW111591   1.412   4.473   3.912
 3564SOL    HW211592   1.325   4.566   4.013
 3565SOL     OW11593   3.497   6.700   5.055
 3565SOL    HW111594   3.527   6.625   4.996
 3565SOL    HW211595   3.575   6.759   5.077
 3566SOL     OW11596   6.958   3.128   5.653
 3566SOL    HW111597   6.943   3.055   5.587
 3566SOL    HW211598   6.914   3.212   5.622
 3567SOL     OW11599   1.648   2.067   0.500
 3567SOL    HW111600   1.721   2.134   0.489
 3567SOL    HW211601   1.675   1.981   0.457
 3568SOL     OW11602   5.417   5.111   2.594
 3568SOL    HW111603   5.344   5.061   2.548
 3568SOL    HW211604   5.377   5.179   2.656
 3569SOL     OW11605   2.982   3.266   5.267
 3569SOL    HW111606   3.047   3.190   5.267
 3569SOL    HW211607   2.947   3.280   5.174
 3570SOL     OW11608   5.496   0.910   5.487
 3570SOL    HW111609   5.418   0.934   5.429
 3570SOL    HW211610   5.475   0.933   5.582
 3571SOL     OW11611   1.843   0.697   4.927
 3571SOL    HW111612   1.789   0.645   4.861
 3571SOL    HW211613   1.813   0.674   5.020
 3572SOL     OW11614   5.159   3.717   2.481
 3572SOL    HW111615   5.174   3.661   2.399
 3572SOL    HW211616   5.069   3.698   2.518
 3573SOL     OW11617   0.069   4.577   2.423
 3573SOL    HW111618   0.168   4.585   2.414
 3573SOL    HW211619   0.046   4.489   2.466
 3574SOL     OW11620   2.274   3.097   6.395
 3574SOL    HW111621   2.264   3.181   6.342
 3574SOL    HW211622   2.301   3.022   6.334
 3575SOL     OW11623   5.060   5.575   0.935
 3575SOL    HW111624   5.064   5.589   0.836
 3575SOL    HW211625   5.152   5.581   0.973
 3576SOL     OW11626   0.381   2.507   0.138
 3576SOL    HW111627   0.419   2.503   0.230
 3576SOL    HW211628   0.346   2.600   0.120
 3577SOL     OW11629   2.390   3.305   5.512
 3577SOL    HW111630   2.487   3.306   5.537
 3577SOL    HW211631   2.367   3.216   5.474
 3578SOL     OW11632   3.912   3.274   1.098
 3578SOL    HW111633   3.856   3.349   1.131
 3578SOL    HW211634   3.896   3.193   1.154
 3579SOL     OW11635   0.152   2.964   2.625
 3579SOL    HW111636   0.217   2.888   2.616
 3579SOL    HW211637   0.195   3.048   2.592
 3580SOL     OW11638   0.101   3.336   1.602
 3580SOL    HW111639   0.153   3.254   1.626
 3580SOL    HW211640   0.142   3.415   1.647
 3581SOL     OW11641   0.818   6.664   3.274
 3581SOL    HW111642   0.821   6.622   3.364
 3581SOL    HW211643   0.911   6.680   3.241
 3582SOL     OW11644   3.305   5.077   5.798
 3582SOL    HW111645   3.354   5.029   5.726
 3582SOL    HW211646   3.266   5.011   5.862
 3583SOL     OW11647   0.536   4.076   0.694
 3583SOL    HW111648   0.598   4.114   0.763
 3583SOL    HW211649   0.517   3.980   0.714
 3584SOL     OW11650   6.078   4.531   5.540
 3584SOL    HW111651   5.987   4.561   5.512
 3584SOL    HW211652   6.083   4.529   5.640
 3585SOL     OW11653   2.971   2.026   4.737
 3585SOL    HW111654   3.062   2.053   4.767
 3585SOL    HW211655   2.908   2.102   4.750
 3586SOL     OW11656   6.253   3.145   4.072
 3586SOL    HW111657   6.232   3.239   4.045
 3586SOL    HW211658   6.255   3.086   3.991
 3587SOL     OW11659   3.471   6.029   6.720
 3587SOL    HW111660   3.434   5.939   6.696
 3587SOL    HW211661   3.537   6.057   6.650
 3588SOL     OW11662   6.261   4.585   3.962
 3588SOL    HW111663   6.207   4.502   3.944
 3588SOL    HW211664   6.208   4.647   4.019
 3589SOL     OW11665   0.238   0.098   6.067
 3589SOL    HW111666   0.304   0.039   6.021
 3589SOL    HW211667   0.284   0.181   6.100
 3590SOL     OW11668   0.250   4.146   0.575
 3590SOL    HW111669   0.344   4.134   0.606
 3590SOL    HW211670   0.250   4.188   0.484
 3591SOL     OW11671   6.133   2.475   0.282
 3591SOL    HW111672   6.049   2.429   0.312
 3591SOL    HW211673   6.205   2.461   0.349
 3592SOL     OW11674   1.114   0.533   2.269
 3592SOL    HW111675   1.187   0.494   2.213
 3592SOL    HW211676   1.155   0.591   2.340
 3593SOL     OW11677   0.150   4.723   5.639
 3593SOL    HW111678   0.095   4.688   5.563
 3593SOL    HW211679   0.197   4.807   5.610
 3594SOL     OW11680   4.294   5.985   5.135
 3594SOL    HW111681   4.240   6.054   5.088
 3594SOL    HW211682   4.381   6.025   5.164
 3595SOL     OW11683   6.345   6.113   7.015
 3595SOL    HW111684   6.359   6.014   7.020
 3595SOL    HW211685   6.272   6.140   0.054
 3596SOL     OW11686   4.515   2.010   3.054
 3596SOL    HW111687   4.443   2.041   2.991
 3596SOL    HW211688   4.541   2.086   3.114
 3597SOL     OW11689   2.127   3.388   5.475
 3597SOL    HW111690   2.225   3.377   5.494
 3597SOL    HW211691   2.089   3.300   5.445
 3598SOL     OW11692   1.701   6.506   5.805
 3598SOL    HW111693   1.628   6.544   5.862
 3598SOL    HW211694   1.671   6.418   5.768
 3599SOL     OW11695   4.572   1.555   6.421
 3599SOL    HW111696   4.561   1.457   6.407
 3599SOL    HW211697   4.523   1.583   6.504
 3600SOL     OW11698   2.259   3.159   0.756
 3600SOL    HW111699   2.354   3.186   0.770
 3600SOL    HW211700   2.200   3.239   0.768
 3601SOL     OW11701   4.821   1.010   5.779
 3601SOL    HW111702   4.879   1.091   5.791
 3601SOL    HW211703   4.875   0.928   5.797
 3602SOL     OW11704   1.926   2.833   1.531
 3602SOL    HW111705   1.961   2.786   1.450
 3602SOL    HW211706   2.002   2.868   1.585
 3603SOL     OW11707   2.988   0.953   6.459
 3603SOL    HW111708   3.032   1.038   6.430
 3603SOL    HW211709   2.919   0.926   6.391
 3604SOL     OW11710   6.642   0.853   3.473
 3604SOL    HW111711   6.708   0.902   3.531
 3604SOL    HW211712   6.655   0.754   3.484
 3605SOL     OW11713   1.416   5.359   3.652
 3605SOL    HW111714   1.502   5.382   3.698
 3605SOL    HW211715   1.345   5.424   3.679
 3606SOL     OW11716   1.378   6.275   1.208
 3606SOL    HW111717   1.288   6.231   1.207
 3606SOL    HW211718   1.411   6.281   1.302
 3607SOL     OW11719   5.472   2.703   2.299
 3607SOL    HW111720   5.503   2.657   2.382
 3607SOL    HW211721   5.436   2.793   2.323
 3608SOL     OW11722   5.092   1.958   4.005
 3608SOL    HW111723   5.095   1.917   4.096
 3608SOL    HW211724   4.998   1.985   3.982
 3609SOL     OW11725   2.233   6.097   4.486
 3609SOL    HW111726   2.258   6.011   4.532
 3609SOL    HW211727   2.203   6.164   4.554
 3610SOL     OW11728   1.750   0.202   5.381
 3610SOL    HW111729   1.656   0.235   5.392
 3610SOL    HW211730   1.797   0.257   5.312
 3611SOL     OW11731   4.634   4.400   4.678
 3611SOL    HW111732   4.694   4.477   4.655
 3611SOL    HW211733   4.595   4.362   4.594
 3612SOL     OW11734   6.511   1.592   6.667
 3612SOL    HW111735   6.550   1.666   6.612
 3612SOL    HW211736   6.567   1.510   6.655
 3613SOL     OW11737   4.051   5.366   1.356
 3613SOL    HW111738   4.003   5.453   1.350
 3613SOL    HW211739   4.096   5.359   1.445
 3614SOL     OW11740   3.687   3.786   6.937
 3614SOL    HW111741   3.761   3.831   6.986
 3614SOL    HW211742   3.712   3.775   6.841
 3615SOL     OW11743   5.777   3.079   5.838
 3615SOL    HW111744   5.735   3.152   5.785
 3615SOL    HW211745   5.719   2.997   5.833
 3616SOL     OW11746   1.878   1.964   6.295
 3616SOL    HW111747   1.969   2.003   6.280
 3616SOL    HW211748   1.816   1.996   6.224
 3617SOL     OW11749   4.281   6.970   5.940
 3617SOL    HW111750   4.377   6.996   5.930
 3617SOL    HW211751   4.224   0.003   5.881
 3618SOL     OW11752   2.093   3.614   4.896
 3618SOL    HW111753   1.998   3.597   4.919
 3618SOL    HW211754   2.099   3.692   4.834
 3619SOL     OW11755   5.955   3.107   0.599
 3619SOL    HW111756   5.920   3.022   0.638
 3619SOL    HW211757   6.047   3.093   0.564
 3620SOL     OW11758   6.132   6.344   4.458
 3620SOL    HW111759   6.176   6.376   4.543
 3620SOL    HW211760   6.184   6.267   4.421
 3621SOL     OW11761   3.464   3.125   3.881
 3621SOL    HW111762   3.543   3.070   3.907
 3621SOL    HW211763   3.389   3.109   3.946
 3622SOL     OW11764   0.563   0.597   1.295
 3622SOL    HW111765   0.596   0.589   1.201
 3622SOL    HW211766   0.625   0.550   1.357
 3623SOL     OW11767   0.678   5.596   6.430
 3623SOL    HW111768   0.623   5.680   6.430
 3623SOL    HW211769   0.700   5.571   6.336
 3624SOL     OW11770   2.650   0.494   1.844
 3624SOL    HW111771   2.604   0.577   1.813
 3624SOL    HW211772   2.748   0.513   1.856
 3625SOL     OW11773   6.628   2.820   6.636
 3625SOL    HW111774   6.602   2.915   6.620
 3625SOL    HW211775   6.711   2.817   6.692
 3626SOL     OW11776   0.001   3.820   4.239
 3626SOL    HW111777   0.006   3.781   4.330
 3626SOL    HW211778   0.050   3.761   4.174
 3627SOL     OW11779   4.620   2.846   1.252
 3627SOL    HW111780   4.554   2.789   1.301
 3627SOL    HW211781   4.587   2.940   1.247
 3628SOL     OW11782   1.489   1.938   1.804
 3628SOL    HW111783   1.437   1.855   1.782
 3628SOL    HW211784   1.435   2.019   1.778
 3629SOL     OW11785   1.029   1.158   3.729
 3629SOL    HW111786   0.940   1.201   3.713
 3629SOL    HW211787   1.022   1.092   3.804
 3630SOL     OW11788   6.877   2.641   2.869
 3630SOL    HW111789   6.910   2.652   2.963
 3630SOL    HW211790   6.784   2.677   2.862
 3631SOL     OW11791   1.816   6.938   3.078
 3631SOL    HW111792   1.851   6.988   3.157
 3631SOL    HW211793   1.716   6.940   3.079
 3632SOL     OW11794   4.203   3.791   0.651
 3632SOL    HW111795   4.243   3.710   0.610
 3632SOL    HW211796   4.264   3.828   0.720
 3633SOL     OW11797   3.318   2.642   5.756
 3633SOL    HW111798   3.308   2.705   5.680
 3633SOL    HW211799   3.412   2.644   5.790
 3634SOL     OW11800   2.797   6.123   5.772
 3634SOL    HW111801   2.724   6.190   5.785
 3634SOL    HW211802   2.790   6.083   5.681
 3635SOL     OW11803   2.906   1.207   1.700
 3635SOL    HW111804   2.934   1.114   1.725
 3635SOL    HW211805   2.986   1.259   1.669
 3636SOL     OW11806   0.028   5.471   0.716
 3636SOL    HW111807   0.086   5.541   0.757
 3636SOL    HW211808   7.019   5.409   0.787
 3637SOL     OW11809   0.867   3.190   6.413
 3637SOL    HW111810   0.868   3.275   6.360
 3637SOL    HW211811   0.924   3.122   6.368
 3638SOL     OW11812   6.196   4.243   2.971
 3638SOL    HW111813   6.256   4.173   2.934
 3638SOL    HW211814   6.115   4.251   2.914
 3639SOL     OW11815   3.923   4.005   4.859
 3639SOL    HW111816   3.986   3.997   4.781
 3639SOL    HW211817   3.943   3.933   4.925
 3640SOL     OW11818   5.667   2.722   0.255
 3640SOL    HW111819   5.766   2.716   0.246
 3640SOL    HW211820   5.638   2.678   0.341
 3641SOL     OW11821   6.131   4.204   1.017
 3641SOL    HW111822   6.212   4.156   1.049
 3641SOL    HW211823   6.068   4.139   0.974
 3642SOL     OW11824   5.708   2.202   6.596
 3642SOL    HW111825   5.785   2.244   6.644
 3642SOL    HW211826   5.623   2.223   6.645
 3643SOL     OW11827   4.714   6.127   6.076
 3643SOL    HW111828   4.684   6.155   6.167
 3643SOL    HW211829   4.640   6.142   6.010
 3644SOL     OW11830   2.799   0.668   2.091
 3644SOL    HW111831   2.835   0.741   2.033
 3644SOL    HW211832   2.872   0.601   2.109
 3645SOL     OW11833   1.374   4.127   4.658
 3645SOL    HW111834   1.406   4.034   4.676
 3645SOL    HW211835   1.417   4.162   4.574
 3646SOL     OW11836   2.722   4.719   4.837
 3646SOL    HW111837   2.801   4.766   4.798
 3646SOL    HW211838   2.748   4.677   4.924
 3647SOL     OW11839   1.768   6.361   0.120
 3647SOL    HW111840   1.761   6.349   0.021
 3647SOL    HW211841   1.850   6.314   0.153
 3648SOL     OW11842   5.384   5.514   3.472
 3648SOL    HW111843   5.320   5.487   3.400
 3648SOL    HW211844   5.469   5.462   3.462
 3649SOL     OW11845   5.643   3.395   6.762
 3649SOL    HW111846   5.695   3.348   6.691
 3649SOL    HW211847   5.562   3.341   6.784
 3650SOL     OW11848   4.792   4.455   1.238
 3650SOL    HW111849   4.695   4.454   1.215
 3650SOL    HW211850   4.838   4.379   1.192
 3651SOL     OW11851   1.552   2.465   5.758
 3651SOL    HW111852   1.603   2.455   5.673
 3651SOL    HW211853   1.560   2.559   5.790
 3652SOL     OW11854   5.542   0.661   2.258
 3652SOL    HW111855   5.586   0.748   2.280
 3652SOL    HW211856   5.546   0.646   2.159
 3653SOL     OW11857   1.639   1.272   2.390
 3653SOL    HW111858   1.573   1.316   2.450
 3653SOL    HW211859   1.590   1.218   2.321
 3654SOL     OW11860   5.077   6.705   1.109
 3654SOL    HW111861   5.174   6.718   1.129
 3654SOL    HW211862   5.064   6.705   1.010
 3655SOL     OW11863   2.456   1.417   4.156
 3655SOL    HW111864   2.413   1.380   4.074
 3655SOL    HW211865   2.388   1.469   4.209
 3656SOL     OW11866   0.730   5.474   2.123
 3656SOL    HW111867   0.805   5.414   2.097
 3656SOL    HW211868   0.647   5.419   2.138
 3657SOL     OW11869   5.231   6.451   5.239
 3657SOL    HW111870   5.250   6.360   5.276
 3657SOL    HW211871   5.316   6.503   5.234
 3658SOL     OW11872   1.013   5.357   6.406
 3658SOL    HW111873   1.054   5.271   6.436
 3658SOL    HW211874   0.940   5.383   6.469
 3659SOL     OW11875   6.912   2.096   6.302
 3659SOL    HW111876   6.996   2.123   6.349
 3659SOL    HW211877   6.934   2.026   6.234
 3660SOL     OW11878   5.186   5.371   5.716
 3660SOL    HW111879   5.173   5.462   5.679
 3660SOL    HW211880   5.165   5.371   5.814
 3661SOL     OW11881   6.970   1.672   4.764
 3661SOL    HW111882   6.939   1.742   4.828
 3661SOL    HW211883   0.045   1.661   4.771
 3662SOL     OW11884   3.658   0.805   5.830
 3662SOL    HW111885   3.608   0.772   5.750
 3662SOL    HW211886   3.657   0.905   5.830
 3663SOL     OW11887   2.619   3.184   7.018
 3663SOL    HW111888   2.624   3.103   0.052
 3663SOL    HW211889   2.525   3.198   6.989
 3664SOL     OW11890   4.369   1.668   2.083
 3664SOL    HW111891   4.466   1.685   2.102
 3664SOL    HW211892   4.346   1.574   2.109
 3665SOL     OW11893   0.208   6.592   5.799
 3665SOL    HW111894   0.278   6.522   5.819
 3665SOL    HW211895   0.185   6.589   5.702
 3666SOL     OW11896   1.671   2.516   4.126
 3666SOL    HW111897   1.660   2.536   4.223
 3666SOL    HW211898   1.595   2.460   4.094
 3667SOL     OW11899   1.793   1.674   2.416
 3667SOL    HW111900   1.751   1.747   2.470
 3667SOL    HW211901   1.728   1.643   2.346
 3668SOL     OW11902   1.060   0.332   1.648
 3668SOL    HW111903   1.145   0.313   1.599
 3668SOL    HW211904   1.080   0.356   1.743
 3669SOL     OW11905   6.473   2.463   3.849
 3669SOL    HW111906   6.501   2.522   3.925
 3669SOL    HW211907   6.539   2.389   3.839
 3670SOL     OW11908   3.320   5.204   1.299
 3670SOL    HW111909   3.409   5.173   1.332
 3670SOL    HW211910   3.292   5.284   1.352
 3671SOL     OW11911   6.857   0.362   3.626
 3671SOL    HW111912   6.906   0.446   3.648
 3671SOL    HW211913   6.813   0.326   3.708
 3672SOL     OW11914   4.664   0.961   2.969
 3672SOL    HW111915   4.691   1.037   3.027
 3672SOL    HW211916   4.578   0.984   2.922
 3673SOL     OW11917   4.787   5.808   0.456
 3673SOL    HW111918   4.877   5.845   0.435
 3673SOL    HW211919   4.722   5.837   0.385
 3674SOL     OW11920   1.434   5.601   5.571
 3674SOL    HW111921   1.472   5.657   5.645
 3674SOL    HW211922   1.374   5.531   5.610
 3675SOL     OW11923   0.051   1.871   4.135
 3675SOL    HW111924   0.027   1.845   4.041
 3675SOL    HW211925   6.997   1.913   4.180
 3676SOL     OW11926   5.072   2.513   2.858
 3676SOL    HW111927   5.152   2.563   2.891
 3676SOL    HW211928   5.028   2.567   2.786
 3677SOL     OW11929   2.238   0.665   3.932
 3677SOL    HW111930   2.267   0.631   4.021
 3677SOL    HW211931   2.278   0.755   3.916
 3678SOL     OW11932   1.527   0.457   3.720
 3678SOL    HW111933   1.524   0.432   3.817
 3678SOL    HW211934   1.539   0.556   3.712
 3679SOL     OW11935   4.888   0.402   2.936
 3679SOL    HW111936   4.839   0.408   3.022
 3679SOL    HW211937   4.970   0.459   2.940
 3680SOL     OW11938   4.728   1.772   3.430
 3680SOL    HW111939   4.734   1.827   3.347
 3680SOL    HW211940   4.812   1.719   3.442
 3681SOL     OW11941   1.365   0.473   4.727
 3681SOL    HW111942   1.322   0.493   4.639
 3681SOL    HW211943   1.296   0.472   4.799
 3682SOL     OW11944   5.703   2.168   0.851
 3682SOL    HW111945   5.712   2.123   0.941
 3682SOL    HW211946   5.791   2.164   0.804
 3683SOL     OW11947   0.058   0.703   5.041
 3683SOL    HW111948   0.102   0.674   5.126
 3683SOL    HW211949   6.985   0.680   5.044
 3684SOL     OW11950   1.721   6.861   5.476
 3684SOL    HW111951   1.784   6.939   5.483
 3684SOL    HW211952   1.758   6.784   5.528
 3685SOL     OW11953   2.438   6.032   5.590
 3685SOL    HW111954   2.505   5.992   5.527
 3685SOL    HW211955   2.346   6.003   5.564
 3686SOL     OW11956   6.756   3.739   3.275
 3686SOL    HW111957   6.685   3.805   3.249
 3686SOL    HW211958   6.758   3.665   3.209
 3687SOL     OW11959   4.495   6.203   3.453
 3687SOL    HW111960   4.455   6.237   3.367
 3687SOL    HW211961   4.591   6.180   3.437
 3688SOL     OW11962   5.805   2.816   7.002
 3688SOL    HW111963   5.710   2.805   0.007
 3688SOL    HW211964   5.861   2.746   0.022
 3689SOL     OW11965   1.829   1.083   5.407
 3689SOL    HW111966   1.761   1.091   5.334
 3689SOL    HW211967   1.908   1.141   5.386
 3690SOL     OW11968   5.265   5.031   0.785
 3690SOL    HW111969   5.299   5.109   0.838
 3690SOL    HW211970   5.197   4.981   0.838
 3691SOL     OW11971   2.948   1.571   0.165
 3691SOL    HW111972   3.023   1.615   0.116
 3691SOL    HW211973   2.864   1.577   0.110
 3692SOL     OW11974   0.659   3.620   6.256
 3692SOL    HW111975   0.594   3.624   6.180
 3692SOL    HW211976   0.714   3.537   6.248
 3693SOL     OW11977   0.934   1.829   2.587
 3693SOL    HW111978   0.979   1.845   2.500
 3693SOL    HW211979   0.856   1.768   2.575
 3694SOL     OW11980   0.723   0.678   1.974
 3694SOL    HW111981   0.631   0.707   1.948
 3694SOL    HW211982   0.717   0.603   2.040
 3695SOL     OW11983   6.320   2.400   2.664
 3695SOL    HW111984   6.359   2.341   2.593
 3695SOL    HW211985   6.273   2.477   2.621
 3696SOL     OW11986   4.870   0.696   4.976
 3696SOL    HW111987   4.968   0.694   4.958
 3696SOL    HW211988   4.820   0.663   4.896
 3697SOL     OW11989   6.286   6.071   3.696
 3697SOL    HW111990   6.378   6.083   3.732
 3697SOL    HW211991   6.225   6.139   3.737
 3698SOL     OW11992   2.067   0.404   2.874
 3698SOL    HW111993   2.128   0.480   2.848
 3698SOL    HW211994   1.987   0.441   2.922
 3699SOL     OW11995   2.598   2.080   3.964
 3699SOL    HW111996   2.686   2.034   3.951
 3699SOL    HW211997   2.613   2.170   4.005
 3700SOL     OW11998   1.359   5.268   4.785
 3700SOL    HW111999   1.413   5.189   4.757
 3700SOL    HW212000   1.338   5.325   4.705
 3701SOL     OW12001   1.055   6.765   3.105
 3701SOL    HW112002   1.067   6.820   3.022
 3701SOL    HW212003   1.126   6.695   3.109
 3702SOL     OW12004   5.081   4.822   3.577
 3702SOL    HW112005   5.031   4.900   3.614
 3702SOL    HW212006   5.017   4.753   3.544
 3703SOL     OW12007   1.527   1.787   5.679
 3703SOL    HW112008   1.566   1.703   5.642
 3703SOL    HW212009   1.430   1.792   5.658
 3704SOL     OW12010   6.449   2.582   1.418
 3704SOL    HW112011   6.349   2.589   1.414
 3704SOL    HW212012   6.489   2.673   1.410
 3705SOL     OW12013   4.867   4.616   3.564
 3705SOL    HW112014   4.936   4.545   3.547
 3705SOL    HW212015   4.799   4.581   3.628
 3706SOL     OW12016   1.094   3.731   0.447
 3706SOL    HW112017   1.072   3.640   0.411
 3706SOL    HW212018   1.010   3.775   0.480
 3707SOL     OW12019   2.545   4.831   3.658
 3707SOL    HW112020   2.552   4.732   3.668
 3707SOL    HW212021   2.571   4.857   3.565
 3708SOL     OW12022   3.686   6.858   1.131
 3708SOL    HW112023   3.737   6.789   1.080
 3708SOL    HW212024   3.692   6.946   1.083
 3709SOL     OW12025   1.891   0.328   2.337
 3709SOL    HW112026   1.856   0.247   2.383
 3709SOL    HW212027   1.837   0.346   2.255
 3710SOL     OW12028   0.201   5.279   5.266
 3710SOL    HW112029   0.253   5.213   5.211
 3710SOL    HW212030   0.245   5.289   5.355
 3711SOL     OW12031   1.826   6.117   4.761
 3711SOL    HW112032   1.817   6.054   4.839
 3711SOL    HW212033   1.839   6.064   4.678
 3712SOL     OW12034   2.017   5.565   5.195
 3712SOL    HW112035   2.111   5.536   5.182
 3712SOL    HW212036   1.982   5.606   5.111
 3713SOL     OW12037   6.874   6.946   5.100
 3713SOL    HW112038   6.915   6.865   5.143
 3713SOL    HW212039   6.943   6.993   5.046
 3714SOL     OW12040   1.158   5.025   0.604
 3714SOL    HW112041   1.060   5.042   0.609
 3714SOL    HW212042   1.192   5.046   0.512
 3715SOL     OW12043   6.896   5.999   3.212
 3715SOL    HW112044   6.967   5.929   3.200
 3715SOL    HW212045   6.863   5.997   3.306
 3716SOL     OW12046   5.445   5.735   3.976
 3716SOL    HW112047   5.419   5.807   3.912
 3716SOL    HW212048   5.475   5.655   3.925
 3717SOL     OW12049   4.517   1.212   1.331
 3717SOL    HW112050   4.446   1.211   1.401
 3717SOL    HW212051   4.594   1.155   1.360
 3718SOL     OW12052   0.030   6.674   6.547
 3718SOL    HW112053   0.050   6.600   6.482
 3718SOL    HW212054   0.024   6.637   6.639
 3719SOL     OW12055   4.471   3.777   6.594
 3719SOL    HW112056   4.440   3.811   6.683
 3719SOL    HW212057   4.494   3.680   6.602
 3720SOL     OW12058   6.684   3.178   1.100
 3720SOL    HW112059   6.701   3.263   1.151
 3720SOL    HW212060   6.636   3.113   1.158
 3721SOL     OW12061   6.705   4.659   6.685
 3721SOL    HW112062   6.741   4.679   6.776
 3721SOL    HW212063   6.780   4.627   6.626
 3722SOL     OW12064   3.834   7.023   2.738
 3722SOL    HW112065   3.889   0.077   2.769
 3722SOL    HW212066   3.772   0.029   2.666
 3723SOL     OW12067   4.230   5.486   0.066
 3723SOL    HW112068   4.195   5.567   0.114
 3723SOL    HW212069   4.251   5.511   6.995
 3724SOL     OW12070   1.495   5.066   4.662
 3724SOL    HW112071   1.515   4.998   4.734
 3724SOL    HW212072   1.530   5.033   4.575
 3725SOL     OW12073   0.329   6.615   0.036
 3725SOL    HW112074   0.230   6.625   0.027
 3725SOL    HW212075   0.353   6.518   0.040
 3726SOL     OW12076   5.714   3.751   3.714
 3726SOL    HW112077   5.749   3.664   3.678
 3726SOL    HW212078   5.630   3.775   3.667
 3727SOL     OW12079   6.917   2.856   4.043
 3727SOL    HW112080   6.957   2.836   4.133
 3727SOL    HW212081   6.859   2.779   4.014
 3728SOL     OW12082   3.302   3.926   0.162
 3728SOL    HW112083   3.310   3.955   0.257
 3728SOL    HW212084   3.393   3.929   0.119
 3729SOL     OW12085   0.744   0.132   5.443
 3729SOL    HW112086   0.679   0.071   5.396
 3729SOL    HW212087   0.832   0.128   5.396
 3730SOL     OW12088   4.520   6.222   5.885
 3730SOL    HW112089   4.540   6.195   5.790
 3730SOL    HW212090   4.540   6.320   5.896
 3731SOL     OW12091   0.254   2.014   6.324
 3731SOL    HW112092   0.303   1.938   6.367
 3731SOL    HW212093   0.303   2.100   6.342
 3732SOL     OW12094   2.664   1.772   0.010
 3732SOL    HW112095   2.690   1.826   6.954
 3732SOL    HW212096   2.710   1.808   0.091
 3733SOL     OW12097   1.708   2.498   3.677
 3733SOL    HW112098   1.703   2.562   3.754
 3733SOL    HW212099   1.726   2.548   3.593
 3734SOL     OW12100   4.107   6.823   1.730
 3734SOL    HW112101   4.117   6.876   1.815
 3734SOL    HW212102   4.025   6.853   1.682
 3735SOL     OW12103   4.409   6.829   2.483
 3735SOL    HW112104   4.418   6.811   2.581
 3735SOL    HW212105   4.360   6.753   2.440
 3736SOL     OW12106   6.618   1.203   1.688
 3736SOL    HW112107   6.575   1.114   1.703
 3736SOL    HW212108   6.711   1.202   1.723
 3737SOL     OW12109   0.542   2.270   3.460
 3737SOL    HW112110   0.617   2.308   3.515
 3737SOL    HW212111   0.540   2.317   3.372
 3738SOL     OW12112   6.753   6.319   0.505
 3738SOL    HW112113   6.845   6.315   0.464
 3738SOL    HW212114   6.722   6.414   0.507
 3739SOL     OW12115   2.959   4.639   1.240
 3739SOL    HW112116   2.924   4.698   1.312
 3739SOL    HW212117   2.919   4.548   1.248
 3740SOL     OW12118   5.482   5.456   6.926
 3740SOL    HW112119   5.441   5.483   6.838
 3740SOL    HW212120   5.423   5.388   6.970
 3741SOL     OW12121   5.418   2.393   0.444
 3741SOL    HW112122   5.334   2.342   0.460
 3741SOL    HW212123   5.410   2.444   0.358
 3742SOL     OW12124   4.136   5.731   0.217
 3742SOL    HW112125   4.138   5.759   0.313
 3742SOL    HW212126   4.200   5.788   0.165
 3743SOL     OW12127   4.072   3.542   1.351
 3743SOL    HW112128   4.100   3.556   1.446
 3743SOL    HW212129   4.096   3.449   1.322
 3744SOL     OW12130   0.862   6.187   1.974
 3744SOL    HW112131   0.817   6.173   1.886
 3744SOL    HW212132   0.831   6.117   2.038
 3745SOL     OW12133   4.897   3.670   2.503
 3745SOL    HW112134   4.858   3.590   2.549
 3745SOL    HW212135   4.893   3.656   2.404
 3746SOL     OW12136   6.558   0.295   3.428
 3746SOL    HW112137   6.514   0.272   3.514
 3746SOL    HW212138   6.601   0.213   3.390
 3747SOL     OW12139   4.715   6.634   6.487
 3747SOL    HW112140   4.809   6.606   6.502
 3747SOL    HW212141   4.669   6.645   6.576
 3748SOL     OW12142   5.265   1.359   2.900
 3748SOL    HW112143   5.188   1.334   2.958
 3748SOL    HW212144   5.231   1.397   2.814
 3749SOL     OW12145   0.596   5.173   2.704
 3749SOL    HW112146   0.573   5.196   2.799
 3749SOL    HW212147   0.518   5.194   2.645
 3750SOL     OW12148   5.603   4.061   0.041
 3750SOL    HW112149   5.638   4.090   6.976
 3750SOL    HW212150   5.561   3.970   0.032
 3751SOL     OW12151   1.955   3.083   0.903
 3751SOL    HW112152   1.866   3.058   0.940
 3751SOL    HW212153   2.027   3.040   0.956
 3752SOL     OW12154   0.718   0.175   6.618
 3752SOL    HW112155   0.813   0.159   6.645
 3752SOL    HW212156   0.679   0.246   6.677
 3753SOL     OW12157   0.098   6.382   4.396
 3753SOL    HW112158   0.194   6.406   4.384
 3753SOL    HW212159   0.047   6.462   4.427
 3754SOL     OW12160   5.546   6.421   1.112
 3754SOL    HW112161   5.450   6.442   1.130
 3754SOL    HW212162   5.604   6.469   1.178
 3755SOL     OW12163   5.314   4.569   3.492
 3755SOL    HW112164   5.332   4.663   3.519
 3755SOL    HW212165   5.341   4.556   3.396
 3756SOL     OW12166   1.921   2.288   6.322
 3756SOL    HW112167   1.965   2.205   6.285
 3756SOL    HW212168   1.865   2.263   6.401
 3757SOL     OW12169   3.028   5.979   5.838
 3757SOL    HW112170   2.942   6.021   5.810
 3757SOL    HW212171   3.027   5.882   5.816
 3758SOL     OW12172   2.745   1.255   4.679
 3758SOL    HW112173   2.831   1.214   4.648
 3758SOL    HW212174   2.701   1.195   4.746
 3759SOL     OW12175   4.984   4.980   5.973
 3759SOL    HW112176   4.927   4.898   5.978
 3759SOL    HW212177   4.997   5.006   5.878
 3760SOL     OW12178   1.474   3.169   4.289
 3760SOL    HW112179   1.528   3.086   4.273
 3760SOL    HW212180   1.484   3.196   4.385
 3761SOL     OW12181   0.619   6.629   4.936
 3761SOL    HW112182   0.593   6.549   4.882
 3761SOL    HW212183   0.703   6.609   4.986
 3762SOL     OW12184   0.557   3.931   0.220
 3762SOL    HW112185   0.505   3.854   0.257
 3762SOL    HW212186   0.584   3.992   0.295
 3763SOL     OW12187   5.972   3.323   6.206
 3763SOL    HW112188   5.916   3.248   6.170
 3763SOL    HW212189   6.025   3.363   6.132
 3764SOL     OW12190   2.725   0.109   4.098
 3764SOL    HW112191   2.751   0.196   4.139
 3764SOL    HW212192   2.708   0.042   4.170
 3765SOL     OW12193   4.876   0.825   3.809
 3765SOL    HW112194   4.785   0.808   3.848
 3765SOL    HW212195   4.871   0.903   3.746
 3766SOL     OW12196   0.656   0.922   3.956
 3766SOL    HW112197   0.706   0.895   4.038
 3766SOL    HW212198   0.558   0.908   3.971
 3767SOL     OW12199   1.174   5.158   6.507
 3767SOL    HW112200   1.250   5.220   6.528
 3767SOL    HW212201   1.209   5.075   6.463
 3768SOL     OW12202   4.247   6.557   6.839
 3768SOL    HW112203   4.170   6.566   6.902
 3768SOL    HW212204   4.226   6.604   6.753
 3769SOL     OW12205   5.498   6.341   4.622
 3769SOL    HW112206   5.567   6.315   4.554
 3769SOL    HW212207   5.541   6.400   4.691
 3770SOL     OW12208   1.896   1.623   6.033
 3770SOL    HW112209   1.890   1.644   5.935
 3770SOL    HW212210   1.951   1.540   6.045
 3771SOL     OW12211   4.885   2.388   0.407
 3771SOL    HW112212   4.824   2.383   0.486
 3771SOL    HW212213   4.980   2.376   0.437
 3772SOL     OW12214   5.881   0.790   1.434
 3772SOL    HW112215   5.809   0.800   1.366
 3772SOL    HW212216   5.958   0.850   1.410
 3773SOL     OW12217   5.713   3.117   5.496
 3773SOL    HW112218   5.661   3.085   5.417
 3773SOL    HW212219   5.653   3.120   5.577
 3774SOL     OW12220   1.111   0.616   6.656
 3774SOL    HW112221   1.069   0.568   6.732
 3774SOL    HW212222   1.177   0.683   6.692
 3775SOL     OW12223   5.482   3.711   2.998
 3775SOL    HW112224   5.398   3.733   3.046
 3775SOL    HW212225   5.464   3.700   2.900
 3776SOL     OW12226   2.314   2.567   1.446
 3776SOL    HW112227   2.339   2.550   1.351
 3776SOL    HW212228   2.282   2.481   1.488
 3777SOL     OW12229   2.891   5.253   4.883
 3777SOL    HW112230   2.818   5.321   4.887
 3777SOL    HW212231   2.973   5.289   4.927
 3778SOL     OW12232   3.069   5.730   2.540
 3778SOL    HW112233   3.007   5.808   2.531
 3778SOL    HW212234   3.159   5.754   2.504
 3779SOL     OW12235   2.256   4.260   6.981
 3779SOL    HW112236   2.308   4.179   7.009
 3779SOL    HW212237   2.189   4.282   0.028
 3780SOL     OW12238   3.219   5.476   5.277
 3780SOL    HW112239   3.248   5.553   5.334
 3780SOL    HW212240   3.272   5.395   5.301
 3781SOL     OW12241   3.414   0.031   4.280
 3781SOL    HW112242   3.498   0.055   4.232
 3781SOL    HW212243   3.432   0.023   4.378
 3782SOL     OW12244   2.252   1.575   4.238
 3782SOL    HW112245   2.243   1.660   4.291
 3782SOL    HW212246   2.174   1.516   4.256
 3783SOL     OW12247   5.889   6.222   4.907
 3783SOL    HW112248   5.887   6.267   4.818
 3783SOL    HW212249   5.811   6.160   4.916
 3784SOL     OW12250   5.614   0.926   3.434
 3784SOL    HW112251   5.712   0.945   3.428
 3784SOL    HW212252   5.581   0.947   3.526
 3785SOL     OW12253   2.465   2.242   1.028
 3785SOL    HW112254   2.549   2.245   1.082
 3785SOL    HW212255   2.447   2.332   0.989
 3786SOL     OW12256   2.927   4.752   3.462
 3786SOL    HW112257   2.944   4.834   3.408
 3786SOL    HW212258   2.934   4.774   3.559
 3787SOL     OW12259   5.109   1.331   4.339
 3787SOL    HW112260   5.018   1.349   4.302
 3787SOL    HW212261   5.117   1.371   4.430
 3788SOL     OW12262   6.388   2.870   3.522
 3788SOL    HW112263   6.458   2.934   3.490
 3788SOL    HW212264   6.419   2.777   3.504
 3789SOL     OW12265   1.240   4.606   4.437
 3789SOL    HW112266   1.310   4.668   4.404
 3789SOL    HW212267   1.275   4.556   4.516
 3790SOL     OW12268   2.129   3.405   4.752
 3790SOL    HW112269   2.042   3.358   4.765
 3790SOL    HW212270   2.129   3.491   4.802
 3791SOL     OW12271   5.311   6.748   1.367
 3791SOL    HW112272   5.242   6.780   1.431
 3791SOL    HW212273   5.356   6.667   1.403
 3792SOL     OW12274   6.348   6.929   5.095
 3792SOL    HW112275   6.318   6.838   5.067
 3792SOL    HW212276   6.423   6.959   5.036
 3793SOL     OW12277   2.054   1.276   2.200
 3793SOL    HW112278   2.041   1.372   2.227
 3793SOL    HW212279   2.032   1.265   2.103
 3794SOL     OW12280   3.939   5.789   1.588
 3794SOL    HW112281   3.847   5.830   1.586
 3794SOL    HW212282   3.934   5.696   1.624
 3795SOL     OW12283   5.376   0.640   0.008
 3795SOL    HW112284   5.425   0.723   7.006
 3795SOL    HW212285   5.360   0.642   0.107
 3796SOL     OW12286   1.464   2.072   1.372
 3796SOL    HW112287   1.370   2.087   1.403
 3796SOL    HW212288   1.478   2.117   1.284
 3797SOL     OW12289   0.919   5.245   2.090
 3797SOL    HW112290   0.987   5.235   2.017
 3797SOL    HW212291   0.865   5.162   2.096
 3798SOL     OW12292   2.436   4.812   2.947
 3798SOL    HW112293   2.436   4.906   2.913
 3798SOL    HW212294   2.523   4.793   2.992
 3799SOL     OW12295   1.042   1.177   5.074
 3799SOL    HW112296   1.046   1.137   4.982
 3799SOL    HW212297   1.052   1.276   5.067
 3800SOL     OW12298   5.277   2.266   4.787
 3800SOL    HW112299   5.236   2.322   4.715
 3800SOL    HW212300   5.279   2.318   4.872
 3801SOL     OW12301   6.745   6.666   5.431
 3801SOL    HW112302   6.731   6.568   5.416
 3801SOL    HW212303   6.671   6.702   5.487
 3802SOL     OW12304   0.942   1.860   4.818
 3802SOL    HW112305   0.859   1.804   4.809
 3802SOL    HW212306   0.923   1.952   4.785
 3803SOL     OW12307   4.233   7.018   1.594
 3803SOL    HW112308   4.202   6.938   1.646
 3803SOL    HW212309   4.171   0.070   1.611
 3804SOL     OW12310   4.412   2.078   4.567
 3804SOL    HW112311   4.482   2.139   4.531
 3804SOL    HW212312   4.340   2.131   4.612
 3805SOL     OW12313   3.033   4.217   1.718
 3805SOL    HW112314   2.981   4.285   1.769
 3805SOL    HW212315   2.977   4.181   1.643
 3806SOL     OW12316   2.966   3.062   0.372
 3806SOL    HW112317   2.884   3.020   0.334
 3806SOL    HW212318   2.981   3.150   0.328
 3807SOL     OW12319   0.796   7.006   3.833
 3807SOL    HW112320   0.833   6.979   3.744
 3807SOL    HW212321   0.702   6.971   3.841
 3808SOL     OW12322   2.948   0.438   2.163
 3808SOL    HW112323   3.031   0.413   2.112
 3808SOL    HW212324   2.871   0.384   2.129
 3809SOL     OW12325   6.368   1.884   6.559
 3809SOL    HW112326   6.465   1.870   6.581
 3809SOL    HW212327   6.318   1.907   6.643
 3810SOL     OW12328   3.270   3.102   5.248
 3810SOL    HW112329   3.229   3.020   5.208
 3810SOL    HW212330   3.281   3.088   5.347
 3811SOL     OW12331   0.733   4.707   4.292
 3811SOL    HW112332   0.819   4.726   4.340
 3811SOL    HW212333   0.683   4.793   4.280
 3812SOL     OW12334   6.255   1.901   5.852
 3812SOL    HW112335   6.219   1.957   5.777
 3812SOL    HW212336   6.217   1.932   5.939
 3813SOL     OW12337   3.272   5.570   0.649
 3813SOL    HW112338   3.261   5.472   0.659
 3813SOL    HW212339   3.321   5.590   0.564
 3814SOL     OW12340   6.272   6.086   1.671
 3814SOL    HW112341   6.232   6.020   1.607
 3814SOL    HW212342   6.243   6.064   1.764
 3815SOL     OW12343   5.329   2.326   1.503
 3815SOL    HW112344   5.286   2.415   1.483
 3815SOL    HW212345   5.389   2.336   1.583
 3816SOL     OW12346   0.150   6.410   1.861
 3816SOL    HW112347   0.224   6.366   1.809
 3816SOL    HW212348   0.165   6.509   1.862
 3817SOL     OW12349   4.460   2.452   4.370
 3817SOL    HW112350   4.511   2.501   4.440
 3817SOL    HW212351   4.469   2.500   4.282
 3818SOL     OW12352   4.055   5.955   2.818
 3818SOL    HW112353   4.108   5.927   2.739
 3818SOL    HW212354   4.087   6.044   2.851
 3819SOL     OW12355   5.254   5.390   0.572
 3819SOL    HW112356   5.154   5.385   0.573
 3819SOL    HW212357   5.284   5.470   0.624
 3820SOL     OW12358   4.506   5.892   4.613
 3820SOL    HW112359   4.436   5.823   4.631
 3820SOL    HW212360   4.481   5.978   4.658
 3821SOL     OW12361   1.658   3.750   2.301
 3821SOL    HW112362   1.740   3.701   2.333
 3821SOL    HW212363   1.685   3.832   2.253
 3822SOL     OW12364   2.304   4.996   1.739
 3822SOL    HW112365   2.336   4.926   1.803
 3822SOL    HW212366   2.372   5.069   1.732
 3823SOL     OW12367   3.733   2.405   5.843
 3823SOL    HW112368   3.746   2.444   5.752
 3823SOL    HW212369   3.691   2.473   5.903
 3824SOL     OW12370   5.887   2.002   6.349
 3824SOL    HW112371   5.885   2.083   6.408
 3824SOL    HW212372   5.979   1.963   6.350
 3825SOL     OW12373   0.408   0.119   6.361
 3825SOL    HW112374   0.380   0.195   6.302
 3825SOL    HW212375   0.472   0.153   6.430
 3826SOL     OW12376   6.963   3.571   0.781
 3826SOL    HW112377   6.975   3.481   0.738
 3826SOL    HW212378   6.916   3.561   0.868
 3827SOL     OW12379   3.576   3.827   0.594
 3827SOL    HW112380   3.645   3.897   0.609
 3827SOL    HW212381   3.485   3.866   0.607
 3828SOL     OW12382   4.469   2.554   1.848
 3828SOL    HW112383   4.376   2.578   1.821
 3828SOL    HW212384   4.527   2.636   1.847
 3829SOL     OW12385   2.073   5.061   3.665
 3829SOL    HW112386   2.037   5.032   3.576
 3829SOL    HW212387   2.160   5.015   3.682
 3830SOL     OW12388   2.339   6.955   5.279
 3830SOL    HW112389   2.417   6.917   5.230
 3830SOL    HW212390   2.258   6.898   5.264
 3831SOL     OW12391   4.213   1.966   2.421
 3831SOL    HW112392   4.118   1.944   2.397
 3831SOL    HW212393   4.270   1.964   2.338
 3832SOL     OW12394   6.334   0.754   1.605
 3832SOL    HW112395   6.335   0.854   1.595
 3832SOL    HW212396   6.283   0.714   1.528
 3833SOL     OW12397   0.746   5.081   1.091
 3833SOL    HW112398   0.726   5.032   1.175
 3833SOL    HW212399   0.772   5.175   1.112
 3834SOL     OW12400   3.056   1.833   0.612
 3834SOL    HW112401   2.960   1.829   0.586
 3834SOL    HW212402   3.063   1.822   0.712
 3835SOL     OW12403   3.804   5.810   5.987
 3835SOL    HW112404   3.865   5.808   6.066
 3835SOL    HW212405   3.711   5.830   6.018
 3836SOL     OW12406   1.409   4.054   5.859
 3836SOL    HW112407   1.388   4.149   5.881
 3836SOL    HW212408   1.344   3.994   5.904
 3837SOL     OW12409   5.007   4.010   6.826
 3837SOL    HW112410   4.921   4.020   6.876
 3837SOL    HW212411   5.083   4.011   6.890
 3838SOL     OW12412   5.945   2.219   4.321
 3838SOL    HW112413   5.981   2.305   4.284
 3838SOL    HW212414   5.847   2.214   4.305
 3839SOL     OW12415   5.759   6.874   5.530
 3839SOL    HW112416   5.698   6.838   5.459
 3839SOL    HW212417   5.813   6.949   5.492
 3840SOL     OW12418   1.835   1.010   3.892
 3840SOL    HW112419   1.881   1.017   3.804
 3840SOL    HW212420   1.792   0.921   3.901
 3841SOL     OW12421   0.983   3.761   4.990
 3841SOL    HW112422   1.027   3.804   5.069
 3841SOL    HW212423   0.993   3.819   4.910
 3842SOL     OW12424   0.721   5.331   0.246
 3842SOL    HW112425   0.778   5.321   0.327
 3842SOL    HW212426   0.678   5.421   0.245
 3843SOL     OW12427   6.307   3.138   0.524
 3843SOL    HW112428   6.329   3.216   0.582
 3843SOL    HW212429   6.350   3.149   0.434
 3844SOL     OW12430   1.920   4.920   5.743
 3844SOL    HW112431   2.008   4.966   5.736
 3844SOL    HW212432   1.853   4.983   5.782
 3845SOL     OW12433   3.549   3.725   2.870
 3845SOL    HW112434   3.484   3.685   2.806
 3845SOL    HW212435   3.632   3.670   2.873
 3846SOL     OW12436   0.157   4.432   4.476
 3846SOL    HW112437   0.238   4.487   4.457
 3846SOL    HW212438   0.100   4.477   4.544
 3847SOL     OW12439   6.910   0.332   6.158
 3847SOL    HW112440   6.912   0.233   6.173
 3847SOL    HW212441   6.827   0.370   6.199
 3848SOL     OW12442   3.030   4.821   1.568
 3848SOL    HW112443   3.033   4.850   1.472
 3848SOL    HW212444   3.027   4.901   1.627
 3849SOL     OW12445   0.804   1.965   5.698
 3849SOL    HW112446   0.862   2.004   5.626
 3849SOL    HW212447   0.748   2.037   5.739
 3850SOL     OW12448   3.284   3.942   1.935
 3850SOL    HW112449   3.193   3.953   1.894
 3850SOL    HW212450   3.351   3.995   1.883
 3851SOL     OW12451   2.087   3.184   3.101
 3851SOL    HW112452   2.058   3.123   3.175
 3851SOL    HW212453   2.134   3.130   3.031
 3852SOL     OW12454   4.277   0.616   4.619
 3852SOL    HW112455   4.202   0.679   4.639
 3852SOL    HW212456   4.343   0.618   4.695
 3853SOL     OW12457   0.943   3.665   2.528
 3853SOL    HW112458   1.030   3.636   2.568
 3853SOL    HW212459   0.950   3.661   2.429
 3854SOL     OW12460   0.815   3.727   4.418
 3854SOL    HW112461   0.770   3.756   4.333
 3854SOL    HW212462   0.857   3.806   4.462
 3855SOL     OW12463   6.074   3.506   5.746
 3855SOL    HW112464   6.119   3.578   5.693
 3855SOL    HW212465   5.988   3.541   5.783
 3856SOL     OW12466   6.704   6.680   5.837
 3856SOL    HW112467   6.650   6.690   5.754
 3856SOL    HW212468   6.718   6.582   5.856
 3857SOL     OW12469   1.121   6.560   4.568
 3857SOL    HW112470   1.183   6.639   4.565
 3857SOL    HW212471   1.136   6.509   4.653
 3858SOL     OW12472   1.946   5.770   6.404
 3858SOL    HW112473   2.040   5.801   6.417
 3858SOL    HW212474   1.923   5.702   6.474
 3859SOL     OW12475   0.188   3.173   2.823
 3859SOL    HW112476   0.181   3.272   2.815
 3859SOL    HW212477   0.187   3.132   2.731
 3860SOL     OW12478   2.387   6.629   5.357
 3860SOL    HW112479   2.316   6.679   5.307
 3860SOL    HW212480   2.458   6.693   5.387
 3861SOL     OW12481   4.421   4.518   1.298
 3861SOL    HW112482   4.511   4.561   1.296
 3861SOL    HW212483   4.412   4.466   1.383
 3862SOL     OW12484   1.062   6.006   5.741
 3862SOL    HW112485   0.994   6.072   5.774
 3862SOL    HW212486   1.020   5.946   5.672
 3863SOL     OW12487   3.123   3.852   1.580
 3863SOL    HW112488   3.108   3.944   1.544
 3863SOL    HW212489   3.061   3.836   1.657
 3864SOL     OW12490   3.176   2.033   0.151
 3864SOL    HW112491   3.128   1.977   0.219
 3864SOL    HW212492   3.222   2.109   0.197
 3865SOL     OW12493   4.670   0.291   2.519
 3865SOL    HW112494   4.696   0.232   2.442
 3865SOL    HW212495   4.583   0.260   2.557
 3866SOL     OW12496   3.882   6.998   0.353
 3866SOL    HW112497   3.886   6.955   0.263
 3866SOL    HW212498   3.808   6.957   0.406
 3867SOL     OW12499   2.144   3.502   3.429
 3867SOL    HW112500   2.152   3.447   3.512
 3867SOL    HW212501   2.174   3.448   3.350
 3868SOL     OW12502   2.283   6.722   2.669
 3868SOL    HW112503   2.353   6.788   2.697
 3868SOL    HW212504   2.258   6.737   2.574
 3869SOL     OW12505   0.633   2.998   3.234
 3869SOL    HW112506   0.593   3.043   3.154
 3869SOL    HW212507   0.661   3.066   3.301
 3870SOL     OW12508   2.922   5.308   0.617
 3870SOL    HW112509   3.000   5.345   0.567
 3870SOL    HW212510   2.852   5.379   0.626
 3871SOL     OW12511   2.622   0.177   3.500
 3871SOL    HW112512   2.613   0.245   3.428
 3871SOL    HW212513   2.719   0.151   3.509
 3872SOL     OW12514   4.264   3.486   0.951
 3872SOL    HW112515   4.333   3.549   0.987
 3872SOL    HW212516   4.173   3.524   0.967
 3873SOL     OW12517   5.665   4.474   1.862
 3873SOL    HW112518   5.679   4.386   1.817
 3873SOL    HW212519   5.699   4.469   1.956
 3874SOL     OW12520   4.530   0.647   6.992
 3874SOL    HW112521   4.460   0.592   0.014
 3874SOL    HW212522   4.516   0.642   6.893
 3875SOL     OW12523   1.359   4.692   1.093
 3875SOL    HW112524   1.355   4.592   1.095
 3875SOL    HW212525   1.295   4.726   1.024
 3876SOL     OW12526   5.037   3.711   3.687
 3876SOL    HW112527   4.998   3.683   3.774
 3876SOL    HW212528   5.042   3.633   3.625
 3877SOL     OW12529   6.142   1.239   2.452
 3877SOL    HW112530   6.050   1.242   2.415
 3877SOL    HW212531   6.148   1.300   2.532
 3878SOL     OW12532   3.877   6.539   5.845
 3878SOL    HW112533   3.779   6.532   5.863
 3878SOL    HW212534   3.915   6.616   5.896
 3879SOL     OW12535   4.282   5.647   1.737
 3879SOL    HW112536   4.278   5.578   1.810
 3879SOL    HW212537   4.296   5.737   1.778
 3880SOL     OW12538   5.322   3.474   3.203
 3880SOL    HW112539   5.267   3.474   3.119
 3880SOL    HW212540   5.283   3.410   3.269
 3881SOL     OW12541   1.246   3.702   0.857
 3881SOL    HW112542   1.305   3.622   0.865
 3881SOL    HW212543   1.150   3.673   0.858
 3882SOL     OW12544   0.127   0.767   5.487
 3882SOL    HW112545   0.213   0.788   5.534
 3882SOL    HW212546   0.116   0.827   5.408
 3883SOL     OW12547   3.916   0.474   5.551
 3883SOL    HW112548   3.925   0.486   5.650
 3883SOL    HW212549   3.901   0.562   5.508
 3884SOL     OW12550   1.623   5.556   6.194
 3884SOL    HW112551   1.618   5.552   6.094
 3884SOL    HW212552   1.535   5.531   6.233
 3885SOL     OW12553   6.951   1.354   4.342
 3885SOL    HW112554   6.969   1.383   4.248
 3885SOL    HW212555   6.872   1.293   4.343
 3886SOL     OW12556   6.147   6.700   5.566
 3886SOL    HW112557   6.226   6.643   5.589
 3886SOL    HW212558   6.141   6.709   5.467
 3887SOL     OW12559   4.014   2.250   5.635
 3887SOL    HW112560   4.041   2.346   5.642
 3887SOL    HW212561   4.083   2.199   5.583
 3888SOL     OW12562   6.795   2.266   0.899
 3888SOL    HW112563   6.737   2.347   0.899
 3888SOL    HW212564   6.844   2.260   0.813
 3889SOL     OW12565   1.045   6.409   6.300
 3889SOL    HW112566   1.014   6.497   6.265
 3889SOL    HW212567   0.975   6.370   6.360
 3890SOL     OW12568   5.546   4.136   3.142
 3890SOL    HW112569   5.540   4.074   3.064
 3890SOL    HW212570   5.519   4.228   3.113
 3891SOL     OW12571   5.375   4.847   4.991
 3891SOL    HW112572   5.467   4.843   5.031
 3891SOL    HW212573   5.383   4.853   4.892
 3892SOL     OW12574   5.152   6.919   3.079
 3892SOL    HW112575   5.240   6.928   3.127
 3892SOL    HW212576   5.127   7.006   3.039
 3893SOL     OW12577   2.846   6.041   4.056
 3893SOL    HW112578   2.769   5.983   4.028
 3893SOL    HW212579   2.920   5.982   4.088
 3894SOL     OW12580   5.214   3.798   6.666
 3894SOL    HW112581   5.195   3.828   6.759
 3894SOL    HW212582   5.259   3.709   6.669
 3895SOL     OW12583   3.121   2.207   5.565
 3895SOL    HW112584   3.118   2.109   5.546
 3895SOL    HW212585   3.084   2.258   5.487
 3896SOL     OW12586   6.213   2.872   5.616
 3896SOL    HW112587   6.177   2.787   5.577
 3896SOL    HW212588   6.143   2.913   5.675
 3897SOL     OW12589   3.741   6.925   2.218
 3897SOL    HW112590   3.697   7.015   2.214
 3897SOL    HW212591   3.784   6.914   2.308
 3898SOL     OW12592   3.786   4.081   4.304
 3898SOL    HW112593   3.768   4.146   4.230
 3898SOL    HW212594   3.753   4.118   4.390
 3899SOL     OW12595   4.321   1.639   5.094
 3899SOL    HW112596   4.345   1.696   5.172
 3899SOL    HW212597   4.392   1.569   5.081
 3900SOL     OW12598   6.611   2.718   3.300
 3900SOL    HW112599   6.570   2.638   3.345
 3900SOL    HW212600   6.666   2.768   3.367
 3901SOL     OW12601   1.579   6.271   5.707
 3901SOL    HW112602   1.483   6.295   5.691
 3901SOL    HW212603   1.585   6.204   5.781
 3902SOL     OW12604   4.384   4.946   1.554
 3902SOL    HW112605   4.310   4.997   1.510
 3902SOL    HW212606   4.371   4.949   1.654
 3903SOL     OW12607   4.128   2.568   6.518
 3903SOL    HW112608   4.172   2.509   6.586
 3903SOL    HW212609   4.032   2.581   6.543
 3904SOL     OW12610   1.211   6.551   1.124
 3904SOL    HW112611   1.257   6.474   1.168
 3904SOL    HW212612   1.118   6.559   1.160
 3905SOL     OW12613   6.625   0.306   4.998
 3905SOL    HW112614   6.704   0.366   4.992
 3905SOL    HW212615   6.650   0.222   5.047
 3906SOL     OW12616   0.868   5.479   4.042
 3906SOL    HW112617   0.945   5.422   4.071
 3906SOL    HW212618   0.786   5.423   4.036
 3907SOL     OW12619   0.345   1.214   4.638
 3907SOL    HW112620   0.249   1.243   4.635
 3907SOL    HW212621   0.349   1.115   4.655
 3908SOL     OW12622   1.504   0.758   4.420
 3908SOL    HW112623   1.509   0.843   4.473
 3908SOL    HW212624   1.531   0.681   4.478
 3909SOL     OW12625   5.726   2.500   6.511
 3909SOL    HW112626   5.729   2.582   6.568
 3909SOL    HW212627   5.640   2.452   6.527
 3910SOL     OW12628   3.562   2.107   0.207
 3910SOL    HW112629   3.583   2.019   0.249
 3910SOL    HW212630   3.500   2.094   0.130
 3911SOL     OW12631   0.097   1.466   0.746
 3911SOL    HW112632   0.005   1.430   0.734
 3911SOL    HW212633   0.117   1.477   0.844
 3912SOL     OW12634   3.875   1.837   0.298
 3912SOL    HW112635   3.917   1.927   0.309
 3912SOL    HW212636   3.776   1.845   0.309
 3913SOL     OW12637   5.382   5.030   1.222
 3913SOL    HW112638   5.467   5.003   1.267
 3913SOL    HW212639   5.319   4.952   1.221
 3914SOL     OW12640   6.759   1.613   0.011
 3914SOL    HW112641   6.817   1.677   0.062
 3914SOL    HW212642   6.668   1.612   0.051
 3915SOL     OW12643   4.777   5.400   6.887
 3915SOL    HW112644   4.810   5.317   6.934
 3915SOL    HW212645   4.767   5.381   6.790
 3916SOL     OW12646   2.448   1.806   2.133
 3916SOL    HW112647   2.402   1.801   2.044
 3916SOL    HW212648   2.465   1.714   2.167
 3917SOL     OW12649   3.378   5.223   1.747
 3917SOL    HW112650   3.462   5.168   1.747
 3917SOL    HW212651   3.315   5.188   1.817
 3918SOL     OW12652   5.139   1.191   0.832
 3918SOL    HW112653   5.039   1.194   0.826
 3918SOL    HW212654   5.178   1.189   0.740
 3919SOL     OW12655   3.382   0.113   2.352
 3919SOL    HW112656   3.353   0.065   2.269
 3919SOL    HW212657   3.400   0.046   2.425
 3920SOL     OW12658   2.948   1.560   5.750
 3920SOL    HW112659   3.017   1.514   5.806
 3920SOL    HW212660   2.902   1.630   5.805
 3921SOL     OW12661   6.630   2.788   6.049
 3921SOL    HW112662   6.639   2.712   6.112
 3921SOL    HW212663   6.720   2.823   6.025
 3922SOL     OW12664   5.280   4.337   2.433
 3922SOL    HW112665   5.214   4.262   2.429
 3922SOL    HW212666   5.302   4.357   2.529
 3923SOL     OW12667   5.144   1.019   1.383
 3923SOL    HW112668   5.053   1.058   1.398
 3923SOL    HW212669   5.151   0.985   1.289
 3924SOL     OW12670   5.478   4.902   4.093
 3924SOL    HW112671   5.430   4.982   4.128
 3924SOL    HW212672   5.421   4.821   4.105
 3925SOL     OW12673   5.100   4.014   0.478
 3925SOL    HW112674   5.026   4.078   0.497
 3925SOL    HW212675   5.160   4.008   0.557
 3926SOL     OW12676   0.651   6.523   6.312
 3926SOL    HW112677   0.711   6.496   6.387
 3926SOL    HW212678   0.687   6.488   6.225
 3927SOL     OW12679   5.726   2.307   5.865
 3927SOL    HW112680   5.646   2.361   5.839
 3927SOL    HW212681   5.725   2.219   5.818
 3928SOL     OW12682   3.112   5.896   2.228
 3928SOL    HW112683   3.023   5.869   2.264
 3928SOL    HW212684   3.184   5.854   2.283
 3929SOL     OW12685   0.117   2.495   5.049
 3929SOL    HW112686   0.167   2.525   5.130
 3929SOL    HW212687   0.058   2.417   5.073
 3930SOL     OW12688   1.312   4.955   4.148
 3930SOL    HW112689   1.347   4.892   4.218
 3930SOL    HW212690   1.287   4.903   4.066
 3931SOL     OW12691   2.186   2.475   1.790
 3931SOL    HW112692   2.101   2.465   1.738
 3931SOL    HW212693   2.170   2.532   1.870
 3932SOL     OW12694   2.599   5.133   3.549
 3932SOL    HW112695   2.640   5.175   3.630
 3932SOL    HW212696   2.501   5.152   3.548
 3933SOL     OW12697   2.162   5.622   1.077
 3933SOL    HW112698   2.103   5.622   1.158
 3933SOL    HW212699   2.193   5.529   1.058
 3934SOL     OW12700   0.353   1.242   1.679
 3934SOL    HW112701   0.259   1.272   1.696
 3934SOL    HW212702   0.355   1.180   1.600
 3935SOL     OW12703   6.658   3.259   6.206
 3935SOL    HW112704   6.728   3.228   6.271
 3935SOL    HW212705   6.584   3.304   6.256
 3936SOL     OW12706   0.208   4.954   5.542
 3936SOL    HW112707   0.154   4.973   5.460
 3936SOL    HW212708   0.180   5.016   5.615
 3937SOL     OW12709   0.497   6.668   1.792
 3937SOL    HW112710   0.533   6.674   1.699
 3937SOL    HW212711   0.491   6.572   1.819
 3938SOL     OW12712   0.757   3.459   2.578
 3938SOL    HW112713   0.799   3.372   2.605
 3938SOL    HW212714   0.820   3.534   2.597
 3939SOL     OW12715   1.805   1.084   2.528
 3939SOL    HW112716   1.743   1.155   2.495
 3939SOL    HW212717   1.864   1.122   2.600
 3940SOL     OW12718   3.304   5.492   1.064
 3940SOL    HW112719   3.400   5.506   1.041
 3940SOL    HW212720   3.276   5.557   1.134
 3941SOL     OW12721   5.220   5.781   3.331
 3941SOL    HW112722   5.195   5.686   3.314
 3941SOL    HW212723   5.186   5.838   3.255
 3942SOL     OW12724   6.507   5.922   5.795
 3942SOL    HW112725   6.566   5.999   5.817
 3942SOL    HW212726   6.443   5.949   5.723
 3943SOL     OW12727   1.537   2.698   0.281
 3943SOL    HW112728   1.621   2.691   0.335
 3943SOL    HW212729   1.512   2.608   0.247
 3944SOL     OW12730   5.504   2.369   6.666
 3944SOL    HW112731   5.527   2.339   6.758
 3944SOL    HW212732   5.425   2.317   6.633
 3945SOL     OW12733   6.480   0.900   3.266
 3945SOL    HW112734   6.539   0.874   3.342
 3945SOL    HW212735   6.413   0.827   3.249
 3946SOL     OW12736   1.303   2.913   0.236
 3946SOL    HW112737   1.397   2.946   0.238
 3946SOL    HW212738   1.298   2.827   0.186
 3947SOL     OW12739   6.331   4.762   2.380
 3947SOL    HW112740   6.407   4.704   2.409
 3947SOL    HW212741   6.318   4.836   2.446
 3948SOL     OW12742   0.963   2.909   6.261
 3948SOL    HW112743   0.976   2.902   6.162
 3948SOL    HW212744   0.885   2.853   6.289
 3949SOL     OW12745   6.071   0.023   1.563
 3949SOL    HW112746   6.159   0.070   1.572
 3949SOL    HW212747   6.030   0.012   1.654
 3950SOL     OW12748   3.119   4.605   1.693
 3950SOL    HW112749   3.053   4.562   1.755
 3950SOL    HW212750   3.076   4.683   1.648
 3951SOL     OW12751   0.832   2.108   4.751
 3951SOL    HW112752   0.798   2.188   4.801
 3951SOL    HW212753   0.818   2.122   4.653
 3952SOL     OW12754   5.635   3.563   6.457
 3952SOL    HW112755   5.691   3.628   6.406
 3952SOL    HW212756   5.668   3.470   6.440
 3953SOL     OW12757   2.751   4.256   6.493
 3953SOL    HW112758   2.839   4.286   6.530
 3953SOL    HW212759   2.767   4.195   6.415
 3954SOL     OW12760   0.411   3.342   5.190
 3954SOL    HW112761   0.489   3.283   5.171
 3954SOL    HW212762   0.357   3.354   5.106
 3955SOL     OW12763   6.897   4.190   0.105
 3955SOL    HW112764   6.807   4.232   0.101
 3955SOL    HW212765   6.928   4.188   0.200
 3956SOL     OW12766   1.032   3.083   5.526
 3956SOL    HW112767   1.051   3.004   5.585
 3956SOL    HW212768   1.106   3.093   5.459
 3957SOL     OW12769   0.896   1.406   3.348
 3957SOL    HW112770   0.924   1.500   3.369
 3957SOL    HW212771   0.976   1.346   3.352
 3958SOL     OW12772   5.896   6.153   6.113
 3958SOL    HW112773   5.854   6.072   6.153
 3958SOL    HW212774   5.985   6.169   6.156
 3959SOL     OW12775   2.553   4.995   0.883
 3959SOL    HW112776   2.619   5.063   0.851
 3959SOL    HW212777   2.601   4.920   0.929
 3960SOL     OW12778   4.564   3.665   0.602
 3960SOL    HW112779   4.545   3.681   0.505
 3960SOL    HW212780   4.501   3.596   0.637
 3961SOL     OW12781   5.748   0.542   2.622
 3961SOL    HW112782   5.840   0.578   2.633
 3961SOL    HW212783   5.730   0.473   2.693
 3962SOL     OW12784   0.409   6.911   5.651
 3962SOL    HW112785   0.479   6.978   5.677
 3962SOL    HW212786   0.338   6.907   5.721
 3963SOL     OW12787   5.014   5.452   3.073
 3963SOL    HW112788   4.946   5.490   3.010
 3963SOL    HW212789   4.972   5.379   3.127
 3964SOL     OW12790   5.585   6.337   6.005
 3964SOL    HW112791   5.598   6.244   6.038
 3964SOL    HW212792   5.626   6.402   6.069
 3965SOL     OW12793   4.097   3.448   0.495
 3965SOL    HW112794   4.174   3.449   0.560
 3965SOL    HW212795   4.047   3.362   0.506
 3966SOL     OW12796   5.658   4.308   5.067
 3966SOL    HW112797   5.716   4.383   5.099
 3966SOL    HW212798   5.712   4.248   5.007
 3967SOL     OW12799   0.835   5.476   6.601
 3967SOL    HW112800   0.770   5.504   6.530
 3967SOL    HW212801   0.847   5.551   6.667
 3968SOL     OW12802   5.637   0.613   1.584
 3968SOL    HW112803   5.610   0.655   1.497
 3968SOL    HW212804   5.593   0.661   1.659
 3969SOL     OW12805   0.274   5.482   1.706
 3969SOL    HW112806   0.177   5.475   1.728
 3969SOL    HW212807   0.328   5.480   1.790
 3970SOL     OW12808   4.293   4.676   3.517
 3970SOL    HW112809   4.223   4.724   3.570
 3970SOL    HW212810   4.377   4.730   3.515
 3971SOL     OW12811   1.789   5.508   4.037
 3971SOL    HW112812   1.843   5.554   4.106
 3971SOL    HW212813   1.706   5.560   4.018
 3972SOL     OW12814   1.577   0.228   0.423
 3972SOL    HW112815   1.665   0.196   0.459
 3972SOL    HW212816   1.556   0.179   0.339
 3973SOL     OW12817   3.391   3.284   3.296
 3973SOL    HW112818   3.330   3.354   3.333
 3973SOL    HW212819   3.362   3.260   3.204
 3974SOL     OW12820   6.195   1.566   6.869
 3974SOL    HW112821   6.290   1.592   6.856
 3974SOL    HW212822   6.149   1.562   6.780
 3975SOL     OW12823   6.533   0.801   5.711
 3975SOL    HW112824   6.436   0.824   5.723
 3975SOL    HW212825   6.543   0.702   5.709
 3976SOL     OW12826   1.148   3.698   6.794
 3976SOL    HW112827   1.215   3.623   6.796
 3976SOL    HW212828   1.093   3.695   6.877
 3977SOL     OW12829   4.201   6.834   6.457
 3977SOL    HW112830   4.202   6.887   6.372
 3977SOL    HW212831   4.188   6.738   6.436
 3978SOL     OW12832   5.489   3.048   6.035
 3978SOL    HW112833   5.422   3.046   6.109
 3978SOL    HW212834   5.581   3.060   6.074
 3979SOL     OW12835   1.172   0.121   3.067
 3979SOL    HW112836   1.163   0.070   3.153
 3979SOL    HW212837   1.090   0.177   3.052
 3980SOL     OW12838   5.267   3.301   5.033
 3980SOL    HW112839   5.366   3.314   5.036
 3980SOL    HW212840   5.223   3.388   5.015
 3981SOL     OW12841   6.330   1.791   5.434
 3981SOL    HW112842   6.338   1.891   5.439
 3981SOL    HW212843   6.317   1.755   5.526
 3982SOL     OW12844   3.647   1.625   3.979
 3982SOL    HW112845   3.741   1.593   3.989
 3982SOL    HW212846   3.644   1.697   3.909
 3983SOL     OW12847   3.598   6.385   3.715
 3983SOL    HW112848   3.520   6.333   3.680
 3983SOL    HW212849   3.646   6.331   3.783
 3984SOL     OW12850   1.565   6.637   1.405
 3984SOL    HW112851   1.527   6.704   1.341
 3984SOL    HW212852   1.629   6.683   1.467
 3985SOL     OW12853   1.562   3.592   1.912
 3985SOL    HW112854   1.532   3.499   1.930
 3985SOL    HW212855   1.658   3.592   1.883
 3986SOL     OW12856   0.830   3.165   2.414
 3986SOL    HW112857   0.803   3.208   2.500
 3986SOL    HW212858   0.929   3.167   2.404
 3987SOL     OW12859   2.653   4.808   6.923
 3987SOL    HW112860   2.714   4.848   6.854
 3987SOL    HW212861   2.688   4.718   6.949
 3988SOL     OW12862   4.063   2.328   0.488
 3988SOL    HW112863   4.068   2.309   0.586
 3988SOL    HW212864   3.978   2.377   0.467
 3989SOL     OW12865   4.416   0.525   6.466
 3989SOL    HW112866   4.342   0.501   6.403
 3989SOL    HW212867   4.496   0.468   6.447
 3990SOL     OW12868   1.220   3.102   3.991
 3990SOL    HW112869   1.196   3.171   4.060
 3990SOL    HW212870   1.173   3.016   4.012
 3991SOL     OW12871   0.421   1.779   4.135
 3991SOL    HW112872   0.366   1.821   4.208
 3991SOL    HW212873   0.372   1.787   4.048
 3992SOL     OW12874   4.686   3.979   6.084
 3992SOL    HW112875   4.618   3.976   6.157
 3992SOL    HW212876   4.763   3.920   6.107
 3993SOL     OW12877   2.253   1.816   3.188
 3993SOL    HW112878   2.311   1.784   3.263
 3993SOL    HW212879   2.195   1.891   3.220
 3994SOL     OW12880   2.457   2.034   3.736
 3994SOL    HW112881   2.392   1.969   3.697
 3994SOL    HW212882   2.466   2.018   3.834
 3995SOL     OW12883   1.439   3.883   2.813
 3995SOL    HW112884   1.476   3.811   2.872
 3995SOL    HW212885   1.466   3.864   2.718
 3996SOL     OW12886   5.777   0.261   3.416
 3996SOL    HW112887   5.691   0.209   3.424
 3996SOL    HW212888   5.852   0.205   3.450
 3997SOL     OW12889   5.653   3.736   2.502
 3997SOL    HW112890   5.687   3.739   2.408
 3997SOL    HW212891   5.560   3.771   2.505
 3998SOL     OW12892   5.941   1.990   3.239
 3998SOL    HW112893   6.031   1.983   3.196
 3998SOL    HW212894   5.947   1.957   3.333
 3999SOL     OW12895   5.241   2.715   1.713
 3999SOL    HW112896   5.217   2.618   1.721
 3999SOL    HW212897   5.159   2.767   1.688
 4000SOL     OW12898   3.353   5.508   2.551
 4000SOL    HW112899   3.412   5.516   2.470
 4000SOL    HW212900   3.311   5.418   2.553
 4001SOL     OW12901   1.979   4.229   4.982
 4001SOL    HW112902   2.043   4.168   5.029
 4001SOL    HW212903   1.969   4.199   4.887
 4002SOL     OW12904   3.675   3.268   3.741
 4002SOL    HW112905   3.646   3.355   3.699
 4002SOL    HW212906   3.594   3.221   3.777
 4003SOL     OW12907   2.422   0.660   4.933
 4003SOL    HW112908   2.367   0.698   5.007
 4003SOL    HW212909   2.501   0.720   4.916
 4004SOL     OW12910   0.407   3.935   3.358
 4004SOL    HW112911   0.506   3.941   3.367
 4004SOL    HW212912   0.375   3.852   3.404
 4005SOL     OW12913   5.215   2.635   1.109
 4005SOL    HW112914   5.141   2.683   1.062
 4005SOL    HW212915   5.303   2.668   1.076
 4006SOL     OW12916   5.293   5.200   3.408
 4006SOL    HW112917   5.198   5.213   3.437
 4006SOL    HW212918   5.354   5.235   3.479
 4007SOL     OW12919   6.656   1.447   2.848
 4007SOL    HW112920   6.696   1.377   2.789
 4007SOL    HW212921   6.728   1.510   2.877
 4008SOL     OW12922   2.915   0.281   1.070
 4008SOL    HW112923   2.865   0.197   1.048
 4008SOL    HW212924   2.912   0.296   1.169
 4009SOL     OW12925   4.139   1.909   1.285
 4009SOL    HW112926   4.045   1.937   1.269
 4009SOL    HW212927   4.196   1.990   1.297
 4010SOL     OW12928   2.024   5.036   1.667
 4010SOL    HW112929   1.998   4.947   1.629
 4010SOL    HW212930   2.123   5.039   1.682
 4011SOL     OW12931   6.272   6.126   6.732
 4011SOL    HW112932   6.314   6.201   6.681
 4011SOL    HW212933   6.307   6.126   6.826
 4012SOL     OW12934   4.038   0.004   2.301
 4012SOL    HW112935   4.074   0.066   2.231
 4012SOL    HW212936   3.939   7.016   2.287
 4013SOL     OW12937   0.782   1.124   6.433
 4013SOL    HW112938   0.796   1.026   6.445
 4013SOL    HW212939   0.870   1.171   6.440
 4014SOL     OW12940   2.529   5.306   2.719
 4014SOL    HW112941   2.554   5.236   2.786
 4014SOL    HW212942   2.429   5.313   2.716
 4015SOL     OW12943   4.167   5.193   6.142
 4015SOL    HW112944   4.172   5.178   6.044
 4015SOL    HW212945   4.247   5.154   6.187
 4016SOL     OW12946   4.164   5.715   5.966
 4016SOL    HW112947   4.208   5.803   5.986
 4016SOL    HW212948   4.113   5.723   5.880
 4017SOL     OW12949   0.910   4.900   5.821
 4017SOL    HW112950   1.008   4.910   5.836
 4017SOL    HW212951   0.890   4.903   5.723
 4018SOL     OW12952   4.472   6.191   1.996
 4018SOL    HW112953   4.541   6.165   1.928
 4018SOL    HW212954   4.503   6.165   2.087
 4019SOL     OW12955   5.174   3.407   2.973
 4019SOL    HW112956   5.162   3.398   2.874
 4019SOL    HW212957   5.188   3.316   3.013
 4020SOL     OW12958   6.505   4.628   4.346
 4020SOL    HW112959   6.542   4.703   4.401
 4020SOL    HW212960   6.495   4.658   4.251
 4021SOL     OW12961   3.328   3.477   5.383
 4021SOL    HW112962   3.254   3.465   5.317
 4021SOL    HW212963   3.415   3.483   5.334
 4022SOL     OW12964   2.459   0.152   0.610
 4022SOL    HW112965   2.396   0.098   0.554
 4022SOL    HW212966   2.534   0.185   0.552
 4023SOL     OW12967   0.366   2.591   5.585
 4023SOL    HW112968   0.301   2.594   5.509
 4023SOL    HW212969   0.425   2.671   5.582
 4024SOL     OW12970   0.632   4.548   4.097
 4024SOL    HW112971   0.583   4.475   4.144
 4024SOL    HW212972   0.670   4.611   4.165
 4025SOL     OW12973   1.004   6.057   3.842
 4025SOL    HW112974   0.917   6.098   3.814
 4025SOL    HW212975   1.046   6.011   3.764
 4026SOL     OW12976   6.590   6.173   3.441
 4026SOL    HW112977   6.496   6.145   3.422
 4026SOL    HW212978   6.628   6.218   3.360
 4027SOL     OW12979   2.633   3.957   5.636
 4027SOL    HW112980   2.703   4.019   5.670
 4027SOL    HW212981   2.646   3.943   5.538
 4028SOL     OW12982   4.674   1.910   2.511
 4028SOL    HW112983   4.643   1.994   2.555
 4028SOL    HW212984   4.764   1.885   2.546
 4029SOL     OW12985   2.488   5.192   6.712
 4029SOL    HW112986   2.489   5.158   6.617
 4029SOL    HW212987   2.582   5.209   6.741
 4030SOL     OW12988   0.778   1.144   2.815
 4030SOL    HW112989   0.716   1.065   2.813
 4030SOL    HW212990   0.727   1.225   2.845
 4031SOL     OW12991   5.378   7.018   1.396
 4031SOL    HW112992   5.312   0.039   1.336
 4031SOL    HW212993   5.348   6.924   1.414
 4032SOL     OW12994   6.113   0.467   1.679
 4032SOL    HW112995   6.097   0.479   1.581
 4032SOL    HW212996   6.206   0.435   1.694
 4033SOL     OW12997   2.920   2.083   2.888
 4033SOL    HW112998   2.834   2.091   2.839
 4033SOL    HW212999   2.986   2.149   2.851
 4034SOL     OW13000   0.106   3.496   4.855
 4034SOL    HW113001   0.018   3.448   4.854
 4034SOL    HW213002   0.175   3.437   4.898
 4035SOL     OW13003   6.546   1.856   0.989
 4035SOL    HW113004   6.495   1.796   1.050
 4035SOL    HW213005   6.625   1.806   0.953
 4036SOL     OW13006   2.565   5.512   3.783
 4036SOL    HW113007   2.525   5.521   3.692
 4036SOL    HW213008   2.644   5.573   3.791
 4037SOL     OW13009   1.603   0.709   5.673
 4037SOL    HW113010   1.506   0.720   5.695
 4037SOL    HW213011   1.642   0.798   5.648
 4038SOL     OW13012   3.473   4.648   6.043
 4038SOL    HW113013   3.397   4.652   5.978
 4038SOL    HW213014   3.559   4.661   5.993
 4039SOL     OW13015   5.858   4.541   1.600
 4039SOL    HW113016   5.900   4.601   1.531
 4039SOL    HW213017   5.791   4.592   1.653
 4040SOL     OW13018   4.062   5.094   5.414
 4040SOL    HW113019   4.010   5.150   5.478
 4040SOL    HW213020   4.158   5.091   5.442
 4041SOL     OW13021   1.965   6.714   1.457
 4041SOL    HW113022   2.014   6.642   1.407
 4041SOL    HW213023   1.965   6.798   1.401
 4042SOL     OW13024   6.636   0.568   3.484
 4042SOL    HW113025   6.558   0.581   3.546
 4042SOL    HW213026   6.633   0.477   3.445
 4043SOL     OW13027   5.318   3.417   6.277
 4043SOL    HW113028   5.250   3.482   6.311
 4043SOL    HW213029   5.282   3.370   6.196
 4044SOL     OW13030   4.109   4.970   3.368
 4044SOL    HW113031   4.085   4.967   3.465
 4044SOL    HW213032   4.138   4.879   3.338
 4045SOL     OW13033   5.285   0.120   6.089
 4045SOL    HW113034   5.255   0.078   6.175
 4045SOL    HW213035   5.228   0.087   6.014
 4046SOL     OW13036   0.330   1.560   3.273
 4046SOL    HW113037   0.244   1.550   3.323
 4046SOL    HW213038   0.321   1.632   3.204
 4047SOL     OW13039   2.721   2.999   6.838
 4047SOL    HW113040   2.684   3.081   6.883
 4047SOL    HW213041   2.692   2.998   6.743
 4048SOL     OW13042   4.883   1.055   2.033
 4048SOL    HW113043   4.911   0.975   1.980
 4048SOL    HW213044   4.942   1.064   2.113
 4049SOL     OW13045   3.866   5.673   6.646
 4049SOL    HW113046   3.799   5.611   6.687
 4049SOL    HW213047   3.958   5.644   6.669
 4050SOL     OW13048   0.657   5.819   2.764
 4050SOL    HW113049   0.691   5.860   2.679
 4050SOL    HW213050   0.615   5.890   2.821
 4051SOL     OW13051   4.773   1.233   6.459
 4051SOL    HW113052   4.674   1.247   6.456
 4051SOL    HW213053   4.818   1.299   6.399
 4052SOL     OW13054   6.056   1.601   3.178
 4052SOL    HW113055   6.080   1.690   3.138
 4052SOL    HW213056   6.132   1.567   3.232
 4053SOL     OW13057   1.302   5.515   4.915
 4053SOL    HW113058   1.264   5.422   4.917
 4053SOL    HW213059   1.396   5.511   4.881
 4054SOL     OW13060   4.626   4.084   1.090
 4054SOL    HW113061   4.529   4.078   1.069
 4054SOL    HW213062   4.666   4.163   1.042
 4055SOL     OW13063   1.407   3.817   1.922
 4055SOL    HW113064   1.480   3.764   1.878
 4055SOL    HW213065   1.444   3.905   1.952
 4056SOL     OW13066   5.397   3.202   0.903
 4056SOL    HW113067   5.353   3.214   0.814
 4056SOL    HW213068   5.335   3.231   0.975
 4057SOL     OW13069   6.473   3.382   6.361
 4057SOL    HW113070   6.388   3.335   6.339
 4057SOL    HW213071   6.455   3.480   6.370
 4058SOL     OW13072   3.061   5.481   5.009
 4058SOL    HW113073   2.975   5.465   5.056
 4058SOL    HW213074   3.137   5.467   5.072
 4059SOL     OW13075   0.695   2.164   4.213
 4059SOL    HW113076   0.725   2.075   4.248
 4059SOL    HW213077   0.696   2.163   4.113
 4060SOL     OW13078   6.539   5.728   5.159
 4060SOL    HW113079   6.565   5.821   5.184
 4060SOL    HW213080   6.618   5.667   5.169
 4061SOL     OW13081   2.424   5.255   1.913
 4061SOL    HW113082   2.491   5.329   1.903
 4061SOL    HW213083   2.464   5.170   1.879
 4062SOL     OW13084   2.361   1.552   1.681
 4062SOL    HW113085   2.361   1.643   1.639
 4062SOL    HW213086   2.293   1.549   1.754
 4063SOL     OW13087   5.381   0.379   1.313
 4063SOL    HW113088   5.463   0.346   1.359
 4063SOL    HW213089   5.385   0.353   1.216
 4064SOL     OW13090   2.019   1.999   4.429
 4064SOL    HW113091   2.053   2.086   4.463
 4064SOL    HW213092   1.927   1.982   4.466
 4065SOL     OW13093   1.672   6.810   0.291
 4065SOL    HW113094   1.702   6.832   0.198
 4065SOL    HW213095   1.591   6.865   0.313
 4066SOL     OW13096   6.754   4.334   3.125
 4066SOL    HW113097   6.706   4.249   3.104
 4066SOL    HW213098   6.771   4.339   3.224
 4067SOL     OW13099   5.900   4.048   2.523
 4067SOL    HW113100   5.819   4.056   2.582
 4067SOL    HW213101   5.877   4.078   2.431
 4068SOL     OW13102   1.884   2.551   5.068
 4068SOL    HW113103   1.840   2.550   5.157
 4068SOL    HW213104   1.977   2.588   5.076
 4069SOL     OW13105   3.940   6.672   6.829
 4069SOL    HW113106   3.947   6.660   6.928
 4069SOL    HW213107   3.997   6.749   6.800
 4070SOL     OW13108   1.269   3.313   3.067
 4070SOL    HW113109   1.187   3.273   3.108
 4070SOL    HW213110   1.342   3.318   3.136
 4071SOL     OW13111   1.002   0.484   3.867
 4071SOL    HW113112   0.963   0.539   3.794
 4071SOL    HW213113   0.930   0.452   3.928
 4072SOL     OW13114   1.452   5.646   4.497
 4072SOL    HW113115   1.453   5.547   4.513
 4072SOL    HW213116   1.358   5.679   4.495
 4073SOL     OW13117   2.178   5.377   0.520
 4073SOL    HW113118   2.147   5.471   0.503
 4073SOL    HW213119   2.216   5.371   0.612
 4074SOL     OW13120   1.501   4.895   2.006
 4074SOL    HW113121   1.406   4.925   2.000
 4074SOL    HW213122   1.507   4.813   2.062
 4075SOL     OW13123   5.277   0.827   0.642
 4075SOL    HW113124   5.275   0.756   0.571
 4075SOL    HW213125   5.357   0.814   0.700
 4076SOL     OW13126   3.206   3.089   5.587
 4076SOL    HW113127   3.117   3.048   5.611
 4076SOL    HW213128   3.204   3.186   5.610
 4077SOL     OW13129   4.276   1.910   1.683
 4077SOL    HW113130   4.349   1.932   1.617
 4077SOL    HW213131   4.200   1.973   1.671
 4078SOL     OW13132   2.829   4.896   2.633
 4078SOL    HW113133   2.920   4.910   2.597
 4078SOL    HW213134   2.762   4.946   2.578
 4079SOL     OW13135   1.481   2.313   4.178
 4079SOL    HW113136   1.562   2.258   4.157
 4079SOL    HW213137   1.400   2.272   4.135
 4080SOL     OW13138   4.979   2.127   5.338
 4080SOL    HW113139   5.053   2.116   5.404
 4080SOL    HW213140   4.895   2.152   5.385
 4081SOL     OW13141   1.885   3.137   4.308
 4081SOL    HW113142   1.954   3.065   4.298
 4081SOL    HW213143   1.837   3.125   4.395
 4082SOL     OW13144   1.545   3.239   0.800
 4082SOL    HW113145   1.495   3.324   0.788
 4082SOL    HW213146   1.615   3.230   0.729
 4083SOL     OW13147   5.797   2.810   3.797
 4083SOL    HW113148   5.844   2.850   3.876
 4083SOL    HW213149   5.698   2.821   3.807
 4084SOL     OW13150   6.216   1.881   4.125
 4084SOL    HW113151   6.134   1.868   4.070
 4084SOL    HW213152   6.192   1.921   4.213
 4085SOL     OW13153   4.378   6.228   0.540
 4085SOL    HW113154   4.303   6.227   0.606
 4085SOL    HW213155   4.447   6.294   0.569
 4086SOL     OW13156   1.843   5.139   1.231
 4086SOL    HW113157   1.815   5.055   1.185
 4086SOL    HW213158   1.875   5.117   1.323
 4087SOL     OW13159   2.074   2.391   3.654
 4087SOL    HW113160   2.156   2.350   3.695
 4087SOL    HW213161   2.092   2.488   3.635
 4088SOL     OW13162   6.198   1.837   1.475
 4088SOL    HW113163   6.256   1.756   1.464
 4088SOL    HW213164   6.149   1.854   1.390
 4089SOL     OW13165   0.623   0.090   3.520
 4089SOL    HW113166   0.535   0.132   3.544
 4089SOL    HW213167   0.696   0.156   3.533
 4090SOL     OW13168   2.847   4.358   6.847
 4090SOL    HW113169   2.921   4.364   6.781
 4090SOL    HW213170   2.773   4.303   6.809
 4091SOL     OW13171   5.264   6.714   0.222
 4091SOL    HW113172   5.205   6.633   0.224
 4091SOL    HW213173   5.314   6.717   0.136
 4092SOL     OW13174   0.231   3.081   5.122
 4092SOL    HW113175   0.146   3.062   5.172
 4092SOL    HW213176   0.309   3.062   5.181
 4093SOL     OW13177   5.302   0.289   3.784
 4093SOL    HW113178   5.306   0.375   3.835
 4093SOL    HW213179   5.380   0.282   3.723
 4094SOL     OW13180   1.860   4.507   5.066
 4094SOL    HW113181   1.899   4.417   5.050
 4094SOL    HW213182   1.886   4.539   5.158
 4095SOL     OW13183   1.185   3.572   6.048
 4095SOL    HW113184   1.193   3.486   5.998
 4095SOL    HW213185   1.089   3.602   6.046
 4096SOL     OW13186   4.937   5.217   0.995
 4096SOL    HW113187   5.028   5.185   1.020
 4096SOL    HW213188   4.891   5.250   1.078
 4097SOL     OW13189   3.174   4.295   6.157
 4097SOL    HW113190   3.106   4.240   6.108
 4097SOL    HW213191   3.128   4.358   6.219
 4098SOL     OW13192   0.351   2.753   2.597
 4098SOL    HW113193   0.291   2.673   2.596
 4098SOL    HW213194   0.405   2.754   2.681
 4099SOL     OW13195   2.866   5.469   1.650
 4099SOL    HW113196   2.832   5.513   1.567
 4099SOL    HW213197   2.966   5.467   1.648
 4100SOL     OW13198   4.780   5.552   4.064
 4100SOL    HW113199   4.760   5.476   4.002
 4100SOL    HW213200   4.875   5.545   4.096
 4101SOL     OW13201   5.696   1.408   0.441
 4101SOL    HW113202   5.746   1.334   0.486
 4101SOL    HW213203   5.652   1.466   0.509
 4102SOL     OW13204   6.515   0.610   1.124
 4102SOL    HW113205   6.612   0.621   1.105
 4102SOL    HW213206   6.487   0.673   1.196
 4103SOL     OW13207   0.713   0.963   2.037
 4103SOL    HW113208   0.766   1.020   2.100
 4103SOL    HW213209   0.693   0.875   2.079
 4104SOL     OW13210   1.555   4.068   2.520
 4104SOL    HW113211   1.478   4.112   2.473
 4104SOL    HW213212   1.589   4.127   2.593
 4105SOL     OW13213   4.449   5.857   0.682
 4105SOL    HW113214   4.349   5.859   0.689
 4105SOL    HW213215   4.478   5.902   0.597
 4106SOL     OW13216   6.980   3.634   4.465
 4106SOL    HW113217   0.023   3.671   4.530
 4106SOL    HW213218   6.894   3.684   4.474
 4107SOL     OW13219   0.300   6.075   1.245
 4107SOL    HW113220   0.228   6.116   1.301
 4107SOL    HW213221   0.270   5.985   1.214
 4108SOL     OW13222   6.930   4.892   6.490
 4108SOL    HW113223   6.904   4.806   6.533
 4108SOL    HW213224   6.887   4.899   6.400
 4109SOL     OW13225   4.064   6.210   4.009
 4109SOL    HW113226   3.965   6.209   4.023
 4109SOL    HW213227   4.084   6.189   3.913
 4110SOL     OW13228   3.590   4.074   6.415
 4110SOL    HW113229   3.545   3.989   6.387
 4110SOL    HW213230   3.523   4.133   6.461
 4111SOL     OW13231   3.764   3.096   7.008
 4111SOL    HW113232   3.731   3.175   0.035
 4111SOL    HW213233   3.755   3.114   6.910
 4112SOL     OW13234   4.755   1.436   5.133
 4112SOL    HW113235   4.740   1.516   5.191
 4112SOL    HW213236   4.828   1.380   5.173
 4113SOL     OW13237   3.593   5.484   5.140
 4113SOL    HW113238   3.562   5.394   5.110
 4113SOL    HW213239   3.693   5.488   5.137
 4114SOL     OW13240   3.193   1.274   4.125
 4114SOL    HW113241   3.097   1.277   4.151
 4114SOL    HW213242   3.201   1.286   4.026
 4115SOL     OW13243   4.575   6.031   2.225
 4115SOL    HW113244   4.519   5.999   2.301
 4115SOL    HW213245   4.633   5.957   2.192
 4116SOL     OW13246   4.012   1.720   1.434
 4116SOL    HW113247   4.067   1.789   1.387
 4116SOL    HW213248   3.973   1.759   1.517
 4117SOL     OW13249   0.733   5.519   1.314
 4117SOL    HW113250   0.818   5.549   1.358
 4117SOL    HW213251   0.657   5.574   1.348
 4118SOL     OW13252   0.943   6.819   0.972
 4118SOL    HW113253   0.944   6.724   0.943
 4118SOL    HW213254   0.944   6.823   1.072
 4119SOL     OW13255   3.537   1.384   4.422
 4119SOL    HW113256   3.613   1.370   4.359
 4119SOL    HW213257   3.457   1.417   4.371
 4120SOL     OW13258   4.045   6.727   2.259
 4120SOL    HW113259   3.964   6.683   2.296
 4120SOL    HW213260   4.043   6.824   2.282
 4121SOL     OW13261   6.539   2.106   4.421
 4121SOL    HW113262   6.623   2.133   4.468
 4121SOL    HW213263   6.558   2.032   4.357
 4122SOL     OW13264   0.142   6.146   5.245
 4122SOL    HW113265   0.203   6.093   5.187
 4122SOL    HW213266   0.180   6.153   5.337
 4123SOL     OW13267   5.717   4.394   5.981
 4123SOL    HW113268   5.803   4.417   5.936
 4123SOL    HW213269   5.705   4.294   5.980
 4124SOL     OW13270   5.643   6.168   4.387
 4124SOL    HW113271   5.705   6.196   4.314
 4124SOL    HW213272   5.637   6.068   4.390
 4125SOL     OW13273   4.773   0.346   2.030
 4125SOL    HW113274   4.703   0.415   2.010
 4125SOL    HW213275   4.730   0.256   2.040
 4126SOL     OW13276   1.199   4.117   4.288
 4126SOL    HW113277   1.276   4.171   4.320
 4126SOL    HW213278   1.218   4.083   4.196
 4127SOL     OW13279   5.239   3.417   4.208
 4127SOL    HW113280   5.261   3.513   4.227
 4127SOL    HW213281   5.323   3.363   4.210
 4128SOL     OW13282   1.964   3.945   2.476
 4128SOL    HW113283   1.940   3.968   2.570
 4128SOL    HW213284   2.040   3.880   2.476
 4129SOL     OW13285   5.175   1.805   6.246
 4129SOL    HW113286   5.114   1.859   6.304
 4129SOL    HW213287   5.208   1.861   6.171
 4130SOL     OW13288   6.711   3.438   5.699
 4130SOL    HW113289   6.741   3.386   5.779
 4130SOL    HW213290   6.748   3.530   5.702
 4131SOL     OW13291   0.563   5.866   4.010
 4131SOL    HW113292   0.493   5.803   4.043
 4131SOL    HW213293   0.544   5.958   4.043
 4132SOL     OW13294   5.502   3.654   3.354
 4132SOL    HW113295   5.551   3.732   3.316
 4132SOL    HW213296   5.481   3.589   3.280
 4133SOL     OW13297   3.362   0.403   0.848
 4133SOL    HW113298   3.371   0.426   0.751
 4133SOL    HW213299   3.304   0.322   0.858
 4134SOL     OW13300   2.149   2.036   0.889
 4134SOL    HW113301   2.063   2.076   0.855
 4134SOL    HW213302   2.202   2.002   0.812
 4135SOL     OW13303   1.951   0.499   2.000
 4135SOL    HW113304   1.874   0.459   2.050
 4135SOL    HW213305   2.019   0.429   1.980
 4136SOL     OW13306   0.384   2.141   3.653
 4136SOL    HW113307   0.318   2.089   3.599
 4136SOL    HW213308   0.450   2.185   3.593
 4137SOL     OW13309   2.820   4.164   0.331
 4137SOL    HW113310   2.873   4.169   0.416
 4137SOL    HW213311   2.875   4.119   0.261
 4138SOL     OW13312   4.243   4.702   4.174
 4138SOL    HW113313   4.293   4.771   4.225
 4138SOL    HW213314   4.176   4.657   4.235
 4139SOL     OW13315   1.776   2.075   6.059
 4139SOL    HW113316   1.715   2.129   6.001
 4139SOL    HW213317   1.851   2.040   6.004
 4140SOL     OW13318   3.643   1.047   5.385
 4140SOL    HW113319   3.610   1.142   5.382
 4140SOL    HW213320   3.618   1.000   5.301
 4141SOL     OW13321   5.013   5.085   1.370
 4141SOL    HW113322   5.060   5.021   1.310
 4141SOL    HW213323   5.071   5.105   1.450
 4142SOL     OW13324   6.634   5.389   0.959
 4142SOL    HW113325   6.639   5.343   1.048
 4142SOL    HW213326   6.616   5.487   0.973
 4143SOL     OW13327   0.019   2.816   0.388
 4143SOL    HW113328   0.009   2.907   0.428
 4143SOL    HW213329   0.009   2.821   0.289
 4144SOL     OW13330   5.784   1.663   1.146
 4144SOL    HW113331   5.708   1.722   1.120
 4144SOL    HW213332   5.867   1.693   1.101
 4145SOL     OW13333   6.915   6.398   1.721
 4145SOL    HW113334   6.914   6.479   1.662
 4145SOL    HW213335   7.009   6.380   1.752
 4146SOL     OW13336   5.746   0.482   6.179
 4146SOL    HW113337   5.770   0.395   6.223
 4146SOL    HW213338   5.707   0.544   6.247
 4147SOL     OW13339   2.940   2.008   6.354
 4147SOL    HW113340   3.005   2.068   6.401
 4147SOL    HW213341   2.973   1.989   6.261
 4148SOL     OW13342   0.612   0.698   4.151
 4148SOL    HW113343   0.672   0.629   4.109
 4148SOL    HW213344   0.666   0.776   4.180
 4149SOL     OW13345   6.590   2.932   0.248
 4149SOL    HW113346   6.497   2.904   0.228
 4149SOL    HW213347   6.653   2.858   0.224
 4150SOL     OW13348   6.148   0.595   6.358
 4150SOL    HW113349   6.095   0.647   6.291
 4150SOL    HW213350   6.243   0.628   6.358
 4151SOL     OW13351   5.836   6.187   0.128
 4151SOL    HW113352   5.786   6.216   0.210
 4151SOL    HW213353   5.933   6.212   0.137
 4152SOL     OW13354   3.545   5.039   2.101
 4152SOL    HW113355   3.598   5.108   2.051
 4152SOL    HW213356   3.586   4.949   2.086
 4153SOL     OW13357   5.275   5.225   6.258
 4153SOL    HW113358   5.222   5.309   6.256
 4153SOL    HW213359   5.223   5.152   6.213
 4154SOL     OW13360   6.490   3.957   4.852
 4154SOL    HW113361   6.407   4.007   4.877
 4154SOL    HW213362   6.489   3.867   4.894
 4155SOL     OW13363   0.543   3.406   2.731
 4155SOL    HW113364   0.452   3.388   2.692
 4155SOL    HW213365   0.600   3.453   2.663
 4156SOL     OW13366   5.755   0.040   4.984
 4156SOL    HW113367   5.811   0.123   4.978
 4156SOL    HW213368   5.773   7.006   4.905
 4157SOL     OW13369   3.886   0.177   4.139
 4157SOL    HW113370   3.921   0.254   4.192
 4157SOL    HW213371   3.941   0.167   4.055
 4158SOL     OW13372   0.595   5.198   3.512
 4158SOL    HW113373   0.687   5.206   3.551
 4158SOL    HW213374   0.534   5.155   3.579
 4159SOL     OW13375   1.882   2.988   3.963
 4159SOL    HW113376   1.879   2.892   3.990
 4159SOL    HW213377   1.851   2.997   3.868
 4160SOL     OW13378   6.264   0.563   1.400
 4160SOL    HW113379   6.320   0.616   1.336
 4160SOL    HW213380   6.168   0.588   1.389
 4161SOL     OW13381   1.750   0.801   6.490
 4161SOL    HW113382   1.815   0.785   6.564
 4161SOL    HW213383   1.768   0.890   6.449
 4162SOL     OW13384   6.001   0.522   4.964
 4162SOL    HW113385   6.084   0.548   4.914
 4162SOL    HW213386   5.986   0.587   5.039
 4163SOL     OW13387   5.863   1.209   3.410
 4163SOL    HW113388   5.940   1.232   3.470
 4163SOL    HW213389   5.777   1.237   3.454
 4164SOL     OW13390   1.395   0.425   6.769
 4164SOL    HW113391   1.381   0.499   6.835
 4164SOL    HW213392   1.460   0.454   6.699
 4165SOL     OW13393   4.329   6.572   0.740
 4165SOL    HW113394   4.389   6.527   0.675
 4165SOL    HW213395   4.236   6.576   0.702
 4166SOL     OW13396   4.492   2.650   0.868
 4166SOL    HW113397   4.430   2.725   0.844
 4166SOL    HW213398   4.492   2.638   0.967
 4167SOL     OW13399   2.632   2.429   1.353
 4167SOL    HW113400   2.629   2.503   1.285
 4167SOL    HW213401   2.640   2.468   1.444
 4168SOL     OW13402   0.229   5.029   1.673
 4168SOL    HW113403   0.158   5.063   1.734
 4168SOL    HW213404   0.267   5.106   1.621
 4169SOL     OW13405   4.746   4.066   4.137
 4169SOL    HW113406   4.756   3.981   4.189
 4169SOL    HW213407   4.800   4.060   4.053
 4170SOL     OW13408   4.063   2.519   5.647
 4170SOL    HW113409   3.969   2.554   5.637
 4170SOL    HW213410   4.118   2.585   5.698
 4171SOL     OW13411   5.325   3.490   0.944
 4171SOL    HW113412   5.323   3.513   0.846
 4171SOL    HW213413   5.412   3.445   0.965
 4172SOL     OW13414   0.155   2.318   0.244
 4172SOL    HW113415   0.207   2.378   0.304
 4172SOL    HW213416   0.214   2.245   0.209
 4173SOL     OW13417   5.886   2.892   5.391
 4173SOL    HW113418   5.976   2.912   5.353
 4173SOL    HW213419   5.852   2.971   5.441
 4174SOL     OW13420   4.594   0.229   3.932
 4174SOL    HW113421   4.534   0.177   3.993
 4174SOL    HW213422   4.541   0.270   3.858
 4175SOL     OW13423   3.507   6.909   3.891
 4175SOL    HW113424   3.492   6.814   3.865
 4175SOL    HW213425   3.460   6.969   3.827
 4176SOL     OW13426   4.390   0.179   2.556
 4176SOL    HW113427   4.336   0.260   2.533
 4176SOL    HW213428   4.351   0.135   2.637
 4177SOL     OW13429   0.258   5.523   4.629
 4177SOL    HW113430   0.250   5.459   4.706
 4177SOL    HW213431   0.351   5.559   4.625
 4178SOL     OW13432   3.181   1.277   6.036
 4178SOL    HW113433   3.115   1.214   5.996
 4178SOL    HW213434   3.157   1.371   6.012
 4179SOL     OW13435   5.524   3.510   4.777
 4179SOL    HW113436   5.467   3.442   4.730
 4179SOL    HW213437   5.584   3.463   4.841
 4180SOL     OW13438   5.441   4.143   1.725
 4180SOL    HW113439   5.389   4.228   1.730
 4180SOL    HW213440   5.383   4.067   1.756
 4181SOL     OW13441   0.964   2.137   6.287
 4181SOL    HW113442   0.975   2.116   6.190
 4181SOL    HW213443   1.053   2.134   6.333
 4182SOL     OW13444   0.436   0.314   2.794
 4182SOL    HW113445   0.381   0.379   2.742
 4182SOL    HW213446   0.388   0.288   2.877
 4183SOL     OW13447   2.822   1.847   1.610
 4183SOL    HW113448   2.835   1.941   1.580
 4183SOL    HW213449   2.778   1.847   1.700
 4184SOL     OW13450   3.913   5.242   1.084
 4184SOL    HW113451   3.976   5.318   1.068
 4184SOL    HW213452   3.819   5.273   1.072
 4185SOL     OW13453   0.431   6.245   3.047
 4185SOL    HW113454   0.358   6.262   3.114
 4185SOL    HW213455   0.514   6.216   3.095
 4186SOL     OW13456   2.147   3.917   6.847
 4186SOL    HW113457   2.102   3.946   6.932
 4186SOL    HW213458   2.240   3.887   6.868
 4187SOL     OW13459   3.636   3.473   6.540
 4187SOL    HW113460   3.638   3.442   6.445
 4187SOL    HW213461   3.579   3.555   6.547
 4188SOL     OW13462   4.908   0.489   4.593
 4188SOL    HW113463   4.853   0.562   4.550
 4188SOL    HW213464   5.005   0.512   4.584
 4189SOL     OW13465   3.015   1.164   4.619
 4189SOL    HW113466   3.065   1.230   4.563
 4189SOL    HW213467   3.001   1.080   4.567
 4190SOL     OW13468   2.363   0.595   6.449
 4190SOL    HW113469   2.414   0.510   6.440
 4190SOL    HW213470   2.268   0.574   6.473
 4191SOL     OW13471   6.214   3.032   2.947
 4191SOL    HW113472   6.306   3.060   2.973
 4191SOL    HW213473   6.167   2.992   3.027
 4192SOL     OW13474   5.795   1.187   2.993
 4192SOL    HW113475   5.850   1.253   3.044
 4192SOL    HW213476   5.701   1.219   2.988
 4193SOL     OW13477   2.248   6.858   2.025
 4193SOL    HW113478   2.210   6.938   2.071
 4193SOL    HW213479   2.273   6.789   2.093
 4194SOL     OW13480   0.056   1.898   4.441
 4194SOL    HW113481   0.052   1.884   4.342
 4194SOL    HW213482   0.104   1.821   4.483
 4195SOL     OW13483   4.318   0.652   1.185
 4195SOL    HW113484   4.235   0.609   1.220
 4195SOL    HW213485   4.366   0.697   1.260
 4196SOL     OW13486   5.319   2.721   3.989
 4196SOL    HW113487   5.247   2.789   4.000
 4196SOL    HW213488   5.399   2.763   3.945
 4197SOL     OW13489   5.146   4.392   4.442
 4197SOL    HW113490   5.182   4.459   4.506
 4197SOL    HW213491   5.216   4.371   4.373
 4198SOL     OW13492   6.081   3.228   0.027
 4198SOL    HW113493   6.003   3.285   0.049
 4198SOL    HW213494   6.051   3.148   7.000
 4199SOL     OW13495   3.172   3.473   5.149
 4199SOL    HW113496   3.240   3.534   5.107
 4199SOL    HW213497   3.080   3.510   5.132
 4200SOL     OW13498   2.140   6.648   5.747
 4200SOL    HW113499   2.140   6.616   5.841
 4200SOL    HW213500   2.213   6.602   5.696
 4201SOL     OW13501   6.242   6.638   3.143
 4201SOL    HW113502   6.155   6.611   3.184
 4201SOL    HW213503   6.307   6.661   3.214
 4202SOL     OW13504   5.136   4.621   5.461
 4202SOL    HW113505   5.200   4.550   5.430
 4202SOL    HW213506   5.184   4.684   5.522
 4203SOL     OW13507   4.942   5.603   3.398
 4203SOL    HW113508   4.862   5.658   3.373
 4203SOL    HW213509   5.002   5.657   3.457
 4204SOL     OW13510   3.378   3.238   1.202
 4204SOL    HW113511   3.381   3.312   1.270
 4204SOL    HW213512   3.352   3.153   1.247
 4205SOL     OW13513   3.091   5.052   5.131
 4205SOL    HW113514   3.043   4.965   5.119
 4205SOL    HW213515   3.037   5.113   5.189
 4206SOL     OW13516   4.642   0.029   5.058
 4206SOL    HW113517   4.664   6.958   5.040
 4206SOL    HW213518   4.543   0.041   5.059
 4207SOL     OW13519   1.246   1.128   2.025
 4207SOL    HW113520   1.179   1.059   2.051
 4207SOL    HW213521   1.282   1.171   2.108
 4208SOL     OW13522   1.428   2.749   1.153
 4208SOL    HW113523   1.332   2.747   1.178
 4208SOL    HW213524   1.444   2.687   1.076
 4209SOL     OW13525   1.917   6.992   4.682
 4209SOL    HW113526   1.940   6.915   4.623
 4209SOL    HW213527   2.000   0.020   4.702
 4210SOL     OW13528   3.735   3.430   1.230
 4210SOL    HW113529   3.668   3.359   1.252
 4210SOL    HW213530   3.723   3.507   1.292
 4211SOL     OW13531   4.986   4.809   4.906
 4211SOL    HW113532   4.899   4.794   4.953
 4211SOL    HW213533   5.040   4.725   4.907
 4212SOL     OW13534   6.378   1.147   2.512
 4212SOL    HW113535   6.359   1.078   2.582
 4212SOL    HW213536   6.292   1.185   2.479
 4213SOL     OW13537   1.753   0.846   2.154
 4213SOL    HW113538   1.815   0.824   2.230
 4213SOL    HW213539   1.674   0.896   2.189
 4214SOL     OW13540   1.055   3.295   5.695
 4214SOL    HW113541   1.074   3.380   5.647
 4214SOL    HW213542   1.063   3.218   5.631
 4215SOL     OW13543   0.868   5.632   4.658
 4215SOL    HW113544   0.794   5.651   4.593
 4215SOL    HW213545   0.833   5.637   4.752
 4216SOL     OW13546   1.192   2.525   4.528
 4216SOL    HW113547   1.172   2.623   4.525
 4216SOL    HW213548   1.266   2.505   4.463
 4217SOL     OW13549   0.489   0.335   2.386
 4217SOL    HW113550   0.534   0.246   2.375
 4217SOL    HW213551   0.391   0.324   2.374
 4218SOL     OW13552   4.682   0.060   2.038
 4218SOL    HW113553   4.613   0.068   1.966
 4218SOL    HW213554   4.749   7.014   2.014
 4219SOL     OW13555   3.954   4.932   5.189
 4219SOL    HW113556   4.012   4.976   5.257
 4219SOL    HW213557   3.859   4.960   5.202
 4220SOL     OW13558   6.717   3.476   3.704
 4220SOL    HW113559   6.784   3.467   3.778
 4220SOL    HW213560   6.693   3.385   3.669
 4221SOL     OW13561   5.044   5.314   6.504
 4221SOL    HW113562   5.115   5.328   6.572
 4221SOL    HW213563   5.026   5.400   6.456
 4222SOL     OW13564   5.506   2.343   1.715
 4222SOL    HW113565   5.534   2.437   1.736
 4222SOL    HW213566   5.496   2.292   1.801
 4223SOL     OW13567   3.174   4.003   2.579
 4223SOL    HW113568   3.187   4.034   2.484
 4223SOL    HW213569   3.132   3.912   2.579
 4224SOL     OW13570   4.686   2.512   4.854
 4224SOL    HW113571   4.673   2.594   4.910
 4224SOL    HW213572   4.750   2.450   4.900
 4225SOL     OW13573   6.230   0.499   4.557
 4225SOL    HW113574   6.295   0.563   4.518
 4225SOL    HW213575   6.252   0.406   4.527
 4226SOL     OW13576   0.805   1.332   3.728
 4226SOL    HW113577   0.735   1.311   3.796
 4226SOL    HW213578   0.762   1.358   3.642
 4227SOL     OW13579   3.947   4.838   0.327
 4227SOL    HW113580   3.972   4.783   0.248
 4227SOL    HW213581   3.848   4.857   0.326
 4228SOL     OW13582   5.909   5.693   3.677
 4228SOL    HW113583   5.989   5.746   3.648
 4228SOL    HW213584   5.826   5.739   3.647
 4229SOL     OW13585   4.492   4.826   6.350
 4229SOL    HW113586   4.454   4.749   6.299
 4229SOL    HW213587   4.441   4.838   6.436
 4230SOL     OW13588   3.093   0.413   5.139
 4230SOL    HW113589   3.063   0.461   5.221
 4230SOL    HW213590   3.049   0.323   5.135
 4231SOL     OW13591   4.860   6.730   5.378
 4231SOL    HW113592   4.921   6.792   5.329
 4231SOL    HW213593   4.772   6.775   5.393
 4232SOL     OW13594   1.548   5.311   2.902
 4232SOL    HW113595   1.537   5.348   2.994
 4232SOL    HW213596   1.460   5.313   2.855
 4233SOL     OW13597   6.512   0.295   6.217
 4233SOL    HW113598   6.500   0.294   6.316
 4233SOL    HW213599   6.577   0.366   6.192
 4234SOL     OW13600   3.146   5.480   6.630
 4234SOL    HW113601   3.121   5.471   6.534
 4234SOL    HW213602   3.155   5.576   6.654
 4235SOL     OW13603   6.007   4.146   5.481
 4235SOL    HW113604   6.039   4.159   5.574
 4235SOL    HW213605   5.909   4.167   5.475
 4236SOL     OW13606   0.427   2.529   3.888
 4236SOL    HW113607   0.381   2.449   3.851
 4236SOL    HW213608   0.388   2.554   3.976
 4237SOL     OW13609   5.163   3.984   5.044
 4237SOL    HW113610   5.142   3.946   5.134
 4237SOL    HW213611   5.166   4.084   5.051
 4238SOL     OW13612   4.183   5.084   3.953
 4238SOL    HW113613   4.165   5.100   4.051
 4238SOL    HW213614   4.178   4.987   3.934
 4239SOL     OW13615   4.390   6.781   5.687
 4239SOL    HW113616   4.359   6.873   5.662
 4239SOL    HW213617   4.415   6.780   5.784
 4240SOL     OW13618   2.606   4.874   0.162
 4240SOL    HW113619   2.523   4.820   0.178
 4240SOL    HW213620   2.634   4.863   0.066
 4241SOL     OW13621   5.072   0.336   1.039
 4241SOL    HW113622   5.078   0.286   0.953
 4241SOL    HW213623   5.028   0.424   1.024
 4242SOL     OW13624   2.163   6.984   2.531
 4242SOL    HW113625   2.200   6.905   2.483
 4242SOL    HW213626   2.179   0.042   2.476
 4243SOL     OW13627   0.686   3.815   2.571
 4243SOL    HW113628   0.664   3.812   2.474
 4243SOL    HW213629   0.786   3.812   2.583
 4244SOL     OW13630   4.936   6.681   0.871
 4244SOL    HW113631   4.842   6.715   0.864
 4244SOL    HW213632   4.983   6.696   0.784
 4245SOL     OW13633   6.662   2.914   0.674
 4245SOL    HW113634   6.610   2.828   0.673
 4245SOL    HW213635   6.679   2.943   0.579
 4246SOL     OW13636   4.953   2.370   3.444
 4246SOL    HW113637   5.049   2.346   3.460
 4246SOL    HW213638   4.902   2.289   3.418
 4247SOL     OW13639   1.836   4.816   5.111
 4247SOL    HW113640   1.840   4.716   5.098
 4247SOL    HW213641   1.826   4.860   5.022
 4248SOL     OW13642   2.117   1.036   2.893
 4248SOL    HW113643   2.088   0.945   2.924
 4248SOL    HW213644   2.049   1.073   2.830
 4249SOL     OW13645   0.264   0.718   4.870
 4249SOL    HW113646   0.184   0.708   4.930
 4249SOL    HW213647   0.337   0.660   4.903
 4250SOL     OW13648   6.824   6.149   4.016
 4250SOL    HW113649   6.784   6.103   3.937
 4250SOL    HW213650   6.782   6.113   4.100
 4251SOL     OW13651   5.880   2.276   6.350
 4251SOL    HW113652   5.838   2.301   6.263
 4251SOL    HW213653   5.835   2.328   6.424
 4252SOL     OW13654   6.430   6.310   6.097
 4252SOL    HW113655   6.427   6.309   6.197
 4252SOL    HW213656   6.419   6.216   6.063
 4253SOL     OW13657   4.138   5.804   2.581
 4253SOL    HW113658   4.137   5.753   2.495
 4253SOL    HW213659   4.190   5.753   2.649
 4254SOL     OW13660   2.414   3.413   6.623
 4254SOL    HW113661   2.345   3.401   6.694
 4254SOL    HW213662   2.439   3.510   6.617
 4255SOL     OW13663   0.422   3.761   2.615
 4255SOL    HW113664   0.521   3.765   2.602
 4255SOL    HW213665   0.381   3.712   2.538
 4256SOL     OW13666   0.709   5.078   2.359
 4256SOL    HW113667   0.637   5.145   2.374
 4256SOL    HW213668   0.798   5.123   2.358
 4257SOL     OW13669   5.991   1.076   5.012
 4257SOL    HW113670   6.026   1.144   5.077
 4257SOL    HW213671   6.062   1.008   4.993
 4258SOL     OW13672   3.687   5.923   0.461
 4258SOL    HW113673   3.662   5.948   0.367
 4258SOL    HW213674   3.650   5.991   0.524
 4259SOL     OW13675   1.058   6.679   2.122
 4259SOL    HW113676   1.127   6.660   2.052
 4259SOL    HW213677   0.972   6.634   2.097
 4260SOL     OW13678   5.334   7.009   4.935
 4260SOL    HW113679   5.389   0.036   5.001
 4260SOL    HW213680   5.278   0.049   4.882
 4261SOL     OW13681   2.038   0.003   3.782
 4261SOL    HW113682   1.969   0.075   3.768
 4261SOL    HW213683   2.028   6.988   3.873
 4262SOL     OW13684   1.625   4.473   6.577
 4262SOL    HW113685   1.624   4.494   6.675
 4262SOL    HW213686   1.693   4.402   6.559
 4263SOL     OW13687   2.631   1.816   3.625
 4263SOL    HW113688   2.585   1.904   3.612
 4263SOL    HW213689   2.725   1.823   3.592
 4264SOL     OW13690   5.504   1.331   4.162
 4264SOL    HW113691   5.507   1.430   4.173
 4264SOL    HW213692   5.408   1.300   4.160
 4265SOL     OW13693   3.206   0.206   0.985
 4265SOL    HW113694   3.177   0.198   1.080
 4265SOL    HW213695   3.134   0.171   0.925
 4266SOL     OW13696   1.375   6.465   0.330
 4266SOL    HW113697   1.422   6.528   0.267
 4266SOL    HW213698   1.341   6.386   0.279
 4267SOL     OW13699   1.660   4.397   4.550
 4267SOL    HW113700   1.680   4.357   4.640
 4267SOL    HW213701   1.713   4.350   4.480
 4268SOL     OW13702   1.374   4.663   6.528
 4268SOL    HW113703   1.382   4.623   6.619
 4268SOL    HW213704   1.347   4.593   6.462
 4269SOL     OW13705   3.022   1.937   4.456
 4269SOL    HW113706   3.044   2.008   4.524
 4269SOL    HW213707   3.020   1.848   4.500
 4270SOL     OW13708   3.692   2.360   0.712
 4270SOL    HW113709   3.650   2.328   0.797
 4270SOL    HW213710   3.791   2.361   0.722
 4271SOL     OW13711   6.690   0.374   0.966
 4271SOL    HW113712   6.714   0.465   1.001
 4271SOL    HW213713   6.773   0.320   0.954
 4272SOL     OW13714   6.209   2.318   5.985
 4272SOL    HW113715   6.291   2.375   5.991
 4272SOL    HW213716   6.192   2.274   6.073
 4273SOL     OW13717   4.012   5.483   4.957
 4273SOL    HW113718   4.093   5.503   4.901
 4273SOL    HW213719   3.968   5.399   4.924
 4274SOL     OW13720   6.833   0.425   1.838
 4274SOL    HW113721   6.803   0.331   1.849
 4274SOL    HW213722   6.788   0.483   1.906
 4275SOL     OW13723   0.891   2.925   3.213
 4275SOL    HW113724   0.792   2.937   3.209
 4275SOL    HW213725   0.921   2.866   3.138
 4276SOL     OW13726   2.756   6.071   3.652
 4276SOL    HW113727   2.769   6.013   3.733
 4276SOL    HW213728   2.750   6.167   3.680
 4277SOL     OW13729   5.994   5.614   3.971
 4277SOL    HW113730   5.998   5.670   3.888
 4277SOL    HW213731   6.031   5.524   3.952
 4278SOL     OW13732   1.240   0.019   1.881
 4278SOL    HW113733   1.338   0.016   1.899
 4278SOL    HW213734   1.191   0.043   1.966
 4279SOL     OW13735   2.161   2.430   3.377
 4279SOL    HW113736   2.164   2.514   3.431
 4279SOL    HW213737   2.252   2.388   3.376
 4280SOL     OW13738   6.865   0.022   6.165
 4280SOL    HW113739   6.815   6.995   6.235
 4280SOL    HW213740   6.823   0.004   6.075
 4281SOL     OW13741   4.365   5.506   3.844
 4281SOL    HW113742   4.428   5.515   3.922
 4281SOL    HW213743   4.398   5.563   3.769
 4282SOL     OW13744   3.738   4.110   1.135
 4282SOL    HW113745   3.790   4.030   1.167
 4282SOL    HW213746   3.765   4.132   1.042
 4283SOL     OW13747   5.062   1.049   4.019
 4283SOL    HW113748   5.071   1.000   3.932
 4283SOL    HW213749   4.966   1.068   4.036
 4284SOL     OW13750   4.736   5.668   6.859
 4284SOL    HW113751   4.824   5.702   6.893
 4284SOL    HW213752   4.738   5.568   6.855
 4285SOL     OW13753   2.888   0.671   6.116
 4285SOL    HW113754   2.951   0.668   6.038
 4285SOL    HW213755   2.856   0.578   6.136
 4286SOL     OW13756   6.274   1.231   6.753
 4286SOL    HW113757   6.250   1.161   6.820
 4286SOL    HW213758   6.293   1.317   6.799
 4287SOL     OW13759   4.937   0.647   0.080
 4287SOL    HW113760   4.912   0.694   0.164
 4287SOL    HW213761   4.879   0.566   0.069
 4288SOL     OW13762   7.010   6.510   2.159
 4288SOL    HW113763   0.070   6.460   2.143
 4288SOL    HW213764   6.955   6.463   2.228
 4289SOL     OW13765   0.368   3.195   4.754
 4289SOL    HW113766   0.300   3.199   4.681
 4289SOL    HW213767   0.436   3.124   4.733
 4290SOL     OW13768   0.132   0.963   3.183
 4290SOL    HW113769   0.219   0.915   3.196
 4290SOL    HW213770   0.079   0.917   3.112
 4291SOL     OW13771   4.941   3.014   5.878
 4291SOL    HW113772   4.952   2.999   5.780
 4291SOL    HW213773   4.845   3.002   5.903
 4292SOL     OW13774   5.533   1.809   1.082
 4292SOL    HW113775   5.523   1.896   1.130
 4292SOL    HW213776   5.464   1.744   1.117
 4293SOL     OW13777   4.714   3.989   6.846
 4293SOL    HW113778   4.636   4.008   6.905
 4293SOL    HW213779   4.728   3.890   6.840
 4294SOL     OW13780   2.708   1.859   6.386
 4294SOL    HW113781   2.639   1.928   6.361
 4294SOL    HW213782   2.799   1.899   6.376
 4295SOL     OW13783   4.103   6.412   3.321
 4295SOL    HW113784   4.078   6.475   3.395
 4295SOL    HW213785   4.203   6.407   3.314
 4296SOL     OW13786   2.746   6.425   1.220
 4296SOL    HW113787   2.739   6.359   1.145
 4296SOL    HW213788   2.700   6.389   1.301
 4297SOL     OW13789   5.583   5.274   1.146
 4297SOL    HW113790   5.570   5.281   1.047
 4297SOL    HW213791   5.500   5.237   1.188
 4298SOL     OW13792   3.238   6.244   1.375
 4298SOL    HW113793   3.287   6.264   1.290
 4298SOL    HW213794   3.303   6.234   1.450
 4299SOL     OW13795   1.217   2.374   0.309
 4299SOL    HW113796   1.222   2.282   0.271
 4299SOL    HW213797   1.303   2.422   0.292
 4300SOL     OW13798   3.868   0.612   1.177
 4300SOL    HW113799   3.835   0.696   1.135
 4300SOL    HW213800   3.807   0.587   1.253
 4301SOL     OW13801   3.247   0.002   2.151
 4301SOL    HW113802   3.298   6.978   2.080
 4301SOL    HW213803   3.154   0.019   2.120
 4302SOL     OW13804   1.802   5.750   6.163
 4302SOL    HW113805   1.725   5.687   6.159
 4302SOL    HW213806   1.863   5.724   6.238
 4303SOL     OW13807   6.117   4.378   3.903
 4303SOL    HW113808   6.132   4.285   3.937
 4303SOL    HW213809   6.032   4.382   3.851
 4304SOL     OW13810   3.302   3.711   1.420
 4304SOL    HW113811   3.377   3.682   1.479
 4304SOL    HW213812   3.229   3.752   1.475
 4305SOL     OW13813   1.144   0.397   5.255
 4305SOL    HW113814   1.171   0.332   5.326
 4305SOL    HW213815   1.226   0.435   5.212
 4306SOL     OW13816   5.265   3.695   4.526
 4306SOL    HW113817   5.241   3.601   4.503
 4306SOL    HW213818   5.365   3.705   4.524
 4307SOL     OW13819   6.224   2.080   5.366
 4307SOL    HW113820   6.286   2.091   5.289
 4307SOL    HW213821   6.135   2.048   5.333
 4308SOL     OW13822   4.759   4.717   0.893
 4308SOL    HW113823   4.680   4.656   0.892
 4308SOL    HW213824   4.731   4.810   0.872
 4309SOL     OW13825   1.597   3.620   0.281
 4309SOL    HW113826   1.632   3.570   0.360
 4309SOL    HW213827   1.515   3.671   0.307
 4310SOL     OW13828   0.550   1.883   2.436
 4310SOL    HW113829   0.508   1.854   2.350
 4310SOL    HW213830   0.610   1.961   2.419
 4311SOL     OW13831   0.904   6.268   2.387
 4311SOL    HW113832   0.921   6.312   2.299
 4311SOL    HW213833   0.990   6.252   2.434
 4312SOL     OW13834   0.395   4.888   2.345
 4312SOL    HW113835   0.349   4.902   2.257
 4312SOL    HW213836   0.485   4.847   2.330
 4313SOL     OW13837   6.107   1.725   0.044
 4313SOL    HW113838   6.160   1.667   7.006
 4313SOL    HW213839   6.019   1.745   0.003
 4314SOL     OW13840   6.495   2.708   4.979
 4314SOL    HW113841   6.568   2.699   4.911
 4314SOL    HW213842   6.419   2.760   4.940
 4315SOL     OW13843   2.694   1.393   3.872
 4315SOL    HW113844   2.788   1.426   3.876
 4315SOL    HW213845   2.653   1.398   3.963
 4316SOL     OW13846   5.330   6.903   2.189
 4316SOL    HW113847   5.235   6.906   2.222
 4316SOL    HW213848   5.329   6.895   2.089
 4317SOL     OW13849   4.837   0.736   6.026
 4317SOL    HW113850   4.859   0.663   5.961
 4317SOL    HW213851   4.745   0.722   6.061
 4318SOL     OW13852   1.045   1.929   4.133
 4318SOL    HW113853   1.005   1.839   4.114
 4318SOL    HW213854   1.038   1.986   4.051
 4319SOL     OW13855   1.096   4.749   2.206
 4319SOL    HW113856   1.011   4.702   2.231
 4319SOL    HW213857   1.139   4.701   2.130
 4320SOL     OW13858   3.697   5.911   0.100
 4320SOL    HW113859   3.701   5.903   0.001
 4320SOL    HW213860   3.768   5.853   0.141
 4321SOL     OW13861   6.290   6.749   2.482
 4321SOL    HW113862   6.346   6.714   2.407
 4321SOL    HW213863   6.341   6.820   2.531
 4322SOL     OW13864   1.012   3.213   5.040
 4322SOL    HW113865   0.918   3.228   5.070
 4322SOL    HW213866   1.075   3.237   5.113
 4323SOL     OW13867   3.828   5.471   0.006
 4323SOL    HW113868   3.745   5.527   0.009
 4323SOL    HW213869   3.814   5.394   6.968
 4324SOL     OW13870   0.041   3.822   6.011
 4324SOL    HW113871   7.020   3.836   5.922
 4324SOL    HW213872   0.019   3.732   6.046
 4325SOL     OW13873   2.947   0.592   2.772
 4325SOL    HW113874   2.856   0.622   2.800
 4325SOL    HW213875   2.958   0.495   2.794
 4326SOL     OW13876   4.942   2.680   2.676
 4326SOL    HW113877   4.952   2.766   2.627
 4326SOL    HW213878   4.882   2.693   2.755
 4327SOL     OW13879   3.456   5.616   4.198
 4327SOL    HW113880   3.520   5.596   4.272
 4327SOL    HW213881   3.391   5.687   4.227
 4328SOL     OW13882   5.446   5.846   5.254
 4328SOL    HW113883   5.494   5.905   5.318
 4328SOL    HW213884   5.503   5.831   5.172
 4329SOL     OW13885   5.936   2.668   6.066
 4329SOL    HW113886   5.975   2.753   6.101
 4329SOL    HW213887   5.972   2.650   5.975
 4330SOL     OW13888   2.812   4.955   5.329
 4330SOL    HW113889   2.837   4.996   5.417
 4330SOL    HW213890   2.890   4.903   5.293
 4331SOL     OW13891   6.454   0.684   1.828
 4331SOL    HW113892   6.394   0.709   1.904
 4331SOL    HW213893   6.412   0.713   1.742
 4332SOL     OW13894   7.001   4.835   2.477
 4332SOL    HW113895   0.000   4.743   2.446
 4332SOL    HW213896   0.053   4.897   2.458
 4333SOL     OW13897   4.006   1.895   5.254
 4333SOL    HW113898   3.943   1.845   5.194
 4333SOL    HW213899   4.020   1.843   5.338
 4334SOL     OW13900   1.081   2.358   3.593
 4334SOL    HW113901   1.109   2.271   3.552
 4334SOL    HW213902   0.994   2.346   3.640
 4335SOL     OW13903   3.206   3.580   0.892
 4335SOL    HW113904   3.241   3.487   0.901
 4335SOL    HW213905   3.222   3.630   0.977
 4336SOL     OW13906   2.551   5.777   5.873
 4336SOL    HW113907   2.601   5.699   5.910
 4336SOL    HW213908   2.465   5.787   5.922
 4337SOL     OW13909   1.482   5.382   3.151
 4337SOL    HW113910   1.501   5.323   3.229
 4337SOL    HW213911   1.390   5.420   3.159
 4338SOL     OW13912   4.636   0.742   5.672
 4338SOL    HW113913   4.704   0.802   5.716
 4338SOL    HW213914   4.663   0.726   5.577
 4339SOL     OW13915   4.289   3.059   5.864
 4339SOL    HW113916   4.308   3.156   5.873
 4339SOL    HW213917   4.271   3.037   5.768
 4340SOL     OW13918   6.715   3.285   0.838
 4340SOL    HW113919   6.802   3.284   0.788
 4340SOL    HW213920   6.726   3.233   0.923
 4341SOL     OW13921   0.777   5.912   2.527
 4341SOL    HW113922   0.875   5.894   2.514
 4341SOL    HW213923   0.752   5.996   2.480
 4342SOL     OW13924   5.401   3.795   2.594
 4342SOL    HW113925   5.321   3.769   2.541
 4342SOL    HW213926   5.379   3.874   2.651
 4343SOL     OW13927   4.020   0.462   6.366
 4343SOL    HW113928   4.106   0.431   6.407
 4343SOL    HW213929   3.997   0.552   6.402
 4344SOL     OW13930   0.265   2.319   3.819
 4344SOL    HW113931   0.180   2.357   3.782
 4344SOL    HW213932   0.301   2.251   3.755
 4345SOL     OW13933   2.955   3.353   2.544
 4345SOL    HW113934   2.945   3.256   2.522
 4345SOL    HW213935   3.052   3.374   2.557
 4346SOL     OW13936   1.789   3.580   1.779
 4346SOL    HW113937   1.857   3.606   1.848
 4346SOL    HW213938   1.818   3.495   1.734
 4347SOL     OW13939   6.076   4.845   1.841
 4347SOL    HW113940   6.149   4.814   1.780
 4347SOL    HW213941   6.098   4.936   1.875
 4348SOL     OW13942   6.003   6.091   4.229
 4348SOL    HW113943   6.058   6.174   4.214
 4348SOL    HW213944   6.005   6.066   4.326
 4349SOL     OW13945   0.091   3.618   4.070
 4349SOL    HW113946   0.094   3.655   3.977
 4349SOL    HW213947   0.161   3.548   4.081
 4350SOL     OW13948   4.692   0.868   5.093
 4350SOL    HW113949   4.714   0.966   5.090
 4350SOL    HW213950   4.773   0.815   5.066
 4351SOL     OW13951   1.241   6.841   0.925
 4351SOL    HW113952   1.203   6.761   0.879
 4351SOL    HW213953   1.169   6.884   0.981
 4352SOL     OW13954   4.185   3.823   1.033
 4352SOL    HW113955   4.252   3.817   1.106
 4352SOL    HW213956   4.128   3.741   1.032
 4353SOL     OW13957   3.066   2.852   0.703
 4353SOL    HW113958   2.996   2.911   0.661
 4353SOL    HW213959   3.029   2.813   0.788
 4354SOL     OW13960   5.966   6.942   4.501
 4354SOL    HW113961   6.059   6.908   4.517
 4354SOL    HW213962   5.926   6.892   4.424
 4355SOL     OW13963   1.670   6.427   3.415
 4355SOL    HW113964   1.691   6.391   3.324
 4355SOL    HW213965   1.736   6.498   3.439
 4356SOL     OW13966   4.846   2.218   6.499
 4356SOL    HW113967   4.912   2.227   6.424
 4356SOL    HW213968   4.856   2.296   6.562
 4357SOL     OW13969   6.714   0.630   1.964
 4357SOL    HW113970   6.766   0.716   1.966
 4357SOL    HW213971   6.632   0.642   1.908
 4358SOL     OW13972   0.840   0.869   0.317
 4358SOL    HW113973   0.896   0.791   0.343
 4358SOL    HW213974   0.865   0.900   0.225
 4359SOL     OW13975   2.327   1.403   6.682
 4359SOL    HW113976   2.415   1.427   6.642
 4359SOL    HW213977   2.290   1.481   6.733
 4360SOL     OW13978   1.308   2.878   3.591
 4360SOL    HW113979   1.362   2.932   3.526
 4360SOL    HW213980   1.223   2.925   3.610
 4361SOL     OW13981   0.378   1.795   0.960
 4361SOL    HW113982   0.438   1.859   0.912
 4361SOL    HW213983   0.406   1.701   0.940
 4362SOL     OW13984   1.267   5.680   4.177
 4362SOL    HW113985   1.190   5.710   4.121
 4362SOL    HW213986   1.235   5.659   4.269
 4363SOL     OW13987   5.130   0.825   2.564
 4363SOL    HW113988   5.059   0.756   2.579
 4363SOL    HW213989   5.205   0.785   2.513
 4364SOL     OW13990   3.452   3.983   2.928
 4364SOL    HW113991   3.498   3.915   2.870
 4364SOL    HW213992   3.518   4.051   2.959
 4365SOL     OW13993   2.995   2.134   1.882
 4365SOL    HW113994   2.967   2.193   1.958
 4365SOL    HW213995   3.039   2.189   1.812
 4366SOL     OW13996   4.636   6.193   4.884
 4366SOL    HW113997   4.646   6.218   4.787
 4366SOL    HW213998   4.692   6.253   4.940
 4367SOL     OW13999   2.984   5.494   4.140
 4367SOL    HW114000   2.966   5.474   4.236
 4367SOL    HW214001   3.083   5.491   4.123
 4368SOL     OW14002   4.791   4.522   2.243
 4368SOL    HW114003   4.876   4.469   2.234
 4368SOL    HW214004   4.735   4.481   2.315
 4369SOL     OW14005   4.137   5.039   3.032
 4369SOL    HW114006   4.077   5.119   3.024
 4369SOL    HW214007   4.080   4.957   3.039
 4370SOL     OW14008   3.625   4.843   1.372
 4370SOL    HW114009   3.584   4.753   1.379
 4370SOL    HW214010   3.623   4.874   1.277
 4371SOL     OW14011   2.932   0.521   1.779
 4371SOL    HW114012   3.031   0.515   1.791
 4371SOL    HW214013   2.898   0.606   1.819
 4372SOL     OW14014   2.202   3.137   4.822
 4372SOL    HW114015   2.211   3.236   4.821
 4372SOL    HW214016   2.273   3.098   4.881
 4373SOL     OW14017   4.271   0.880   6.030
 4373SOL    HW114018   4.342   0.949   6.012
 4373SOL    HW214019   4.297   0.825   6.109
 4374SOL     OW14020   2.447   1.053   1.132
 4374SOL    HW114021   2.470   1.149   1.148
 4374SOL    HW214022   2.522   1.010   1.081
 4375SOL     OW14023   4.069   0.709   3.269
 4375SOL    HW114024   4.169   0.702   3.262
 4375SOL    HW214025   4.037   0.781   3.208
 4376SOL     OW14026   6.143   6.925   1.332
 4376SOL    HW114027   6.100   6.946   1.420
 4376SOL    HW214028   6.241   6.914   1.346
 4377SOL     OW14029   6.049   6.531   6.789
 4377SOL    HW114030   6.071   6.604   6.724
 4377SOL    HW214031   6.009   6.571   6.872
 4378SOL     OW14032   1.822   5.641   2.198
 4378SOL    HW114033   1.739   5.696   2.208
 4378SOL    HW214034   1.797   5.546   2.179
 4379SOL     OW14035   1.204   1.415   1.675
 4379SOL    HW114036   1.129   1.350   1.685
 4379SOL    HW214037   1.224   1.457   1.763
 4380SOL     OW14038   1.652   6.355   5.102
 4380SOL    HW114039   1.577   6.409   5.140
 4380SOL    HW214040   1.671   6.277   5.162
 4381SOL     OW14041   3.647   6.960   4.922
 4381SOL    HW114042   3.570   7.012   4.883
 4381SOL    HW214043   3.642   6.866   4.891
 4382SOL     OW14044   5.129   4.179   4.624
 4382SOL    HW114045   5.099   4.270   4.596
 4382SOL    HW214046   5.226   4.168   4.601
 4383SOL     OW14047   1.295   2.411   5.738
 4383SOL    HW114048   1.385   2.455   5.729
 4383SOL    HW214049   1.306   2.319   5.774
 4384SOL     OW14050   3.693   6.779   1.416
 4384SOL    HW114051   3.712   6.816   1.324
 4384SOL    HW214052   3.683   6.680   1.411
 4385SOL     OW14053   0.538   1.563   2.781
 4385SOL    HW114054   0.621   1.507   2.785
 4385SOL    HW214055   0.459   1.503   2.766
 4386SOL     OW14056   1.008   3.649   6.551
 4386SOL    HW114057   0.941   3.718   6.526
 4386SOL    HW214058   1.049   3.672   6.640
 4387SOL     OW14059   6.715   3.375   1.290
 4387SOL    HW114060   6.671   3.464   1.289
 4387SOL    HW214061   6.733   3.348   1.385
 4388SOL     OW14062   3.210   0.865   6.173
 4388SOL    HW114063   3.207   0.938   6.242
 4388SOL    HW214064   3.257   0.898   6.091
 4389SOL     OW14065   6.041   2.543   1.808
 4389SOL    HW114066   5.981   2.550   1.888
 4389SOL    HW214067   5.999   2.587   1.730
 4390SOL     OW14068   4.703   2.780   2.247
 4390SOL    HW114069   4.606   2.767   2.269
 4390SOL    HW214070   4.713   2.860   2.187
 4391SOL     OW14071   0.728   5.610   0.293
 4391SOL    HW114072   0.816   5.646   0.323
 4391SOL    HW214073   0.706   5.646   0.202
 4392SOL     OW14074   4.914   3.415   4.597
 4392SOL    HW114075   5.009   3.418   4.567
 4392SOL    HW214076   4.900   3.483   4.669
 4393SOL     OW14077   4.970   6.871   3.309
 4393SOL    HW114078   5.038   6.909   3.247
 4393SOL    HW214079   4.983   6.772   3.316
 4394SOL     OW14080   5.082   6.950   2.267
 4394SOL    HW114081   5.026   6.915   2.343
 4394SOL    HW214082   5.064   0.023   2.255
 4395SOL     OW14083   5.095   1.482   1.907
 4395SOL    HW114084   5.054   1.420   1.840
 4395SOL    HW214085   5.066   1.576   1.887
 4396SOL     OW14086   0.921   1.068   4.337
 4396SOL    HW114087   0.846   1.133   4.332
 4396SOL    HW214088   0.916   1.018   4.424
 4397SOL     OW14089   0.036   0.354   5.190
 4397SOL    HW114090   0.072   0.272   5.235
 4397SOL    HW214091   0.065   0.435   5.241
 4398SOL     OW14092   0.422   4.905   4.014
 4398SOL    HW114093   0.372   4.836   4.066
 4398SOL    HW214094   0.367   4.988   4.007
 4399SOL     OW14095   1.932   1.381   0.894
 4399SOL    HW114096   1.851   1.420   0.850
 4399SOL    HW214097   1.928   1.281   0.890
 4400SOL     OW14098   3.338   6.556   4.216
 4400SOL    HW114099   3.389   6.641   4.229
 4400SOL    HW214100   3.333   6.507   4.303
 4401SOL     OW14101   5.627   5.881   4.080
 4401SOL    HW114102   5.562   5.816   4.041
 4401SOL    HW214103   5.601   5.901   4.175
 4402SOL     OW14104   1.083   5.998   2.606
 4402SOL    HW114105   1.150   5.989   2.680
 4402SOL    HW214106   1.065   6.094   2.588
 4403SOL     OW14107   0.133   0.093   3.260
 4403SOL    HW114108   0.207   0.103   3.326
 4403SOL    HW214109   0.171   0.093   3.167
 4404SOL     OW14110   0.415   4.108   2.814
 4404SOL    HW114111   0.350   4.036   2.791
 4404SOL    HW214112   0.449   4.094   2.907
 4405SOL     OW14113   3.163   4.778   5.787
 4405SOL    HW114114   3.178   4.842   5.863
 4405SOL    HW214115   3.085   4.808   5.733
 4406SOL     OW14116   5.490   4.182   0.874
 4406SOL    HW114117   5.441   4.096   0.864
 4406SOL    HW214118   5.452   4.234   0.951
 4407SOL     OW14119   6.585   6.489   0.218
 4407SOL    HW114120   6.547   6.406   0.259
 4407SOL    HW214121   6.558   6.569   0.272
 4408SOL     OW14122   4.991   0.347   0.032
 4408SOL    HW114123   4.901   0.348   0.075
 4408SOL    HW214124   5.060   0.376   0.098
 4409SOL     OW14125   3.453   0.537   2.309
 4409SOL    HW114126   3.393   0.465   2.344
 4409SOL    HW214127   3.497   0.583   2.385
 4410SOL     OW14128   2.027   5.420   0.859
 4410SOL    HW114129   2.033   5.392   0.955
 4410SOL    HW214130   2.109   5.391   0.811
 4411SOL     OW14131   3.438   3.152   2.736
 4411SOL    HW114132   3.445   3.216   2.660
 4411SOL    HW214133   3.391   3.069   2.705
 4412SOL     OW14134   3.899   1.084   6.417
 4412SOL    HW114135   3.877   1.025   6.340
 4412SOL    HW214136   3.912   1.178   6.385
 4413SOL     OW14137   3.989   5.674   4.476
 4413SOL    HW114138   3.952   5.660   4.384
 4413SOL    HW214139   4.072   5.731   4.470
 4414SOL     OW14140   4.095   4.798   1.922
 4414SOL    HW114141   4.145   4.749   1.851
 4414SOL    HW214142   4.006   4.755   1.936
 4415SOL     OW14143   4.789   3.709   6.330
 4415SOL    HW114144   4.840   3.623   6.335
 4415SOL    HW214145   4.823   3.772   6.399
 4416SOL     OW14146   3.140   0.781   4.796
 4416SOL    HW114147   3.193   0.856   4.834
 4416SOL    HW214148   3.169   0.764   4.702
 4417SOL     OW14149   0.160   5.288   2.120
 4417SOL    HW114150   0.139   5.214   2.184
 4417SOL    HW214151   0.161   5.375   2.168
 4418SOL     OW14152   4.498   6.063   4.134
 4418SOL    HW114153   4.438   6.000   4.182
 4418SOL    HW214154   4.448   6.148   4.114
 4419SOL     OW14155   6.695   4.944   0.327
 4419SOL    HW114156   6.723   5.040   0.332
 4419SOL    HW214157   6.602   4.935   0.361
 4420SOL     OW14158   5.275   1.501   0.275
 4420SOL    HW114159   5.313   1.588   0.243
 4420SOL    HW214160   5.349   1.440   0.302
 4421SOL     OW14161   1.526   1.889   2.962
 4421SOL    HW114162   1.438   1.936   2.959
 4421SOL    HW214163   1.525   1.814   2.896
 4422SOL     OW14164   2.558   4.331   6.278
 4422SOL    HW114165   2.592   4.247   6.320
 4422SOL    HW214166   2.560   4.323   6.179
 4423SOL     OW14167   1.550   2.480   6.707
 4423SOL    HW114168   1.515   2.495   6.614
 4423SOL    HW214169   1.596   2.563   6.738
 4424SOL     OW14170   6.006   6.465   3.284
 4424SOL    HW114171   6.051   6.467   3.373
 4424SOL    HW214172   5.960   6.377   3.271
 4425SOL     OW14173   3.819   5.163   6.490
 4425SOL    HW114174   3.825   5.120   6.400
 4425SOL    HW214175   3.871   5.248   6.489
 4426SOL     OW14176   0.047   0.439   5.649
 4426SOL    HW114177   0.077   0.527   5.685
 4426SOL    HW214178   6.974   0.426   5.670
 4427SOL     OW14179   0.716   0.657   3.328
 4427SOL    HW114180   0.768   0.743   3.322
 4427SOL    HW214181   0.641   0.669   3.393
 4428SOL     OW14182   1.969   5.168   4.237
 4428SOL    HW114183   1.889   5.109   4.249
 4428SOL    HW214184   2.033   5.154   4.313
 4429SOL     OW14185   3.712   6.825   3.629
 4429SOL    HW114186   3.710   6.898   3.697
 4429SOL    HW214187   3.657   6.747   3.662
 4430SOL     OW14188   2.786   1.304   2.938
 4430SOL    HW114189   2.775   1.389   2.885
 4430SOL    HW214190   2.831   1.236   2.881
 4431SOL     OW14191   3.177   1.529   3.527
 4431SOL    HW114192   3.171   1.614   3.475
 4431SOL    HW214193   3.222   1.547   3.615
 4432SOL     OW14194   3.345   3.601   2.741
 4432SOL    HW114195   3.290   3.551   2.674
 4432SOL    HW214196   3.291   3.614   2.825
 4433SOL     OW14197   6.304   6.546   2.652
 4433SOL    HW114198   6.315   6.624   2.589
 4433SOL    HW214199   6.238   6.570   2.723
 4434SOL     OW14200   5.615   1.440   3.760
 4434SOL    HW114201   5.612   1.539   3.750
 4434SOL    HW214202   5.669   1.416   3.840
 4435SOL     OW14203   3.513   2.930   1.594
 4435SOL    HW114204   3.507   2.830   1.595
 4435SOL    HW214205   3.530   2.963   1.687
 4436SOL     OW14206   3.849   1.838   6.906
 4436SOL    HW114207   3.833   1.932   6.874
 4436SOL    HW214208   3.947   1.819   6.905
 4437SOL     OW14209   3.847   0.731   4.494
 4437SOL    HW114210   3.796   0.733   4.580
 4437SOL    HW214211   3.939   0.768   4.509
 4438SOL     OW14212   4.220   2.445   6.736
 4438SOL    HW114213   4.298   2.425   6.796
 4438SOL    HW214214   4.136   2.410   6.778
 4439SOL     OW14215   1.381   5.222   2.472
 4439SOL    HW114216   1.281   5.228   2.468
 4439SOL    HW214217   1.421   5.300   2.424
 4440SOL     OW14218   1.486   6.081   6.683
 4440SOL    HW114219   1.401   6.130   6.662
 4440SOL    HW214220   1.473   6.022   6.762
 4441SOL     OW14221   5.139   2.387   2.433
 4441SOL    HW114222   5.140   2.467   2.372
 4441SOL    HW214223   5.232   2.353   2.446
 4442SOL     OW14224   3.752   5.528   4.003
 4442SOL    HW114225   3.699   5.613   4.006
 4442SOL    HW214226   3.689   5.450   4.007
 4443SOL     OW14227   2.475   1.986   5.792
 4443SOL    HW114228   2.412   2.034   5.731
 4443SOL    HW214229   2.426   1.912   5.838
 4444SOL     OW14230   4.581   7.020   0.781
 4444SOL    HW114231   4.637   0.040   0.851
 4444SOL    HW214232   4.613   6.926   0.768
 4445SOL     OW14233   1.306   1.205   6.317
 4445SOL    HW114234   1.401   1.217   6.344
 4445SOL    HW214235   1.288   1.258   6.235
 4446SOL     OW14236   6.127   0.207   2.935
 4446SOL    HW114237   6.152   0.250   2.849
 4446SOL    HW214238   6.107   0.278   3.003
 4447SOL     OW14239   5.454   2.471   5.804
 4447SOL    HW114240   5.356   2.455   5.793
 4447SOL    HW214241   5.468   2.542   5.874
 4448SOL     OW14242   2.284   3.612   7.009
 4448SOL    HW114243   2.285   3.545   0.059
 4448SOL    HW214244   2.368   3.666   7.011
 4449SOL     OW14245   2.391   0.389   5.258
 4449SOL    HW114246   2.414   0.355   5.349
 4449SOL    HW214247   2.375   0.312   5.196
 4450SOL     OW14248   3.512   2.899   3.117
 4450SOL    HW114249   3.571   2.930   3.042
 4450SOL    HW214250   3.569   2.872   3.195
 4451SOL     OW14251   6.649   4.776   2.043
 4451SOL    HW114252   6.586   4.700   2.057
 4451SOL    HW214253   6.629   4.848   2.109
 4452SOL     OW14254   6.144   6.263   6.151
 4452SOL    HW114255   6.126   6.329   6.079
 4452SOL    HW214256   6.219   6.202   6.124
 4453SOL     OW14257   5.116   2.506   1.488
 4453SOL    HW114258   5.140   2.488   1.583
 4453SOL    HW214259   5.026   2.466   1.469
 4454SOL     OW14260   5.089   2.765   0.894
 4454SOL    HW114261   5.106   2.707   0.814
 4454SOL    HW214262   5.169   2.823   0.911
 4455SOL     OW14263   3.750   0.700   2.767
 4455SOL    HW114264   3.773   0.653   2.852
 4455SOL    HW214265   3.661   0.744   2.777
 4456SOL     OW14266   1.456   5.083   3.068
 4456SOL    HW114267   1.506   5.140   3.002
 4456SOL    HW214268   1.509   5.076   3.152
 4457SOL     OW14269   4.957   1.779   6.568
 4457SOL    HW114270   4.929   1.864   6.612
 4457SOL    HW214271   5.056   1.779   6.557
 4458SOL     OW14272   2.734   2.248   6.494
 4458SOL    HW114273   2.832   2.229   6.491
 4458SOL    HW214274   2.708   2.274   6.587
 4459SOL     OW14275   4.819   6.453   4.948
 4459SOL    HW114276   4.894   6.503   4.992
 4459SOL    HW214277   4.732   6.493   4.975
 4460SOL     OW14278   2.604   2.937   6.560
 4460SOL    HW114279   2.523   2.880   6.548
 4460SOL    HW214280   2.657   2.938   6.476
 4461SOL     OW14281   1.756   6.917   2.360
 4461SOL    HW114282   1.733   7.001   2.409
 4461SOL    HW214283   1.700   6.842   2.395
 4462SOL     OW14284   6.442   5.630   0.790
 4462SOL    HW114285   6.356   5.584   0.766
 4462SOL    HW214286   6.468   5.605   0.884
 4463SOL     OW14287   1.865   3.466   6.218
 4463SOL    HW114288   1.912   3.481   6.131
 4463SOL    HW214289   1.774   3.428   6.200
 4464SOL     OW14290   5.455   3.835   5.864
 4464SOL    HW114291   5.371   3.785   5.843
 4464SOL    HW214292   5.480   3.821   5.960
 4465SOL     OW14293   1.791   6.269   1.834
 4465SOL    HW114294   1.835   6.179   1.828
 4465SOL    HW214295   1.818   6.324   1.755
 4466SOL     OW14296   1.235   1.487   2.468
 4466SOL    HW114297   1.254   1.567   2.524
 4466SOL    HW214298   1.136   1.470   2.468
 4467SOL     OW14299   1.391   0.041   2.858
 4467SOL    HW114300   1.319   0.102   2.890
 4467SOL    HW214301   1.470   0.095   2.828
 4468SOL     OW14302   1.265   2.751   0.503
 4468SOL    HW114303   1.313   2.665   0.520
 4468SOL    HW214304   1.302   2.795   0.421
 4469SOL     OW14305   3.435   6.897   1.249
 4469SOL    HW114306   3.526   6.875   1.213
 4469SOL    HW214307   3.440   6.908   1.348
 4470SOL     OW14308   4.787   3.811   1.572
 4470SOL    HW114309   4.814   3.739   1.636
 4470SOL    HW214310   4.704   3.855   1.605
 4471SOL     OW14311   6.958   2.633   1.454
 4471SOL    HW114312   6.940   2.693   1.376
 4471SOL    HW214313   0.018   2.582   1.438
 4472SOL     OW14314   1.883   3.951   2.210
 4472SOL    HW114315   1.844   4.037   2.176
 4472SOL    HW214316   1.903   3.960   2.308
 4473SOL     OW14317   0.128   6.809   4.441
 4473SOL    HW114318   0.205   6.790   4.380
 4473SOL    HW214319   0.101   6.904   4.432
 4474SOL     OW14320   4.158   0.031   2.785
 4474SOL    HW114321   4.252   0.006   2.808
 4474SOL    HW214322   4.133   7.014   2.697
 4475SOL     OW14323   1.781   4.438   0.847
 4475SOL    HW114324   1.852   4.429   0.778
 4475SOL    HW214325   1.787   4.362   0.912
 4476SOL     OW14326   4.715   6.248   2.162
 4476SOL    HW114327   4.667   6.165   2.188
 4476SOL    HW214328   4.649   6.319   2.137
 4477SOL     OW14329   2.024   1.499   0.116
 4477SOL    HW114330   1.942   1.448   0.143
 4477SOL    HW214331   2.028   1.507   0.017
 4478SOL     OW14332   2.277   6.777   2.384
 4478SOL    HW114333   2.257   6.715   2.308
 4478SOL    HW214334   2.331   6.854   2.350
 4479SOL     OW14335   1.171   0.168   5.430
 4479SOL    HW114336   1.160   0.237   5.502
 4479SOL    HW214337   1.153   0.077   5.468
 4480SOL     OW14338   1.118   5.093   4.805
 4480SOL    HW114339   1.080   5.029   4.871
 4480SOL    HW214340   1.201   5.134   4.842
 4481SOL     OW14341   1.181   6.138   4.053
 4481SOL    HW114342   1.203   6.223   4.005
 4481SOL    HW214343   1.096   6.100   4.017
 4482SOL     OW14344   0.209   4.568   3.841
 4482SOL    HW114345   0.308   4.571   3.828
 4482SOL    HW214346   0.177   4.474   3.829
 4483SOL     OW14347   5.464   2.917   1.237
 4483SOL    HW114348   5.560   2.926   1.210
 4483SOL    HW214349   5.450   2.956   1.327
 4484SOL     OW14350   3.717   2.532   5.341
 4484SOL    HW114351   3.633   2.478   5.340
 4484SOL    HW214352   3.714   2.602   5.269
 4485SOL     OW14353   4.899   1.444   6.819
 4485SOL    HW114354   4.998   1.451   6.830
 4485SOL    HW214355   4.877   1.360   6.770
 4486SOL     OW14356   6.853   3.732   4.813
 4486SOL    HW114357   6.825   3.828   4.819
 4486SOL    HW214358   6.834   3.698   4.721
 4487SOL     OW14359   2.657   3.654   6.346
 4487SOL    HW114360   2.663   3.596   6.427
 4487SOL    HW214361   2.663   3.597   6.264
 4488SOL     OW14362   6.124   1.720   5.270
 4488SOL    HW114363   6.194   1.774   5.317
 4488SOL    HW214364   6.167   1.666   5.198
 4489SOL     OW14365   5.695   5.696   4.467
 4489SOL    HW114366   5.787   5.700   4.427
 4489SOL    HW214367   5.671   5.600   4.484
 4490SOL     OW14368   6.321   1.761   2.516
 4490SOL    HW114369   6.282   1.699   2.585
 4490SOL    HW214370   6.300   1.726   2.425
 4491SOL     OW14371   1.055   3.722   2.947
 4491SOL    HW114372   1.119   3.797   2.932
 4491SOL    HW214373   1.032   3.717   3.044
 4492SOL     OW14374   4.826   2.392   0.151
 4492SOL    HW114375   4.856   2.308   0.106
 4492SOL    HW214376   4.852   2.389   0.247
 4493SOL     OW14377   5.199   4.986   5.188
 4493SOL    HW114378   5.127   4.934   5.235
 4493SOL    HW214379   5.264   4.923   5.146
 4494SOL     OW14380   0.152   4.273   5.061
 4494SOL    HW114381   0.249   4.272   5.085
 4494SOL    HW214382   0.142   4.252   4.964
 4495SOL     OW14383   5.175   6.551   2.007
 4495SOL    HW114384   5.255   6.601   1.975
 4495SOL    HW214385   5.103   6.616   2.032
 4496SOL     OW14386   5.225   3.722   5.794
 4496SOL    HW114387   5.137   3.768   5.781
 4496SOL    HW214388   5.212   3.623   5.784
 4497SOL     OW14389   5.715   5.237   6.847
 4497SOL    HW114390   5.642   5.197   6.902
 4497SOL    HW214391   5.785   5.168   6.829
 4498SOL     OW14392   0.117   3.560   6.735
 4498SOL    HW114393   0.017   3.558   6.731
 4498SOL    HW214394   0.154   3.552   6.643
 4499SOL     OW14395   6.733   3.607   5.208
 4499SOL    HW114396   6.720   3.636   5.114
 4499SOL    HW214397   6.801   3.666   5.253
 4500SOL     OW14398   3.052   3.688   4.622
 4500SOL    HW114399   2.974   3.643   4.578
 4500SOL    HW214400   3.136   3.661   4.575
 4501SOL     OW14401   0.283   4.643   5.252
 4501SOL    HW114402   0.287   4.571   5.321
 4501SOL    HW214403   0.297   4.732   5.297
 4502SOL     OW14404   1.441   2.454   0.152
 4502SOL    HW114405   1.426   2.474   0.055
 4502SOL    HW214406   1.532   2.415   0.164
 4503SOL     OW14407   2.144   1.157   3.680
 4503SOL    HW114408   2.202   1.134   3.601
 4503SOL    HW214409   2.048   1.155   3.652
 4504SOL     OW14410   5.896   2.607   5.368
 4504SOL    HW114411   5.916   2.577   5.274
 4504SOL    HW214412   5.852   2.696   5.366
 4505SOL     OW14413   1.877   6.171   5.225
 4505SOL    HW114414   1.812   6.157   5.300
 4505SOL    HW214415   1.959   6.216   5.260
 4506SOL     OW14416   4.067   1.133   5.152
 4506SOL    HW114417   4.122   1.098   5.076
 4506SOL    HW214418   4.126   1.145   5.232
 4507SOL     OW14419   4.762   4.297   0.939
 4507SOL    HW114420   4.841   4.325   0.994
 4507SOL    HW214421   4.759   4.352   0.855
 4508SOL     OW14422   1.200   4.041   0.027
 4508SOL    HW114423   1.224   3.994   6.966
 4508SOL    HW214424   1.153   4.126   0.005
 4509SOL     OW14425   3.137   1.628   4.387
 4509SOL    HW114426   3.160   1.548   4.331
 4509SOL    HW214427   3.209   1.697   4.379
 4510SOL     OW14428   5.451   0.038   5.373
 4510SOL    HW114429   5.501   6.978   5.392
 4510SOL    HW214430   5.462   0.063   5.276
 4511SOL     OW14431   6.859   2.619   0.382
 4511SOL    HW114432   6.950   2.658   0.393
 4511SOL    HW214433   6.825   2.589   0.472
 4512SOL     OW14434   2.110   6.359   6.609
 4512SOL    HW114435   2.193   6.303   6.620
 4512SOL    HW214436   2.034   6.300   6.583
 4513SOL     OW14437   4.823   6.615   1.967
 4513SOL    HW114438   4.825   6.707   1.928
 4513SOL    HW214439   4.849   6.620   2.064
 4514SOL     OW14440   3.291   1.046   5.209
 4514SOL    HW114441   3.382   1.041   5.169
 4514SOL    HW214442   3.268   1.142   5.228
 4515SOL     OW14443   0.110   4.806   0.553
 4515SOL    HW114444   0.010   4.805   0.553
 4515SOL    HW214445   0.143   4.751   0.630
 4516SOL     OW14446   0.809   1.222   5.251
 4516SOL    HW114447   0.875   1.184   5.185
 4516SOL    HW214448   0.811   1.322   5.246
 4517SOL     OW14449   3.648   6.757   6.523
 4517SOL    HW114450   3.588   6.767   6.443
 4517SOL    HW214451   3.735   6.802   6.504
 4518SOL     OW14452   0.886   2.123   3.506
 4518SOL    HW114453   0.859   2.028   3.493
 4518SOL    HW214454   0.974   2.139   3.461
 4519SOL     OW14455   6.961   2.877   3.729
 4519SOL    HW114456   7.019   2.819   3.672
 4519SOL    HW214457   6.970   2.849   3.825
 4520SOL     OW14458   6.699   4.309   2.788
 4520SOL    HW114459   6.678   4.374   2.860
 4520SOL    HW214460   6.772   4.345   2.730
 4521SOL     OW14461   4.802   2.605   6.716
 4521SOL    HW114462   4.880   2.542   6.713
 4521SOL    HW214463   4.717   2.553   6.713
 4522SOL     OW14464   6.183   6.719   3.425
 4522SOL    HW114465   6.243   6.751   3.498
 4522SOL    HW214466   6.169   6.620   3.435
 4523SOL     OW14467   3.016   4.545   0.388
 4523SOL    HW114468   3.073   4.522   0.309
 4523SOL    HW214469   3.040   4.636   0.421
 4524SOL     OW14470   4.916   1.279   5.324
 4524SOL    HW114471   4.829   1.245   5.359
 4524SOL    HW214472   4.928   1.374   5.351
 4525SOL     OW14473   6.184   1.277   4.473
 4525SOL    HW114474   6.116   1.253   4.403
 4525SOL    HW214475   6.138   1.306   4.556
 4526SOL     OW14476   4.711   6.703   0.617
 4526SOL    HW114477   4.679   6.755   0.537
 4526SOL    HW214478   4.809   6.716   0.628
 4527SOL     OW14479   4.801   1.390   2.985
 4527SOL    HW114480   4.825   1.326   3.058
 4527SOL    HW214481   4.855   1.370   2.904
 4528SOL     OW14482   5.738   0.023   0.125
 4528SOL    HW114483   5.709   0.005   0.031
 4528SOL    HW214484   5.665   0.071   0.173
 4529SOL     OW14485   2.534   0.229   3.027
 4529SOL    HW114486   2.451   0.242   2.973
 4529SOL    HW214487   2.605   0.292   2.993
 4530SOL     OW14488   0.574   3.568   5.186
 4530SOL    HW114489   0.535   3.476   5.194
 4530SOL    HW214490   0.653   3.565   5.124
 4531SOL     OW14491   0.886   3.439   3.780
 4531SOL    HW114492   0.800   3.389   3.773
 4531SOL    HW214493   0.962   3.375   3.789
 4532SOL     OW14494   6.579   1.238   1.175
 4532SOL    HW114495   6.638   1.265   1.252
 4532SOL    HW214496   6.607   1.148   1.143
 4533SOL     OW14497   1.562   6.442   2.982
 4533SOL    HW114498   1.597   6.438   2.889
 4533SOL    HW214499   1.463   6.426   2.981
 4534SOL     OW14500   6.384   3.829   5.143
 4534SOL    HW114501   6.397   3.915   5.190
 4534SOL    HW214502   6.304   3.836   5.082
 4535SOL     OW14503   5.129   3.473   1.966
 4535SOL    HW114504   5.053   3.442   2.023
 4535SOL    HW214505   5.157   3.399   1.904
 4536SOL     OW14506   5.674   1.023   4.685
 4536SOL    HW114507   5.680   0.939   4.739
 4536SOL    HW214508   5.763   1.042   4.643
 4537SOL     OW14509   4.096   3.128   7.003
 4537SOL    HW114510   4.145   3.041   6.997
 4537SOL    HW214511   4.161   3.202   7.024
 4538SOL     OW14512   3.370   1.759   3.101
 4538SOL    HW114513   3.435   1.755   3.176
 4538SOL    HW214514   3.396   1.833   3.038
 4539SOL     OW14515   1.928   2.130   3.642
 4539SOL    HW114516   1.965   2.221   3.624
 4539SOL    HW214517   1.883   2.095   3.560
 4540SOL     OW14518   3.160   2.988   4.488
 4540SOL    HW114519   3.063   3.010   4.485
 4540SOL    HW214520   3.206   3.050   4.551
 4541SOL     OW14521   4.914   1.694   0.562
 4541SOL    HW114522   4.887   1.604   0.597
 4541SOL    HW214523   5.013   1.698   0.551
 4542SOL     OW14524   6.213   6.134   2.229
 4542SOL    HW114525   6.230   6.035   2.228
 4542SOL    HW214526   6.170   6.159   2.316
 4543SOL     OW14527   4.920   1.871   0.911
 4543SOL    HW114528   4.850   1.870   0.840
 4543SOL    HW214529   4.982   1.948   0.896
 4544SOL     OW14530   2.807   5.967   6.962
 4544SOL    HW114531   2.761   5.896   7.015
 4544SOL    HW214532   2.900   5.938   6.940
 4545SOL     OW14533   4.165   2.124   5.437
 4545SOL    HW114534   4.205   2.035   5.458
 4545SOL    HW214535   4.235   2.182   5.395
 4546SOL     OW14536   0.826   6.711   6.730
 4546SOL    HW114537   0.746   6.652   6.745
 4546SOL    HW214538   0.804   6.780   6.661
 4547SOL     OW14539   5.734   2.592   1.434
 4547SOL    HW114540   5.750   2.493   1.438
 4547SOL    HW214541   5.649   2.610   1.384
 4548SOL     OW14542   0.378   4.176   3.629
 4548SOL    HW114543   0.305   4.243   3.618
 4548SOL    HW214544   0.340   4.092   3.669
 4549SOL     OW14545   6.683   3.520   2.914
 4549SOL    HW114546   6.590   3.515   2.950
 4549SOL    HW214547   6.748   3.499   2.987
 4550SOL     OW14548   1.115   6.044   3.245
 4550SOL    HW114549   1.095   6.008   3.154
 4550SOL    HW214550   1.115   5.968   3.311
 4551SOL     OW14551   0.826   2.781   5.221
 4551SOL    HW114552   0.815   2.825   5.310
 4551SOL    HW214553   0.794   2.686   5.227
 4552SOL     OW14554   0.550   3.408   4.867
 4552SOL    HW114555   0.506   3.325   4.832
 4552SOL    HW214556   0.554   3.477   4.795
 4553SOL     OW14557   4.521   4.984   0.769
 4553SOL    HW114558   4.488   4.929   0.846
 4553SOL    HW214559   4.618   5.002   0.779
 4554SOL     OW14560   4.148   6.738   2.990
 4554SOL    HW114561   4.144   6.749   2.891
 4554SOL    HW214562   4.134   6.827   3.034
 4555SOL     OW14563   4.664   2.065   6.834
 4555SOL    HW114564   4.580   2.013   6.849
 4555SOL    HW214565   4.644   2.163   6.845
 4556SOL     OW14566   4.427   0.303   3.716
 4556SOL    HW114567   4.329   0.310   3.699
 4556SOL    HW214568   4.477   0.313   3.630
 4557SOL     OW14569   5.447   0.453   5.539
 4557SOL    HW114570   5.501   0.381   5.582
 4557SOL    HW214571   5.418   0.424   5.448
 4558SOL     OW14572   6.272   3.589   6.415
 4558SOL    HW114573   6.192   3.532   6.395
 4558SOL    HW214574   6.254   3.645   6.496
 4559SOL     OW14575   1.406   6.754   1.224
 4559SOL    HW114576   1.340   6.687   1.190
 4559SOL    HW214577   1.358   6.834   1.259
 4560SOL     OW14578   5.399   3.045   2.689
 4560SOL    HW114579   5.365   3.139   2.695
 4560SOL    HW214580   5.499   3.045   2.696
 4561SOL     OW14581   2.879   1.139   0.032
 4561SOL    HW114582   2.813   1.208   0.062
 4561SOL    HW214583   2.929   1.174   6.977
 4562SOL     OW14584   3.005   6.230   6.526
 4562SOL    HW114585   3.072   6.178   6.473
 4562SOL    HW214586   2.912   6.205   6.498
 4563SOL     OW14587   5.547   1.543   0.616
 4563SOL    HW114588   5.535   1.479   0.691
 4563SOL    HW214589   5.504   1.631   0.639
 4564SOL     OW14590   1.135   5.797   0.313
 4564SOL    HW114591   1.111   5.705   0.342
 4564SOL    HW214592   1.139   5.801   0.213
 4565SOL     OW14593   0.609   1.095   4.932
 4565SOL    HW114594   0.694   1.056   4.968
 4565SOL    HW214595   0.536   1.027   4.940
 4566SOL     OW14596   0.525   0.549   6.509
 4566SOL    HW114597   0.594   0.612   6.546
 4566SOL    HW214598   0.562   0.505   6.426
 4567SOL     OW14599   6.628   1.490   0.781
 4567SOL    HW114600   6.638   1.446   0.692
 4567SOL    HW214601   6.660   1.584   0.776
 4568SOL     OW14602   3.032   4.507   5.540
 4568SOL    HW114603   3.041   4.489   5.638
 4568SOL    HW214604   2.940   4.540   5.520
 4569SOL     OW14605   1.386   1.631   4.221
 4569SOL    HW114606   1.360   1.728   4.217
 4569SOL    HW214607   1.367   1.587   4.134
 4570SOL     OW14608   0.077   5.837   3.104
 4570SOL    HW114609   0.074   5.743   3.139
 4570SOL    HW214610   0.103   5.835   3.007
 4571SOL     OW14611   2.896   3.558   4.451
 4571SOL    HW114612   2.945   3.485   4.405
 4571SOL    HW214613   2.805   3.568   4.411
 4572SOL     OW14614   0.949   6.899   1.235
 4572SOL    HW114615   0.934   6.982   1.181
 4572SOL    HW214616   1.043   6.900   1.271
 4573SOL     OW14617   5.835   5.886   1.369
 4573SOL    HW114618   5.892   5.916   1.293
 4573SOL    HW214619   5.796   5.796   1.348
 4574SOL     OW14620   6.815   4.365   1.425
 4574SOL    HW114621   6.805   4.290   1.359
 4574SOL    HW214622   6.847   4.447   1.377
 4575SOL     OW14623   6.392   1.629   1.479
 4575SOL    HW114624   6.476   1.597   1.435
 4575SOL    HW214625   6.370   1.571   1.557
 4576SOL     OW14626   3.033   6.005   6.732
 4576SOL    HW114627   3.007   6.088   6.683
 4576SOL    HW214628   3.105   6.026   6.798
 4577SOL     OW14629   0.798   3.523   3.145
 4577SOL    HW114630   0.805   3.457   3.070
 4577SOL    HW214631   0.760   3.478   3.225
 4578SOL     OW14632   0.346   3.333   3.399
 4578SOL    HW114633   0.281   3.367   3.332
 4578SOL    HW214634   0.304   3.259   3.452
 4579SOL     OW14635   5.238   1.953   3.154
 4579SOL    HW114636   5.310   2.020   3.134
 4579SOL    HW214637   5.218   1.900   3.072
 4580SOL     OW14638   5.943   5.674   0.773
 4580SOL    HW114639   5.938   5.738   0.696
 4580SOL    HW214640   5.898   5.588   0.747
 4581SOL     OW14641   3.336   5.398   3.521
 4581SOL    HW114642   3.385   5.317   3.488
 4581SOL    HW214643   3.293   5.444   3.444
 4582SOL     OW14644   5.026   6.592   3.185
 4582SOL    HW114645   5.109   6.648   3.189
 4582SOL    HW214646   5.008   6.552   3.275
 4583SOL     OW14647   2.645   1.861   5.579
 4583SOL    HW114648   2.590   1.877   5.661
 4583SOL    HW214649   2.588   1.875   5.498
 4584SOL     OW14650   0.159   5.740   5.975
 4584SOL    HW114651   0.122   5.663   6.027
 4584SOL    HW214652   0.096   5.762   5.900
 4585SOL     OW14653   3.311   6.078   3.393
 4585SOL    HW114654   3.390   6.035   3.435
 4585SOL    HW214655   3.248   6.008   3.360
 4586SOL     OW14656   3.447   6.038   1.898
 4586SOL    HW114657   3.404   6.051   1.809
 4586SOL    HW214658   3.444   5.942   1.923
 4587SOL     OW14659   3.467   2.900   1.140
 4587SOL    HW114660   3.464   2.965   1.064
 4587SOL    HW214661   3.442   2.946   1.225
 4588SOL     OW14662   4.194   3.649   4.979
 4588SOL    HW114663   4.280   3.699   4.987
 4588SOL    HW214664   4.209   3.565   4.927
 4589SOL     OW14665   5.852   2.370   3.143
 4589SOL    HW114666   5.788   2.324   3.083
 4589SOL    HW214667   5.928   2.406   3.089
 4590SOL     OW14668   4.581   5.208   2.437
 4590SOL    HW114669   4.594   5.304   2.462
 4590SOL    HW214670   4.670   5.168   2.414
 4591SOL     OW14671   6.408   5.349   5.545
 4591SOL    HW114672   6.380   5.420   5.609
 4591SOL    HW214673   6.327   5.310   5.502
 4592SOL     OW14674   4.263   2.729   0.665
 4592SOL    HW114675   4.189   2.765   0.609
 4592SOL    HW214676   4.287   2.637   0.634
 4593SOL     OW14677   3.813   6.011   2.724
 4593SOL    HW114678   3.907   6.005   2.758
 4593SOL    HW214679   3.751   5.973   2.792
 4594SOL     OW14680   2.706   1.578   2.029
 4594SOL    HW114681   2.731   1.674   2.042
 4594SOL    HW214682   2.787   1.521   2.038
 4595SOL     OW14683   3.578   3.054   6.403
 4595SOL    HW114684   3.636   3.082   6.479
 4595SOL    HW214685   3.626   3.068   6.317
 4596SOL     OW14686   6.018   6.328   2.559
 4596SOL    HW114687   5.996   6.419   2.524
 4596SOL    HW214688   6.116   6.325   2.582
 4597SOL     OW14689   5.448   4.389   5.883
 4597SOL    HW114690   5.546   4.401   5.903
 4597SOL    HW214691   5.395   4.407   5.966
 4598SOL     OW14692   2.073   5.148   6.680
 4598SOL    HW114693   2.115   5.210   6.614
 4598SOL    HW214694   2.145   5.095   6.726
 4599SOL     OW14695   1.628   4.757   1.175
 4599SOL    HW114696   1.706   4.748   1.113
 4599SOL    HW214697   1.544   4.739   1.125
 4600SOL     OW14698   3.081   5.978   0.699
 4600SOL    HW114699   3.078   5.878   0.703
 4600SOL    HW214700   3.013   6.016   0.762
 4601SOL     OW14701   2.265   1.331   5.086
 4601SOL    HW114702   2.336   1.361   5.150
 4601SOL    HW214703   2.225   1.245   5.119
 4602SOL     OW14704   2.098   7.022   1.464
 4602SOL    HW114705   2.039   6.997   1.388
 4602SOL    HW214706   2.167   6.950   1.478
 4603SOL     OW14707   3.134   6.814   1.822
 4603SOL    HW114708   3.092   6.786   1.909
 4603SOL    HW214709   3.176   6.735   1.778
 4604SOL     OW14710   3.738   0.385   2.432
 4604SOL    HW114711   3.695   0.468   2.397
 4604SOL    HW214712   3.821   0.409   2.484
 4605SOL     OW14713   4.711   0.866   4.669
 4605SOL    HW114714   4.733   0.963   4.666
 4605SOL    HW214715   4.796   0.813   4.675
 4606SOL     OW14716   6.605   6.746   4.752
 4606SOL    HW114717   6.689   6.692   4.750
 4606SOL    HW214718   6.541   6.705   4.816
 4607SOL     OW14719   3.206   1.522   1.651
 4607SOL    HW114720   3.232   1.467   1.730
 4607SOL    HW214721   3.167   1.609   1.682
 4608SOL     OW14722   1.368   5.239   5.044
 4608SOL    HW114723   1.371   5.265   4.948
 4608SOL    HW214724   1.371   5.139   5.052
 4609SOL     OW14725   4.930   6.327   0.042
 4609SOL    HW114726   4.853   6.335   0.104
 4609SOL    HW214727   4.898   6.334   6.972
 4610SOL     OW14728   0.490   2.309   7.011
 4610SOL    HW114729   0.443   2.370   0.051
 4610SOL    HW214730   0.441   2.308   6.924
 4611SOL     OW14731   0.389   3.806   6.948
 4611SOL    HW114732   0.308   3.747   6.957
 4611SOL    HW214733   0.472   3.749   6.951
 4612SOL     OW14734   2.059   5.947   6.149
 4612SOL    HW114735   2.016   6.034   6.171
 4612SOL    HW214736   2.035   5.879   6.218
 4613SOL     OW14737   3.264   5.379   2.844
 4613SOL    HW114738   3.329   5.355   2.772
 4613SOL    HW214739   3.182   5.419   2.802
 4614SOL     OW14740   1.896   5.518   0.147
 4614SOL    HW114741   1.860   5.548   0.058
 4614SOL    HW214742   1.954   5.438   0.133
 4615SOL     OW14743   1.491   1.856   0.088
 4615SOL    HW114744   1.432   1.889   0.162
 4615SOL    HW214745   1.436   1.828   0.010
 4616SOL     OW14746   6.205   0.329   6.821
 4616SOL    HW114747   6.291   0.303   6.864
 4616SOL    HW214748   6.190   0.273   6.740
 4617SOL     OW14749   0.787   2.791   2.119
 4617SOL    HW114750   0.726   2.727   2.072
 4617SOL    HW214751   0.859   2.740   2.166
 4618SOL     OW14752   0.792   2.634   5.584
 4618SOL    HW114753   0.873   2.624   5.642
 4618SOL    HW214754   0.713   2.654   5.642
 4619SOL     OW14755   4.768   1.020   4.125
 4619SOL    HW114756   4.728   1.088   4.186
 4619SOL    HW214757   4.800   0.942   4.178
 4620SOL     OW14758   2.979   4.415   0.070
 4620SOL    HW114759   2.911   4.451   0.135
 4620SOL    HW214760   2.933   4.385   7.011
 4621SOL     OW14761   6.903   1.196   4.786
 4621SOL    HW114762   6.914   1.176   4.688
 4621SOL    HW214763   6.973   1.147   4.838
 4622SOL     OW14764   2.057   3.611   0.447
 4622SOL    HW114765   2.010   3.699   0.458
 4622SOL    HW214766   2.007   3.541   0.499
 4623SOL     OW14767   0.158   4.880   1.009
 4623SOL    HW114768   0.246   4.879   1.058
 4623SOL    HW214769   0.085   4.901   1.074
 4624SOL     OW14770   4.510   0.817   4.172
 4624SOL    HW114771   4.606   0.824   4.144
 4624SOL    HW214772   4.495   0.729   4.215
 4625SOL     OW14773   0.927   4.104   6.740
 4625SOL    HW114774   0.831   4.132   6.744
 4625SOL    HW214775   0.966   4.132   6.652
 4626SOL     OW14776   6.515   4.718   1.796
 4626SOL    HW114777   6.464   4.635   1.814
 4626SOL    HW214778   6.566   4.745   1.878
 4627SOL     OW14779   3.546   5.738   5.237
 4627SOL    HW114780   3.627   5.758   5.291
 4627SOL    HW214781   3.558   5.650   5.190
 4628SOL     OW14782   6.334   4.800   2.117
 4628SOL    HW114783   6.338   4.800   2.217
 4628SOL    HW214784   6.282   4.721   2.085
 4629SOL     OW14785   2.363   5.279   5.566
 4629SOL    HW114786   2.438   5.215   5.546
 4629SOL    HW214787   2.309   5.294   5.484
 4630SOL     OW14788   2.215   5.633   3.209
 4630SOL    HW114789   2.158   5.583   3.275
 4630SOL    HW214790   2.268   5.569   3.155
 4631SOL     OW14791   3.161   6.532   3.532
 4631SOL    HW114792   3.063   6.553   3.528
 4631SOL    HW214793   3.213   6.617   3.525
 4632SOL     OW14794   4.630   5.175   4.593
 4632SOL    HW114795   4.591   5.260   4.628
 4632SOL    HW214796   4.724   5.166   4.624
 4633SOL     OW14797   6.366   1.791   5.012
 4633SOL    HW114798   6.406   1.817   5.100
 4633SOL    HW214799   6.440   1.761   4.951
 4634SOL     OW14800   2.711   4.698   0.559
 4634SOL    HW114801   2.697   4.599   0.555
 4634SOL    HW214802   2.770   4.720   0.636
 4635SOL     OW14803   5.204   3.353   2.389
 4635SOL    HW114804   5.226   3.305   2.304
 4635SOL    HW214805   5.108   3.381   2.387
 4636SOL     OW14806   2.487   5.527   0.799
 4636SOL    HW114807   2.467   5.618   0.834
 4636SOL    HW214808   2.577   5.498   0.832
 4637SOL     OW14809   1.148   0.611   6.097
 4637SOL    HW114810   1.146   0.522   6.053
 4637SOL    HW214811   1.213   0.670   6.050
 4638SOL     OW14812   4.063   3.392   5.849
 4638SOL    HW114813   4.119   3.378   5.768
 4638SOL    HW214814   3.981   3.334   5.843
 4639SOL     OW14815   0.618   4.268   5.906
 4639SOL    HW114816   0.667   4.307   5.828
 4639SOL    HW214817   0.536   4.221   5.873
 4640SOL     OW14818   5.361   4.475   3.207
 4640SOL    HW114819   5.359   4.517   3.116
 4640SOL    HW214820   5.453   4.486   3.246
 4641SOL     OW14821   2.790   4.777   4.506
 4641SOL    HW114822   2.716   4.712   4.521
 4641SOL    HW214823   2.789   4.808   4.411
 4642SOL     OW14824   5.979   5.665   4.397
 4642SOL    HW114825   6.050   5.603   4.429
 4642SOL    HW214826   6.021   5.749   4.361
 4643SOL     OW14827   4.017   2.374   1.769
 4643SOL    HW114828   4.002   2.311   1.846
 4643SOL    HW214829   3.940   2.367   1.705
 4644SOL     OW14830   1.507   6.626   4.653
 4644SOL    HW114831   1.430   6.689   4.657
 4644SOL    HW214832   1.520   6.596   4.558
 4645SOL     OW14833   2.158   6.424   4.313
 4645SOL    HW114834   2.113   6.359   4.375
 4645SOL    HW214835   2.250   6.442   4.345
 4646SOL     OW14836   2.902   0.437   2.460
 4646SOL    HW114837   2.910   0.436   2.360
 4646SOL    HW214838   2.900   0.532   2.492
 4647SOL     OW14839   0.173   0.469   3.940
 4647SOL    HW114840   0.271   0.484   3.947
 4647SOL    HW214841   0.155   0.396   3.875
 4648SOL     OW14842   2.496   6.111   2.521
 4648SOL    HW114843   2.594   6.132   2.514
 4648SOL    HW214844   2.456   6.167   2.593
 4649SOL     OW14845   5.359   0.820   6.042
 4649SOL    HW114846   5.263   0.850   6.045
 4649SOL    HW214847   5.389   0.815   5.947
 4650SOL     OW14848   4.679   6.138   2.940
 4650SOL    HW114849   4.676   6.167   3.036
 4650SOL    HW214850   4.642   6.211   2.882
 4651SOL     OW14851   6.901   1.937   1.718
 4651SOL    HW114852   6.874   1.966   1.626
 4651SOL    HW214853   6.841   1.981   1.785
 4652SOL     OW14854   6.875   0.664   4.484
 4652SOL    HW114855   6.800   0.626   4.539
 4652SOL    HW214856   6.850   0.659   4.387
 4653SOL     OW14857   6.645   6.475   6.975
 4653SOL    HW114858   6.622   6.478   0.048
 4653SOL    HW214859   6.699   6.557   6.951
 4654SOL     OW14860   0.588   0.187   0.827
 4654SOL    HW114861   0.646   0.119   0.871
 4654SOL    HW214862   0.642   0.268   0.807
 4655SOL     OW14863   0.183   4.253   2.709
 4655SOL    HW114864   0.209   4.350   2.704
 4655SOL    HW214865   0.252   4.202   2.760
 4656SOL     OW14866   1.105   0.977   3.174
 4656SOL    HW114867   1.036   0.938   3.236
 4656SOL    HW214868   1.063   1.049   3.119
 4657SOL     OW14869   5.313   6.609   1.742
 4657SOL    HW114870   5.271   6.519   1.737
 4657SOL    HW214871   5.253   6.677   1.700
 4658SOL     OW14872   4.347   0.396   3.096
 4658SOL    HW114873   4.271   0.337   3.070
 4658SOL    HW214874   4.391   0.432   3.014
 4659SOL     OW14875   1.926   2.889   4.947
 4659SOL    HW114876   1.958   2.839   4.867
 4659SOL    HW214877   1.971   2.854   5.029
 4660SOL     OW14878   6.935   1.624   5.926
 4660SOL    HW114879   6.919   1.526   5.911
 4660SOL    HW214880   6.929   1.643   6.024
 4661SOL     OW14881   3.719   4.155   4.559
 4661SOL    HW114882   3.724   4.075   4.618
 4661SOL    HW214883   3.667   4.227   4.604
 4662SOL     OW14884   5.118   0.798   5.781
 4662SOL    HW114885   5.113   0.856   5.699
 4662SOL    HW214886   5.182   0.723   5.764
 4663SOL     OW14887   0.214   2.051   2.331
 4663SOL    HW114888   0.286   2.030   2.264
 4663SOL    HW214889   0.130   2.075   2.283
 4664SOL     OW14890   3.040   2.690   6.709
 4664SOL    HW114891   2.945   2.720   6.705
 4664SOL    HW214892   3.082   2.721   6.794
 4665SOL     OW14893   4.901   0.210   6.595
 4665SOL    HW114894   4.940   0.130   6.640
 4665SOL    HW214895   4.930   0.293   6.643
 4666SOL     OW14896   2.025   1.779   0.145
 4666SOL    HW114897   2.037   1.680   0.146
 4666SOL    HW214898   2.071   1.818   0.065
 4667SOL     OW14899   0.001   4.983   0.023
 4667SOL    HW114900   6.938   4.937   0.042
 4667SOL    HW214901   7.014   5.046   6.970
 4668SOL     OW14902   6.632   1.177   4.806
 4668SOL    HW114903   6.620   1.116   4.885
 4668SOL    HW214904   6.729   1.190   4.789
 4669SOL     OW14905   1.474   6.629   0.141
 4669SOL    HW114906   1.470   6.729   0.150
 4669SOL    HW214907   1.419   6.601   0.062
 4670SOL     OW14908   2.054   1.753   5.052
 4670SOL    HW114909   2.140   1.714   5.086
 4670SOL    HW214910   2.054   1.852   5.066
 4671SOL     OW14911   6.045   3.087   1.534
 4671SOL    HW114912   5.985   3.042   1.600
 4671SOL    HW214913   6.080   3.020   1.469
 4672SOL     OW14914   2.134   4.216   6.336
 4672SOL    HW114915   2.171   4.125   6.322
 4672SOL    HW214916   2.051   4.228   6.281
 4673SOL     OW14917   2.927   0.702   2.532
 4673SOL    HW114918   2.882   0.791   2.529
 4673SOL    HW214919   2.931   0.670   2.627
 4674SOL     OW14920   5.019   6.005   5.375
 4674SOL    HW114921   4.934   5.957   5.353
 4674SOL    HW214922   4.998   6.087   5.429
 4675SOL     OW14923   1.100   3.939   0.805
 4675SOL    HW114924   1.088   3.982   0.716
 4675SOL    HW214925   1.173   3.871   0.800
 4676SOL     OW14926   1.870   5.938   3.447
 4676SOL    HW114927   1.854   5.843   3.471
 4676SOL    HW214928   1.858   5.996   3.527
 4677SOL     OW14929   1.858   2.254   0.486
 4677SOL    HW114930   1.865   2.332   0.548
 4677SOL    HW214931   1.947   2.236   0.444
 4678SOL     OW14932   1.548   4.308   2.811
 4678SOL    HW114933   1.454   4.297   2.778
 4678SOL    HW214934   1.567   4.241   2.883
 4679SOL     OW14935   5.445   6.308   1.642
 4679SOL    HW114936   5.427   6.386   1.583
 4679SOL    HW214937   5.377   6.305   1.716
 4680SOL     OW14938   2.671   1.550   1.523
 4680SOL    HW114939   2.668   1.537   1.622
 4680SOL    HW214940   2.710   1.640   1.503
 4681SOL     OW14941   5.507   4.017   0.616
 4681SOL    HW114942   5.537   3.964   0.537
 4681SOL    HW214943   5.565   4.098   0.627
 4682SOL     OW14944   4.633   3.562   6.124
 4682SOL    HW114945   4.686   3.478   6.133
 4682SOL    HW214946   4.672   3.634   6.181
 4683SOL     OW14947   5.623   4.297   4.009
 4683SOL    HW114948   5.602   4.395   4.018
 4683SOL    HW214949   5.539   4.248   3.984
 4684SOL     OW14950   4.287   6.431   0.189
 4684SOL    HW114951   4.291   6.369   0.110
 4684SOL    HW214952   4.380   6.458   0.215
 4685SOL     OW14953   2.376   3.600   5.931
 4685SOL    HW114954   2.383   3.577   5.834
 4685SOL    HW214955   2.412   3.692   5.946
 4686SOL     OW14956   3.566   6.302   0.856
 4686SOL    HW114957   3.472   6.268   0.860
 4686SOL    HW214958   3.623   6.251   0.920
 4687SOL     OW14959   3.105   1.372   2.875
 4687SOL    HW114960   3.044   1.308   2.923
 4687SOL    HW214961   3.151   1.430   2.943
 4688SOL     OW14962   5.253   2.549   5.982
 4688SOL    HW114963   5.243   2.564   6.080
 4688SOL    HW214964   5.244   2.452   5.962
 4689SOL     OW14965   5.545   0.819   0.774
 4689SOL    HW114966   5.500   0.797   0.861
 4689SOL    HW214967   5.629   0.766   0.765
 4690SOL     OW14968   2.121   1.639   0.726
 4690SOL    HW114969   2.041   1.674   0.774
 4690SOL    HW214970   2.203   1.683   0.763
 4691SOL     OW14971   5.179   4.227   0.278
 4691SOL    HW114972   5.173   4.151   0.342
 4691SOL    HW214973   5.275   4.242   0.253
 4692SOL     OW14974   6.549   4.633   3.132
 4692SOL    HW114975   6.572   4.591   3.220
 4692SOL    HW214976   6.504   4.566   3.074
 4693SOL     OW14977   1.549   0.907   3.486
 4693SOL    HW114978   1.579   0.983   3.544
 4693SOL    HW214979   1.490   0.942   3.413
 4694SOL     OW14980   2.677   1.223   0.815
 4694SOL    HW114981   2.711   1.269   0.897
 4694SOL    HW214982   2.750   1.215   0.748
 4695SOL     OW14983   1.401   5.765   0.634
 4695SOL    HW114984   1.490   5.767   0.679
 4695SOL    HW214985   1.346   5.843   0.665
 4696SOL     OW14986   1.282   5.370   5.983
 4696SOL    HW114987   1.204   5.379   6.045
 4696SOL    HW214988   1.308   5.274   5.976
 4697SOL     OW14989   1.802   3.965   0.897
 4697SOL    HW114990   1.844   3.929   0.813
 4697SOL    HW214991   1.824   4.062   0.907
 4698SOL     OW14992   4.705   0.547   3.214
 4698SOL    HW114993   4.727   0.523   3.308
 4698SOL    HW214994   4.667   0.640   3.211
 4699SOL     OW14995   0.453   0.583   2.250
 4699SOL    HW114996   0.499   0.510   2.301
 4699SOL    HW214997   0.463   0.566   2.152
 4700SOL     OW14998   6.276   2.223   2.862
 4700SOL    HW114999   6.259   2.141   2.807
 4700SOL    HW215000   6.305   2.297   2.802
 4701SOL     OW15001   3.430   2.047   2.162
 4701SOL    HW115002   3.476   2.136   2.153
 4701SOL    HW215003   3.397   2.036   2.256
 4702SOL     OW15004   5.062   5.120   6.890
 4702SOL    HW115005   5.108   5.184   6.828
 4702SOL    HW215006   5.038   5.036   6.840
 4703SOL     OW15007   1.133   4.603   2.517
 4703SOL    HW115008   1.201   4.669   2.485
 4703SOL    HW215009   1.123   4.530   2.450
 4704SOL     OW15010   6.988   5.957   5.881
 4704SOL    HW115011   0.022   6.031   5.916
 4704SOL    HW215012   6.892   5.978   5.901
 4705SOL     OW15013   3.118   2.496   1.287
 4705SOL    HW115014   3.091   2.489   1.383
 4705SOL    HW215015   3.198   2.556   1.279
 4706SOL     OW15016   0.993   0.416   0.732
 4706SOL    HW115017   1.047   0.347   0.779
 4706SOL    HW215018   0.947   0.475   0.799
 4707SOL     OW15019   1.507   6.285   0.963
 4707SOL    HW115020   1.439   6.235   1.016
 4707SOL    HW215021   1.469   6.372   0.931
 4708SOL     OW15022   1.399   2.526   4.343
 4708SOL    HW115023   1.423   2.440   4.298
 4708SOL    HW215024   1.481   2.580   4.360
 4709SOL     OW15025   4.945   4.355   5.060
 4709SOL    HW115026   4.899   4.291   4.998
 4709SOL    HW215027   4.898   4.355   5.148
 4710SOL     OW15028   5.580   6.484   4.840
 4710SOL    HW115029   5.572   6.583   4.855
 4710SOL    HW215030   5.583   6.437   4.927
 4711SOL     OW15031   5.917   3.127   3.298
 4711SOL    HW115032   5.854   3.120   3.375
 4711SOL    HW215033   5.887   3.064   3.226
 4712SOL     OW15034   4.394   4.486   5.708
 4712SOL    HW115035   4.485   4.445   5.707
 4712SOL    HW215036   4.327   4.418   5.736
 4713SOL     OW15037   5.488   4.443   0.582
 4713SOL    HW115038   5.445   4.531   0.603
 4713SOL    HW215039   5.452   4.374   0.645
 4714SOL     OW15040   6.292   1.642   6.397
 4714SOL    HW115041   6.303   1.571   6.466
 4714SOL    HW215042   6.345   1.723   6.423
 4715SOL     OW15043   6.574   1.702   2.378
 4715SOL    HW115044   6.535   1.610   2.376
 4715SOL    HW215045   6.501   1.770   2.377
 4716SOL     OW15046   3.867   5.391   5.432
 4716SOL    HW115047   3.861   5.301   5.475
 4716SOL    HW215048   3.928   5.449   5.485
 4717SOL     OW15049   2.894   5.474   5.665
 4717SOL    HW115050   2.936   5.400   5.613
 4717SOL    HW215051   2.795   5.460   5.670
 4718SOL     OW15052   5.537   3.036   0.662
 4718SOL    HW115053   5.607   3.036   0.734
 4718SOL    HW215054   5.514   3.130   0.638
 4719SOL     OW15055   6.268   3.307   3.273
 4719SOL    HW115056   6.332   3.383   3.261
 4719SOL    HW215057   6.175   3.341   3.262
 4720SOL     OW15058   3.171   5.351   0.450
 4720SOL    HW115059   3.119   5.370   0.366
 4720SOL    HW215060   3.269   5.349   0.429
 4721SOL     OW15061   6.466   3.617   1.627
 4721SOL    HW115062   6.563   3.637   1.613
 4721SOL    HW215063   6.456   3.541   1.690
 4722SOL     OW15064   1.030   4.504   6.661
 4722SOL    HW115065   1.092   4.486   6.584
 4722SOL    HW215066   0.935   4.494   6.630
 4723SOL     OW15067   3.979   4.681   5.678
 4723SOL    HW115068   3.881   4.693   5.658
 4723SOL    HW215069   3.991   4.673   5.777
 4724SOL     OW15070   0.210   6.394   4.087
 4724SOL    HW115071   0.186   6.434   3.998
 4724SOL    HW215072   0.143   6.324   4.111
 4725SOL     OW15073   5.471   4.759   0.645
 4725SOL    HW115074   5.456   4.834   0.710
 4725SOL    HW215075   5.384   4.712   0.628
 4726SOL     OW15076   2.012   3.073   6.062
 4726SOL    HW115077   2.046   2.986   6.027
 4726SOL    HW215078   2.074   3.147   6.035
 4727SOL     OW15079   0.537   5.649   0.893
 4727SOL    HW115080   0.478   5.707   0.836
 4727SOL    HW215081   0.631   5.655   0.858
 4728SOL     OW15082   6.125   1.130   2.792
 4728SOL    HW115083   6.056   1.076   2.839
 4728SOL    HW215084   6.201   1.072   2.765
 4729SOL     OW15085   5.811   0.427   0.113
 4729SOL    HW115086   5.885   0.368   0.083
 4729SOL    HW215087   5.730   0.410   0.057
 4730SOL     OW15088   3.588   6.765   4.708
 4730SOL    HW115089   3.660   6.731   4.648
 4730SOL    HW215090   3.505   6.712   4.694
 4731SOL     OW15091   3.071   0.030   0.748
 4731SOL    HW115092   3.139   6.997   0.702
 4731SOL    HW215093   3.047   0.107   0.690
 4732SOL     OW15094   0.284   4.195   4.627
 4732SOL    HW115095   0.380   4.208   4.650
 4732SOL    HW215096   0.254   4.266   4.564
 4733SOL     OW15097   2.172   3.708   3.193
 4733SOL    HW115098   2.185   3.613   3.165
 4733SOL    HW215099   2.164   3.713   3.293
 4734SOL     OW15100   5.697   3.951   5.775
 4734SOL    HW115101   5.624   3.890   5.805
 4734SOL    HW215102   5.761   3.899   5.718
 4735SOL     OW15103   6.879   6.345   4.822
 4735SOL    HW115104   6.975   6.341   4.795
 4735SOL    HW215105   6.837   6.256   4.809
 4736SOL     OW15106   6.812   1.685   3.394
 4736SOL    HW115107   6.845   1.773   3.428
 4736SOL    HW215108   6.740   1.701   3.327
 4737SOL     OW15109   1.514   5.311   0.941
 4737SOL    HW115110   1.526   5.215   0.915
 4737SOL    HW215111   1.599   5.345   0.983
 4738SOL     OW15112   2.064   0.434   3.837
 4738SOL    HW115113   2.025   0.449   3.927
 4738SOL    HW215114   2.110   0.517   3.805
 4739SOL     OW15115   5.869   3.194   4.888
 4739SOL    HW115116   5.930   3.231   4.959
 4739SOL    HW215117   5.777   3.232   4.900
 4740SOL     OW15118   0.725   1.277   1.798
 4740SOL    HW115119   0.678   1.264   1.886
 4740SOL    HW215120   0.688   1.213   1.731
 4741SOL     OW15121   3.892   4.765   1.140
 4741SOL    HW115122   3.973   4.815   1.108
 4741SOL    HW215123   3.878   4.785   1.237
 4742SOL     OW15124   2.828   6.010   1.192
 4742SOL    HW115125   2.907   6.061   1.224
 4742SOL    HW215126   2.746   6.043   1.239
 4743SOL     OW15127   2.640   1.758   6.100
 4743SOL    HW115128   2.553   1.730   6.060
 4743SOL    HW215129   2.667   1.693   6.171
 4744SOL     OW15130   1.959   3.737   5.679
 4744SOL    HW115131   1.900   3.656   5.682
 4744SOL    HW215132   2.014   3.734   5.596
 4745SOL     OW15133   2.935   5.183   5.534
 4745SOL    HW115134   3.003   5.231   5.477
 4745SOL    HW215135   2.982   5.114   5.589
 4746SOL     OW15136   6.220   5.844   0.311
 4746SOL    HW115137   6.301   5.797   0.346
 4746SOL    HW215138   6.213   5.829   0.212
 4747SOL     OW15139   0.048   2.309   6.803
 4747SOL    HW115140   0.015   2.268   6.888
 4747SOL    HW215141   6.994   2.327   6.743
 4748SOL     OW15142   0.910   0.867   1.378
 4748SOL    HW115143   0.935   0.960   1.404
 4748SOL    HW215144   0.824   0.842   1.422
 4749SOL     OW15145   1.972   6.452   6.956
 4749SOL    HW115146   1.964   6.445   0.031
 4749SOL    HW215147   1.968   6.548   6.929
 4750SOL     OW15148   0.204   1.516   4.147
 4750SOL    HW115149   0.123   1.507   4.089
 4750SOL    HW215150   0.275   1.564   4.096
 4751SOL     OW15151   1.298   4.548   6.782
 4751SOL    HW115152   1.293   4.460   6.829
 4751SOL    HW215153   1.219   4.559   6.723
 4752SOL     OW15154   2.338   6.207   1.680
 4752SOL    HW115155   2.247   6.183   1.712
 4752SOL    HW215156   2.386   6.257   1.752
 4753SOL     OW15157   5.544   6.799   5.372
 4753SOL    HW115158   5.558   6.792   5.273
 4753SOL    HW215159   5.478   6.731   5.401
 4754SOL     OW15160   0.025   6.954   6.535
 4754SOL    HW115161   0.049   6.992   6.446
 4754SOL    HW215162   0.031   6.854   6.531
 4755SOL     OW15163   2.631   1.527   5.853
 4755SOL    HW115164   2.603   1.449   5.909
 4755SOL    HW215165   2.565   1.540   5.779
 4756SOL     OW15166   4.668   2.734   1.578
 4756SOL    HW115167   4.739   2.766   1.516
 4756SOL    HW215168   4.702   2.733   1.671
 4757SOL     OW15169   2.473   2.535   1.988
 4757SOL    HW115170   2.480   2.495   1.896
 4757SOL    HW215171   2.543   2.494   2.047
 4758SOL     OW15172   4.595   5.189   5.721
 4758SOL    HW115173   4.670   5.252   5.703
 4758SOL    HW215174   4.578   5.133   5.639
 4759SOL     OW15175   5.535   6.068   5.779
 4759SOL    HW115176   5.586   6.153   5.768
 4759SOL    HW215177   5.596   5.997   5.814
 4760SOL     OW15178   1.708   0.950   1.494
 4760SOL    HW115179   1.797   0.907   1.481
 4760SOL    HW215180   1.718   1.049   1.485
 4761SOL     OW15181   6.974   0.243   6.483
 4761SOL    HW115182   6.895   0.194   6.519
 4761SOL    HW215183   0.010   0.179   6.435
 4762SOL     OW15184   2.379   4.791   2.165
 4762SOL    HW115185   2.437   4.717   2.198
 4762SOL    HW215186   2.418   4.879   2.192
 4763SOL     OW15187   5.836   5.839   3.164
 4763SOL    HW115188   5.780   5.761   3.137
 4763SOL    HW215189   5.930   5.827   3.131
 4764SOL     OW15190   4.477   3.696   5.326
 4764SOL    HW115191   4.546   3.650   5.269
 4764SOL    HW215192   4.516   3.714   5.416
 4765SOL     OW15193   5.171   6.150   5.182
 4765SOL    HW115194   5.098   6.207   5.144
 4765SOL    HW215195   5.132   6.082   5.243
 4766SOL     OW15196   2.889   0.778   3.177
 4766SOL    HW115197   2.911   0.843   3.250
 4766SOL    HW215198   2.795   0.747   3.187
 4767SOL     OW15199   3.899   6.819   0.771
 4767SOL    HW115200   3.836   6.820   0.693
 4767SOL    HW215201   3.945   6.907   0.778
 4768SOL     OW15202   4.792   1.117   4.754
 4768SOL    HW115203   4.770   1.128   4.851
 4768SOL    HW215204   4.886   1.147   4.738
 4769SOL     OW15205   3.606   5.696   1.787
 4769SOL    HW115206   3.686   5.745   1.822
 4769SOL    HW215207   3.525   5.722   1.839
 4770SOL     OW15208   2.256   0.380   3.141
 4770SOL    HW115209   2.271   0.420   3.232
 4770SOL    HW215210   2.230   0.284   3.151
 4771SOL     OW15211   3.409   4.801   6.337
 4771SOL    HW115212   3.469   4.836   6.265
 4771SOL    HW215213   3.319   4.844   6.329
 4772SOL     OW15214   2.663   0.290   1.602
 4772SOL    HW115215   2.648   0.235   1.519
 4772SOL    HW215216   2.595   0.362   1.606
 4773SOL     OW15217   0.448   6.132   4.077
 4773SOL    HW115218   0.360   6.088   4.094
 4773SOL    HW215219   0.437   6.202   4.006
 4774SOL     OW15220   0.657   3.378   2.352
 4774SOL    HW115221   0.697   3.425   2.431
 4774SOL    HW215222   0.702   3.290   2.340
 4775SOL     OW15223   4.857   0.422   2.666
 4775SOL    HW115224   4.778   0.381   2.620
 4775SOL    HW215225   4.842   0.423   2.764
 4776SOL     OW15226   2.842   5.821   2.346
 4776SOL    HW115227   2.788   5.738   2.332
 4776SOL    HW215228   2.817   5.861   2.435
 4777SOL     OW15229   2.129   4.433   0.896
 4777SOL    HW115230   2.155   4.513   0.950
 4777SOL    HW215231   2.063   4.379   0.948
 4778SOL     OW15232   4.618   3.581   1.709
 4778SOL    HW115233   4.696   3.559   1.768
 4778SOL    HW215234   4.612   3.514   1.635
 4779SOL     OW15235   6.756   0.189   3.144
 4779SOL    HW115236   6.727   0.126   3.217
 4779SOL    HW215237   6.675   0.231   3.103
 4780SOL     OW15238   0.925   0.351   5.989
 4780SOL    HW115239   0.898   0.437   6.031
 4780SOL    HW215240   1.025   0.349   5.980
 4781SOL     OW15241   2.447   5.635   1.317
 4781SOL    HW115242   2.382   5.685   1.375
 4781SOL    HW215243   2.504   5.576   1.374
 4782SOL     OW15244   5.619   0.618   6.432
 4782SOL    HW115245   5.634   0.636   6.529
 4782SOL    HW215246   5.544   0.675   6.398
 4783SOL     OW15247   4.837   4.061   0.770
 4783SOL    HW115248   4.827   4.086   0.673
 4783SOL    HW215249   4.803   4.135   0.827
 4784SOL     OW15250   5.879   5.087   5.032
 4784SOL    HW115251   5.855   5.060   5.126
 4784SOL    HW215252   5.798   5.084   4.975
 4785SOL     OW15253   6.685   6.613   0.961
 4785SOL    HW115254   6.657   6.635   1.055
 4785SOL    HW215255   6.702   6.697   0.911
 4786SOL     OW15256   1.865   2.823   2.156
 4786SOL    HW115257   1.937   2.754   2.166
 4786SOL    HW215258   1.784   2.794   2.208
 4787SOL     OW15259   3.181   2.062   3.917
 4787SOL    HW115260   3.136   1.992   3.860
 4787SOL    HW215261   3.112   2.122   3.957
 4788SOL     OW15262   1.608   5.505   5.916
 4788SOL    HW115263   1.546   5.442   5.867
 4788SOL    HW215264   1.682   5.533   5.854
 4789SOL     OW15265   5.603   0.310   6.978
 4789SOL    HW115266   5.533   0.376   7.006
 4789SOL    HW215267   5.638   0.334   6.887
 4790SOL     OW15268   5.309   2.271   6.523
 4790SOL    HW115269   5.257   2.342   6.475
 4790SOL    HW215270   5.247   2.200   6.557
 4791SOL     OW15271   5.602   6.962   2.249
 4791SOL    HW115272   5.646   0.024   2.275
 4791SOL    HW215273   5.504   6.977   2.239
 4792SOL     OW15274   2.316   2.775   2.808
 4792SOL    HW115275   2.297   2.693   2.860
 4792SOL    HW215276   2.414   2.781   2.789
 4793SOL     OW15277   1.381   0.203   5.732
 4793SOL    HW115278   1.401   0.270   5.660
 4793SOL    HW215279   1.466   0.168   5.771
 4794SOL     OW15280   3.096   6.416   2.892
 4794SOL    HW115281   3.006   6.424   2.847
 4794SOL    HW215282   3.164   6.466   2.838
 4795SOL     OW15283   6.402   3.174   4.549
 4795SOL    HW115284   6.359   3.123   4.475
 4795SOL    HW215285   6.357   3.152   4.636
 4796SOL     OW15286   5.436   3.125   0.322
 4796SOL    HW115287   5.530   3.105   0.295
 4796SOL    HW215288   5.377   3.050   0.294
 4797SOL     OW15289   1.160   4.928   5.889
 4797SOL    HW115290   1.185   4.949   5.984
 4797SOL    HW215291   1.229   4.867   5.850
 4798SOL     OW15292   0.364   4.578   4.319
 4798SOL    HW115293   0.433   4.507   4.303
 4798SOL    HW215294   0.329   4.610   4.231
 4799SOL     OW15295   5.420   1.319   5.239
 4799SOL    HW115296   5.322   1.311   5.258
 4799SOL    HW215297   5.441   1.412   5.210
 4800SOL     OW15298   2.567   3.000   5.933
 4800SOL    HW115299   2.646   3.059   5.920
 4800SOL    HW215300   2.551   2.947   5.850
 4801SOL     OW15301   1.522   1.682   0.355
 4801SOL    HW115302   1.486   1.775   0.346
 4801SOL    HW215303   1.484   1.624   0.282
 4802SOL     OW15304   2.884   6.551   1.841
 4802SOL    HW115305   2.964   6.611   1.845
 4802SOL    HW215306   2.913   6.456   1.828
 4803SOL     OW15307   0.753   0.014   0.940
 4803SOL    HW115308   0.829   0.046   0.997
 4803SOL    HW215309   0.770   6.943   0.914
 4804SOL     OW15310   4.246   5.451   6.782
 4804SOL    HW115311   4.325   5.391   6.769
 4804SOL    HW215312   4.251   5.528   6.719
 4805SOL     OW15313   6.538   0.653   0.236
 4805SOL    HW115314   6.533   0.679   0.332
 4805SOL    HW215315   6.623   0.687   0.196
 4806SOL     OW15316   6.991   4.235   2.992
 4806SOL    HW115317   6.913   4.261   3.050
 4806SOL    HW215318   0.032   4.181   3.044
 4807SOL     OW15319   0.908   5.849   1.860
 4807SOL    HW115320   0.903   5.815   1.766
 4807SOL    HW215321   0.979   5.798   1.909
 4808SOL     OW15322   5.595   3.384   0.974
 4808SOL    HW115323   5.691   3.366   0.993
 4808SOL    HW215324   5.551   3.299   0.942
 4809SOL     OW15325   2.973   5.139   0.028
 4809SOL    HW115326   2.990   5.056   6.999
 4809SOL    HW215327   2.964   5.217   6.990
 4810SOL     OW15328   0.652   5.630   1.708
 4810SOL    HW115329   0.722   5.698   1.687
 4810SOL    HW215330   0.563   5.663   1.679
 4811SOL     OW15331   2.988   5.068   2.083
 4811SOL    HW115332   3.038   5.149   2.052
 4811SOL    HW215333   3.014   4.989   2.026
 4812SOL     OW15334   6.944   5.292   4.351
 4812SOL    HW115335   7.015   5.354   4.385
 4812SOL    HW215336   6.860   5.344   4.333
 4813SOL     OW15337   5.018   1.719   2.244
 4813SOL    HW115338   5.007   1.810   2.203
 4813SOL    HW215339   5.056   1.728   2.336
 4814SOL     OW15340   6.929   3.983   0.558
 4814SOL    HW115341   6.876   3.898   0.564
 4814SOL    HW215342   6.972   4.002   0.646
 4815SOL     OW15343   4.981   5.182   1.873
 4815SOL    HW115344   4.990   5.121   1.951
 4815SOL    HW215345   5.062   5.240   1.865
 4816SOL     OW15346   5.204   5.538   2.471
 4816SOL    HW115347   5.208   5.638   2.468
 4816SOL    HW215348   5.111   5.507   2.450
 4817SOL     OW15349   0.926   2.145   5.507
 4817SOL    HW115350   0.893   2.239   5.499
 4817SOL    HW215351   0.956   2.113   5.417
 4818SOL     OW15352   0.206   0.195   3.806
 4818SOL    HW115353   0.195   0.098   3.784
 4818SOL    HW215354   0.298   0.224   3.777
 4819SOL     OW15355   1.737   3.123   0.071
 4819SOL    HW115356   1.773   3.037   0.034
 4819SOL    HW215357   1.769   3.199   0.015
 4820SOL     OW15358   0.235   3.573   1.711
 4820SOL    HW115359   0.271   3.533   1.795
 4820SOL    HW215360   0.166   3.642   1.734
 4821SOL     OW15361   0.104   6.134   2.118
 4821SOL    HW115362   0.111   6.234   2.120
 4821SOL    HW215363   0.185   6.096   2.073
 4822SOL     OW15364   0.812   4.039   4.057
 4822SOL    HW115365   0.759   3.981   4.119
 4822SOL    HW215366   0.826   3.990   3.971
 4823SOL     OW15367   1.311   3.163   2.386
 4823SOL    HW115368   1.362   3.220   2.322
 4823SOL    HW215369   1.372   3.097   2.429
 4824SOL     OW15370   5.190   0.493   5.082
 4824SOL    HW115371   5.122   0.432   5.123
 4824SOL    HW215372   5.147   0.553   5.015
 4825SOL     OW15373   1.562   0.288   4.430
 4825SOL    HW115374   1.609   0.244   4.507
 4825SOL    HW215375   1.603   0.378   4.414
 4826SOL     OW15376   4.708   6.935   1.640
 4826SOL    HW115377   4.663   6.941   1.551
 4826SOL    HW215378   4.687   7.016   1.694
 4827SOL     OW15379   0.166   1.979   0.298
 4827SOL    HW115380   0.212   2.007   0.215
 4827SOL    HW215381   0.178   2.049   0.369
 4828SOL     OW15382   4.638   6.845   2.740
 4828SOL    HW115383   4.696   6.885   2.812
 4828SOL    HW215384   4.569   6.911   2.713
 4829SOL     OW15385   4.203   0.272   5.968
 4829SOL    HW115386   4.126   0.277   6.031
 4829SOL    HW215387   4.279   0.224   6.012
 4830SOL     OW15388   3.432   5.456   3.847
 4830SOL    HW115389   3.476   5.384   3.901
 4830SOL    HW215390   3.386   5.415   3.768
 4831SOL     OW15391   3.432   5.462   6.069
 4831SOL    HW115392   3.522   5.433   6.036
 4831SOL    HW215393   3.431   5.462   6.169
 4832SOL     OW15394   2.898   3.433   4.769
 4832SOL    HW115395   2.839   3.478   4.701
 4832SOL    HW215396   2.954   3.502   4.815
 4833SOL     OW15397   6.186   2.909   4.568
 4833SOL    HW115398   6.241   2.944   4.492
 4833SOL    HW215399   6.098   2.955   4.570
 4834SOL     OW15400   2.148   5.479   2.295
 4834SOL    HW115401   2.076   5.547   2.305
 4834SOL    HW215402   2.158   5.454   2.199
 4835SOL     OW15403   6.581   3.145   5.502
 4835SOL    HW115404   6.674   3.182   5.491
 4835SOL    HW215405   6.537   3.189   5.581
 4836SOL     OW15406   4.898   0.554   5.217
 4836SOL    HW115407   4.807   0.512   5.214
 4836SOL    HW215408   4.909   0.614   5.138
 4837SOL     OW15409   6.543   3.047   4.198
 4837SOL    HW115410   6.615   3.039   4.129
 4837SOL    HW215411   6.465   3.096   4.159
 4838SOL     OW15412   1.214   4.606   6.038
 4838SOL    HW115413   1.290   4.661   6.071
 4838SOL    HW215414   1.128   4.646   6.069
 4839SOL     OW15415   2.222   2.163   1.111
 4839SOL    HW115416   2.178   2.136   1.026
 4839SOL    HW215417   2.313   2.201   1.092
 4840SOL     OW15418   4.966   3.753   5.237
 4840SOL    HW115419   4.924   3.723   5.322
 4840SOL    HW215420   4.926   3.703   5.160
 4841SOL     OW15421   2.891   5.061   3.377
 4841SOL    HW115422   2.870   5.096   3.285
 4841SOL    HW215423   2.819   5.090   3.440
 4842SOL     OW15424   2.548   5.051   2.849
 4842SOL    HW115425   2.520   5.019   2.759
 4842SOL    HW215426   2.645   5.076   2.846
 4843SOL     OW15427   0.130   2.484   2.253
 4843SOL    HW115428   0.089   2.573   2.237
 4843SOL    HW215429   0.089   2.441   2.333
 4844SOL     OW15430   1.329   5.338   5.294
 4844SOL    HW115431   1.313   5.285   5.210
 4844SOL    HW215432   1.326   5.436   5.272
 4845SOL     OW15433   4.691   4.377   5.321
 4845SOL    HW115434   4.648   4.360   5.233
 4845SOL    HW215435   4.774   4.431   5.308
 4846SOL     OW15436   0.034   3.259   4.563
 4846SOL    HW115437   6.959   3.246   4.573
 4846SOL    HW215438   0.051   3.344   4.513
 4847SOL     OW15439   2.651   6.370   5.749
 4847SOL    HW115440   2.658   6.391   5.652
 4847SOL    HW215441   2.562   6.328   5.768
 4848SOL     OW15442   2.660   0.546   4.292
 4848SOL    HW115443   2.694   0.640   4.289
 4848SOL    HW215444   2.666   0.512   4.386
 4849SOL     OW15445   2.198   6.837   1.055
 4849SOL    HW115446   2.214   6.912   1.119
 4849SOL    HW215447   2.284   6.814   1.009
 4850SOL     OW15448   4.759   0.829   0.866
 4850SOL    HW115449   4.735   0.798   0.958
 4850SOL    HW215450   4.734   0.925   0.855
 4851SOL     OW15451   3.248   6.043   6.897
 4851SOL    HW115452   3.226   6.135   6.930
 4851SOL    HW215453   3.334   6.045   6.848
 4852SOL     OW15454   4.588   5.383   5.409
 4852SOL    HW115455   4.643   5.311   5.367
 4852SOL    HW215456   4.491   5.356   5.406
 4853SOL     OW15457   3.691   0.940   2.962
 4853SOL    HW115458   3.739   0.855   2.984
 4853SOL    HW215459   3.732   0.982   2.882
 4854SOL     OW15460   6.168   6.209   1.413
 4854SOL    HW115461   6.242   6.205   1.480
 4854SOL    HW215462   6.127   6.119   1.403
 4855SOL     OW15463   6.555   4.794   4.557
 4855SOL    HW115464   6.480   4.785   4.623
 4855SOL    HW215465   6.633   4.839   4.601
 4856SOL     OW15466   0.246   3.913   2.765
 4856SOL    HW115467   0.156   3.926   2.723
 4856SOL    HW215468   0.305   3.862   2.703
 4857SOL     OW15469   2.959   2.205   4.023
 4857SOL    HW115470   2.983   2.195   4.119
 4857SOL    HW215471   2.877   2.261   4.015
 4858SOL     OW15472   0.502   6.698   4.640
 4858SOL    HW115473   0.561   6.626   4.602
 4858SOL    HW215474   0.444   6.735   4.568
 4859SOL     OW15475   0.719   5.753   2.060
 4859SOL    HW115476   0.728   5.654   2.052
 4859SOL    HW215477   0.776   5.797   1.992
 4860SOL     OW15478   5.279   5.702   1.048
 4860SOL    HW115479   5.375   5.728   1.052
 4860SOL    HW215480   5.231   5.763   0.985
 4861SOL     OW15481   0.156   4.846   6.611
 4861SOL    HW115482   0.083   4.862   6.544
 4861SOL    HW215483   0.234   4.804   6.566
 4862SOL     OW15484   2.652   4.809   5.164
 4862SOL    HW115485   2.701   4.726   5.138
 4862SOL    HW215486   2.702   4.854   5.238
 4863SOL     OW15487   4.443   2.464   3.375
 4863SOL    HW115488   4.355   2.422   3.395
 4863SOL    HW215489   4.512   2.393   3.361
 4864SOL     OW15490   3.075   1.118   2.262
 4864SOL    HW115491   3.106   1.068   2.343
 4864SOL    HW215492   3.057   1.053   2.188
 4865SOL     OW15493   3.551   5.376   5.462
 4865SOL    HW115494   3.630   5.401   5.405
 4865SOL    HW215495   3.489   5.319   5.408
 4866SOL     OW15496   5.997   4.721   2.053
 4866SOL    HW115497   6.057   4.645   2.079
 4866SOL    HW215498   6.047   4.784   1.993
 4867SOL     OW15499   4.922   5.568   2.367
 4867SOL    HW115500   4.891   5.656   2.404
 4867SOL    HW215501   4.919   5.572   2.267
 4868SOL     OW15502   0.471   5.733   1.142
 4868SOL    HW115503   0.373   5.749   1.129
 4868SOL    HW215504   0.511   5.702   1.055
 4869SOL     OW15505   0.053   1.611   6.829
 4869SOL    HW115506   0.015   1.590   6.919
 4869SOL    HW215507   0.153   1.608   6.834
 4870SOL     OW15508   4.794   6.382   1.774
 4870SOL    HW115509   4.786   6.466   1.828
 4870SOL    HW215510   4.709   6.330   1.781
 4871SOL     OW15511   1.349   2.718   4.002
 4871SOL    HW115512   1.394   2.787   3.947
 4871SOL    HW215513   1.357   2.629   3.958
 4872SOL     OW15514   1.187   0.142   2.604
 4872SOL    HW115515   1.206   0.239   2.585
 4872SOL    HW215516   1.095   0.133   2.641
 4873SOL     OW15517   6.770   5.645   4.992
 4873SOL    HW115518   6.796   5.660   5.087
 4873SOL    HW215519   6.712   5.720   4.961
 4874SOL     OW15520   5.600   3.437   3.116
 4874SOL    HW115521   5.507   3.449   3.150
 4874SOL    HW215522   5.607   3.477   3.024
 4875SOL     OW15523   5.293   1.645   1.088
 4875SOL    HW115524   5.242   1.560   1.077
 4875SOL    HW215525   5.230   1.718   1.116
 4876SOL     OW15526   0.305   1.759   0.068
 4876SOL    HW115527   0.339   1.788   0.157
 4876SOL    HW215528   0.373   1.702   0.023
 4877SOL     OW15529   6.266   1.161   1.377
 4877SOL    HW115530   6.245   1.240   1.433
 4877SOL    HW215531   6.259   1.185   1.280
 4878SOL     OW15532   6.822   1.585   1.755
 4878SOL    HW115533   6.859   1.668   1.712
 4878SOL    HW215534   6.831   1.593   1.855
 4879SOL     OW15535   4.351   5.133   3.445
 4879SOL    HW115536   4.324   5.041   3.472
 4879SOL    HW215537   4.417   5.128   3.370
 4880SOL     OW15538   5.582   1.543   6.909
 4880SOL    HW115539   5.646   1.544   6.986
 4880SOL    HW215540   5.488   1.547   6.943
 4881SOL     OW15541   3.268   6.457   6.311
 4881SOL    HW115542   3.257   6.556   6.301
 4881SOL    HW215543   3.197   6.411   6.258
 4882SOL     OW15544   5.699   1.276   5.314
 4882SOL    HW115545   5.698   1.197   5.374
 4882SOL    HW215546   5.608   1.288   5.273
 4883SOL     OW15547   6.688   4.420   1.849
 4883SOL    HW115548   6.778   4.393   1.883
 4883SOL    HW215549   6.623   4.426   1.925
 4884SOL     OW15550   3.539   6.377   2.130
 4884SOL    HW115551   3.468   6.438   2.095
 4884SOL    HW215552   3.613   6.371   2.063
 4885SOL     OW15553   2.026   0.143   1.133
 4885SOL    HW115554   2.007   0.238   1.157
 4885SOL    HW215555   2.112   0.115   1.175
 4886SOL     OW15556   6.455   0.480   0.016
 4886SOL    HW115557   6.478   0.544   0.090
 4886SOL    HW215558   6.456   0.528   6.953
 4887SOL     OW15559   0.291   1.805   3.880
 4887SOL    HW115560   0.294   1.755   3.794
 4887SOL    HW215561   0.206   1.858   3.886
 4888SOL     OW15562   2.304   6.110   2.797
 4888SOL    HW115563   2.213   6.091   2.761
 4888SOL    HW215564   2.338   6.028   2.844
 4889SOL     OW15565   1.051   1.867   0.030
 4889SOL    HW115566   0.996   1.949   0.049
 4889SOL    HW215567   1.075   1.865   6.957
 4890SOL     OW15568   0.994   0.775   4.518
 4890SOL    HW115569   0.921   0.839   4.540
 4890SOL    HW215570   1.048   0.757   4.600
 4891SOL     OW15571   0.910   5.092   0.587
 4891SOL    HW115572   0.890   5.007   0.538
 4891SOL    HW215573   0.894   5.079   0.685
 4892SOL     OW15574   0.868   5.770   1.602
 4892SOL    HW115575   0.850   5.857   1.555
 4892SOL    HW215576   0.907   5.705   1.537
 4893SOL     OW15577   0.572   3.812   6.459
 4893SOL    HW115578   0.612   3.736   6.409
 4893SOL    HW215579   0.611   3.815   6.551
 4894SOL     OW15580   2.289   0.781   3.618
 4894SOL    HW115581   2.324   0.835   3.541
 4894SOL    HW215582   2.273   0.842   3.696
 4895SOL     OW15583   1.031   3.029   0.215
 4895SOL    HW115584   1.001   3.018   0.310
 4895SOL    HW215585   1.120   2.984   0.203
 4896SOL     OW15586   3.676   4.908   5.256
 4896SOL    HW115587   3.625   4.966   5.192
 4896SOL    HW215588   3.619   4.831   5.284
 4897SOL     OW15589   3.420   5.597   0.427
 4897SOL    HW115590   3.454   5.512   0.386
 4897SOL    HW215591   3.394   5.660   0.354
 4898SOL     OW15592   5.024   1.455   5.761
 4898SOL    HW115593   5.084   1.407   5.696
 4898SOL    HW215594   5.081   1.504   5.827
 4899SOL     OW15595   5.923   4.612   3.784
 4899SOL    HW115596   5.996   4.590   3.720
 4899SOL    HW215597   5.860   4.677   3.742
 4900SOL     OW15598   0.759   6.741   5.934
 4900SOL    HW115599   0.795   6.834   5.940
 4900SOL    HW215600   0.726   6.712   6.024
 4901SOL     OW15601   0.720   6.648   4.027
 4901SOL    HW115602   0.633   6.616   3.990
 4901SOL    HW215603   0.794   6.627   3.964
 4902SOL     OW15604   2.730   4.756   1.560
 4902SOL    HW115605   2.667   4.804   1.499
 4902SOL    HW215606   2.818   4.803   1.562
 4903SOL     OW15607   4.634   0.003   6.709
 4903SOL    HW115608   4.725   7.019   6.668
 4903SOL    HW215609   4.573   6.960   6.667
 4904SOL     OW15610   2.478   6.177   4.369
 4904SOL    HW115611   2.403   6.153   4.431
 4904SOL    HW215612   2.483   6.276   4.359
 4905SOL     OW15613   4.762   3.192   1.702
 4905SOL    HW115614   4.711   3.118   1.746
 4905SOL    HW215615   4.741   3.192   1.604
 4906SOL     OW15616   5.245   0.109   0.359
 4906SOL    HW115617   5.217   0.196   0.319
 4906SOL    HW215618   5.341   0.113   0.384
 4907SOL     OW15619   3.940   0.479   3.621
 4907SOL    HW115620   3.928   0.390   3.664
 4907SOL    HW215621   4.038   0.501   3.615
 4908SOL     OW15622   3.686   6.499   6.507
 4908SOL    HW115623   3.593   6.462   6.510
 4908SOL    HW215624   3.681   6.599   6.498
 4909SOL     OW15625   6.747   6.362   5.345
 4909SOL    HW115626   6.727   6.365   5.247
 4909SOL    HW215627   6.662   6.349   5.396
 4910SOL     OW15628   5.186   0.204   5.100
 4910SOL    HW115629   5.249   0.269   5.059
 4910SOL    HW215630   5.105   0.193   5.042
 4911SOL     OW15631   6.849   2.584   5.761
 4911SOL    HW115632   6.883   2.541   5.845
 4911SOL    HW215633   6.899   2.669   5.745
 4912SOL     OW15634   3.953   1.897   2.366
 4912SOL    HW115635   3.917   1.987   2.343
 4912SOL    HW215636   3.964   1.843   2.282
 4913SOL     OW15637   3.513   3.902   3.369
 4913SOL    HW115638   3.521   3.822   3.310
 4913SOL    HW215639   3.551   3.880   3.459
 4914SOL     OW15640   2.366   6.621   3.349
 4914SOL    HW115641   2.393   6.607   3.253
 4914SOL    HW215642   2.348   6.532   3.391
 4915SOL     OW15643   4.115   6.184   3.743
 4915SOL    HW115644   4.151   6.097   3.778
 4915SOL    HW215645   4.045   6.165   3.674
 4916SOL     OW15646   2.426   2.040   3.213
 4916SOL    HW115647   2.510   1.989   3.234
 4916SOL    HW215648   2.350   2.002   3.266
 4917SOL     OW15649   2.145   4.796   0.796
 4917SOL    HW115650   2.115   4.889   0.817
 4917SOL    HW215651   2.157   4.745   0.881
 4918SOL     OW15652   2.120   0.085   2.117
 4918SOL    HW115653   2.028   0.045   2.117
 4918SOL    HW215654   2.127   0.152   2.043
 4919SOL     OW15655   1.968   2.880   1.819
 4919SOL    HW115656   1.948   2.977   1.828
 4919SOL    HW215657   1.883   2.827   1.822
 4920SOL     OW15658   4.312   0.551   0.656
 4920SOL    HW115659   4.284   0.619   0.724
 4920SOL    HW215660   4.409   0.531   0.666
 4921SOL     OW15661   1.870   4.214   1.842
 4921SOL    HW115662   1.948   4.273   1.820
 4921SOL    HW215663   1.791   4.242   1.787
 4922SOL     OW15664   1.771   2.946   5.297
 4922SOL    HW115665   1.848   2.971   5.239
 4922SOL    HW215666   1.708   2.887   5.246
 4923SOL     OW15667   4.876   0.261   1.741
 4923SOL    HW115668   4.825   0.261   1.655
 4923SOL    HW215669   4.821   0.305   1.812
 4924SOL     OW15670   0.761   4.085   4.915
 4924SOL    HW115671   0.781   4.118   4.823
 4924SOL    HW215672   0.665   4.100   4.936
 4925SOL     OW15673   5.249   6.434   0.393
 4925SOL    HW115674   5.252   6.427   0.293
 4925SOL    HW215675   5.342   6.422   0.429
 4926SOL     OW15676   4.838   2.526   2.039
 4926SOL    HW115677   4.884   2.556   2.122
 4926SOL    HW215678   4.869   2.433   2.015
 4927SOL     OW15679   3.108   3.010   3.082
 4927SOL    HW115680   3.180   2.985   3.148
 4927SOL    HW215681   3.063   3.093   3.114
 4928SOL     OW15682   0.696   6.179   0.055
 4928SOL    HW115683   0.675   6.144   0.146
 4928SOL    HW215684   0.692   6.279   0.056
 4929SOL     OW15685   1.106   5.046   4.321
 4929SOL    HW115686   1.161   5.026   4.239
 4929SOL    HW215687   1.160   5.024   4.402
 4930SOL     OW15688   0.555   1.997   0.802
 4930SOL    HW115689   0.524   2.090   0.780
 4930SOL    HW215690   0.569   1.946   0.717
 4931SOL     OW15691   0.152   0.451   0.307
 4931SOL    HW115692   0.162   0.383   0.235
 4931SOL    HW215693   0.055   0.477   0.316
 4932SOL     OW15694   2.719   1.997   1.222
 4932SOL    HW115695   2.729   2.095   1.205
 4932SOL    HW215696   2.713   1.948   1.135
 4933SOL     OW15697   2.949   1.056   3.935
 4933SOL    HW115698   2.922   0.987   3.868
 4933SOL    HW215699   2.983   1.137   3.888
 4934SOL     OW15700   0.540   6.014   4.313
 4934SOL    HW115701   0.515   6.060   4.227
 4934SOL    HW215702   0.520   6.075   4.390
 4935SOL     OW15703   1.594   1.403   6.994
 4935SOL    HW115704   1.646   1.321   6.970
 4935SOL    HW215705   1.501   1.396   6.958
 4936SOL     OW15706   3.943   5.617   1.297
 4936SOL    HW115707   3.916   5.604   1.202
 4936SOL    HW215708   3.876   5.676   1.343
 4937SOL     OW15709   0.476   2.441   5.776
 4937SOL    HW115710   0.414   2.485   5.710
 4937SOL    HW215711   0.553   2.502   5.795
 4938SOL     OW15712   3.293   4.475   1.516
 4938SOL    HW115713   3.372   4.524   1.553
 4938SOL    HW215714   3.210   4.507   1.561
 4939SOL     OW15715   1.762   2.340   1.332
 4939SOL    HW115716   1.857   2.307   1.329
 4939SOL    HW215717   1.716   2.301   1.411
 4940SOL     OW15718   0.110   3.248   3.955
 4940SOL    HW115719   0.116   3.242   4.054
 4940SOL    HW215720   0.158   3.171   3.913
 4941SOL     OW15721   3.960   2.376   5.294
 4941SOL    HW115722   3.880   2.435   5.298
 4941SOL    HW215723   4.037   2.425   5.252
 4942SOL     OW15724   5.506   2.483   3.546
 4942SOL    HW115725   5.545   2.518   3.631
 4942SOL    HW215726   5.531   2.387   3.534
 4943SOL     OW15727   5.282   3.021   6.559
 4943SOL    HW115728   5.342   3.086   6.606
 4943SOL    HW215729   5.187   3.051   6.571
 4944SOL     OW15730   1.514   5.544   1.221
 4944SOL    HW115731   1.591   5.516   1.278
 4944SOL    HW215732   1.547   5.597   1.142
 4945SOL     OW15733   2.131   1.085   5.162
 4945SOL    HW115734   2.154   0.991   5.136
 4945SOL    HW215735   2.157   1.101   5.257
 4946SOL     OW15736   1.543   5.312   0.233
 4946SOL    HW115737   1.526   5.403   0.195
 4946SOL    HW215738   1.485   5.246   0.186
 4947SOL     OW15739   1.725   0.797   1.854
 4947SOL    HW115740   1.793   0.734   1.816
 4947SOL    HW215741   1.701   0.768   1.946
 4948SOL     OW15742   1.663   2.499   1.637
 4948SOL    HW115743   1.630   2.558   1.563
 4948SOL    HW215744   1.655   2.403   1.609
 4949SOL     OW15745   6.768   3.247   6.512
 4949SOL    HW115746   6.860   3.285   6.509
 4949SOL    HW215747   6.712   3.300   6.575
 4950SOL     OW15748   2.207   4.628   5.410
 4950SOL    HW115749   2.143   4.616   5.334
 4950SOL    HW215750   2.300   4.623   5.375
 4951SOL     OW15751   5.068   5.479   3.995
 4951SOL    HW115752   5.100   5.385   3.998
 4951SOL    HW215753   5.058   5.507   3.899
 4952SOL     OW15754   0.482   0.120   5.888
 4952SOL    HW115755   0.444   0.181   5.958
 4952SOL    HW215756   0.520   0.039   5.933
 4953SOL     OW15757   1.186   2.143   4.863
 4953SOL    HW115758   1.196   2.192   4.776
 4953SOL    HW215759   1.232   2.055   4.857
 4954SOL     OW15760   3.090   4.087   5.070
 4954SOL    HW115761   3.000   4.044   5.063
 4954SOL    HW215762   3.079   4.180   5.105
 4955SOL     OW15763   3.075   6.363   0.305
 4955SOL    HW115764   3.039   6.435   0.364
 4955SOL    HW215765   3.156   6.323   0.347
 4956SOL     OW15766   2.100   0.508   5.183
 4956SOL    HW115767   2.055   0.456   5.256
 4956SOL    HW215768   2.199   0.503   5.195
 4957SOL     OW15769   6.321   4.257   6.419
 4957SOL    HW115770   6.412   4.294   6.437
 4957SOL    HW215771   6.326   4.193   6.342
 4958SOL     OW15772   2.777   0.351   6.985
 4958SOL    HW115773   2.811   0.327   0.052
 4958SOL    HW215774   2.711   0.426   6.993
 4959SOL     OW15775   0.220   3.129   1.739
 4959SOL    HW115776   0.274   3.050   1.770
 4959SOL    HW215777   0.155   3.154   1.810
 4960SOL     OW15778   4.114   4.909   4.389
 4960SOL    HW115779   4.088   4.892   4.484
 4960SOL    HW215780   4.214   4.906   4.380
 4961SOL     OW15781   3.352   0.938   0.166
 4961SOL    HW115782   3.294   0.896   0.096
 4961SOL    HW215783   3.301   1.010   0.213
 4962SOL     OW15784   0.682   3.965   1.290
 4962SOL    HW115785   0.606   3.911   1.252
 4962SOL    HW215786   0.756   3.903   1.316
 4963SOL     OW15787   0.684   4.196   6.726
 4963SOL    HW115788   0.673   4.255   6.806
 4963SOL    HW215789   0.631   4.113   6.737
 4964SOL     OW15790   2.621   6.481   4.727
 4964SOL    HW115791   2.721   6.494   4.723
 4964SOL    HW215792   2.600   6.384   4.736
 4965SOL     OW15793   1.307   6.741   2.684
 4965SOL    HW115794   1.404   6.737   2.709
 4965SOL    HW215795   1.274   6.649   2.664
 4966SOL     OW15796   3.272   6.118   4.314
 4966SOL    HW115797   3.356   6.158   4.353
 4966SOL    HW215798   3.193   6.149   4.367
 4967SOL     OW15799   4.228   4.698   5.589
 4967SOL    HW115800   4.135   4.732   5.604
 4967SOL    HW215801   4.231   4.600   5.610
 4968SOL     OW15802   0.742   1.898   3.762
 4968SOL    HW115803   0.678   1.960   3.807
 4968SOL    HW215804   0.730   1.806   3.797
 4969SOL     OW15805   0.502   6.032   2.891
 4969SOL    HW115806   0.479   6.124   2.921
 4969SOL    HW215807   0.468   6.018   2.798
 4970SOL     OW15808   1.489   1.263   1.770
 4970SOL    HW115809   1.480   1.357   1.804
 4970SOL    HW215810   1.567   1.219   1.816
 4971SOL     OW15811   6.304   6.023   2.811
 4971SOL    HW115812   6.391   5.977   2.834
 4971SOL    HW215813   6.296   6.032   2.712
 4972SOL     OW15814   1.574   4.202   0.944
 4972SOL    HW115815   1.551   4.248   0.859
 4972SOL    HW215816   1.549   4.105   0.937
 4973SOL     OW15817   0.120   0.991   0.695
 4973SOL    HW115818   0.215   1.015   0.714
 4973SOL    HW215819   0.113   0.894   0.673
 4974SOL     OW15820   3.212   4.912   6.033
 4974SOL    HW115821   3.312   4.907   6.039
 4974SOL    HW215822   3.173   4.906   6.125
 4975SOL     OW15823   5.916   3.466   0.435
 4975SOL    HW115824   5.915   3.440   0.532
 4975SOL    HW215825   5.858   3.404   0.383
 4976SOL     OW15826   1.420   6.431   4.208
 4976SOL    HW115827   1.504   6.410   4.158
 4976SOL    HW215828   1.390   6.349   4.258
 4977SOL     OW15829   2.716   5.461   6.448
 4977SOL    HW115830   2.623   5.431   6.423
 4977SOL    HW215831   2.774   5.459   6.367
 4978SOL     OW15832   5.202   4.299   5.160
 4978SOL    HW115833   5.165   4.229   5.222
 4978SOL    HW215834   5.126   4.349   5.119
 4979SOL     OW15835   1.692   0.033   6.446
 4979SOL    HW115836   1.751   7.019   6.374
 4979SOL    HW215837   1.679   6.989   6.518
 4980SOL     OW15838   6.163   3.816   2.988
 4980SOL    HW115839   6.093   3.819   2.917
 4980SOL    HW215840   6.235   3.882   2.968
 4981SOL     OW15841   3.718   4.837   1.676
 4981SOL    HW115842   3.754   4.766   1.615
 4981SOL    HW215843   3.656   4.796   1.742
 4982SOL     OW15844   4.931   1.198   6.702
 4982SOL    HW115845   4.878   1.204   6.617
 4982SOL    HW215846   4.910   1.111   6.747
 4983SOL     OW15847   6.910   5.522   3.402
 4983SOL    HW115848   6.906   5.443   3.464
 4983SOL    HW215849   6.955   5.598   3.448
 4984SOL     OW15850   4.977   4.578   2.482
 4984SOL    HW115851   5.053   4.628   2.440
 4984SOL    HW215852   4.892   4.599   2.433
 4985SOL     OW15853   5.889   5.359   2.992
 4985SOL    HW115854   5.845   5.402   3.070
 4985SOL    HW215855   5.862   5.405   2.908
 4986SOL     OW15856   0.870   4.814   1.878
 4986SOL    HW115857   0.796   4.757   1.842
 4986SOL    HW215858   0.929   4.843   1.803
 4987SOL     OW15859   0.885   0.185   2.240
 4987SOL    HW115860   0.875   0.113   2.309
 4987SOL    HW215861   0.893   0.274   2.285
 4988SOL     OW15862   5.794   6.962   3.265
 4988SOL    HW115863   5.721   6.934   3.327
 4988SOL    HW215864   5.882   6.956   3.313
 4989SOL     OW15865   4.843   1.222   2.501
 4989SOL    HW115866   4.809   1.228   2.595
 4989SOL    HW215867   4.871   1.128   2.481
 4990SOL     OW15868   4.265   1.439   5.819
 4990SOL    HW115869   4.338   1.455   5.752
 4990SOL    HW215870   4.176   1.446   5.774
 4991SOL     OW15871   0.732   5.778   5.092
 4991SOL    HW115872   0.821   5.782   5.047
 4991SOL    HW215873   0.732   5.703   5.159
 4992SOL     OW15874   7.017   1.181   3.787
 4992SOL    HW115875   0.045   1.210   3.707
 4992SOL    HW215876   6.920   1.175   3.764
 4993SOL     OW15877   4.721   6.274   5.273
 4993SOL    HW115878   4.691   6.369   5.281
 4993SOL    HW215879   4.645   6.219   5.238
 4994SOL     OW15880   2.929   5.083   5.804
 4994SOL    HW115881   2.891   5.174   5.782
 4994SOL    HW215882   2.911   5.062   5.900
 4995SOL     OW15883   0.195   0.497   4.685
 4995SOL    HW115884   0.173   0.505   4.588
 4995SOL    HW215885   0.207   0.588   4.724
 4996SOL     OW15886   0.421   1.862   4.526
 4996SOL    HW115887   0.413   1.911   4.439
 4996SOL    HW215888   0.516   1.835   4.539
 4997SOL     OW15889   3.666   1.829   1.399
 4997SOL    HW115890   3.631   1.842   1.492
 4997SOL    HW215891   3.701   1.736   1.390
 4998SOL     OW15892   1.088   3.263   3.720
 4998SOL    HW115893   1.177   3.267   3.766
 4998SOL    HW215894   1.077   3.173   3.677
 4999SOL     OW15895   0.844   4.212   4.689
 4999SOL    HW115896   0.905   4.290   4.675
 4999SOL    HW215897   0.898   4.127   4.690
 5000SOL     OW15898   2.917   5.854   3.451
 5000SOL    HW115899   2.878   5.944   3.468
 5000SOL    HW215900   2.986   5.834   3.520
 5001SOL     OW15901   1.019   5.283   2.954
 5001SOL    HW115902   1.080   5.344   2.905
 5001SOL    HW215903   0.989   5.326   3.040
 5002SOL     OW15904   0.538   4.052   2.561
 5002SOL    HW115905   0.497   4.078   2.648
 5002SOL    HW215906   0.602   3.976   2.575
 5003SOL     OW15907   4.283   6.062   3.176
 5003SOL    HW115908   4.227   6.118   3.236
 5003SOL    HW215909   4.271   6.092   3.081
 5004SOL     OW15910   3.102   6.039   6.357
 5004SOL    HW115911   3.146   6.065   6.271
 5004SOL    HW215912   3.004   6.059   6.352
 5005SOL     OW15913   2.931   3.252   6.375
 5005SOL    HW115914   2.854   3.272   6.436
 5005SOL    HW215915   2.901   3.260   6.280
 5006SOL     OW15916   5.366   1.528   1.952
 5006SOL    HW115917   5.396   1.554   1.861
 5006SOL    HW215918   5.267   1.514   1.952
 5007SOL     OW15919   6.048   0.596   1.117
 5007SOL    HW115920   6.019   0.546   1.199
 5007SOL    HW215921   5.971   0.647   1.079
 5008SOL     OW15922   6.181   0.207   1.801
 5008SOL    HW115923   6.111   0.275   1.818
 5008SOL    HW215924   6.231   0.231   1.718
 5009SOL     OW15925   0.955   2.662   0.546
 5009SOL    HW115926   0.948   2.619   0.456
 5009SOL    HW215927   1.046   2.646   0.584
 5010SOL     OW15928   3.383   2.634   0.151
 5010SOL    HW115929   3.341   2.574   0.083
 5010SOL    HW215930   3.481   2.644   0.130
 5011SOL     OW15931   2.047   3.655   6.890
 5011SOL    HW115932   2.140   3.641   6.923
 5011SOL    HW215933   2.022   3.752   6.901
 5012SOL     OW15934   5.456   2.159   5.666
 5012SOL    HW115935   5.460   2.214   5.583
 5012SOL    HW215936   5.546   2.122   5.687
 5013SOL     OW15937   6.221   0.262   5.192
 5013SOL    HW115938   6.186   0.189   5.134
 5013SOL    HW215939   6.290   0.224   5.255
 5014SOL     OW15940   6.643   3.780   1.016
 5014SOL    HW115941   6.598   3.701   0.976
 5014SOL    HW215942   6.646   3.855   0.950
 5015SOL     OW15943   5.549   0.594   4.404
 5015SOL    HW115944   5.603   0.520   4.363
 5015SOL    HW215945   5.610   0.667   4.435
 5016SOL     OW15946   1.160   3.616   4.581
 5016SOL    HW115947   1.193   3.710   4.573
 5016SOL    HW215948   1.207   3.558   4.515
 5017SOL     OW15949   0.611   2.464   0.938
 5017SOL    HW115950   0.552   2.503   0.868
 5017SOL    HW215951   0.581   2.495   1.028
 5018SOL     OW15952   0.519   5.313   2.171
 5018SOL    HW115953   0.483   5.256   2.096
 5018SOL    HW215954   0.484   5.279   2.258
 5019SOL     OW15955   1.906   5.825   5.277
 5019SOL    HW115956   1.981   5.889   5.296
 5019SOL    HW215957   1.944   5.737   5.247
 5020SOL     OW15958   0.343   6.592   5.050
 5020SOL    HW115959   0.441   6.607   5.061
 5020SOL    HW215960   0.293   6.665   5.096
 5021SOL     OW15961   1.926   0.693   0.976
 5021SOL    HW115962   1.832   0.679   1.007
 5021SOL    HW215963   1.965   0.772   1.023
 5022SOL     OW15964   0.345   2.703   1.438
 5022SOL    HW115965   0.426   2.741   1.481
 5022SOL    HW215966   0.267   2.711   1.500
 5023SOL     OW15967   0.291   3.970   1.386
 5023SOL    HW115968   0.384   3.969   1.422
 5023SOL    HW215969   0.233   4.024   1.447
 5024SOL     OW15970   5.313   3.734   0.563
 5024SOL    HW115971   5.215   3.742   0.581
 5024SOL    HW215972   5.348   3.821   0.528
 5025SOL     OW15973   4.542   1.889   4.301
 5025SOL    HW115974   4.517   1.958   4.369
 5025SOL    HW215975   4.560   1.802   4.346
 5026SOL     OW15976   5.761   5.767   5.058
 5026SOL    HW115977   5.829   5.693   5.062
 5026SOL    HW215978   5.801   5.846   5.011
 5027SOL     OW15979   4.976   0.459   0.666
 5027SOL    HW115980   4.969   0.367   0.704
 5027SOL    HW215981   4.941   0.525   0.732
 5028SOL     OW15982   0.255   2.255   2.841
 5028SOL    HW115983   0.342   2.303   2.852
 5028SOL    HW215984   0.182   2.322   2.827
 5029SOL     OW15985   6.677   2.610   2.122
 5029SOL    HW115986   6.583   2.580   2.134
 5029SOL    HW215987   6.736   2.563   2.188
 5030SOL     OW15988   0.040   5.870   6.440
 5030SOL    HW115989   0.123   5.914   6.475
 5030SOL    HW215990   0.010   5.917   6.358
 5031SOL     OW15991   0.069   1.148   5.072
 5031SOL    HW115992   0.113   1.216   5.013
 5031SOL    HW215993   0.124   1.137   5.155
 5032SOL     OW15994   3.207   2.449   6.051
 5032SOL    HW115995   3.218   2.417   5.957
 5032SOL    HW215996   3.296   2.456   6.095
 5033SOL     OW15997   2.080   1.529   0.474
 5033SOL    HW115998   2.090   1.568   0.565
 5033SOL    HW215999   2.014   1.583   0.422
 5034SOL     OW16000   4.300   6.266   4.120
 5034SOL    HW116001   4.302   6.287   4.217
 5034SOL    HW216002   4.207   6.239   4.093
 5035SOL     OW16003   6.698   4.427   4.789
 5035SOL    HW116004   6.665   4.354   4.850
 5035SOL    HW216005   6.797   4.436   4.799
 5036SOL     OW16006   6.917   3.808   5.393
 5036SOL    HW116007   6.823   3.842   5.394
 5036SOL    HW216008   6.956   3.823   5.302
 5037SOL     OW16009   4.188   4.643   1.275
 5037SOL    HW116010   4.147   4.573   1.217
 5037SOL    HW216011   4.277   4.610   1.308
 5038SOL     OW16012   3.324   3.334   4.157
 5038SOL    HW116013   3.285   3.249   4.120
 5038SOL    HW216014   3.284   3.412   4.110
 5039SOL     OW16015   2.003   3.534   5.948
 5039SOL    HW116016   2.083   3.549   6.006
 5039SOL    HW216017   2.023   3.463   5.881
 5040SOL     OW16018   1.501   5.312   5.496
 5040SOL    HW116019   1.592   5.337   5.462
 5040SOL    HW216020   1.433   5.330   5.425
 5041SOL     OW16021   0.899   3.044   1.861
 5041SOL    HW116022   0.940   3.045   1.952
 5041SOL    HW216023   0.930   3.123   1.809
 5042SOL     OW16024   0.036   4.024   6.196
 5042SOL    HW116025   0.068   4.000   6.287
 5042SOL    HW216026   0.056   3.950   6.132
 5043SOL     OW16027   4.098   0.573   0.471
 5043SOL    HW116028   4.152   0.580   0.555
 5043SOL    HW216029   4.148   0.615   0.396
 5044SOL     OW16030   6.894   6.087   1.125
 5044SOL    HW116031   6.958   6.042   1.064
 5044SOL    HW216032   6.878   6.030   1.205
 5045SOL     OW16033   6.326   4.426   6.109
 5045SOL    HW116034   6.352   4.499   6.046
 5045SOL    HW216035   6.264   4.462   6.178
 5046SOL     OW16036   3.794   3.626   4.142
 5046SOL    HW116037   3.746   3.675   4.215
 5046SOL    HW216038   3.742   3.635   4.057
 5047SOL     OW16039   2.162   2.976   2.930
 5047SOL    HW116040   2.086   2.912   2.938
 5047SOL    HW216041   2.233   2.936   2.872
 5048SOL     OW16042   2.005   0.914   4.927
 5048SOL    HW116043   1.949   0.987   4.967
 5048SOL    HW216044   1.949   0.831   4.919
 5049SOL     OW16045   6.045   0.964   5.977
 5049SOL    HW116046   6.052   1.018   6.061
 5049SOL    HW216047   6.048   1.026   5.898
 5050SOL     OW16048   1.598   1.310   6.629
 5050SOL    HW116049   1.646   1.241   6.575
 5050SOL    HW216050   1.577   1.273   6.719
 5051SOL     OW16051   3.579   4.473   1.238
 5051SOL    HW116052   3.552   4.380   1.214
 5051SOL    HW216053   3.550   4.535   1.165
 5052SOL     OW16054   3.337   2.219   6.409
 5052SOL    HW116055   3.359   2.183   6.318
 5052SOL    HW216056   3.422   2.237   6.458
 5053SOL     OW16057   0.694   4.833   2.898
 5053SOL    HW116058   0.725   4.859   2.807
 5053SOL    HW216059   0.763   4.859   2.966
 5054SOL     OW16060   3.437   4.997   5.571
 5054SOL    HW116061   3.391   4.957   5.492
 5054SOL    HW216062   3.532   4.965   5.573
 5055SOL     OW16063   0.458   2.954   5.834
 5055SOL    HW116064   0.515   3.032   5.809
 5055SOL    HW216065   0.402   2.927   5.756
 5056SOL     OW16066   4.837   4.006   5.117
 5056SOL    HW116067   4.868   4.017   5.023
 5056SOL    HW216068   4.886   3.930   5.160
 5057SOL     OW16069   1.123   0.083   2.124
 5057SOL    HW116070   1.156   0.000   2.170
 5057SOL    HW216071   1.042   0.118   2.171
 5058SOL     OW16072   3.180   4.640   6.804
 5058SOL    HW116073   3.115   4.716   6.808
 5058SOL    HW216074   3.257   4.658   6.865
 5059SOL     OW16075   6.671   6.722   3.303
 5059SOL    HW116076   6.752   6.726   3.244
 5059SOL    HW216077   6.589   6.717   3.247
 5060SOL     OW16078   6.685   1.950   5.943
 5060SOL    HW116079   6.601   1.996   5.914
 5060SOL    HW216080   6.707   1.876   5.880
 5061SOL     OW16081   4.986   2.616   0.092
 5061SOL    HW116082   4.974   2.517   0.099
 5061SOL    HW216083   4.972   2.645   7.021
 5062SOL     OW16084   0.632   0.106   1.896
 5062SOL    HW116085   0.601   0.012   1.910
 5062SOL    HW216086   0.725   0.116   1.931
 5063SOL     OW16087   0.690   6.677   1.536
 5063SOL    HW116088   0.623   6.675   1.462
 5063SOL    HW216089   0.692   6.768   1.577
 5064SOL     OW16090   4.872   3.145   0.309
 5064SOL    HW116091   4.928   3.114   0.385
 5064SOL    HW216092   4.806   3.214   0.341
 5065SOL     OW16093   3.259   0.040   5.153
 5065SOL    HW116094   3.297   0.129   5.130
 5065SOL    HW216095   3.227   7.019   5.070
 5066SOL     OW16096   5.446   4.361   1.475
 5066SOL    HW116097   5.419   4.302   1.399
 5066SOL    HW216098   5.389   4.341   1.555
 5067SOL     OW16099   5.298   1.635   6.957
 5067SOL    HW116100   5.372   1.701   6.953
 5067SOL    HW216101   5.229   1.665   7.023
 5068SOL     OW16102   3.096   4.429   0.901
 5068SOL    HW116103   3.194   4.445   0.905
 5068SOL    HW216104   3.065   4.433   0.806
 5069SOL     OW16105   1.152   4.169   3.053
 5069SOL    HW116106   1.057   4.195   3.036
 5069SOL    HW216107   1.210   4.250   3.046
 5070SOL     OW16108   4.844   3.797   4.256
 5070SOL    HW116109   4.858   3.703   4.226
 5070SOL    HW216110   4.903   3.816   4.335
 5071SOL     OW16111   4.115   2.169   5.097
 5071SOL    HW116112   4.080   2.145   5.006
 5071SOL    HW216113   4.141   2.265   5.099
 5072SOL     OW16114   0.002   5.043   0.877
 5072SOL    HW116115   0.075   4.990   0.920
 5072SOL    HW216116   6.943   5.035   0.931
 5073SOL     OW16117   6.894   0.013   2.099
 5073SOL    HW116118   6.922   6.942   2.109
 5073SOL    HW216119   6.968   0.074   2.127
 5074SOL     OW16120   2.993   3.866   6.925
 5074SOL    HW116121   2.996   3.902   6.831
 5074SOL    HW216122   3.084   3.839   6.953
 5075SOL     OW16123   6.837   0.688   5.593
 5075SOL    HW116124   6.802   0.777   5.624
 5075SOL    HW216125   6.917   0.702   5.535
 5076SOL     OW16126   3.351   0.410   0.574
 5076SOL    HW116127   3.360   0.311   0.564
 5076SOL    HW216128   3.357   0.453   0.484
 5077SOL     OW16129   1.416   2.168   3.796
 5077SOL    HW116130   1.514   2.150   3.796
 5077SOL    HW216131   1.397   2.252   3.745
 5078SOL     OW16132   1.626   2.264   3.453
 5078SOL    HW116133   1.555   2.311   3.506
 5078SOL    HW216134   1.693   2.331   3.420
 5079SOL     OW16135   2.822   5.368   6.112
 5079SOL    HW116136   2.844   5.273   6.092
 5079SOL    HW216137   2.905   5.417   6.138
 5080SOL     OW16138   5.799   6.600   5.030
 5080SOL    HW116139   5.749   6.517   5.007
 5080SOL    HW216140   5.848   6.587   5.116
 5081SOL     OW16141   3.080   3.746   3.474
 5081SOL    HW116142   3.163   3.802   3.473
 5081SOL    HW216143   3.009   3.791   3.420
 5082SOL     OW16144   5.503   6.708   5.741
 5082SOL    HW116145   5.587   6.746   5.778
 5082SOL    HW216146   5.516   6.611   5.721
 5083SOL     OW16147   1.471   0.025   2.132
 5083SOL    HW116148   1.411   6.993   2.189
 5083SOL    HW216149   1.472   0.119   2.167
 5084SOL     OW16150   1.144   5.092   3.718
 5084SOL    HW116151   1.233   5.121   3.753
 5084SOL    HW216152   1.156   5.014   3.657
 5085SOL     OW16153   5.757   1.324   6.846
 5085SOL    HW116154   5.758   1.250   6.914
 5085SOL    HW216155   5.694   1.396   6.877
 5086SOL     OW16156   6.750   4.889   3.487
 5086SOL    HW116157   6.756   4.935   3.398
 5086SOL    HW216158   6.655   4.873   3.511
 5087SOL     OW16159   6.313   6.087   4.679
 5087SOL    HW116160   6.226   6.076   4.727
 5087SOL    HW216161   6.378   6.136   4.736
 5088SOL     OW16162   6.490   1.131   6.005
 5088SOL    HW116163   6.587   1.134   6.030
 5088SOL    HW216164   6.471   1.048   5.954
 5089SOL     OW16165   6.691   3.158   2.020
 5089SOL    HW116166   6.660   3.150   2.114
 5089SOL    HW216167   6.718   3.253   2.001
 5090SOL     OW16168   2.182   4.672   1.019
 5090SOL    HW116169   2.130   4.697   1.101
 5090SOL    HW216170   2.272   4.636   1.047
 5091SOL     OW16171   1.484   6.123   2.918
 5091SOL    HW116172   1.425   6.074   2.854
 5091SOL    HW216173   1.453   6.218   2.924
 5092SOL     OW16174   3.730   2.109   1.131
 5092SOL    HW116175   3.639   2.069   1.126
 5092SOL    HW216176   3.787   2.057   1.195
 5093SOL     OW16177   1.206   2.059   2.005
 5093SOL    HW116178   1.125   2.104   2.043
 5093SOL    HW216179   1.186   2.027   1.912
 5094SOL     OW16180   1.264   6.833   5.662
 5094SOL    HW116181   1.267   6.735   5.684
 5094SOL    HW216182   1.357   6.869   5.660
 5095SOL     OW16183   1.798   0.575   4.664
 5095SOL    HW116184   1.743   0.495   4.689
 5095SOL    HW216185   1.818   0.572   4.566
 5096SOL     OW16186   4.887   3.593   0.483
 5096SOL    HW116187   4.873   3.653   0.404
 5096SOL    HW216188   4.801   3.546   0.504
 5097SOL     OW16189   1.304   0.573   5.603
 5097SOL    HW116190   1.297   0.672   5.586
 5097SOL    HW216191   1.352   0.558   5.689
 5098SOL     OW16192   0.798   1.139   2.225
 5098SOL    HW116193   0.821   1.235   2.244
 5098SOL    HW216194   0.788   1.089   2.310
 5099SOL     OW16195   0.868   0.402   5.355
 5099SOL    HW116196   0.882   0.419   5.453
 5099SOL    HW216197   0.955   0.414   5.307
 5100SOL     OW16198   5.766   6.880   6.455
 5100SOL    HW116199   5.820   6.921   6.381
 5100SOL    HW216200   5.686   6.936   6.473
 5101SOL     OW16201   4.254   6.710   0.302
 5101SOL    HW116202   4.222   6.745   0.391
 5101SOL    HW216203   4.267   6.611   0.309
 5102SOL     OW16204   5.111   0.962   5.533
 5102SOL    HW116205   5.162   1.032   5.484
 5102SOL    HW216206   5.146   0.871   5.509
 5103SOL     OW16207   0.418   0.717   4.352
 5103SOL    HW116208   0.370   0.794   4.309
 5103SOL    HW216209   0.492   0.687   4.293
 5104SOL     OW16210   2.090   1.248   1.575
 5104SOL    HW116211   2.070   1.265   1.478
 5104SOL    HW216212   2.189   1.238   1.587
 5105SOL     OW16213   4.175   4.377   6.511
 5105SOL    HW116214   4.176   4.401   6.414
 5105SOL    HW216215   4.113   4.300   6.525
 5106SOL     OW16216   3.301   0.357   2.748
 5106SOL    HW116217   3.229   0.339   2.681
 5106SOL    HW216218   3.371   0.285   2.741
 5107SOL     OW16219   3.128   0.221   6.718
 5107SOL    HW116220   3.121   0.317   6.747
 5107SOL    HW216221   3.044   0.194   6.673
 5108SOL     OW16222   3.179   4.031   3.957
 5108SOL    HW116223   3.178   4.077   3.868
 5108SOL    HW216224   3.274   4.015   3.985
 5109SOL     OW16225   0.201   1.175   0.920
 5109SOL    HW116226   0.266   1.236   0.966
 5109SOL    HW216227   0.215   1.180   0.821
 5110SOL     OW16228   1.986   6.592   5.379
 5110SOL    HW116229   1.968   6.614   5.475
 5110SOL    HW216230   1.996   6.493   5.369
 5111SOL     OW16231   1.476   1.578   6.596
 5111SOL    HW116232   1.502   1.486   6.625
 5111SOL    HW216233   1.385   1.600   6.631
 5112SOL     OW16234   0.413   6.289   3.851
 5112SOL    HW116235   0.418   6.388   3.868
 5112SOL    HW216236   0.467   6.266   3.771
 5113SOL     OW16237   1.408   1.103   0.482
 5113SOL    HW116238   1.314   1.135   0.495
 5113SOL    HW216239   1.448   1.149   0.404
 5114SOL     OW16240   3.455   4.887   0.430
 5114SOL    HW116241   3.431   4.948   0.506
 5114SOL    HW216242   3.392   4.809   0.429
 5115SOL     OW16243   1.450   3.795   6.421
 5115SOL    HW116244   1.372   3.803   6.483
 5115SOL    HW216245   1.419   3.754   6.335
 5116SOL     OW16246   5.207   4.491   6.935
 5116SOL    HW116247   5.116   4.531   6.942
 5116SOL    HW216248   5.257   4.535   6.860
 5117SOL     OW16249   2.647   4.617   4.083
 5117SOL    HW116250   2.631   4.587   4.177
 5117SOL    HW216251   2.574   4.582   4.024
 5118SOL     OW16252   4.600   5.812   0.267
 5118SOL    HW116253   4.629   5.850   0.179
 5118SOL    HW216254   4.630   5.716   0.273
 5119SOL     OW16255   5.739   0.833   2.549
 5119SOL    HW116256   5.734   0.863   2.453
 5119SOL    HW216257   5.703   0.740   2.556
 5120SOL     OW16258   5.363   1.051   2.786
 5120SOL    HW116259   5.459   1.073   2.771
 5120SOL    HW216260   5.306   1.129   2.760
 5121SOL     OW16261   0.370   3.410   5.448
 5121SOL    HW116262   0.365   3.367   5.358
 5121SOL    HW216263   0.376   3.509   5.437
 5122SOL     OW16264   2.137   0.038   3.294
 5122SOL    HW116265   2.179   7.021   3.213
 5122SOL    HW216266   2.149   7.002   3.373
 5123SOL     OW16267   5.101   4.063   2.576
 5123SOL    HW116268   5.021   4.003   2.583
 5123SOL    HW216269   5.170   4.033   2.642
 5124SOL     OW16270   3.175   6.313   6.935
 5124SOL    HW116271   3.275   6.316   6.929
 5124SOL    HW216272   3.142   6.389   6.990
 5125SOL     OW16273   0.138   3.681   3.808
 5125SOL    HW116274   0.165   3.644   3.719
 5125SOL    HW216275   0.142   3.780   3.805
 5126SOL     OW16276   5.980   4.973   6.004
 5126SOL    HW116277   5.926   4.908   5.951
 5126SOL    HW216278   5.939   4.986   6.094
 5127SOL     OW16279   5.275   3.386   6.791
 5127SOL    HW116280   5.333   3.304   6.799
 5127SOL    HW216281   5.322   3.454   6.733
 5128SOL     OW16282   1.108   0.942   6.901
 5128SOL    HW116283   1.031   0.939   6.965
 5128SOL    HW216284   1.192   0.963   6.950
 5129SOL     OW16285   5.278   0.711   2.349
 5129SOL    HW116286   5.228   0.629   2.321
 5129SOL    HW216287   5.375   0.700   2.325
 5130SOL     OW16288   1.386   5.351   4.480
 5130SOL    HW116289   1.458   5.285   4.460
 5130SOL    HW216290   1.299   5.318   4.444
 5131SOL     OW16291   3.092   4.921   3.230
 5131SOL    HW116292   3.012   4.970   3.266
 5131SOL    HW216293   3.064   4.868   3.149
 5132SOL     OW16294   3.551   1.582   6.517
 5132SOL    HW116295   3.604   1.574   6.433
 5132SOL    HW216296   3.609   1.618   6.590
 5133SOL     OW16297   4.017   5.304   6.725
 5133SOL    HW116298   4.091   5.347   6.777
 5133SOL    HW216299   4.016   5.340   6.631
 5134SOL     OW16300   6.814   6.944   1.609
 5134SOL    HW116301   6.725   6.961   1.651
 5134SOL    HW216302   6.819   6.992   1.521
 5135SOL     OW16303   6.785   2.898   2.093
 5135SOL    HW116304   6.721   2.970   2.069
 5135SOL    HW216305   6.744   2.809   2.075
 5136SOL     OW16306   1.072   0.859   6.175
 5136SOL    HW116307   1.136   0.913   6.229
 5136SOL    HW216308   1.102   0.763   6.175
 5137SOL     OW16309   5.224   2.066   5.481
 5137SOL    HW116310   5.263   2.143   5.532
 5137SOL    HW216311   5.274   2.053   5.396
 5138SOL     OW16312   3.607   3.194   4.124
 5138SOL    HW116313   3.638   3.283   4.157
 5138SOL    HW216314   3.516   3.204   4.083
 5139SOL     OW16315   1.725   0.592   5.141
 5139SOL    HW116316   1.664   0.614   5.217
 5139SOL    HW216317   1.774   0.507   5.160
 5140SOL     OW16318   3.983   2.262   6.171
 5140SOL    HW116319   3.952   2.225   6.084
 5140SOL    HW216320   4.075   2.301   6.160
 5141SOL     OW16321   7.005   2.986   1.952
 5141SOL    HW116322   6.934   2.959   2.016
 5141SOL    HW216323   6.978   2.959   1.859
 5142SOL     OW16324   6.890   6.743   3.158
 5142SOL    HW116325   6.926   6.782   3.243
 5142SOL    HW216326   6.961   6.686   3.115
 5143SOL     OW16327   0.856   5.113   4.416
 5143SOL    HW116328   0.798   5.148   4.342
 5143SOL    HW216329   0.941   5.077   4.378
 5144SOL     OW16330   1.693   3.698   6.373
 5144SOL    HW116331   1.671   3.601   6.381
 5144SOL    HW216332   1.609   3.752   6.380
 5145SOL     OW16333   2.614   6.515   6.724
 5145SOL    HW116334   2.600   6.580   6.649
 5145SOL    HW216335   2.540   6.527   6.791
 5146SOL     OW16336   5.191   4.967   6.152
 5146SOL    HW116337   5.102   4.931   6.124
 5146SOL    HW216338   5.237   4.899   6.210
 5147SOL     OW16339   4.861   3.008   3.259
 5147SOL    HW116340   4.808   2.930   3.224
 5147SOL    HW216341   4.884   2.991   3.355
 5148SOL     OW16342   0.596   0.334   1.772
 5148SOL    HW116343   0.692   0.359   1.783
 5148SOL    HW216344   0.577   0.252   1.825
 5149SOL     OW16345   5.821   4.354   3.195
 5149SOL    HW116346   5.745   4.416   3.215
 5149SOL    HW216347   5.906   4.395   3.227
 5150SOL     OW16348   0.746   5.179   3.779
 5150SOL    HW116349   0.771   5.101   3.838
 5150SOL    HW216350   0.648   5.196   3.786
 5151SOL     OW16351   6.218   4.550   2.072
 5151SOL    HW116352   6.253   4.511   1.986
 5151SOL    HW216353   6.162   4.482   2.118
 5152SOL     OW16354   1.335   0.929   6.303
 5152SOL    HW116355   1.328   1.026   6.323
 5152SOL    HW216356   1.389   0.915   6.220
 5153SOL     OW16357   1.221   2.071   0.662
 5153SOL    HW116358   1.215   2.147   0.598
 5153SOL    HW216359   1.242   2.105   0.754
 5154SOL     OW16360   0.445   2.664   6.733
 5154SOL    HW116361   0.449   2.603   6.654
 5154SOL    HW216362   0.356   2.656   6.777
 5155SOL     OW16363   1.802   1.236   0.519
 5155SOL    HW116364   1.787   1.326   0.560
 5155SOL    HW216365   1.889   1.199   0.552
 5156SOL     OW16366   5.721   5.043   5.681
 5156SOL    HW116367   5.654   5.057   5.608
 5156SOL    HW216368   5.764   5.131   5.704
 5157SOL     OW16369   3.799   0.919   2.146
 5157SOL    HW116370   3.721   0.888   2.091
 5157SOL    HW216371   3.816   1.016   2.128
 5158SOL     OW16372   3.879   1.542   2.661
 5158SOL    HW116373   3.956   1.523   2.600
 5158SOL    HW216374   3.905   1.521   2.755
 5159SOL     OW16375   5.852   3.310   5.611
 5159SOL    HW116376   5.812   3.240   5.551
 5159SOL    HW216377   5.947   3.326   5.585
 5160SOL     OW16378   7.001   6.252   3.258
 5160SOL    HW116379   6.986   6.247   3.357
 5160SOL    HW216380   6.982   6.164   3.217
 5161SOL     OW16381   0.958   3.202   0.003
 5161SOL    HW116382   0.977   3.145   0.083
 5161SOL    HW216383   0.929   3.143   6.951
 5162SOL     OW16384   6.749   6.591   2.786
 5162SOL    HW116385   6.746   6.512   2.848
 5162SOL    HW216386   6.756   6.675   2.839
 5163SOL     OW16387   3.202   6.464   2.341
 5163SOL    HW116388   3.190   6.369   2.313
 5163SOL    HW216389   3.117   6.499   2.379
 5164SOL     OW16390   3.063   3.943   1.011
 5164SOL    HW116391   3.045   4.030   0.965
 5164SOL    HW216392   2.981   3.886   1.007
 5165SOL     OW16393   1.214   4.765   0.007
 5165SOL    HW116394   1.179   4.688   0.061
 5165SOL    HW216395   1.149   4.786   6.958
 5166SOL     OW16396   1.726   5.549   1.428
 5166SOL    HW116397   1.699   5.475   1.489
 5166SOL    HW216398   1.679   5.633   1.454
 5167SOL     OW16399   4.826   2.581   5.194
 5167SOL    HW116400   4.832   2.659   5.132
 5167SOL    HW216401   4.730   2.567   5.221
 5168SOL     OW16402   4.422   2.292   2.276
 5168SOL    HW116403   4.487   2.352   2.230
 5168SOL    HW216404   4.443   2.197   2.254
 5169SOL     OW16405   3.938   6.684   3.657
 5169SOL    HW116406   3.926   6.586   3.640
 5169SOL    HW216407   3.851   6.731   3.641
 5170SOL     OW16408   1.353   3.371   6.342
 5170SOL    HW116409   1.261   3.409   6.337
 5170SOL    HW216410   1.348   3.272   6.353
 5171SOL     OW16411   2.117   5.847   5.033
 5171SOL    HW116412   2.211   5.865   5.062
 5171SOL    HW216413   2.114   5.760   4.983
 5172SOL     OW16414   0.187   5.435   3.691
 5172SOL    HW116415   0.229   5.502   3.753
 5172SOL    HW216416   0.198   5.466   3.596
 5173SOL     OW16417   4.671   3.482   5.810
 5173SOL    HW116418   4.653   3.399   5.863
 5173SOL    HW216419   4.751   3.468   5.752
 5174SOL     OW16420   2.857   6.575   3.531
 5174SOL    HW116421   2.768   6.619   3.513
 5174SOL    HW216422   2.865   6.493   3.475
 5175SOL     OW16423   2.697   4.545   6.980
 5175SOL    HW116424   2.745   4.512   0.038
 5175SOL    HW216425   2.731   4.496   6.900
 5176SOL     OW16426   5.608   5.692   0.509
 5176SOL    HW116427   5.528   5.682   0.450
 5176SOL    HW216428   5.660   5.607   0.511
 5177SOL     OW16429   4.891   0.752   0.342
 5177SOL    HW116430   4.949   0.785   0.416
 5177SOL    HW216431   4.807   0.807   0.339
 5178SOL     OW16432   1.057   3.597   1.974
 5178SOL    HW116433   0.959   3.589   1.995
 5178SOL    HW216434   1.090   3.687   2.002
 5179SOL     OW16435   6.329   4.204   3.237
 5179SOL    HW116436   6.321   4.107   3.260
 5179SOL    HW216437   6.244   4.236   3.195
 5180SOL     OW16438   2.646   6.858   1.539
 5180SOL    HW116439   2.676   6.770   1.575
 5180SOL    HW216440   2.668   6.863   1.442
 5181SOL     OW16441   0.730   0.591   6.028
 5181SOL    HW116442   0.739   0.690   6.035
 5181SOL    HW216443   0.714   0.566   5.932
 5182SOL     OW16444   3.971   5.279   3.022
 5182SOL    HW116445   3.917   5.303   2.942
 5182SOL    HW216446   3.953   5.346   3.095
 5183SOL     OW16447   4.216   1.798   3.643
 5183SOL    HW116448   4.246   1.803   3.548
 5183SOL    HW216449   4.291   1.825   3.703
 5184SOL     OW16450   2.173   1.093   4.157
 5184SOL    HW116451   2.270   1.072   4.143
 5184SOL    HW216452   2.135   1.132   4.073
 5185SOL     OW16453   5.495   0.802   1.694
 5185SOL    HW116454   5.494   0.842   1.602
 5185SOL    HW216455   5.419   0.839   1.747
 5186SOL     OW16456   6.768   3.172   5.975
 5186SOL    HW116457   6.763   3.072   5.968
 5186SOL    HW216458   6.728   3.201   6.062
 5187SOL     OW16459   1.918   4.988   5.400
 5187SOL    HW116460   1.969   5.061   5.445
 5187SOL    HW216461   1.961   4.966   5.312
 5188SOL     OW16462   0.241   6.788   2.078
 5188SOL    HW116463   0.146   6.785   2.109
 5188SOL    HW216464   0.248   6.745   1.988
 5189SOL     OW16465   5.630   0.345   5.965
 5189SOL    HW116466   5.684   0.394   6.033
 5189SOL    HW216467   5.534   0.349   5.990
 5190SOL     OW16468   1.747   3.459   1.426
 5190SOL    HW116469   1.742   3.369   1.383
 5190SOL    HW216470   1.737   3.530   1.357
 5191SOL     OW16471   3.062   5.265   2.473
 5191SOL    HW116472   3.049   5.316   2.558
 5191SOL    HW216473   3.095   5.173   2.494
 5192SOL     OW16474   2.207   5.409   2.030
 5192SOL    HW116475   2.129   5.429   1.971
 5192SOL    HW216476   2.272   5.351   1.982
 5193SOL     OW16477   6.316   0.867   6.909
 5193SOL    HW116478   6.260   0.950   6.902
 5193SOL    HW216479   6.259   0.791   6.941
 5194SOL     OW16480   4.417   2.252   6.880
 5194SOL    HW116481   4.412   2.250   6.980
 5194SOL    HW216482   4.421   2.158   6.846
 5195SOL     OW16483   6.729   0.939   4.386
 5195SOL    HW116484   6.633   0.911   4.392
 5195SOL    HW216485   6.776   0.882   4.318
 5196SOL     OW16486   5.043   6.258   3.357
 5196SOL    HW116487   5.008   6.219   3.271
 5196SOL    HW216488   5.141   6.277   3.347
 5197SOL     OW16489   1.393   4.421   5.697
 5197SOL    HW116490   1.469   4.380   5.646
 5197SOL    HW216491   1.310   4.367   5.682
 5198SOL     OW16492   5.241   5.408   2.724
 5198SOL    HW116493   5.153   5.411   2.771
 5198SOL    HW216494   5.232   5.446   2.632
 5199SOL     OW16495   6.430   5.174   1.279
 5199SOL    HW116496   6.434   5.094   1.339
 5199SOL    HW216497   6.471   5.152   1.191
 5200SOL     OW16498   0.564   3.738   5.609
 5200SOL    HW116499   0.470   3.707   5.592
 5200SOL    HW216500   0.574   3.761   5.706
 5201SOL     OW16501   1.641   5.612   4.316
 5201SOL    HW116502   1.562   5.636   4.373
 5201SOL    HW216503   1.610   5.580   4.227
 5202SOL     OW16504   6.732   3.562   0.130
 5202SOL    HW116505   6.750   3.636   0.066
 5202SOL    HW216506   6.799   3.565   0.204
 5203SOL     OW16507   0.617   2.331   6.441
 5203SOL    HW116508   0.701   2.350   6.389
 5203SOL    HW216509   0.623   2.241   6.483
 5204SOL     OW16510   4.172   5.196   0.052
 5204SOL    HW116511   4.180   5.295   0.038
 5204SOL    HW216512   4.080   5.166   0.028
 5205SOL     OW16513   1.978   0.873   1.453
 5205SOL    HW116514   2.014   0.915   1.536
 5205SOL    HW216515   2.048   0.813   1.413
 5206SOL     OW16516   0.516   4.112   6.988
 5206SOL    HW116517   0.494   4.023   6.948
 5206SOL    HW216518   0.613   4.116   7.009
 5207SOL     OW16519   1.636   5.242   4.398
 5207SOL    HW116520   1.686   5.158   4.375
 5207SOL    HW216521   1.596   5.280   4.314
 5208SOL     OW16522   3.823   0.544   0.243
 5208SOL    HW116523   3.745   0.513   0.188
 5208SOL    HW216524   3.832   0.643   0.236
 5209SOL     OW16525   6.151   5.798   3.581
 5209SOL    HW116526   6.194   5.743   3.509
 5209SOL    HW216527   6.218   5.864   3.616
 5210SOL     OW16528   5.336   4.129   3.754
 5210SOL    HW116529   5.293   4.041   3.773
 5210SOL    HW216530   5.435   4.116   3.744
 5211SOL     OW16531   2.937   3.393   3.566
 5211SOL    HW116532   3.009   3.332   3.533
 5211SOL    HW216533   2.872   3.411   3.492
 5212SOL     OW16534   0.840   2.050   0.786
 5212SOL    HW116535   0.742   2.029   0.777
 5212SOL    HW216536   0.875   2.079   0.697
 5213SOL     OW16537   4.874   2.569   5.664
 5213SOL    HW116538   4.792   2.525   5.628
 5213SOL    HW216539   4.874   2.562   5.764
 5214SOL     OW16540   5.258   1.597   5.559
 5214SOL    HW116541   5.240   1.616   5.462
 5214SOL    HW216542   5.227   1.674   5.614
 5215SOL     OW16543   5.215   4.610   2.999
 5215SOL    HW116544   5.197   4.609   2.900
 5215SOL    HW216545   5.234   4.704   3.028
 5216SOL     OW16546   5.106   4.874   1.237
 5216SOL    HW116547   5.025   4.822   1.262
 5216SOL    HW216548   5.135   4.850   1.145
 5217SOL     OW16549   3.156   5.118   4.070
 5217SOL    HW116550   3.252   5.092   4.057
 5217SOL    HW216551   3.152   5.211   4.107
 5218SOL     OW16552   1.855   6.576   3.592
 5218SOL    HW116553   1.890   6.653   3.539
 5218SOL    HW216554   1.816   6.609   3.678
 5219SOL     OW16555   3.282   6.871   6.576
 5219SOL    HW116556   3.257   6.937   6.647
 5219SOL    HW216557   3.369   6.899   6.534
 5220SOL     OW16558   0.852   5.929   2.206
 5220SOL    HW116559   0.794   5.967   2.278
 5220SOL    HW216560   0.797   5.872   2.145
 5221SOL     OW16561   5.024   1.032   4.324
 5221SOL    HW116562   5.081   1.110   4.296
 5221SOL    HW216563   5.028   1.021   4.423
 5222SOL     OW16564   1.951   0.445   3.460
 5222SOL    HW116565   2.004   0.524   3.432
 5222SOL    HW216566   2.010   0.381   3.511
 5223SOL     OW16567   4.658   0.363   1.534
 5223SOL    HW116568   4.703   0.311   1.461
 5223SOL    HW216569   4.620   0.448   1.496
 5224SOL     OW16570   6.532   2.032   2.672
 5224SOL    HW116571   6.530   1.932   2.678
 5224SOL    HW216572   6.493   2.061   2.585
 5225SOL     OW16573   6.553   6.966   4.400
 5225SOL    HW116574   6.523   6.896   4.464
 5225SOL    HW216575   6.647   6.947   4.370
 5226SOL     OW16576   0.922   6.313   4.121
 5226SOL    HW116577   0.971   6.364   4.192
 5226SOL    HW216578   0.920   6.367   4.037
 5227SOL     OW16579   6.675   5.345   3.553
 5227SOL    HW116580   6.748   5.368   3.618
 5227SOL    HW216581   6.666   5.417   3.485
 5228SOL     OW16582   5.172   1.717   0.829
 5228SOL    HW116583   5.151   1.643   0.892
 5228SOL    HW216584   5.098   1.785   0.831
 5229SOL     OW16585   1.007   4.165   6.487
 5229SOL    HW116586   0.929   4.228   6.486
 5229SOL    HW216587   1.069   4.189   6.413
 5230SOL     OW16588   6.863   0.827   0.870
 5230SOL    HW116589   6.900   0.912   0.835
 5230SOL    HW216590   6.928   0.753   0.856
 5231SOL     OW16591   3.832   3.034   4.141
 5231SOL    HW116592   3.902   3.073   4.082
 5231SOL    HW216593   3.745   3.079   4.125
 5232SOL     OW16594   4.968   2.377   6.723
 5232SOL    HW116595   5.015   2.313   6.784
 5232SOL    HW216596   5.023   2.460   6.713
 5233SOL     OW16597   6.663   6.038   1.606
 5233SOL    HW116598   6.726   6.003   1.676
 5233SOL    HW216599   6.601   6.105   1.648
 5234SOL     OW16600   3.189   0.159   0.382
 5234SOL    HW116601   3.135   0.163   0.299
 5234SOL    HW216602   3.132   0.181   0.461
 5235SOL     OW16603   2.061   3.343   0.827
 5235SOL    HW116604   2.035   3.260   0.876
 5235SOL    HW216605   2.021   3.422   0.873
 5236SOL     OW16606   5.154   3.304   1.080
 5236SOL    HW116607   5.136   3.306   1.179
 5236SOL    HW216608   5.189   3.393   1.051
 5237SOL     OW16609   2.408   1.918   5.321
 5237SOL    HW116610   2.389   1.945   5.227
 5237SOL    HW216611   2.400   1.997   5.381
 5238SOL     OW16612   1.276   5.142   0.393
 5238SOL    HW116613   1.279   5.153   0.294
 5238SOL    HW216614   1.311   5.225   0.437
 5239SOL     OW16615   2.985   3.219   4.107
 5239SOL    HW116616   3.014   3.297   4.052
 5239SOL    HW216617   2.895   3.188   4.077
 5240SOL     OW16618   3.014   2.362   5.356
 5240SOL    HW116619   2.931   2.328   5.312
 5240SOL    HW216620   3.088   2.369   5.288
 5241SOL     OW16621   1.112   6.121   6.218
 5241SOL    HW116622   1.123   6.219   6.201
 5241SOL    HW216623   1.191   6.087   6.268
 5242SOL     OW16624   6.049   1.422   5.944
 5242SOL    HW116625   6.141   1.400   5.975
 5242SOL    HW216626   5.988   1.432   6.024
 5243SOL     OW16627   1.190   6.057   1.041
 5243SOL    HW116628   1.204   6.133   0.977
 5243SOL    HW216629   1.166   5.975   0.989
 5244SOL     OW16630   3.889   3.980   5.816
 5244SOL    HW116631   3.899   3.895   5.867
 5244SOL    HW216632   3.811   3.973   5.754
 5245SOL     OW16633   4.268   4.205   5.847
 5245SOL    HW116634   4.207   4.213   5.927
 5245SOL    HW216635   4.286   4.108   5.829
 5246SOL     OW16636   0.481   2.968   2.486
 5246SOL    HW116637   0.449   2.877   2.510
 5246SOL    HW216638   0.540   2.963   2.405
 5247SOL     OW16639   0.078   5.080   0.620
 5247SOL    HW116640   0.055   5.075   0.717
 5247SOL    HW216641   0.070   4.989   0.579
 5248SOL     OW16642   5.173   0.733   6.419
 5248SOL    HW116643   5.112   0.656   6.437
 5248SOL    HW216644   5.121   0.818   6.417
 5249SOL     OW16645   0.658   5.338   4.886
 5249SOL    HW116646   0.691   5.432   4.882
 5249SOL    HW216647   0.729   5.276   4.853
 5250SOL     OW16648   0.094   1.811   6.212
 5250SOL    HW116649   0.127   1.893   6.258
 5250SOL    HW216650   0.121   1.812   6.116
 5251SOL     OW16651   6.062   3.596   0.819
 5251SOL    HW116652   6.144   3.547   0.848
 5251SOL    HW216653   5.996   3.532   0.780
 5252SOL     OW16654   2.692   5.892   0.923
 5252SOL    HW116655   2.693   5.949   1.005
 5252SOL    HW216656   2.625   5.819   0.934
 5253SOL     OW16657   5.856   3.656   4.672
 5253SOL    HW116658   5.767   3.675   4.630
 5253SOL    HW216659   5.871   3.557   4.674
 5254SOL     OW16660   4.332   1.122   4.406
 5254SOL    HW116661   4.381   1.062   4.469
 5254SOL    HW216662   4.317   1.211   4.450
 5255SOL     OW16663   3.495   0.145   4.843
 5255SOL    HW116664   3.430   0.199   4.790
 5255SOL    HW216665   3.584   0.191   4.845
 5256SOL     OW16666   5.204   0.953   3.689
 5256SOL    HW116667   5.237   1.040   3.654
 5256SOL    HW216668   5.179   0.893   3.613
 5257SOL     OW16669   3.732   6.844   0.542
 5257SOL    HW116670   3.647   6.881   0.579
 5257SOL    HW216671   3.727   6.744   0.542
 5258SOL     OW16672   5.243   3.981   2.329
 5258SOL    HW116673   5.314   3.911   2.326
 5258SOL    HW216674   5.179   3.961   2.403
 5259SOL     OW16675   4.582   6.368   2.772
 5259SOL    HW116676   4.651   6.428   2.731
 5259SOL    HW216677   4.531   6.322   2.699
 5260SOL     OW16678   5.783   3.571   0.777
 5260SOL    HW116679   5.779   3.627   0.694
 5260SOL    HW216680   5.695   3.575   0.824
 5261SOL     OW16681   0.107   2.803   5.067
 5261SOL    HW116682   0.106   2.847   4.977
 5261SOL    HW216683   0.036   2.732   5.069
 5262SOL     OW16684   2.725   6.724   2.487
 5262SOL    HW116685   2.632   6.725   2.451
 5262SOL    HW216686   2.723   6.748   2.584
 5263SOL     OW16687   1.759   0.285   6.366
 5263SOL    HW116688   1.827   0.246   6.304
 5263SOL    HW216689   1.703   0.211   6.404
 5264SOL     OW16690   6.171   1.403   1.502
 5264SOL    HW116691   6.151   1.483   1.445
 5264SOL    HW216692   6.231   1.430   1.578
 5265SOL     OW16693   5.409   4.386   2.030
 5265SOL    HW116694   5.369   4.343   2.110
 5265SOL    HW216695   5.491   4.335   2.003
 5266SOL     OW16696   1.363   6.176   1.494
 5266SOL    HW116697   1.285   6.135   1.542
 5266SOL    HW216698   1.442   6.115   1.500
 5267SOL     OW16699   4.900   5.217   5.430
 5267SOL    HW116700   4.960   5.295   5.411
 5267SOL    HW216701   4.870   5.221   5.526
 5268SOL     OW16702   6.567   5.425   5.142
 5268SOL    HW116703   6.529   5.446   5.232
 5268SOL    HW216704   6.658   5.385   5.153
 5269SOL     OW16705   1.667   5.822   3.861
 5269SOL    HW116706   1.753   5.790   3.821
 5269SOL    HW216707   1.686   5.899   3.922
 5270SOL     OW16708   5.758   2.330   1.485
 5270SOL    HW116709   5.851   2.299   1.503
 5270SOL    HW216710   5.697   2.300   1.558
 5271SOL     OW16711   4.765   4.753   5.426
 5271SOL    HW116712   4.774   4.799   5.514
 5271SOL    HW216713   4.670   4.723   5.415
 5272SOL     OW16714   0.183   5.801   4.931
 5272SOL    HW116715   0.229   5.882   4.966
 5272SOL    HW216716   0.157   5.741   5.007
 5273SOL     OW16717   0.592   2.310   3.829
 5273SOL    HW116718   0.530   2.232   3.841
 5273SOL    HW216719   0.541   2.395   3.839
 5274SOL     OW16720   7.012   5.087   3.440
 5274SOL    HW116721   7.015   5.176   3.484
 5274SOL    HW216722   6.920   5.049   3.446
 5275SOL     OW16723   2.866   0.136   6.631
 5275SOL    HW116724   2.859   0.043   6.595
 5275SOL    HW216725   2.779   0.162   6.673
 5276SOL     OW16726   0.050   6.850   1.622
 5276SOL    HW116727   0.054   6.812   1.529
 5276SOL    HW216728   6.987   6.896   1.635
 5277SOL     OW16729   1.128   1.806   3.727
 5277SOL    HW116730   1.061   1.863   3.776
 5277SOL    HW216731   1.201   1.864   3.691
 5278SOL     OW16732   6.703   7.011   5.921
 5278SOL    HW116733   6.738   6.926   5.884
 5278SOL    HW216734   6.716   0.061   5.855
 5279SOL     OW16735   1.084   5.691   6.409
 5279SOL    HW116736   1.029   5.607   6.410
 5279SOL    HW216737   1.145   5.693   6.488
 5280SOL     OW16738   3.755   6.353   4.760
 5280SOL    HW116739   3.711   6.384   4.676
 5280SOL    HW216740   3.781   6.257   4.751
 5281SOL     OW16741   1.141   0.253   4.625
 5281SOL    HW116742   1.075   0.200   4.571
 5281SOL    HW216743   1.092   0.318   4.683
 5282SOL     OW16744   1.612   0.208   2.831
 5282SOL    HW116745   1.678   0.136   2.807
 5282SOL    HW216746   1.656   0.274   2.891
 5283SOL     OW16747   0.443   0.508   3.921
 5283SOL    HW116748   0.528   0.539   3.964
 5283SOL    HW216749   0.461   0.425   3.868
 5284SOL     OW16750   5.226   2.229   2.153
 5284SOL    HW116751   5.159   2.207   2.225
 5284SOL    HW216752   5.287   2.301   2.186
 5285SOL     OW16753   1.011   3.190   3.125
 5285SOL    HW116754   0.961   3.107   3.152
 5285SOL    HW216755   0.955   3.244   3.062
 5286SOL     OW16756   6.537   3.475   0.359
 5286SOL    HW116757   6.536   3.397   0.295
 5286SOL    HW216758   6.606   3.540   0.330
 5287SOL     OW16759   3.289   5.384   2.218
 5287SOL    HW116760   3.211   5.425   2.266
 5287SOL    HW216761   3.323   5.305   2.270
 5288SOL     OW16762   5.040   0.187   2.176
 5288SOL    HW116763   4.977   0.260   2.203
 5288SOL    HW216764   5.127   0.227   2.145
 5289SOL     OW16765   2.139   5.545   6.253
 5289SOL    HW116766   2.059   5.542   6.192
 5289SOL    HW216767   2.218   5.580   6.202
 5290SOL     OW16768   1.946   4.402   5.906
 5290SOL    HW116769   1.954   4.480   5.844
 5290SOL    HW216770   1.896   4.430   5.988
 5291SOL     OW16771   2.737   4.684   5.555
 5291SOL    HW116772   2.703   4.647   5.468
 5291SOL    HW216773   2.704   4.627   5.630
 5292SOL     OW16774   6.701   4.081   6.533
 5292SOL    HW116775   6.697   4.103   6.630
 5292SOL    HW216776   6.622   4.023   6.509
 5293SOL     OW16777   2.339   5.236   4.475
 5293SOL    HW116778   2.413   5.185   4.432
 5293SOL    HW216779   2.257   5.179   4.478
 5294SOL     OW16780   4.658   0.444   5.365
 5294SOL    HW116781   4.633   0.540   5.349
 5294SOL    HW216782   4.577   0.386   5.356
 5295SOL     OW16783   3.931   0.825   3.471
 5295SOL    HW116784   3.840   0.795   3.496
 5295SOL    HW216785   3.969   0.763   3.402
 5296SOL     OW16786   3.906   4.344   0.704
 5296SOL    HW116787   3.825   4.350   0.645
 5296SOL    HW216788   3.981   4.301   0.654
 5297SOL     OW16789   2.287   3.694   0.353
 5297SOL    HW116790   2.205   3.655   0.393
 5297SOL    HW216791   2.368   3.647   0.390
 5298SOL     OW16792   2.387   6.193   6.900
 5298SOL    HW116793   2.485   6.196   6.915
 5298SOL    HW216794   2.345   6.276   6.936
 5299SOL     OW16795   3.178   2.127   0.886
 5299SOL    HW116796   3.216   2.123   0.794
 5299SOL    HW216797   3.247   2.099   0.952
 5300SOL     OW16798   1.189   4.881   0.928
 5300SOL    HW116799   1.106   4.931   0.905
 5300SOL    HW216800   1.263   4.907   0.865
 5301SOL     OW16801   3.980   0.303   6.793
 5301SOL    HW116802   4.066   0.323   6.745
 5301SOL    HW216803   4.000   0.282   6.889
 5302SOL     OW16804   4.972   5.966   4.054
 5302SOL    HW116805   4.974   6.059   4.018
 5302SOL    HW216806   4.961   5.901   3.978
 5303SOL     OW16807   6.940   5.212   6.051
 5303SOL    HW116808   6.912   5.300   6.012
 5303SOL    HW216809   0.013   5.198   6.034
 5304SOL     OW16810   6.203   0.858   1.105
 5304SOL    HW116811   6.161   0.947   1.089
 5304SOL    HW216812   6.247   0.825   1.021
 5305SOL     OW16813   1.228   5.362   2.775
 5305SOL    HW116814   1.230   5.267   2.744
 5305SOL    HW216815   1.278   5.419   2.710
 5306SOL     OW16816   0.066   4.349   5.778
 5306SOL    HW116817   0.046   4.333   5.875
 5306SOL    HW216818   7.010   4.324   5.724
 5307SOL     OW16819   4.595   2.027   0.454
 5307SOL    HW116820   4.674   2.049   0.512
 5307SOL    HW216821   4.530   2.103   0.456
 5308SOL     OW16822   1.230   4.363   2.736
 5308SOL    HW116823   1.175   4.412   2.669
 5308SOL    HW216824   1.231   4.266   2.712
 5309SOL     OW16825   3.838   6.147   2.298
 5309SOL    HW116826   3.823   6.062   2.348
 5309SOL    HW216827   3.797   6.223   2.347
 5310SOL     OW16828   6.382   3.294   2.678
 5310SOL    HW116829   6.291   3.252   2.680
 5310SOL    HW216830   6.404   3.321   2.585
 5311SOL     OW16831   5.914   0.696   0.210
 5311SOL    HW116832   5.992   0.649   0.251
 5311SOL    HW216833   5.849   0.629   0.174
 5312SOL     OW16834   0.580   5.902   1.571
 5312SOL    HW116835   0.622   5.931   1.656
 5312SOL    HW216836   0.528   5.977   1.531
 5313SOL     OW16837   0.437   4.929   5.379
 5313SOL    HW116838   0.361   4.970   5.430
 5313SOL    HW216839   0.503   4.889   5.443
 5314SOL     OW16840   4.876   0.171   0.696
 5314SOL    HW116841   4.886   0.089   0.640
 5314SOL    HW216842   4.800   0.226   0.661
 5315SOL     OW16843   4.931   2.530   3.215
 5315SOL    HW116844   4.948   2.467   3.291
 5315SOL    HW216845   4.865   2.489   3.152
 5316SOL     OW16846   0.902   3.908   5.634
 5316SOL    HW116847   0.825   3.972   5.633
 5316SOL    HW216848   0.936   3.899   5.727
 5317SOL     OW16849   6.683   1.423   5.075
 5317SOL    HW116850   6.749   1.381   5.138
 5317SOL    HW216851   6.729   1.443   4.988
 5318SOL     OW16852   0.584   2.765   0.836
 5318SOL    HW116853   0.521   2.688   0.835
 5318SOL    HW216854   0.642   2.762   0.755
 5319SOL     OW16855   4.786   6.542   1.095
 5319SOL    HW116856   4.868   6.599   1.087
 5319SOL    HW216857   4.753   6.519   1.004
 5320SOL     OW16858   4.124   5.837   1.205
 5320SOL    HW116859   4.075   5.764   1.252
 5320SOL    HW216860   4.178   5.799   1.130
 5321SOL     OW16861   2.324   4.642   5.021
 5321SOL    HW116862   2.238   4.615   4.979
 5321SOL    HW216863   2.348   4.578   5.094
 5322SOL     OW16864   5.589   0.107   0.455
 5322SOL    HW116865   5.682   0.077   0.476
 5322SOL    HW216866   5.535   0.107   0.539
 5323SOL     OW16867   4.002   0.937   5.967
 5323SOL    HW116868   4.093   0.906   5.993
 5323SOL    HW216869   4.007   0.992   5.884
 5324SOL     OW16870   2.830   1.916   0.182
 5324SOL    HW116871   2.766   1.985   0.215
 5324SOL    HW216872   2.904   1.903   0.248
 5325SOL     OW16873   2.962   1.269   5.140
 5325SOL    HW116874   2.970   1.368   5.127
 5325SOL    HW216875   2.987   1.222   5.054
 5326SOL     OW16876   6.426   5.838   3.274
 5326SOL    HW116877   6.508   5.854   3.219
 5326SOL    HW216878   6.396   5.923   3.316
 5327SOL     OW16879   5.886   2.562   4.939
 5327SOL    HW116880   5.967   2.611   4.972
 5327SOL    HW216881   5.893   2.552   4.840
 5328SOL     OW16882   3.355   3.319   5.844
 5328SOL    HW116883   3.439   3.342   5.796
 5328SOL    HW216884   3.359   3.352   5.938
 5329SOL     OW16885   0.665   5.210   6.530
 5329SOL    HW116886   0.756   5.230   6.566
 5329SOL    HW216887   0.639   5.117   6.555
 5330SOL     OW16888   3.870   4.535   0.204
 5330SOL    HW116889   3.846   4.616   0.152
 5330SOL    HW216890   3.805   4.524   0.280
 5331SOL     OW16891   6.148   1.947   6.713
 5331SOL    HW116892   6.121   2.029   6.661
 5331SOL    HW216893   6.067   1.892   6.732
 5332SOL     OW16894   1.303   3.967   1.439
 5332SOL    HW116895   1.342   3.996   1.352
 5332SOL    HW216896   1.205   3.950   1.428
 5333SOL     OW16897   1.409   1.315   3.245
 5333SOL    HW116898   1.472   1.386   3.275
 5333SOL    HW216899   1.460   1.230   3.228
 5334SOL     OW16900   3.018   0.541   5.342
 5334SOL    HW116901   3.107   0.575   5.371
 5334SOL    HW216902   2.946   0.605   5.369
 5335SOL     OW16903   6.417   6.310   0.999
 5335SOL    HW116904   6.356   6.285   1.074
 5335SOL    HW216905   6.498   6.251   1.002
 5336SOL     OW16906   1.868   3.600   2.400
 5336SOL    HW116907   1.938   3.664   2.432
 5336SOL    HW216908   1.910   3.530   2.342
 5337SOL     OW16909   4.977   3.885   1.387
 5337SOL    HW116910   5.022   3.902   1.474
 5337SOL    HW216911   4.899   3.824   1.401
 5338SOL     OW16912   5.499   1.666   6.682
 5338SOL    HW116913   5.563   1.736   6.652
 5338SOL    HW216914   5.534   1.622   6.765
 5339SOL     OW16915   6.459   1.311   3.730
 5339SOL    HW116916   6.517   1.229   3.740
 5339SOL    HW216917   6.446   1.354   3.819
 5340SOL     OW16918   6.210   2.900   0.404
 5340SOL    HW116919   6.163   2.818   0.435
 5340SOL    HW216920   6.234   2.957   0.483
 5341SOL     OW16921   3.904   2.529   6.159
 5341SOL    HW116922   3.973   2.582   6.207
 5341SOL    HW216923   3.911   2.433   6.186
 5342SOL     OW16924   4.146   0.453   4.878
 5342SOL    HW116925   4.132   0.440   4.780
 5342SOL    HW216926   4.105   0.539   4.907
 5343SOL     OW16927   3.377   3.526   3.607
 5343SOL    HW116928   3.337   3.519   3.516
 5343SOL    HW216929   3.345   3.449   3.663
 5344SOL     OW16930   1.687   2.561   2.684
 5344SOL    HW116931   1.597   2.520   2.702
 5344SOL    HW216932   1.677   2.632   2.615
 5345SOL     OW16933   4.501   5.946   1.204
 5345SOL    HW116934   4.521   5.943   1.106
 5345SOL    HW216935   4.428   5.882   1.225
 5346SOL     OW16936   3.110   6.112   3.605
 5346SOL    HW116937   3.149   6.111   3.513
 5346SOL    HW216938   3.038   6.182   3.611
 5347SOL     OW16939   0.014   2.356   2.484
 5347SOL    HW116940   6.960   2.411   2.456
 5347SOL    HW216941   7.015   2.259   2.477
 5348SOL     OW16942   0.835   1.604   0.671
 5348SOL    HW116943   0.891   1.681   0.701
 5348SOL    HW216944   0.825   1.607   0.572
 5349SOL     OW16945   1.118   2.312   0.545
 5349SOL    HW116946   1.157   2.381   0.606
 5349SOL    HW216947   1.144   2.332   0.450
 5350SOL     OW16948   2.298   0.524   6.003
 5350SOL    HW116949   2.346   0.570   6.078
 5350SOL    HW216950   2.323   0.427   6.002
 5351SOL     OW16951   5.112   5.910   1.538
 5351SOL    HW116952   5.012   5.904   1.537
 5351SOL    HW216953   5.144   5.933   1.630
 5352SOL     OW16954   1.923   5.746   3.773
 5352SOL    HW116955   2.006   5.758   3.827
 5352SOL    HW216956   1.902   5.831   3.724
 5353SOL     OW16957   4.152   5.885   4.572
 5353SOL    HW116958   4.109   5.972   4.546
 5353SOL    HW216959   4.163   5.882   4.671
 5354SOL     OW16960   2.192   4.573   2.285
 5354SOL    HW116961   2.235   4.661   2.306
 5354SOL    HW216962   2.095   4.587   2.266
 5355SOL     OW16963   5.005   2.498   4.007
 5355SOL    HW116964   4.976   2.559   3.933
 5355SOL    HW216965   5.103   2.511   4.024
 5356SOL     OW16966   5.718   4.318   1.526
 5356SOL    HW116967   5.624   4.352   1.531
 5356SOL    HW216968   5.780   4.385   1.566
 5357SOL     OW16969   3.745   0.558   1.419
 5357SOL    HW116970   3.647   0.538   1.419
 5357SOL    HW216971   3.777   0.568   1.513
 5358SOL     OW16972   4.306   2.142   1.276
 5358SOL    HW116973   4.367   2.176   1.204
 5358SOL    HW216974   4.216   2.186   1.267
 5359SOL     OW16975   2.375   1.564   0.103
 5359SOL    HW116976   2.456   1.552   0.162
 5359SOL    HW216977   2.294   1.531   0.151
 5360SOL     OW16978   3.919   6.730   4.803
 5360SOL    HW116979   3.893   6.745   4.708
 5360SOL    HW216980   3.981   6.803   4.833
 5361SOL     OW16981   2.632   0.002   4.980
 5361SOL    HW116982   2.683   0.035   5.059
 5361SOL    HW216983   2.686   6.955   4.934
 5362SOL     OW16984   5.084   4.412   3.514
 5362SOL    HW116985   5.059   4.327   3.467
 5362SOL    HW216986   5.180   4.434   3.495
 5363SOL     OW16987   0.953   6.285   5.858
 5363SOL    HW116988   0.901   6.235   5.927
 5363SOL    HW216989   1.036   6.322   5.901
 5364SOL     OW16990   6.520   5.619   1.036
 5364SOL    HW116991   6.439   5.590   1.088
 5364SOL    HW216992   6.556   5.703   1.077
 5365SOL     OW16993   4.413   3.169   6.609
 5365SOL    HW116994   4.451   3.130   6.525
 5365SOL    HW216995   4.465   3.135   6.687
 5366SOL     OW16996   5.222   4.783   0.987
 5366SOL    HW116997   5.300   4.721   0.988
 5366SOL    HW216998   5.171   4.772   0.901
 5367SOL     OW16999   0.330   5.247   0.623
 5367SOL    HW117000   0.354   5.286   0.712
 5367SOL    HW217001   0.253   5.184   0.634
 5368SOL     OW17002   4.826   1.649   2.915
 5368SOL    HW117003   4.811   1.558   2.954
 5368SOL    HW217004   4.758   1.713   2.950
 5369SOL     OW17005   2.671   6.045   3.368
 5369SOL    HW117006   2.696   6.065   3.463
 5369SOL    HW217007   2.617   5.961   3.365
 5370SOL     OW17008   3.914   3.044   1.828
 5370SOL    HW117009   3.971   3.125   1.816
 5370SOL    HW217010   3.868   3.047   1.916
 5371SOL     OW17011   1.759   3.943   4.434
 5371SOL    HW117012   1.802   3.941   4.525
 5371SOL    HW217013   1.685   3.876   4.431
 5372SOL     OW17014   2.485   5.486   2.215
 5372SOL    HW117015   2.407   5.487   2.152
 5372SOL    HW217016   2.461   5.436   2.298
 5373SOL     OW17017   3.087   4.852   4.122
 5373SOL    HW117018   3.179   4.816   4.139
 5373SOL    HW217019   3.088   4.951   4.130
 5374SOL     OW17020   1.496   3.292   6.917
 5374SOL    HW117021   1.579   3.235   6.915
 5374SOL    HW217022   1.522   3.387   6.936
 5375SOL     OW17023   1.062   4.919   5.013
 5375SOL    HW117024   1.001   4.978   5.065
 5375SOL    HW217025   1.041   4.823   5.033
 5376SOL     OW17026   1.399   3.429   1.212
 5376SOL    HW117027   1.358   3.348   1.171
 5376SOL    HW217028   1.499   3.418   1.213
 5377SOL     OW17029   0.008   0.084   1.766
 5377SOL    HW117030   0.059   0.130   1.839
 5377SOL    HW217031   0.047   7.017   1.751
 5378SOL     OW17032   6.853   0.692   1.332
 5378SOL    HW117033   6.829   0.789   1.338
 5378SOL    HW217034   6.879   0.659   1.423
 5379SOL     OW17035   0.429   5.232   4.192
 5379SOL    HW117036   0.401   5.229   4.288
 5379SOL    HW217037   0.384   5.158   4.142
 5380SOL     OW17038   2.037   1.029   3.248
 5380SOL    HW117039   2.049   1.127   3.233
 5380SOL    HW217040   1.951   0.999   3.207
 5381SOL     OW17041   6.372   3.611   0.529
 5381SOL    HW117042   6.285   3.583   0.489
 5381SOL    HW217043   6.447   3.577   0.473
 5382SOL     OW17044   3.158   0.316   2.033
 5382SOL    HW117045   3.250   0.336   1.997
 5382SOL    HW217046   3.130   0.225   2.004
 5383SOL     OW17047   2.964   2.159   5.127
 5383SOL    HW117048   2.996   2.071   5.162
 5383SOL    HW217049   3.043   2.217   5.104
 5384SOL     OW17050   6.080   0.901   4.046
 5384SOL    HW117051   6.155   0.834   4.046
 5384SOL    HW217052   6.117   0.993   4.038
 5385SOL     OW17053   3.181   4.029   3.104
 5385SOL    HW117054   3.279   4.049   3.111
 5385SOL    HW217055   3.148   4.054   3.013
 5386SOL     OW17056   4.980   6.471   4.240
 5386SOL    HW117057   5.046   6.464   4.165
 5386SOL    HW217058   4.963   6.380   4.278
 5387SOL     OW17059   2.093   6.024   3.362
 5387SOL    HW117060   2.105   6.121   3.382
 5387SOL    HW217061   2.000   5.996   3.388
 5388SOL     OW17062   5.298   6.550   2.946
 5388SOL    HW117063   5.213   6.598   2.923
 5388SOL    HW217064   5.310   6.549   3.045
 5389SOL     OW17065   5.016   0.691   1.497
 5389SOL    HW117066   5.107   0.649   1.495
 5389SOL    HW217067   4.995   0.719   1.591
 5390SOL     OW17068   4.153   5.125   4.228
 5390SOL    HW117069   4.135   5.036   4.272
 5390SOL    HW217070   4.201   5.184   4.293
 5391SOL     OW17071   2.340   2.299   0.546
 5391SOL    HW117072   2.380   2.236   0.613
 5391SOL    HW217073   2.413   2.358   0.510
 5392SOL     OW17074   6.419   3.690   0.805
 5392SOL    HW117075   6.408   3.665   0.709
 5392SOL    HW217076   6.421   3.789   0.813
 5393SOL     OW17077   6.358   6.787   6.883
 5393SOL    HW117078   6.301   6.867   6.899
 5393SOL    HW217079   6.431   6.810   6.819
 5394SOL     OW17080   0.310   3.840   6.034
 5394SOL    HW117081   0.324   3.900   6.113
 5394SOL    HW217082   0.213   3.837   6.011
 5395SOL     OW17083   4.486   0.857   1.733
 5395SOL    HW117084   4.444   0.938   1.773
 5395SOL    HW217085   4.585   0.871   1.724
 5396SOL     OW17086   4.886   3.470   2.747
 5396SOL    HW117087   4.887   3.497   2.843
 5396SOL    HW217088   4.927   3.379   2.738
 5397SOL     OW17089   6.873   3.051   1.476
 5397SOL    HW117090   6.951   3.070   1.416
 5397SOL    HW217091   6.828   3.137   1.500
 5398SOL     OW17092   3.593   1.835   1.687
 5398SOL    HW117093   3.620   1.894   1.764
 5398SOL    HW217094   3.548   1.753   1.722
 5399SOL     OW17095   1.967   6.435   0.616
 5399SOL    HW117096   2.035   6.493   0.569
 5399SOL    HW217097   1.979   6.340   0.588
 5400SOL     OW17098   3.087   4.156   0.830
 5400SOL    HW117099   3.184   4.136   0.838
 5400SOL    HW217100   3.069   4.250   0.860
 5401SOL     OW17101   5.620   3.447   1.252
 5401SOL    HW117102   5.585   3.434   1.159
 5401SOL    HW217103   5.588   3.536   1.287
 5402SOL     OW17104   2.540   5.744   1.948
 5402SOL    HW117105   2.460   5.741   2.009
 5402SOL    HW217106   2.533   5.669   1.882
 5403SOL     OW17107   6.554   3.086   6.544
 5403SOL    HW117108   6.510   3.040   6.467
 5403SOL    HW217109   6.633   3.138   6.513
 5404SOL     OW17110   1.081   2.174   3.322
 5404SOL    HW117111   1.081   2.152   3.225
 5404SOL    HW217112   1.067   2.273   3.333
 5405SOL     OW17113   6.408   5.698   0.453
 5405SOL    HW117114   6.408   5.672   0.549
 5405SOL    HW217115   6.491   5.665   0.409
 5406SOL     OW17116   2.362   1.616   6.239
 5406SOL    HW117117   2.329   1.522   6.239
 5406SOL    HW217118   2.349   1.656   6.148
 5407SOL     OW17119   4.661   3.294   0.422
 5407SOL    HW117120   4.638   3.259   0.513
 5407SOL    HW217121   4.579   3.301   0.366
 5408SOL     OW17122   2.401   1.318   5.646
 5408SOL    HW117123   2.479   1.256   5.653
 5408SOL    HW217124   2.324   1.270   5.604
 5409SOL     OW17125   5.287   6.985   3.320
 5409SOL    HW117126   5.201   0.005   3.345
 5409SOL    HW217127   5.364   0.019   3.346
 5410SOL     OW17128   2.794   2.319   1.701
 5410SOL    HW117129   2.740   2.263   1.763
 5410SOL    HW217130   2.864   2.368   1.753
 5411SOL     OW17131   6.565   4.820   5.819
 5411SOL    HW117132   6.596   4.913   5.838
 5411SOL    HW217133   6.551   4.808   5.721
 5412SOL     OW17134   4.974   2.299   0.761
 5412SOL    HW117135   5.030   2.381   0.747
 5412SOL    HW217136   4.950   2.292   0.858
 5413SOL     OW17137   3.013   0.996   1.186
 5413SOL    HW117138   3.094   0.937   1.181
 5413SOL    HW217139   3.008   1.053   1.104
 5414SOL     OW17140   5.259   1.996   4.855
 5414SOL    HW117141   5.255   2.086   4.812
 5414SOL    HW217142   5.305   2.003   4.944
 5415SOL     OW17143   0.539   5.692   1.409
 5415SOL    HW117144   0.543   5.776   1.464
 5415SOL    HW217145   0.510   5.714   1.316
 5416SOL     OW17146   4.810   5.344   5.648
 5416SOL    HW117147   4.813   5.404   5.568
 5416SOL    HW217148   4.812   5.400   5.731
 5417SOL     OW17149   3.556   6.840   5.793
 5417SOL    HW117150   3.644   6.848   5.840
 5417SOL    HW217151   3.567   6.786   5.710
 5418SOL     OW17152   3.506   0.511   3.548
 5418SOL    HW117153   3.427   0.557   3.589
 5418SOL    HW217154   3.474   0.442   3.483
 5419SOL     OW17155   3.697   5.176   0.087
 5419SOL    HW117156   3.671   5.156   7.017
 5419SOL    HW217157   3.628   5.236   0.128
 5420SOL     OW17158   2.151   3.202   2.758
 5420SOL    HW117159   2.197   3.164   2.677
 5420SOL    HW217160   2.145   3.131   2.828
 5421SOL     OW17161   1.279   3.281   1.675
 5421SOL    HW117162   1.223   3.256   1.596
 5421SOL    HW217163   1.262   3.377   1.699
 5422SOL     OW17164   0.308   4.835   0.385
 5422SOL    HW117165   0.229   4.838   0.446
 5422SOL    HW217166   0.313   4.919   0.332
 5423SOL     OW17167   6.979   3.113   6.871
 5423SOL    HW117168   6.929   3.199   6.881
 5423SOL    HW217169   0.010   3.116   6.788
 5424SOL     OW17170   5.288   3.051   3.448
 5424SOL    HW117171   5.231   3.125   3.411
 5424SOL    HW217172   5.372   3.090   3.487
 5425SOL     OW17173   4.068   1.011   4.566
 5425SOL    HW117174   4.001   1.085   4.578
 5425SOL    HW217175   4.068   0.982   4.470
 5426SOL     OW17176   5.971   6.000   4.498
 5426SOL    HW117177   5.968   5.903   4.522
 5426SOL    HW217178   5.935   6.055   4.574
 5427SOL     OW17179   4.945   5.744   6.218
 5427SOL    HW117180   5.012   5.688   6.267
 5427SOL    HW217181   4.937   5.833   6.263
 5428SOL     OW17182   6.820   0.057   1.355
 5428SOL    HW117183   6.795   0.138   1.407
 5428SOL    HW217184   6.769   0.056   1.268
 5429SOL     OW17185   2.140   2.076   6.276
 5429SOL    HW117186   2.215   2.016   6.248
 5429SOL    HW217187   2.176   2.150   6.332
 5430SOL     OW17188   6.978   2.814   5.742
 5430SOL    HW117189   0.030   2.754   5.721
 5430SOL    HW217190   6.944   2.857   5.658
 5431SOL     OW17191   3.336   6.071   0.697
 5431SOL    HW117192   3.249   6.027   0.716
 5431SOL    HW217193   3.403   6.003   0.667
 5432SOL     OW17194   5.685   0.687   6.694
 5432SOL    HW117195   5.785   0.692   6.684
 5432SOL    HW217196   5.655   0.753   6.762
 5433SOL     OW17197   0.440   2.179   4.758
 5433SOL    HW117198   0.482   2.090   4.773
 5433SOL    HW217199   0.416   2.220   4.846
 5434SOL     OW17200   3.376   0.730   5.661
 5434SOL    HW117201   3.433   0.683   5.594
 5434SOL    HW217202   3.304   0.781   5.614
 5435SOL     OW17203   5.976   6.758   1.986
 5435SOL    HW117204   6.035   6.752   2.066
 5435SOL    HW217205   5.977   6.671   1.937
 5436SOL     OW17206   5.252   3.846   3.760
 5436SOL    HW117207   5.230   3.866   3.855
 5436SOL    HW217208   5.173   3.803   3.715
 5437SOL     OW17209   2.701   3.937   0.110
 5437SOL    HW117210   2.667   4.031   0.101
 5437SOL    HW217211   2.727   3.920   0.205
 5438SOL     OW17212   6.695   2.353   1.910
 5438SOL    HW117213   6.672   2.262   1.876
 5438SOL    HW217214   6.701   2.350   2.010
 5439SOL     OW17215   1.121   1.837   1.336
 5439SOL    HW117216   1.105   1.923   1.287
 5439SOL    HW217217   1.049   1.823   1.403
 5440SOL     OW17218   1.095   1.338   0.943
 5440SOL    HW117219   1.094   1.265   0.874
 5440SOL    HW217220   1.152   1.413   0.911
 5441SOL     OW17221   4.245   2.238   3.442
 5441SOL    HW117222   4.334   2.193   3.451
 5441SOL    HW217223   4.230   2.262   3.346
 5442SOL     OW17224   3.984   6.507   3.047
 5442SOL    HW117225   4.023   6.598   3.036
 5442SOL    HW217226   4.014   6.468   3.134
 5443SOL     OW17227   3.945   0.085   4.432
 5443SOL    HW117228   4.021   0.032   4.396
 5443SOL    HW217229   3.863   0.067   4.378
 5444SOL     OW17230   1.192   0.803   4.312
 5444SOL    HW117231   1.166   0.744   4.236
 5444SOL    HW217232   1.132   0.784   4.390
 5445SOL     OW17233   6.421   3.912   3.382
 5445SOL    HW117234   6.491   3.964   3.332
 5445SOL    HW217235   6.463   3.867   3.461
 5446SOL     OW17236   6.340   5.221   4.570
 5446SOL    HW117237   6.380   5.247   4.658
 5446SOL    HW217238   6.243   5.245   4.569
 5447SOL     OW17239   2.872   2.328   0.165
 5447SOL    HW117240   2.939   2.291   0.100
 5447SOL    HW217241   2.909   2.411   0.207
 5448SOL     OW17242   4.112   3.073   5.311
 5448SOL    HW117243   4.074   3.115   5.393
 5448SOL    HW217244   4.121   2.974   5.325
 5449SOL     OW17245   1.714   3.129   6.415
 5449SOL    HW117246   1.644   3.181   6.464
 5449SOL    HW217247   1.670   3.056   6.362
 5450SOL     OW17248   1.888   0.573   1.740
 5450SOL    HW117249   1.970   0.577   1.684
 5450SOL    HW217250   1.914   0.554   1.835
 5451SOL     OW17251   1.829   5.920   3.164
 5451SOL    HW117252   1.796   5.931   3.257
 5451SOL    HW217253   1.808   6.003   3.111
 5452SOL     OW17254   2.250   4.968   6.798
 5452SOL    HW117255   2.190   4.893   6.826
 5452SOL    HW217256   2.304   4.939   6.719
 5453SOL     OW17257   6.132   4.105   0.469
 5453SOL    HW117258   6.170   4.112   0.377
 5453SOL    HW217259   6.064   4.031   0.472
 5454SOL     OW17260   0.335   4.227   6.840
 5454SOL    HW117261   0.282   4.142   6.847
 5454SOL    HW217262   0.428   4.211   6.872
 5455SOL     OW17263   6.626   3.363   6.719
 5455SOL    HW117264   6.554   3.304   6.756
 5455SOL    HW217265   6.587   3.449   6.687
 5456SOL     OW17266   3.462   6.789   7.009
 5456SOL    HW117267   3.374   6.770   6.965
 5456SOL    HW217268   3.537   6.769   6.945
 5457SOL     OW17269   5.597   1.935   0.660
 5457SOL    HW117270   5.640   1.993   0.730
 5457SOL    HW217271   5.556   1.855   0.703
 5458SOL     OW17272   0.594   4.588   0.204
 5458SOL    HW117273   0.594   4.619   0.109
 5458SOL    HW217274   0.502   4.597   0.242
 5459SOL     OW17275   1.969   5.088   6.931
 5459SOL    HW117276   1.950   4.991   6.945
 5459SOL    HW217277   2.009   5.102   6.840
 5460SOL     OW17278   3.109   0.277   2.563
 5460SOL    HW117279   3.156   0.286   2.475
 5460SOL    HW217280   3.016   0.312   2.555
 5461SOL     OW17281   6.416   6.268   5.021
 5461SOL    HW117282   6.470   6.267   4.936
 5461SOL    HW217283   6.330   6.317   5.005
 5462SOL     OW17284   1.247   0.432   0.364
 5462SOL    HW117285   1.341   0.442   0.396
 5462SOL    HW217286   1.247   0.421   0.264
 5463SOL     OW17287   5.991   2.128   6.985
 5463SOL    HW117288   6.008   2.058   0.030
 5463SOL    HW217289   6.077   2.172   6.959
 5464SOL     OW17290   1.698   0.514   4.376
 5464SOL    HW117291   1.676   0.608   4.351
 5464SOL    HW217292   1.798   0.501   4.372
 5465SOL     OW17293   3.517   6.891   3.417
 5465SOL    HW117294   3.559   6.840   3.341
 5465SOL    HW217295   3.586   6.908   3.487
 5466SOL     OW17296   5.563   4.651   4.701
 5466SOL    HW117297   5.502   4.572   4.689
 5466SOL    HW217298   5.636   4.626   4.765
 5467SOL     OW17299   5.059   2.232   3.172
 5467SOL    HW117300   5.104   2.223   3.261
 5467SOL    HW217301   5.118   2.194   3.101
 5468SOL     OW17302   5.154   1.492   4.550
 5468SOL    HW117303   5.097   1.564   4.589
 5468SOL    HW217304   5.250   1.520   4.553
 5469SOL     OW17305   3.785   5.247   6.834
 5469SOL    HW117306   3.854   5.257   6.762
 5469SOL    HW217307   3.713   5.185   6.803
 5470SOL     OW17308   2.262   5.449   2.808
 5470SOL    HW117309   2.208   5.366   2.826
 5470SOL    HW217310   2.264   5.467   2.710
 5471SOL     OW17311   5.660   7.008   1.367
 5471SOL    HW117312   5.687   6.938   1.434
 5471SOL    HW217313   5.563   0.004   1.377
 5472SOL     OW17314   4.230   4.286   6.111
 5472SOL    HW117315   4.224   4.333   6.199
 5472SOL    HW217316   4.286   4.341   6.048
 5473SOL     OW17317   0.534   3.643   3.381
 5473SOL    HW117318   0.479   3.593   3.448
 5473SOL    HW217319   0.630   3.640   3.406
 5474SOL     OW17320   1.343   4.476   4.650
 5474SOL    HW117321   1.298   4.402   4.701
 5474SOL    HW217322   1.442   4.469   4.663
 5475SOL     OW17323   3.569   2.645   0.706
 5475SOL    HW117324   3.632   2.646   0.784
 5475SOL    HW217325   3.577   2.559   0.657
 5476SOL     OW17326   2.357   3.422   6.349
 5476SOL    HW117327   2.399   3.450   6.435
 5476SOL    HW217328   2.426   3.380   6.290
 5477SOL     OW17329   1.861   3.522   3.471
 5477SOL    HW117330   1.847   3.618   3.448
 5477SOL    HW217331   1.954   3.509   3.507
 5478SOL     OW17332   5.315   5.969   5.618
 5478SOL    HW117333   5.401   6.001   5.656
 5478SOL    HW217334   5.240   6.023   5.657
 5479SOL     OW17335   4.741   0.749   5.433
 5479SOL    HW117336   4.829   0.705   5.416
 5479SOL    HW217337   4.681   0.736   5.354
 5480SOL     OW17338   0.372   3.440   3.853
 5480SOL    HW117339   0.309   3.432   3.930
 5480SOL    HW217340   0.432   3.519   3.867
 5481SOL     OW17341   3.197   0.671   4.532
 5481SOL    HW117342   3.170   0.586   4.486
 5481SOL    HW217343   3.253   0.726   4.469
 5482SOL     OW17344   3.752   4.379   1.667
 5482SOL    HW117345   3.812   4.447   1.708
 5482SOL    HW217346   3.794   4.343   1.584
 5483SOL     OW17347   0.801   3.369   5.319
 5483SOL    HW117348   0.813   3.323   5.231
 5483SOL    HW217349   0.825   3.466   5.309
 5484SOL     OW17350   4.683   0.290   4.865
 5484SOL    HW117351   4.659   0.236   4.946
 5484SOL    HW217352   4.637   0.252   4.784
 5485SOL     OW17353   3.171   6.627   5.358
 5485SOL    HW117354   3.175   6.611   5.456
 5485SOL    HW217355   3.166   6.726   5.340
 5486SOL     OW17356   2.609   5.741   5.020
 5486SOL    HW117357   2.540   5.684   4.976
 5486SOL    HW217358   2.698   5.722   4.981
 5487SOL     OW17359   3.094   4.556   5.977
 5487SOL    HW117360   3.125   4.632   5.919
 5487SOL    HW217361   3.162   4.483   5.975
 5488SOL     OW17362   6.840   1.146   0.259
 5488SOL    HW117363   6.926   1.175   0.303
 5488SOL    HW217364   6.763   1.169   0.319
 5489SOL     OW17365   6.599   3.174   2.285
 5489SOL    HW117366   6.516   3.216   2.320
 5489SOL    HW217367   6.616   3.087   2.332
 5490SOL     OW17368   1.919   6.659   2.557
 5490SOL    HW117369   1.994   6.593   2.546
 5490SOL    HW217370   1.891   6.693   2.468
 5491SOL     OW17371   0.030   3.048   0.525
 5491SOL    HW117372   0.106   3.112   0.538
 5491SOL    HW217373   7.021   3.017   0.614
 5492SOL     OW17374   1.393   3.260   5.481
 5492SOL    HW117375   1.417   3.316   5.560
 5492SOL    HW217376   1.476   3.223   5.439
 5493SOL     OW17377   4.125   3.623   2.055
 5493SOL    HW117378   4.089   3.616   2.148
 5493SOL    HW217379   4.217   3.661   2.058
 5494SOL     OW17380   5.847   4.538   5.413
 5494SOL    HW117381   5.866   4.497   5.324
 5494SOL    HW217382   5.773   4.604   5.404
 5495SOL     OW17383   6.112   0.875   0.493
 5495SOL    HW117384   6.062   0.904   0.574
 5495SOL    HW217385   6.065   0.797   0.451
 5496SOL     OW17386   4.220   0.670   4.162
 5496SOL    HW117387   4.273   0.597   4.204
 5496SOL    HW217388   4.281   0.744   4.135
 5497SOL     OW17389   0.074   1.172   5.758
 5497SOL    HW117390   0.061   1.087   5.809
 5497SOL    HW217391   0.102   1.151   5.664
 5498SOL     OW17392   0.366   4.880   1.851
 5498SOL    HW117393   0.393   4.799   1.800
 5498SOL    HW217394   0.299   4.932   1.798
 5499SOL     OW17395   0.357   0.876   3.967
 5499SOL    HW117396   0.278   0.894   3.909
 5499SOL    HW217397   0.334   0.896   4.062
 5500SOL     OW17398   1.591   0.894   0.053
 5500SOL    HW117399   1.593   0.814   0.114
 5500SOL    HW217400   1.651   0.878   6.999
 5501SOL     OW17401   3.910   2.445   0.209
 5501SOL    HW117402   3.857   2.439   0.294
 5501SOL    HW217403   4.002   2.480   0.229
 5502SOL     OW17404   5.085   3.744   6.162
 5502SOL    HW117405   5.039   3.821   6.117
 5502SOL    HW217406   5.040   3.658   6.135
 5503SOL     OW17407   0.419   3.732   0.374
 5503SOL    HW117408   0.491   3.713   0.440
 5503SOL    HW217409   0.356   3.654   0.370
 5504SOL     OW17410   3.977   1.007   6.667
 5504SOL    HW117411   3.941   1.060   6.590
 5504SOL    HW217412   3.966   0.909   6.648
 5505SOL     OW17413   2.078   4.030   4.105
 5505SOL    HW117414   1.980   4.017   4.116
 5505SOL    HW217415   2.113   3.965   4.038
 5506SOL     OW17416   0.408   3.586   6.108
 5506SOL    HW117417   0.390   3.680   6.076
 5506SOL    HW217418   0.415   3.525   6.029
 5507SOL     OW17419   3.277   0.612   6.000
 5507SOL    HW117420   3.258   0.545   5.928
 5507SOL    HW217421   3.203   0.680   6.002
 5508SOL     OW17422   1.047   1.201   6.735
 5508SOL    HW117423   1.083   1.109   6.752
 5508SOL    HW217424   1.042   1.217   6.636
 5509SOL     OW17425   0.151   5.116   1.289
 5509SOL    HW117426   0.111   5.207   1.280
 5509SOL    HW217427   0.249   5.124   1.307
 5510SOL     OW17428   4.668   5.539   0.206
 5510SOL    HW117429   4.600   5.543   0.133
 5510SOL    HW217430   4.758   5.522   0.167
 5511SOL     OW17431   0.433   1.853   5.038
 5511SOL    HW117432   0.527   1.884   5.053
 5511SOL    HW217433   0.419   1.834   4.941
 5512SOL     OW17434   3.381   1.072   1.956
 5512SOL    HW117435   3.295   1.111   1.989
 5512SOL    HW217436   3.366   1.029   1.866
 5513SOL     OW17437   3.847   4.630   6.451
 5513SOL    HW117438   3.942   4.659   6.436
 5513SOL    HW217439   3.845   4.531   6.464
 5514SOL     OW17440   2.817   6.185   5.230
 5514SOL    HW117441   2.834   6.268   5.176
 5514SOL    HW217442   2.904   6.135   5.241
 5515SOL     OW17443   2.193   5.759   1.911
 5515SOL    HW117444   2.242   5.700   1.847
 5515SOL    HW217445   2.229   5.746   2.003
 5516SOL     OW17446   2.507   2.731   5.184
 5516SOL    HW117447   2.492   2.708   5.088
 5516SOL    HW217448   2.499   2.830   5.196
 5517SOL     OW17449   1.727   3.715   2.802
 5517SOL    HW117450   1.762   3.805   2.828
 5517SOL    HW217451   1.681   3.721   2.714
 5518SOL     OW17452   4.920   4.374   5.513
 5518SOL    HW117453   4.851   4.373   5.585
 5518SOL    HW217454   4.953   4.467   5.498
 5519SOL     OW17455   4.667   2.701   3.862
 5519SOL    HW117456   4.628   2.703   3.770
 5519SOL    HW217457   4.767   2.699   3.856
 5520SOL     OW17458   5.648   6.397   2.336
 5520SOL    HW117459   5.613   6.418   2.427
 5520SOL    HW217460   5.704   6.314   2.340
 5521SOL     OW17461   6.206   5.058   2.299
 5521SOL    HW117462   6.246   5.003   2.226
 5521SOL    HW217463   6.279   5.092   2.358
 5522SOL     OW17464   5.679   5.165   1.728
 5522SOL    HW117465   5.710   5.090   1.786
 5522SOL    HW217466   5.746   5.180   1.655
 5523SOL     OW17467   5.653   1.036   2.768
 5523SOL    HW117468   5.739   1.029   2.817
 5523SOL    HW217469   5.651   0.968   2.694
 5524SOL     OW17470   3.332   0.482   5.020
 5524SOL    HW117471   3.335   0.404   4.956
 5524SOL    HW217472   3.250   0.474   5.078
 5525SOL     OW17473   6.663   2.945   0.966
 5525SOL    HW117474   6.658   2.954   0.867
 5525SOL    HW217475   6.689   3.033   1.006
 5526SOL     OW17476   4.943   4.236   3.032
 5526SOL    HW117477   4.923   4.263   2.937
 5526SOL    HW217478   4.866   4.263   3.090
 5527SOL     OW17479   5.091   2.887   4.065
 5527SOL    HW117480   5.093   2.851   4.158
 5527SOL    HW217481   4.996   2.898   4.036
 5528SOL     OW17482   1.295   1.683   1.462
 5528SOL    HW117483   1.384   1.726   1.445
 5528SOL    HW217484   1.222   1.749   1.440
 5529SOL     OW17485   2.692   0.657   2.799
 5529SOL    HW117486   2.688   0.739   2.856
 5529SOL    HW217487   2.642   0.672   2.714
 5530SOL     OW17488   6.547   2.172   1.524
 5530SOL    HW117489   6.601   2.253   1.548
 5530SOL    HW217490   6.549   2.159   1.425
 5531SOL     OW17491   3.855   3.714   1.383
 5531SOL    HW117492   3.934   3.655   1.362
 5531SOL    HW217493   3.822   3.692   1.475
 5532SOL     OW17494   2.048   2.632   1.350
 5532SOL    HW117495   2.145   2.632   1.374
 5532SOL    HW217496   2.036   2.678   1.262
 5533SOL     OW17497   4.432   1.652   4.502
 5533SOL    HW117498   4.365   1.710   4.548
 5533SOL    HW217499   4.398   1.627   4.411
 5534SOL     OW17500   0.780   1.199   5.537
 5534SOL    HW117501   0.788   1.219   5.439
 5534SOL    HW217502   0.706   1.133   5.551
 5535SOL     OW17503   1.250   1.520   2.769
 5535SOL    HW117504   1.184   1.587   2.803
 5535SOL    HW217505   1.342   1.544   2.801
 5536SOL     OW17506   2.751   0.942   5.236
 5536SOL    HW117507   2.779   0.927   5.141
 5536SOL    HW217508   2.817   1.002   5.281
 5537SOL     OW17509   3.383   1.494   2.859
 5537SOL    HW117510   3.380   1.568   2.927
 5537SOL    HW217511   3.474   1.491   2.817
 5538SOL     OW17512   4.583   5.460   4.701
 5538SOL    HW117513   4.667   5.514   4.687
 5538SOL    HW217514   4.586   5.417   4.791
 5539SOL     OW17515   2.418   2.665   0.692
 5539SOL    HW117516   2.448   2.735   0.757
 5539SOL    HW217517   2.320   2.677   0.674
 5540SOL     OW17518   5.132   5.130   3.008
 5540SOL    HW117519   5.207   5.196   3.010
 5540SOL    HW217520   5.048   5.175   3.040
 5541SOL     OW17521   4.927   1.382   6.286
 5541SOL    HW117522   5.017   1.361   6.248
 5541SOL    HW217523   4.924   1.477   6.315
 5542SOL     OW17524   3.777   5.015   6.266
 5542SOL    HW117525   3.831   4.934   6.244
 5542SOL    HW217526   3.696   5.018   6.209
 5543SOL     OW17527   6.222   3.188   6.302
 5543SOL    HW117528   6.275   3.162   6.222
 5543SOL    HW217529   6.141   3.240   6.274
 5544SOL     OW17530   5.700   1.070   5.481
 5544SOL    HW117531   5.611   1.025   5.491
 5544SOL    HW217532   5.747   1.070   5.569
 5545SOL     OW17533   3.899   2.155   2.275
 5545SOL    HW117534   3.838   2.161   2.196
 5545SOL    HW217535   3.980   2.210   2.259
 5546SOL     OW17536   1.880   5.282   5.907
 5546SOL    HW117537   1.837   5.219   5.842
 5546SOL    HW217538   1.860   5.253   6.001
 5547SOL     OW17539   3.111   5.242   6.036
 5547SOL    HW117540   3.115   5.215   5.940
 5547SOL    HW217541   3.170   5.182   6.090
 5548SOL     OW17542   6.502   3.638   4.987
 5548SOL    HW117543   6.471   3.726   5.022
 5548SOL    HW217544   6.481   3.567   5.054
 5549SOL     OW17545   2.834   5.033   0.263
 5549SOL    HW117546   2.877   5.080   0.186
 5549SOL    HW217547   2.752   4.986   0.231
 5550SOL     OW17548   3.894   6.234   1.404
 5550SOL    HW117549   3.908   6.158   1.469
 5550SOL    HW217550   3.797   6.259   1.403
 5551SOL     OW17551   1.217   1.767   3.384
 5551SOL    HW117552   1.292   1.704   3.402
 5551SOL    HW217553   1.249   1.841   3.325
 5552SOL     OW17554   0.147   2.491   1.391
 5552SOL    HW117555   0.172   2.395   1.403
 5552SOL    HW217556   0.226   2.549   1.411
 5553SOL     OW17557   5.276   6.182   0.778
 5553SOL    HW117558   5.352   6.141   0.830
 5553SOL    HW217559   5.190   6.156   0.820
 5554SOL     OW17560   2.673   1.869   4.977
 5554SOL    HW117561   2.687   1.869   4.878
 5554SOL    HW217562   2.644   1.960   5.006
 5555SOL     OW17563   0.127   4.877   3.599
 5555SOL    HW117564   0.213   4.860   3.551
 5555SOL    HW217565   0.053   4.888   3.533
 5556SOL     OW17566   0.497   2.179   5.022
 5556SOL    HW117567   0.533   2.098   4.975
 5556SOL    HW217568   0.474   2.156   5.116
 5557SOL     OW17569   2.177   6.891   4.015
 5557SOL    HW117570   2.197   6.858   4.107
 5557SOL    HW217571   2.198   6.819   3.949
 5558SOL     OW17572   5.138   2.981   5.182
 5558SOL    HW117573   5.113   3.049   5.251
 5558SOL    HW217574   5.236   2.961   5.189
 5559SOL     OW17575   2.150   0.526   0.970
 5559SOL    HW117576   2.230   0.567   0.927
 5559SOL    HW217577   2.078   0.594   0.979
 5560SOL     OW17578   0.119   0.904   3.824
 5560SOL    HW117579   0.080   0.824   3.869
 5560SOL    HW217580   0.047   0.972   3.810
 5561SOL     OW17581   1.742   2.754   3.477
 5561SOL    HW117582   1.737   2.832   3.414
 5561SOL    HW217583   1.650   2.717   3.490
 5562SOL     OW17584   2.582   3.317   6.248
 5562SOL    HW117585   2.593   3.278   6.340
 5562SOL    HW217586   2.670   3.318   6.201
 5563SOL     OW17587   4.572   5.839   1.959
 5563SOL    HW117588   4.640   5.809   1.891
 5563SOL    HW217589   4.565   5.771   2.031
 5564SOL     OW17590   5.127   3.860   1.611
 5564SOL    HW117591   5.082   3.941   1.650
 5564SOL    HW217592   5.111   3.781   1.670
 5565SOL     OW17593   3.286   2.814   5.552
 5565SOL    HW117594   3.331   2.773   5.472
 5565SOL    HW217595   3.272   2.912   5.537
 5566SOL     OW17596   1.896   4.916   1.061
 5566SOL    HW117597   1.859   4.835   1.014
 5566SOL    HW217598   1.870   4.998   1.010
 5567SOL     OW17599   1.146   5.197   1.954
 5567SOL    HW117600   1.138   5.099   1.972
 5567SOL    HW217601   1.243   5.222   1.952
 5568SOL     OW17602   3.497   1.332   1.863
 5568SOL    HW117603   3.587   1.322   1.906
 5568SOL    HW217604   3.445   1.248   1.877
 5569SOL     OW17605   4.774   1.717   0.031
 5569SOL    HW117606   4.796   1.631   0.076
 5569SOL    HW217607   4.764   1.789   0.100
 5570SOL     OW17608   0.008   3.919   5.633
 5570SOL    HW117609   6.944   3.963   5.650
 5570SOL    HW217610   0.001   3.861   5.552
 5571SOL     OW17611   6.983   5.006   6.769
 5571SOL    HW117612   6.949   4.977   6.680
 5571SOL    HW217613   0.000   4.927   6.816
 5572SOL     OW17614   4.864   2.596   6.404
 5572SOL    HW117615   4.799   2.523   6.428
 5572SOL    HW217616   4.950   2.555   6.374
 5573SOL     OW17617   1.402   3.712   0.462
 5573SOL    HW117618   1.426   3.660   0.544
 5573SOL    HW217619   1.304   3.728   0.460
 5574SOL     OW17620   0.801   5.897   5.408
 5574SOL    HW117621   0.786   5.994   5.388
 5574SOL    HW217622   0.876   5.887   5.473
 5575SOL     OW17623   1.481   1.468   0.993
 5575SOL    HW117624   1.550   1.395   1.000
 5575SOL    HW217625   1.403   1.446   1.051
 5576SOL     OW17626   6.087   6.526   0.319
 5576SOL    HW117627   6.113   6.509   0.224
 5576SOL    HW217628   6.136   6.462   0.378
 5577SOL     OW17629   2.096   4.022   5.373
 5577SOL    HW117630   2.009   3.973   5.382
 5577SOL    HW217631   2.170   3.966   5.411
 5578SOL     OW17632   4.309   2.658   6.926
 5578SOL    HW117633   4.243   2.655   6.850
 5578SOL    HW217634   4.397   2.689   6.892
 5579SOL     OW17635   4.922   4.075   6.437
 5579SOL    HW117636   4.890   3.982   6.455
 5579SOL    HW217637   4.881   4.138   6.503
 5580SOL     OW17638   6.070   1.525   0.571
 5580SOL    HW117639   6.008   1.553   0.497
 5580SOL    HW217640   6.106   1.434   0.552
 5581SOL     OW17641   2.436   2.004   6.489
 5581SOL    HW117642   2.504   2.025   6.419
 5581SOL    HW217643   2.379   1.927   6.460
 5582SOL     OW17644   4.026   3.115   3.626
 5582SOL    HW117645   3.992   3.092   3.717
 5582SOL    HW217646   3.948   3.129   3.564
 5583SOL     OW17647   3.918   6.895   1.543
 5583SOL    HW117648   3.836   6.850   1.507
 5583SOL    HW217649   3.981   6.915   1.468
 5584SOL     OW17650   6.858   3.065   3.206
 5584SOL    HW117651   6.928   3.051   3.137
 5584SOL    HW217652   6.770   3.081   3.162
 5585SOL     OW17653   6.179   0.260   4.331
 5585SOL    HW117654   6.131   0.247   4.418
 5585SOL    HW217655   6.113   0.263   4.256
 5586SOL     OW17656   1.802   0.750   5.929
 5586SOL    HW117657   1.792   0.725   6.026
 5586SOL    HW217658   1.712   0.765   5.889
 5587SOL     OW17659   3.662   0.025   4.134
 5587SOL    HW117660   3.641   0.010   4.037
 5587SOL    HW217661   3.752   0.068   4.142
 5588SOL     OW17662   3.473   6.962   6.045
 5588SOL    HW117663   3.377   6.949   6.021
 5588SOL    HW217664   3.531   6.925   5.972
 5589SOL     OW17665   4.680   2.981   6.628
 5589SOL    HW117666   4.718   3.073   6.643
 5589SOL    HW217667   4.721   2.918   6.693
 5590SOL     OW17668   6.998   6.015   3.735
 5590SOL    HW117669   0.047   6.005   3.802
 5590SOL    HW217670   6.911   5.987   3.777
 5591SOL     OW17671   5.131   0.881   0.235
 5591SOL    HW117672   5.087   0.893   0.325
 5591SOL    HW217673   5.061   0.885   0.164
 5592SOL     OW17674   1.913   3.308   2.635
 5592SOL    HW117675   1.983   3.242   2.662
 5592SOL    HW217676   1.917   3.387   2.696
 5593SOL     OW17677   1.867   3.188   5.830
 5593SOL    HW117678   1.783   3.214   5.878
 5593SOL    HW217679   1.920   3.126   5.888
 5594SOL     OW17680   2.019   0.871   0.168
 5594SOL    HW117681   2.027   0.774   0.145
 5594SOL    HW217682   1.960   0.881   0.248
 5595SOL     OW17683   6.629   2.339   5.823
 5595SOL    HW117684   6.674   2.328   5.912
 5595SOL    HW217685   6.580   2.255   5.800
 5596SOL     OW17686   4.640   1.249   3.637
 5596SOL    HW117687   4.727   1.286   3.607
 5596SOL    HW217688   4.573   1.257   3.563
 5597SOL     OW17689   0.082   0.948   6.092
 5597SOL    HW117690   0.046   0.956   5.999
 5597SOL    HW217691   0.071   0.853   6.123
 5598SOL     OW17692   6.566   1.944   3.814
 5598SOL    HW117693   6.495   1.873   3.824
 5598SOL    HW217694   6.582   1.988   3.902
 5599SOL     OW17695   5.276   3.187   3.082
 5599SOL    HW117696   5.364   3.212   3.121
 5599SOL    HW217697   5.242   3.104   3.126
 5600SOL     OW17698   2.462   1.485   2.116
 5600SOL    HW117699   2.474   1.385   2.114
 5600SOL    HW217700   2.549   1.529   2.092
 5601SOL     OW17701   5.606   2.510   5.580
 5601SOL    HW117702   5.567   2.489   5.670
 5601SOL    HW217703   5.586   2.606   5.557
 5602SOL     OW17704   0.376   2.026   2.780
 5602SOL    HW117705   0.337   1.959   2.716
 5602SOL    HW217706   0.310   2.100   2.795
 5603SOL     OW17707   4.101   2.089   4.812
 5603SOL    HW117708   4.022   2.039   4.777
 5603SOL    HW217709   4.154   2.030   4.873
 5604SOL     OW17710   0.886   0.502   4.467
 5604SOL    HW117711   0.937   0.587   4.461
 5604SOL    HW217712   0.859   0.486   4.562
 5605SOL     OW17713   2.847   6.547   4.167
 5605SOL    HW117714   2.941   6.532   4.139
 5605SOL    HW217715   2.794   6.463   4.155
 5606SOL     OW17716   4.539   2.315   0.535
 5606SOL    HW117717   4.569   2.345   0.444
 5606SOL    HW217718   4.582   2.374   0.605
 5607SOL     OW17719   6.472   2.323   2.446
 5607SOL    HW117720   6.451   2.226   2.449
 5607SOL    HW217721   6.433   2.363   2.363
 5608SOL     OW17722   5.007   0.646   4.011
 5608SOL    HW117723   5.037   0.711   4.081
 5608SOL    HW217724   4.925   0.680   3.966
 5609SOL     OW17725   6.441   0.389   0.892
 5609SOL    HW117726   6.389   0.433   0.966
 5609SOL    HW217727   6.536   0.380   0.920
 5610SOL     OW17728   5.173   4.646   0.258
 5610SOL    HW117729   5.172   4.589   0.340
 5610SOL    HW217730   5.253   4.622   0.202
 5611SOL     OW17731   6.867   4.625   1.277
 5611SOL    HW117732   6.809   4.620   1.196
 5611SOL    HW217733   6.851   4.711   1.324
 5612SOL     OW17734   2.907   1.223   0.674
 5612SOL    HW117735   2.858   1.196   0.591
 5612SOL    HW217736   3.002   1.193   0.668
 5613SOL     OW17737   6.656   5.089   5.840
 5613SOL    HW117738   6.636   5.113   5.935
 5613SOL    HW217739   6.754   5.100   5.823
 5614SOL     OW17740   5.462   2.294   3.845
 5614SOL    HW117741   5.481   2.300   3.943
 5614SOL    HW217742   5.406   2.372   3.818
 5615SOL     OW17743   0.195   3.195   3.091
 5615SOL    HW117744   0.178   3.100   3.118
 5615SOL    HW217745   0.190   3.202   2.991
 5616SOL     OW17746   1.504   3.240   2.623
 5616SOL    HW117747   1.503   3.140   2.624
 5616SOL    HW217748   1.582   3.272   2.569
 5617SOL     OW17749   1.557   5.083   6.103
 5617SOL    HW117750   1.630   5.144   6.134
 5617SOL    HW217751   1.597   4.998   6.069
 5618SOL     OW17752   6.645   5.893   3.101
 5618SOL    HW117753   6.617   5.981   3.064
 5618SOL    HW217754   6.737   5.900   3.139
 5619SOL     OW17755   3.509   2.874   4.045
 5619SOL    HW117756   3.474   2.906   4.133
 5619SOL    HW217757   3.436   2.825   3.997
 5620SOL     OW17758   4.742   4.661   5.004
 5620SOL    HW117759   4.752   4.586   5.069
 5620SOL    HW217760   4.666   4.719   5.032
 5621SOL     OW17761   1.285   2.197   5.451
 5621SOL    HW117762   1.233   2.273   5.411
 5621SOL    HW217763   1.280   2.202   5.551
 5622SOL     OW17764   4.695   6.192   4.618
 5622SOL    HW117765   4.682   6.246   4.535
 5622SOL    HW217766   4.745   6.108   4.595
 5623SOL     OW17767   4.958   5.800   3.857
 5623SOL    HW117768   4.994   5.711   3.883
 5623SOL    HW217769   4.888   5.789   3.787
 5624SOL     OW17770   6.349   5.710   4.240
 5624SOL    HW117771   6.260   5.751   4.221
 5624SOL    HW217772   6.376   5.653   4.162
 5625SOL     OW17773   0.655   6.140   5.374
 5625SOL    HW117774   0.741   6.190   5.370
 5625SOL    HW217775   0.606   6.163   5.458
 5626SOL     OW17776   1.167   4.256   5.190
 5626SOL    HW117777   1.191   4.195   5.266
 5626SOL    HW217778   1.068   4.256   5.177
 5627SOL     OW17779   1.001   5.632   0.002
 5627SOL    HW117780   1.097   5.658   0.014
 5627SOL    HW217781   0.943   5.713   0.012
 5628SOL     OW17782   2.394   2.449   2.296
 5628SOL    HW117783   2.450   2.449   2.214
 5628SOL    HW217784   2.389   2.356   2.334
 5629SOL     OW17785   5.193   3.562   1.432
 5629SOL    HW117786   5.107   3.583   1.478
 5629SOL    HW217787   5.231   3.647   1.394
 5630SOL     OW17788   1.307   4.495   0.291
 5630SOL    HW117789   1.237   4.512   0.222
 5630SOL    HW217790   1.262   4.474   0.379
 5631SOL     OW17791   4.094   1.393   1.682
 5631SOL    HW117792   4.047   1.304   1.683
 5631SOL    HW217793   4.124   1.413   1.589
 5632SOL     OW17794   5.269   6.858   5.915
 5632SOL    HW117795   5.176   6.880   5.886
 5632SOL    HW217796   5.334   6.885   5.844
 5633SOL     OW17797   0.371   5.352   5.864
 5633SOL    HW117798   0.430   5.401   5.928
 5633SOL    HW217799   0.409   5.359   5.772
 5634SOL     OW17800   2.455   6.828   0.941
 5634SOL    HW117801   2.503   6.741   0.953
 5634SOL    HW217802   2.482   6.869   0.854
 5635SOL     OW17803   1.797   1.019   6.315
 5635SOL    HW117804   1.847   1.100   6.347
 5635SOL    HW217805   1.770   1.032   6.220
 5636SOL     OW17806   5.734   1.573   5.358
 5636SOL    HW117807   5.745   1.573   5.457
 5636SOL    HW217808   5.721   1.479   5.326
 5637SOL     OW17809   4.361   6.631   4.716
 5637SOL    HW117810   4.304   6.594   4.789
 5637SOL    HW217811   4.449   6.584   4.716
 5638SOL     OW17812   6.240   5.516   1.118
 5638SOL    HW117813   6.225   5.466   1.033
 5638SOL    HW217814   6.152   5.545   1.156
 5639SOL     OW17815   1.310   0.431   0.891
 5639SOL    HW117816   1.258   0.486   0.958
 5639SOL    HW217817   1.252   0.356   0.858
 5640SOL     OW17818   2.664   5.730   2.832
 5640SOL    HW117819   2.622   5.751   2.744
 5640SOL    HW217820   2.598   5.684   2.891
 5641SOL     OW17821   0.503   4.326   4.185
 5641SOL    HW117822   0.407   4.307   4.205
 5641SOL    HW217823   0.559   4.305   4.266
 5642SOL     OW17824   1.427   4.882   0.123
 5642SOL    HW117825   1.352   4.829   0.085
 5642SOL    HW217826   1.513   4.835   0.107
 5643SOL     OW17827   4.678   1.926   4.674
 5643SOL    HW117828   4.616   1.896   4.746
 5643SOL    HW217829   4.678   1.860   4.599
 5644SOL     OW17830   4.059   0.699   4.950
 5644SOL    HW117831   4.109   0.782   4.925
 5644SOL    HW217832   4.024   0.707   5.043
 5645SOL     OW17833   5.342   5.128   4.191
 5645SOL    HW117834   5.277   5.077   4.248
 5645SOL    HW217835   5.361   5.216   4.233
 5646SOL     OW17836   0.553   6.118   4.559
 5646SOL    HW117837   0.652   6.127   4.546
 5646SOL    HW217838   0.535   6.038   4.618
 5647SOL     OW17839   5.617   5.228   5.941
 5647SOL    HW117840   5.641   5.309   5.994
 5647SOL    HW217841   5.552   5.254   5.869
 5648SOL     OW17842   1.623   1.702   4.496
 5648SOL    HW117843   1.698   1.713   4.430
 5648SOL    HW217844   1.544   1.753   4.464
 5649SOL     OW17845   0.557   1.063   5.291
 5649SOL    HW117846   0.636   1.119   5.268
 5649SOL    HW217847   0.566   0.973   5.248
 5650SOL     OW17848   6.183   5.076   6.421
 5650SOL    HW117849   6.123   5.156   6.417
 5650SOL    HW217850   6.129   4.992   6.422
 5651SOL     OW17851   6.947   0.239   2.953
 5651SOL    HW117852   6.873   0.276   2.896
 5651SOL    HW217853   6.909   0.210   3.041
 5652SOL     OW17854   4.756   5.020   0.927
 5652SOL    HW117855   4.760   4.981   1.019
 5652SOL    HW217856   4.835   5.079   0.911
 5653SOL     OW17857   0.851   6.101   6.279
 5653SOL    HW117858   0.836   6.019   6.334
 5653SOL    HW217859   0.950   6.115   6.267
 5654SOL     OW17860   6.541   6.738   5.628
 5654SOL    HW117861   6.549   6.822   5.573
 5654SOL    HW217862   6.455   6.693   5.606
 5655SOL     OW17863   6.862   3.356   4.152
 5655SOL    HW117864   6.800   3.348   4.229
 5655SOL    HW217865   6.845   3.281   4.087
 5656SOL     OW17866   3.345   4.641   0.311
 5656SOL    HW117867   3.311   4.555   0.272
 5656SOL    HW217868   3.292   4.717   0.275
 5657SOL     OW17869   3.798   0.256   1.770
 5657SOL    HW117870   3.751   0.262   1.681
 5657SOL    HW217871   3.738   0.210   1.836
 5658SOL     OW17872   3.822   6.964   5.872
 5658SOL    HW117873   3.806   0.007   5.800
 5658SOL    HW217874   3.859   7.010   5.953
 5659SOL     OW17875   3.000   3.807   2.781
 5659SOL    HW117876   2.942   3.801   2.699
 5659SOL    HW217877   3.030   3.902   2.793
 5660SOL     OW17878   5.350   6.488   6.929
 5660SOL    HW117879   5.367   6.392   6.906
 5660SOL    HW217880   5.313   6.535   6.849
 5661SOL     OW17881   5.888   5.401   4.293
 5661SOL    HW117882   5.978   5.360   4.308
 5661SOL    HW217883   5.893   5.499   4.310
 5662SOL     OW17884   2.062   4.647   4.004
 5662SOL    HW117885   2.136   4.646   3.936
 5662SOL    HW217886   2.041   4.741   4.029
 5663SOL     OW17887   1.518   4.362   0.729
 5663SOL    HW117888   1.453   4.433   0.756
 5663SOL    HW217889   1.611   4.393   0.751
 5664SOL     OW17890   0.355   4.547   2.406
 5664SOL    HW117891   0.431   4.610   2.426
 5664SOL    HW217892   0.356   4.524   2.309
 5665SOL     OW17893   2.590   3.304   5.769
 5665SOL    HW117894   2.523   3.291   5.842
 5665SOL    HW217895   2.636   3.392   5.780
 5666SOL     OW17896   5.851   4.336   1.169
 5666SOL    HW117897   5.911   4.311   1.245
 5666SOL    HW217898   5.893   4.308   1.082
 5667SOL     OW17899   0.017   4.763   3.215
 5667SOL    HW117900   0.039   4.667   3.198
 5667SOL    HW217901   0.099   4.810   3.249
 5668SOL     OW17902   5.667   1.902   6.608
 5668SOL    HW117903   5.677   2.000   6.625
 5668SOL    HW217904   5.746   1.869   6.556
 5669SOL     OW17905   0.407   4.706   6.239
 5669SOL    HW117906   0.465   4.741   6.166
 5669SOL    HW217907   0.329   4.658   6.200
 5670SOL     OW17908   0.478   3.681   3.914
 5670SOL    HW117909   0.545   3.676   3.839
 5670SOL    HW217910   0.406   3.746   3.890
 5671SOL     OW17911   1.165   0.807   5.740
 5671SOL    HW117912   1.213   0.858   5.669
 5671SOL    HW217913   1.229   0.784   5.814
 5672SOL     OW17914   4.779   4.619   5.718
 5672SOL    HW117915   4.868   4.663   5.709
 5672SOL    HW217916   4.707   4.688   5.706
 5673SOL     OW17917   0.686   0.437   2.130
 5673SOL    HW117918   0.773   0.387   2.127
 5673SOL    HW217919   0.637   0.414   2.214
 5674SOL     OW17920   6.638   3.630   1.270
 5674SOL    HW117921   6.540   3.618   1.286
 5674SOL    HW217922   6.652   3.682   1.186
 5675SOL     OW17923   4.356   2.265   5.301
 5675SOL    HW117924   4.307   2.344   5.337
 5675SOL    HW217925   4.367   2.274   5.202
 5676SOL     OW17926   2.161   0.324   1.921
 5676SOL    HW117927   2.183   0.268   1.841
 5676SOL    HW217928   2.222   0.403   1.924
 5677SOL     OW17929   6.427   1.130   3.424
 5677SOL    HW117930   6.466   1.050   3.380
 5677SOL    HW217931   6.497   1.200   3.435
 5678SOL     OW17932   3.078   6.926   3.195
 5678SOL    HW117933   3.033   6.929   3.106
 5678SOL    HW217934   3.175   6.950   3.184
 5679SOL     OW17935   1.981   6.715   4.954
 5679SOL    HW117936   1.907   6.771   4.917
 5679SOL    HW217937   1.946   6.624   4.976
 5680SOL     OW17938   1.743   5.255   6.175
 5680SOL    HW117939   1.776   5.286   6.265
 5680SOL    HW217940   1.735   5.333   6.114
 5681SOL     OW17941   1.534   2.778   0.005
 5681SOL    HW117942   1.503   2.747   0.095
 5681SOL    HW217943   1.458   2.820   6.980
 5682SOL     OW17944   1.209   3.421   5.342
 5682SOL    HW117945   1.282   3.380   5.396
 5682SOL    HW217946   1.121   3.403   5.385
 5683SOL     OW17947   3.664   2.142   5.985
 5683SOL    HW117948   3.662   2.220   5.922
 5683SOL    HW217949   3.597   2.073   5.956
 5684SOL     OW17950   3.860   4.013   3.877
 5684SOL    HW117951   3.777   4.004   3.932
 5684SOL    HW217952   3.836   4.037   3.783
 5685SOL     OW17953   0.101   5.046   2.271
 5685SOL    HW117954   0.001   5.056   2.270
 5685SOL    HW217955   0.128   4.981   2.201
 5686SOL     OW17956   3.489   0.103   0.629
 5686SOL    HW117957   3.460   0.124   0.536
 5686SOL    HW217958   3.565   0.162   0.655
 5687SOL     OW17959   5.188   5.277   5.195
 5687SOL    HW117960   5.107   5.305   5.247
 5687SOL    HW217961   5.186   5.178   5.182
 5688SOL     OW17962   5.547   1.767   1.728
 5688SOL    HW117963   5.626   1.729   1.681
 5688SOL    HW217964   5.507   1.840   1.673
 5689SOL     OW17965   3.886   1.983   0.613
 5689SOL    HW117966   3.842   2.043   0.546
 5689SOL    HW217967   3.857   1.889   0.597
 5690SOL     OW17968   4.590   5.912   0.921
 5690SOL    HW117969   4.653   5.990   0.925
 5690SOL    HW217970   4.556   5.901   0.827
 5691SOL     OW17971   2.219   0.197   1.639
 5691SOL    HW117972   2.126   0.176   1.610
 5691SOL    HW217973   2.284   0.138   1.590
 5692SOL     OW17974   6.819   2.861   6.893
 5692SOL    HW117975   6.721   2.871   6.908
 5692SOL    HW217976   6.859   2.950   6.869
 5693SOL     OW17977   4.550   2.536   2.723
 5693SOL    HW117978   4.627   2.473   2.730
 5693SOL    HW217979   4.480   2.496   2.664
 5694SOL     OW17980   0.333   0.921   3.601
 5694SOL    HW117981   0.347   0.993   3.533
 5694SOL    HW217982   0.318   0.963   3.691
 5695SOL     OW17983   1.749   3.254   3.449
 5695SOL    HW117984   1.768   3.351   3.465
 5695SOL    HW217985   1.777   3.229   3.356
 5696SOL     OW17986   2.887   0.605   4.799
 5696SOL    HW117987   2.853   0.597   4.892
 5696SOL    HW217988   2.905   0.701   4.778
 5697SOL     OW17989   6.716   2.702   0.140
 5697SOL    HW117990   6.791   2.682   0.203
 5697SOL    HW217991   6.752   2.752   0.061
 5698SOL     OW17992   0.764   3.555   2.140
 5698SOL    HW117993   0.708   3.500   2.203
 5698SOL    HW217994   0.757   3.517   2.048
 5699SOL     OW17995   5.378   0.712   5.123
 5699SOL    HW117996   5.326   0.630   5.099
 5699SOL    HW217997   5.475   0.697   5.102
 5700SOL     OW17998   1.613   6.027   4.536
 5700SOL    HW117999   1.524   6.023   4.583
 5700SOL    HW218000   1.632   6.121   4.510
 5701SOL     OW18001   6.450   5.323   2.001
 5701SOL    HW118002   6.411   5.358   1.916
 5701SOL    HW218003   6.377   5.309   2.068
 5702SOL     OW18004   2.740   0.529   6.601
 5702SOL    HW118005   2.712   0.438   6.634
 5702SOL    HW218006   2.798   0.573   6.669
 5703SOL     OW18007   4.232   4.742   0.293
 5703SOL    HW118008   4.235   4.689   0.209
 5703SOL    HW218009   4.168   4.818   0.282
 5704SOL     OW18010   4.490   5.250   3.820
 5704SOL    HW118011   4.473   5.207   3.909
 5704SOL    HW218012   4.429   5.328   3.809
 5705SOL     OW18013   5.982   0.539   1.435
 5705SOL    HW118014   5.926   0.459   1.457
 5705SOL    HW218015   5.928   0.622   1.449
 5706SOL     OW18016   1.373   1.194   6.829
 5706SOL    HW118017   1.382   1.146   6.741
 5706SOL    HW218018   1.361   1.127   6.902
 5707SOL     OW18019   1.933   1.237   6.386
 5707SOL    HW118020   1.886   1.322   6.411
 5707SOL    HW218021   2.020   1.232   6.435
 5708SOL     OW18022   5.109   6.909   2.721
 5708SOL    HW118023   5.086   6.994   2.768
 5708SOL    HW218024   5.095   6.832   2.783
 5709SOL     OW18025   0.332   6.728   3.169
 5709SOL    HW118026   0.412   6.783   3.192
 5709SOL    HW218027   0.362   6.640   3.131
 5710SOL     OW18028   3.461   3.296   6.145
 5710SOL    HW118029   3.374   3.263   6.183
 5710SOL    HW218030   3.532   3.227   6.159
 5711SOL     OW18031   4.330   1.081   4.139
 5711SOL    HW118032   4.330   1.086   4.239
 5711SOL    HW218033   4.375   0.997   4.109
 5712SOL     OW18034   0.019   6.433   6.095
 5712SOL    HW118035   6.982   6.444   6.174
 5712SOL    HW218036   0.049   6.524   6.065
 5713SOL     OW18037   6.885   2.818   2.611
 5713SOL    HW118038   6.811   2.776   2.663
 5713SOL    HW218039   6.970   2.767   2.626
 5714SOL     OW18040   1.313   1.054   5.646
 5714SOL    HW118041   1.393   1.108   5.675
 5714SOL    HW218042   1.230   1.098   5.681
 5715SOL     OW18043   1.601   6.424   2.485
 5715SOL    HW118044   1.587   6.485   2.406
 5715SOL    HW218045   1.521   6.429   2.545
 5716SOL     OW18046   1.830   3.728   6.034
 5716SOL    HW118047   1.908   3.672   6.009
 5716SOL    HW218048   1.775   3.681   6.104
 5717SOL     OW18049   1.170   4.165   0.971
 5717SOL    HW118050   1.177   4.099   0.897
 5717SOL    HW218051   1.096   4.138   1.033
 5718SOL     OW18052   3.014   4.893   6.862
 5718SOL    HW118053   2.951   4.861   6.791
 5718SOL    HW218054   2.994   4.847   6.948
 5719SOL     OW18055   3.072   0.560   6.710
 5719SOL    HW118056   3.116   0.540   6.798
 5719SOL    HW218057   3.127   0.522   6.636
 5720SOL     OW18058   1.909   5.479   5.453
 5720SOL    HW118059   1.809   5.483   5.453
 5720SOL    HW218060   1.943   5.490   5.360
 5721SOL     OW18061   0.728   3.353   1.624
 5721SOL    HW118062   0.662   3.422   1.595
 5721SOL    HW218063   0.743   3.288   1.549
 5722SOL     OW18064   5.164   6.814   5.001
 5722SOL    HW118065   5.227   6.892   4.997
 5722SOL    HW218066   5.206   6.735   4.956
 5723SOL     OW18067   3.738   5.706   0.286
 5723SOL    HW118068   3.751   5.609   0.309
 5723SOL    HW218069   3.724   5.758   0.370
 5724SOL     OW18070   5.460   2.133   6.042
 5724SOL    HW118071   5.484   2.216   5.991
 5724SOL    HW218072   5.541   2.076   6.053
 5725SOL     OW18073   5.641   4.885   5.096
 5725SOL    HW118074   5.595   4.973   5.105
 5725SOL    HW218075   5.709   4.876   5.169
 5726SOL     OW18076   5.760   3.701   6.028
 5726SOL    HW118077   5.701   3.685   6.108
 5726SOL    HW218078   5.716   3.663   5.946
 5727SOL     OW18079   5.583   1.746   3.613
 5727SOL    HW118080   5.598   1.828   3.668
 5727SOL    HW218081   5.511   1.764   3.545
 5728SOL     OW18082   5.942   0.658   5.191
 5728SOL    HW118083   5.955   0.643   5.289
 5728SOL    HW218084   5.895   0.745   5.176
 5729SOL     OW18085   0.234   1.576   6.453
 5729SOL    HW118086   0.147   1.620   6.476
 5729SOL    HW218087   0.259   1.598   6.359
 5730SOL     OW18088   4.178   5.100   5.872
 5730SOL    HW118089   4.205   5.052   5.789
 5730SOL    HW218090   4.078   5.099   5.880
 5731SOL     OW18091   2.869   0.995   4.214
 5731SOL    HW118092   2.876   1.007   4.115
 5731SOL    HW218093   2.785   0.946   4.236
 5732SOL     OW18094   6.098   4.867   5.115
 5732SOL    HW118095   6.062   4.923   5.041
 5732SOL    HW218096   6.157   4.922   5.174
 5733SOL     OW18097   3.498   0.791   6.908
 5733SOL    HW118098   3.427   0.861   6.915
 5733SOL    HW218099   3.485   0.738   6.824
 5734SOL     OW18100   1.522   6.876   5.679
 5734SOL    HW118101   1.583   6.912   5.749
 5734SOL    HW218102   1.562   6.892   5.589
 5735SOL     OW18103   3.964   0.693   2.175
 5735SOL    HW118104   4.016   0.723   2.094
 5735SOL    HW218105   3.879   0.745   2.180
 5736SOL     OW18106   4.718   4.191   6.655
 5736SOL    HW118107   4.736   4.116   6.719
 5736SOL    HW218108   4.623   4.187   6.624
 5737SOL     OW18109   4.888   5.507   1.424
 5737SOL    HW118110   4.959   5.521   1.494
 5737SOL    HW218111   4.866   5.595   1.382
 5738SOL     OW18112   3.212   1.090   6.400
 5738SOL    HW118113   3.307   1.060   6.387
 5738SOL    HW218114   3.209   1.190   6.405
 5739SOL     OW18115   2.987   0.656   5.874
 5739SOL    HW118116   2.966   0.708   5.791
 5739SOL    HW218117   3.027   0.568   5.850
 5740SOL     OW18118   5.422   3.719   1.187
 5740SOL    HW118119   5.358   3.683   1.119
 5740SOL    HW218120   5.374   3.780   1.249
 5741SOL     OW18121   0.665   3.895   4.258
 5741SOL    HW118122   0.632   3.971   4.313
 5741SOL    HW218123   0.588   3.837   4.231
 5742SOL     OW18124   4.445   0.079   3.324
 5742SOL    HW118125   4.530   0.036   3.355
 5742SOL    HW218126   4.455   0.178   3.324
 5743SOL     OW18127   3.376   3.976   5.359
 5743SOL    HW118128   3.385   4.071   5.328
 5743SOL    HW218129   3.317   3.926   5.295
 5744SOL     OW18130   5.799   6.090   3.099
 5744SOL    HW118131   5.804   5.995   3.130
 5744SOL    HW218132   5.777   6.149   3.176
 5745SOL     OW18133   2.438   2.656   3.785
 5745SOL    HW118134   2.361   2.641   3.723
 5745SOL    HW218135   2.425   2.742   3.834
 5746SOL     OW18136   4.164   0.261   3.619
 5746SOL    HW118137   4.181   0.228   3.526
 5746SOL    HW218138   4.088   0.210   3.659
 5747SOL     OW18139   1.197   5.804   1.686
 5747SOL    HW118140   1.154   5.743   1.752
 5747SOL    HW218141   1.129   5.865   1.646
 5748SOL     OW18142   0.427   6.031   0.903
 5748SOL    HW118143   0.497   6.062   0.968
 5748SOL    HW218144   0.365   6.107   0.883
 5749SOL     OW18145   1.670   6.343   4.755
 5749SOL    HW118146   1.598   6.312   4.818
 5749SOL    HW218147   1.752   6.287   4.770
 5750SOL     OW18148   6.995   4.586   4.648
 5750SOL    HW118149   6.925   4.565   4.578
 5750SOL    HW218150   7.017   4.683   4.644
 5751SOL     OW18151   2.149   3.668   4.329
 5751SOL    HW118152   2.158   3.569   4.338
 5751SOL    HW218153   2.140   3.709   4.420
 5752SOL     OW18154   5.449   0.109   0.701
 5752SOL    HW118155   5.514   0.176   0.738
 5752SOL    HW218156   5.444   0.030   0.762
 5753SOL     OW18157   3.140   4.070   4.771
 5753SOL    HW118158   3.077   3.993   4.779
 5753SOL    HW218159   3.160   4.107   4.861
 5754SOL     OW18160   0.996   6.397   1.809
 5754SOL    HW118161   0.937   6.348   1.873
 5754SOL    HW218162   1.069   6.337   1.777
 5755SOL     OW18163   2.475   2.280   7.018
 5755SOL    HW118164   2.434   2.215   6.955
 5755SOL    HW218165   2.436   2.371   7.003
 5756SOL     OW18166   6.075   6.278   2.060
 5756SOL    HW118167   6.125   6.343   2.003
 5756SOL    HW218168   6.138   6.212   2.099
 5757SOL     OW18169   7.019   6.759   3.742
 5757SOL    HW118170   6.924   6.771   3.769
 5757SOL    HW218171   0.001   6.750   3.642
 5758SOL     OW18172   1.424   6.661   3.463
 5758SOL    HW118173   1.482   6.603   3.520
 5758SOL    HW218174   1.455   6.655   3.368
 5759SOL     OW18175   4.260   6.434   1.831
 5759SOL    HW118176   4.184   6.369   1.826
 5759SOL    HW218177   4.235   6.509   1.892
 5760SOL     OW18178   6.634   3.309   1.728
 5760SOL    HW118179   6.692   3.330   1.650
 5760SOL    HW218180   6.664   3.362   1.808
 5761SOL     OW18181   5.283   5.637   4.938
 5761SOL    HW118182   5.345   5.701   4.893
 5761SOL    HW218183   5.335   5.572   4.993
 5762SOL     OW18184   5.454   4.178   6.770
 5762SOL    HW118185   5.403   4.166   6.855
 5762SOL    HW218186   5.507   4.263   6.774
 5763SOL     OW18187   5.537   0.469   0.550
 5763SOL    HW118188   5.604   0.542   0.560
 5763SOL    HW218189   5.568   0.404   0.481
 5764SOL     OW18190   4.527   5.159   3.209
 5764SOL    HW118191   4.474   5.089   3.162
 5764SOL    HW218192   4.511   5.248   3.166
 5765SOL     OW18193   6.133   5.056   1.047
 5765SOL    HW118194   6.208   5.000   1.084
 5765SOL    HW218195   6.092   5.109   1.121
 5766SOL     OW18196   0.783   1.632   4.771
 5766SOL    HW118197   0.692   1.590   4.761
 5766SOL    HW218198   0.839   1.607   4.692
 5767SOL     OW18199   2.050   0.373   0.773
 5767SOL    HW118200   1.955   0.343   0.775
 5767SOL    HW218201   2.071   0.423   0.857
 5768SOL     OW18202   6.758   6.427   4.052
 5768SOL    HW118203   6.829   6.370   4.011
 5768SOL    HW218204   6.668   6.397   4.019
 5769SOL     OW18205   1.393   5.188   6.297
 5769SOL    HW118206   1.462   5.175   6.226
 5769SOL    HW218207   1.431   5.161   6.386
 5770SOL     OW18208   0.805   6.109   1.161
 5770SOL    HW118209   0.784   6.011   1.167
 5770SOL    HW218210   0.722   6.162   1.177
 5771SOL     OW18211   1.964   5.293   4.000
 5771SOL    HW118212   1.902   5.371   4.007
 5771SOL    HW218213   1.951   5.232   4.078
 5772SOL     OW18214   4.414   0.120   1.968
 5772SOL    HW118215   4.418   0.127   2.068
 5772SOL    HW218216   4.332   0.069   1.942
 5773SOL     OW18217   4.325   2.054   1.950
 5773SOL    HW118218   4.298   1.982   1.885
 5773SOL    HW218219   4.355   2.135   1.900
 5774SOL     OW18220   1.205   6.700   3.616
 5774SOL    HW118221   1.198   6.604   3.646
 5774SOL    HW218222   1.290   6.713   3.566
 5775SOL     OW18223   0.664   5.558   2.832
 5775SOL    HW118224   0.600   5.547   2.909
 5775SOL    HW218225   0.664   5.653   2.802
 5776SOL     OW18226   1.781   7.014   2.817
 5776SOL    HW118227   1.786   7.002   2.916
 5776SOL    HW218228   1.844   6.951   2.772
 5777SOL     OW18229   1.142   0.468   3.238
 5777SOL    HW118230   1.155   0.392   3.302
 5777SOL    HW218231   1.185   0.551   3.275
 5778SOL     OW18232   1.054   1.554   6.566
 5778SOL    HW118233   1.022   1.483   6.503
 5778SOL    HW218234   1.037   1.644   6.526
 5779SOL     OW18235   4.586   2.388   6.721
 5779SOL    HW118236   4.514   2.343   6.774
 5779SOL    HW218237   4.592   2.344   6.631
 5780SOL     OW18238   5.355   5.123   4.534
 5780SOL    HW118239   5.413   5.203   4.553
 5780SOL    HW218240   5.402   5.062   4.471
 5781SOL     OW18241   0.093   4.162   4.819
 5781SOL    HW118242   0.163   4.147   4.750
 5781SOL    HW218243   0.108   4.101   4.897
 5782SOL     OW18244   1.075   1.521   0.330
 5782SOL    HW118245   1.122   1.593   0.279
 5782SOL    HW218246   1.129   1.494   0.410
 5783SOL     OW18247   1.818   1.507   1.566
 5783SOL    HW118248   1.850   1.425   1.614
 5783SOL    HW218249   1.790   1.483   1.473
 5784SOL     OW18250   0.214   6.316   7.006
 5784SOL    HW118251   0.115   6.324   7.019
 5784SOL    HW218252   0.240   6.367   6.924
 5785SOL     OW18253   2.474   1.736   0.697
 5785SOL    HW118254   2.554   1.789   0.671
 5785SOL    HW218255   2.481   1.707   0.792
 5786SOL     OW18256   0.039   3.950   0.179
 5786SOL    HW118257   6.990   4.013   0.155
 5786SOL    HW218258   0.127   3.995   0.164
 5787SOL     OW18259   2.149   1.968   5.539
 5787SOL    HW118260   2.146   1.869   5.549
 5787SOL    HW218261   2.138   2.011   5.629
 5788SOL     OW18262   2.231   1.278   3.010
 5788SOL    HW118263   2.328   1.302   3.008
 5788SOL    HW218264   2.220   1.183   2.979
 5789SOL     OW18265   3.336   5.493   6.864
 5789SOL    HW118266   3.245   5.489   6.825
 5789SOL    HW218267   3.380   5.579   6.837
 5790SOL     OW18268   0.124   3.220   4.218
 5790SOL    HW118269   0.095   3.304   4.264
 5790SOL    HW218270   0.122   3.144   4.283
 5791SOL     OW18271   2.993   0.320   2.837
 5791SOL    HW118272   3.084   0.307   2.797
 5791SOL    HW218273   2.966   0.236   2.885
 5792SOL     OW18274   0.006   2.104   3.086
 5792SOL    HW118275   0.053   2.160   3.017
 5792SOL    HW218276   6.992   2.163   3.157
 5793SOL     OW18277   6.740   1.239   3.793
 5793SOL    HW118278   6.767   1.335   3.797
 5793SOL    HW218279   6.725   1.204   3.886
 5794SOL     OW18280   3.693   2.900   0.635
 5794SOL    HW118281   3.625   2.827   0.643
 5794SOL    HW218282   3.710   2.940   0.725
 5795SOL     OW18283   5.986   4.798   5.721
 5795SOL    HW118284   5.949   4.725   5.664
 5795SOL    HW218285   5.957   4.785   5.815
 5796SOL     OW18286   3.231   0.839   0.487
 5796SOL    HW118287   3.184   0.756   0.455
 5796SOL    HW218288   3.265   0.890   0.408
 5797SOL     OW18289   3.446   2.022   4.763
 5797SOL    HW118290   3.448   1.924   4.746
 5797SOL    HW218291   3.511   2.044   4.836
 5798SOL     OW18292   0.556   4.532   5.097
 5798SOL    HW118293   0.557   4.616   5.043
 5798SOL    HW218294   0.511   4.548   5.184
 5799SOL     OW18295   5.665   0.459   3.582
 5799SOL    HW118296   5.687   0.413   3.496
 5799SOL    HW218297   5.642   0.392   3.652
 5800SOL     OW18298   5.779   5.116   1.277
 5800SOL    HW118299   5.699   5.170   1.251
 5800SOL    HW218300   5.772   5.025   1.235
 5801SOL     OW18301   0.771   2.357   3.605
 5801SOL    HW118302   0.804   2.283   3.548
 5801SOL    HW218303   0.733   2.320   3.690
 5802SOL     OW18304   0.325   4.357   6.162
 5802SOL    HW118305   0.247   4.413   6.190
 5802SOL    HW218306   0.305   4.312   6.075
 5803SOL     OW18307   1.699   4.933   1.386
 5803SOL    HW118308   1.784   4.890   1.418
 5803SOL    HW218309   1.657   4.875   1.316
 5804SOL     OW18310   6.210   4.163   4.055
 5804SOL    HW118311   6.284   4.227   4.078
 5804SOL    HW218312   6.209   4.089   4.122
 5805SOL     OW18313   3.689   4.376   6.624
 5805SOL    HW118314   3.652   4.384   6.531
 5805SOL    HW218315   3.622   4.410   6.690
 5806SOL     OW18316   1.170   6.821   0.190
 5806SOL    HW118317   1.131   6.845   0.279
 5806SOL    HW218318   1.139   6.730   0.163
 5807SOL     OW18319   1.345   4.169   1.175
 5807SOL    HW118320   1.293   4.160   1.091
 5807SOL    HW218321   1.410   4.093   1.184
 5808SOL     OW18322   5.323   4.029   2.727
 5808SOL    HW118323   5.314   4.007   2.825
 5808SOL    HW218324   5.367   4.118   2.717
 5809SOL     OW18325   6.639   3.310   4.328
 5809SOL    HW118326   6.611   3.226   4.281
 5809SOL    HW218327   6.558   3.364   4.350
 5810SOL     OW18328   3.024   0.959   4.440
 5810SOL    HW118329   3.063   0.867   4.437
 5810SOL    HW218330   2.980   0.980   4.353
 5811SOL     OW18331   3.093   0.153   4.857
 5811SOL    HW118332   3.072   0.167   4.954
 5811SOL    HW218333   3.102   0.241   4.812
 5812SOL     OW18334   4.954   6.762   4.220
 5812SOL    HW118335   4.892   6.780   4.143
 5812SOL    HW218336   4.976   6.665   4.222
 5813SOL     OW18337   1.278   1.199   6.037
 5813SOL    HW118338   1.191   1.166   6.072
 5813SOL    HW218339   1.268   1.226   5.941
 5814SOL     OW18340   6.531   4.024   0.296
 5814SOL    HW118341   6.523   4.109   0.348
 5814SOL    HW218342   6.571   3.953   0.353
 5815SOL     OW18343   4.451   2.355   3.021
 5815SOL    HW118344   4.375   2.352   3.086
 5815SOL    HW218345   4.416   2.358   2.928
 5816SOL     OW18346   5.776   6.781   0.502
 5816SOL    HW118347   5.677   6.776   0.497
 5816SOL    HW218348   5.804   6.868   0.542
 5817SOL     OW18349   6.030   3.037   5.756
 5817SOL    HW118350   6.063   3.123   5.715
 5817SOL    HW218351   5.931   3.040   5.765
 5818SOL     OW18352   6.355   6.014   5.093
 5818SOL    HW118353   6.354   6.105   5.050
 5818SOL    HW218354   6.349   5.944   5.023
 5819SOL     OW18355   4.345   0.260   1.057
 5819SOL    HW118356   4.370   0.295   0.967
 5819SOL    HW218357   4.264   0.309   1.090
 5820SOL     OW18358   4.894   6.848   3.727
 5820SOL    HW118359   4.885   6.946   3.743
 5820SOL    HW218360   4.806   6.810   3.698
 5821SOL     OW18361   2.310   0.554   1.876
 5821SOL    HW118362   2.359   0.581   1.959
 5821SOL    HW218363   2.297   0.634   1.817
 5822SOL     OW18364   0.598   2.492   1.649
 5822SOL    HW118365   0.593   2.576   1.596
 5822SOL    HW218366   0.691   2.477   1.681
 5823SOL     OW18367   1.002   0.732   5.398
 5823SOL    HW118368   0.969   0.799   5.465
 5823SOL    HW218369   0.955   0.645   5.413
 5824SOL     OW18370   6.646   6.430   3.005
 5824SOL    HW118371   6.602   6.502   3.058
 5824SOL    HW218372   6.671   6.354   3.066
 5825SOL     OW18373   2.157   1.805   6.001
 5825SOL    HW118374   2.083   1.773   6.061
 5825SOL    HW218375   2.133   1.895   5.964
 5826SOL     OW18376   6.677   6.151   5.664
 5826SOL    HW118377   6.645   6.197   5.581
 5826SOL    HW218378   6.772   6.122   5.651
 5827SOL     OW18379   0.789   5.595   5.290
 5827SOL    HW118380   0.874   5.646   5.304
 5827SOL    HW218381   0.810   5.506   5.251
 5828SOL     OW18382   0.712   3.439   1.901
 5828SOL    HW118383   0.714   3.508   1.829
 5828SOL    HW218384   0.633   3.379   1.887
 5829SOL     OW18385   2.526   1.211   2.389
 5829SOL    HW118386   2.617   1.204   2.349
 5829SOL    HW218387   2.500   1.123   2.430
 5830SOL     OW18388   3.694   0.522   5.872
 5830SOL    HW118389   3.659   0.615   5.863
 5830SOL    HW218390   3.619   0.457   5.855
 5831SOL     OW18391   6.103   6.246   3.866
 5831SOL    HW118392   6.120   6.335   3.824
 5831SOL    HW218393   6.009   6.219   3.849
 5832SOL     OW18394   4.184   3.714   5.583
 5832SOL    HW118395   4.115   3.673   5.643
 5832SOL    HW218396   4.151   3.714   5.489
 5833SOL     OW18397   3.292   3.590   4.247
 5833SOL    HW118398   3.276   3.613   4.343
 5833SOL    HW218399   3.325   3.496   4.241
 5834SOL     OW18400   5.909   1.602   0.384
 5834SOL    HW118401   5.814   1.634   0.382
 5834SOL    HW218402   5.916   1.519   0.329
 5835SOL     OW18403   5.408   2.842   3.315
 5835SOL    HW118404   5.355   2.919   3.350
 5835SOL    HW218405   5.347   2.774   3.275
 5836SOL     OW18406   2.882   5.557   2.880
 5836SOL    HW118407   2.881   5.506   2.965
 5836SOL    HW218408   2.792   5.599   2.865
 5837SOL     OW18409   4.258   4.297   7.016
 5837SOL    HW118410   4.318   4.343   6.951
 5837SOL    HW218411   4.241   4.204   6.985
 5838SOL     OW18412   1.722   1.656   6.250
 5838SOL    HW118413   1.681   1.742   6.281
 5838SOL    HW218414   1.797   1.676   6.187
 5839SOL     OW18415   0.391   2.807   2.240
 5839SOL    HW118416   0.428   2.857   2.162
 5839SOL    HW218417   0.303   2.848   2.266
 5840SOL     OW18418   1.319   5.563   6.885
 5840SOL    HW118419   1.402   5.520   6.919
 5840SOL    HW218420   1.333   5.662   6.881
 5841SOL     OW18421   5.882   3.040   2.099
 5841SOL    HW118422   5.841   2.971   2.159
 5841SOL    HW218423   5.810   3.098   2.061
 5842SOL     OW18424   3.958   3.238   0.586
 5842SOL    HW118425   3.941   3.266   0.680
 5842SOL    HW218426   3.871   3.224   0.539
 5843SOL     OW18427   2.171   3.785   2.507
 5843SOL    HW118428   2.214   3.785   2.597
 5843SOL    HW218429   2.196   3.701   2.458
 5844SOL     OW18430   0.382   6.488   6.289
 5844SOL    HW118431   0.341   6.570   6.249
 5844SOL    HW218432   0.479   6.505   6.308
 5845SOL     OW18433   0.658   1.325   3.482
 5845SOL    HW118434   0.606   1.400   3.525
 5845SOL    HW218435   0.730   1.364   3.424
 5846SOL     OW18436   6.734   2.896   5.010
 5846SOL    HW118437   6.743   2.816   4.951
 5846SOL    HW218438   6.639   2.907   5.038
 5847SOL     OW18439   2.111   1.792   2.110
 5847SOL    HW118440   2.184   1.797   2.041
 5847SOL    HW218441   2.152   1.796   2.201
 5848SOL     OW18442   2.006   4.723   3.567
 5848SOL    HW118443   1.962   4.647   3.519
 5848SOL    HW218444   1.954   4.807   3.551
 5849SOL     OW18445   0.860   0.500   5.622
 5849SOL    HW118446   0.810   0.433   5.676
 5849SOL    HW218447   0.871   0.585   5.674
 5850SOL     OW18448   0.998   3.680   2.253
 5850SOL    HW118449   0.912   3.655   2.208
 5850SOL    HW218450   1.063   3.605   2.246
 5851SOL     OW18451   5.931   3.337   2.318
 5851SOL    HW118452   5.996   3.263   2.306
 5851SOL    HW218453   5.971   3.408   2.375
 5852SOL     OW18454   4.259   6.137   2.909
 5852SOL    HW118455   4.269   6.225   2.862
 5852SOL    HW218456   4.336   6.078   2.886
 5853SOL     OW18457   2.797   5.797   6.212
 5853SOL    HW118458   2.725   5.732   6.236
 5853SOL    HW218459   2.775   5.842   6.126
 5854SOL     OW18460   6.493   3.208   5.876
 5854SOL    HW118461   6.592   3.207   5.866
 5854SOL    HW218462   6.464   3.297   5.912
 5855SOL     OW18463   1.317   1.040   4.370
 5855SOL    HW118464   1.282   0.948   4.357
 5855SOL    HW218465   1.401   1.036   4.424
 5856SOL     OW18466   2.040   5.514   3.375
 5856SOL    HW118467   1.987   5.446   3.325
 5856SOL    HW218468   2.036   5.493   3.473
 5857SOL     OW18469   6.248   3.133   4.761
 5857SOL    HW118470   6.162   3.092   4.730
 5857SOL    HW218471   6.254   3.129   4.860
 5858SOL     OW18472   2.836   1.912   1.904
 5858SOL    HW118473   2.908   1.962   1.857
 5858SOL    HW218474   2.776   1.976   1.950
 5859SOL     OW18475   5.926   6.435   0.752
 5859SOL    HW118476   5.919   6.463   0.656
 5859SOL    HW218477   5.834   6.425   0.791
 5860SOL     OW18478   1.975   4.435   1.714
 5860SOL    HW118479   1.929   4.523   1.726
 5860SOL    HW218480   1.931   4.384   1.641
 5861SOL     OW18481   5.333   1.417   3.711
 5861SOL    HW118482   5.278   1.477   3.770
 5861SOL    HW218483   5.430   1.433   3.728
 5862SOL     OW18484   3.996   5.441   3.249
 5862SOL    HW118485   3.911   5.467   3.295
 5862SOL    HW218486   4.063   5.412   3.317
 5863SOL     OW18487   2.555   0.638   5.467
 5863SOL    HW118488   2.478   0.635   5.403
 5863SOL    HW218489   2.531   0.695   5.546
 5864SOL     OW18490   4.226   4.037   1.716
 5864SOL    HW118491   4.230   3.940   1.740
 5864SOL    HW218492   4.304   4.084   1.755
 5865SOL     OW18493   5.331   0.466   4.223
 5865SOL    HW118494   5.402   0.509   4.278
 5865SOL    HW218495   5.299   0.383   4.270
 5866SOL     OW18496   4.225   6.303   6.610
 5866SOL    HW118497   4.323   6.318   6.617
 5866SOL    HW218498   4.183   6.312   6.701
 5867SOL     OW18499   0.364   2.641   0.787
 5867SOL    HW118500   0.323   2.574   0.848
 5867SOL    HW218501   0.291   2.688   0.736
 5868SOL     OW18502   0.362   0.247   5.293
 5868SOL    HW118503   0.420   0.264   5.373
 5868SOL    HW218504   0.418   0.253   5.210
 5869SOL     OW18505   2.195   4.628   3.762
 5869SOL    HW118506   2.129   4.667   3.698
 5869SOL    HW218507   2.195   4.528   3.754
 5870SOL     OW18508   5.100   5.064   4.932
 5870SOL    HW118509   5.027   4.997   4.949
 5870SOL    HW218510   5.163   5.065   5.009
 5871SOL     OW18511   3.881   4.082   0.177
 5871SOL    HW118512   3.899   4.161   0.235
 5871SOL    HW218513   3.782   4.070   0.166
 5872SOL     OW18514   4.151   5.793   6.862
 5872SOL    HW118515   4.213   5.813   6.939
 5872SOL    HW218516   4.061   5.768   6.898
 5873SOL     OW18517   2.415   2.959   0.439
 5873SOL    HW118518   2.378   3.052   0.440
 5873SOL    HW218519   2.343   2.895   0.410
 5874SOL     OW18520   2.695   3.175   1.353
 5874SOL    HW118521   2.740   3.178   1.264
 5874SOL    HW218522   2.676   3.080   1.377
 5875SOL     OW18523   3.589   1.607   0.412
 5875SOL    HW118524   3.543   1.585   0.326
 5875SOL    HW218525   3.604   1.522   0.464
 5876SOL     OW18526   3.391   3.279   6.513
 5876SOL    HW118527   3.324   3.315   6.448
 5876SOL    HW218528   3.428   3.193   6.480
 5877SOL     OW18529   6.518   6.951   1.635
 5877SOL    HW118530   6.499   6.889   1.711
 5877SOL    HW218531   6.481   6.913   1.550
 5878SOL     OW18532   4.703   5.932   2.578
 5878SOL    HW118533   4.771   5.948   2.650
 5878SOL    HW218534   4.651   6.016   2.562
 5879SOL     OW18535   3.635   3.071   6.127
 5879SOL    HW118536   3.708   3.003   6.118
 5879SOL    HW218537   3.551   3.034   6.086
 5880SOL     OW18538   5.090   3.192   5.349
 5880SOL    HW118539   5.078   3.291   5.340
 5880SOL    HW218540   5.003   3.149   5.373
 5881SOL     OW18541   1.152   6.282   2.489
 5881SOL    HW118542   1.224   6.214   2.477
 5881SOL    HW218543   1.181   6.369   2.447
 5882SOL     OW18544   1.274   6.537   5.693
 5882SOL    HW118545   1.175   6.537   5.702
 5882SOL    HW218546   1.299   6.557   5.598
 5883SOL     OW18547   0.562   3.227   0.691
 5883SOL    HW118548   0.655   3.215   0.656
 5883SOL    HW218549   0.532   3.142   0.736
 5884SOL     OW18550   6.222   1.133   3.741
 5884SOL    HW118551   6.250   1.130   3.837
 5884SOL    HW218552   6.268   1.210   3.696
 5885SOL     OW18553   0.345   5.437   0.416
 5885SOL    HW118554   0.337   5.368   0.488
 5885SOL    HW218555   0.407   5.509   0.447
 5886SOL     OW18556   1.332   3.181   2.826
 5886SOL    HW118557   1.341   3.229   2.913
 5886SOL    HW218558   1.389   3.225   2.757
 5887SOL     OW18559   2.591   1.820   1.411
 5887SOL    HW118560   2.507   1.835   1.359
 5887SOL    HW218561   2.665   1.875   1.371
 5888SOL     OW18562   2.587   6.724   1.238
 5888SOL    HW118563   2.585   6.817   1.202
 5888SOL    HW218564   2.586   6.659   1.162
 5889SOL     OW18565   0.282   1.632   1.488
 5889SOL    HW118566   0.362   1.684   1.516
 5889SOL    HW218567   0.205   1.654   1.548
 5890SOL     OW18568   2.390   5.956   2.311
 5890SOL    HW118569   2.444   5.996   2.386
 5890SOL    HW218570   2.311   5.908   2.349
 5891SOL     OW18571   3.169   3.080   0.817
 5891SOL    HW118572   3.132   2.995   0.781
 5891SOL    HW218573   3.210   3.133   0.743
 5892SOL     OW18574   0.364   3.590   0.643
 5892SOL    HW118575   0.458   3.554   0.634
 5892SOL    HW218576   0.309   3.559   0.565
 5893SOL     OW18577   1.093   5.623   1.829
 5893SOL    HW118578   1.096   5.590   1.923
 5893SOL    HW218579   1.071   5.548   1.767
 5894SOL     OW18580   0.961   5.785   5.613
 5894SOL    HW118581   0.887   5.718   5.618
 5894SOL    HW218582   1.025   5.758   5.540
 5895SOL     OW18583   5.971   3.156   5.175
 5895SOL    HW118584   6.017   3.113   5.253
 5895SOL    HW218585   6.040   3.185   5.108
 5896SOL     OW18586   5.536   1.934   1.945
 5896SOL    HW118587   5.448   1.888   1.957
 5896SOL    HW218588   5.581   1.901   1.862
 5897SOL     OW18589   4.276   1.313   1.919
 5897SOL    HW118590   4.239   1.331   1.827
 5897SOL    HW218591   4.255   1.391   1.978
 5898SOL     OW18592   1.620   1.356   5.444
 5898SOL    HW118593   1.539   1.329   5.391
 5898SOL    HW218594   1.683   1.407   5.384
 5899SOL     OW18595   6.807   5.435   6.496
 5899SOL    HW118596   6.828   5.342   6.464
 5899SOL    HW218597   6.870   5.500   6.451
 5900SOL     OW18598   0.044   5.564   3.174
 5900SOL    HW118599   0.068   5.487   3.114
 5900SOL    HW218600   7.020   5.530   3.254
 5901SOL     OW18601   1.600   0.149   6.754
 5901SOL    HW118602   1.534   0.195   6.694
 5901SOL    HW218603   1.596   0.050   6.738
 5902SOL     OW18604   5.824   3.942   4.593
 5902SOL    HW118605   5.896   3.995   4.547
 5902SOL    HW218606   5.857   3.849   4.609
 5903SOL     OW18607   5.753   2.805   6.740
 5903SOL    HW118608   5.666   2.759   6.724
 5903SOL    HW218609   5.766   2.822   6.837
 5904SOL     OW18610   1.807   5.286   2.811
 5904SOL    HW118611   1.713   5.299   2.842
 5904SOL    HW218612   1.846   5.375   2.786
 5905SOL     OW18613   5.458   0.826   3.793
 5905SOL    HW118614   5.369   0.790   3.819
 5905SOL    HW218615   5.447   0.918   3.756
 5906SOL     OW18616   5.237   1.312   5.595
 5906SOL    HW118617   5.282   1.400   5.578
 5906SOL    HW218618   5.216   1.268   5.507
 5907SOL     OW18619   1.431   1.239   0.211
 5907SOL    HW118620   1.410   1.336   0.222
 5907SOL    HW218621   1.529   1.224   0.225
 5908SOL     OW18622   4.225   3.331   6.671
 5908SOL    HW118623   4.291   3.262   6.643
 5908SOL    HW218624   4.226   3.408   6.607
 5909SOL     OW18625   7.008   4.684   5.412
 5909SOL    HW118626   6.930   4.666   5.352
 5909SOL    HW218627   0.032   4.599   5.430
 5910SOL     OW18628   2.174   3.987   1.468
 5910SOL    HW118629   2.242   4.055   1.444
 5910SOL    HW218630   2.126   4.014   1.551
 5911SOL     OW18631   6.373   5.045   6.224
 5911SOL    HW118632   6.303   5.043   6.296
 5911SOL    HW218633   6.460   5.073   6.264
 5912SOL     OW18634   6.334   3.128   0.022
 5912SOL    HW118635   6.238   3.152   0.014
 5912SOL    HW218636   6.383   3.157   6.964
 5913SOL     OW18637   2.256   2.558   5.562
 5913SOL    HW118638   2.274   2.467   5.601
 5913SOL    HW218639   2.309   2.569   5.478
 5914SOL     OW18640   2.315   6.083   0.500
 5914SOL    HW118641   2.282   5.989   0.513
 5914SOL    HW218642   2.405   6.092   0.542
 5915SOL     OW18643   5.182   3.035   2.876
 5915SOL    HW118644   5.195   3.108   2.944
 5915SOL    HW218645   5.268   3.020   2.827
 5916SOL     OW18646   4.101   0.121   5.772
 5916SOL    HW118647   4.009   0.145   5.741
 5916SOL    HW218648   4.132   0.189   5.838
 5917SOL     OW18649   3.753   3.180   3.015
 5917SOL    HW118650   3.717   3.091   2.988
 5917SOL    HW218651   3.755   3.187   3.115
 5918SOL     OW18652   1.477   3.633   4.043
 5918SOL    HW118653   1.535   3.637   3.961
 5918SOL    HW218654   1.453   3.538   4.062
 5919SOL     OW18655   3.099   2.401   0.865
 5919SOL    HW118656   3.050   2.435   0.784
 5919SOL    HW218657   3.089   2.301   0.870
 5920SOL     OW18658   3.538   0.110   6.774
 5920SOL    HW118659   3.447   0.080   6.800
 5920SOL    HW218660   3.581   0.156   6.852
 5921SOL     OW18661   3.887   5.138   5.874
 5921SOL    HW118662   3.859   5.228   5.907
 5921SOL    HW218663   3.817   5.070   5.897
 5922SOL     OW18664   6.652   4.824   2.923
 5922SOL    HW118665   6.742   4.825   2.880
 5922SOL    HW218666   6.651   4.755   2.996
 5923SOL     OW18667   6.400   0.183   3.641
 5923SOL    HW118668   6.306   0.165   3.615
 5923SOL    HW218669   6.406   0.193   3.740
 5924SOL     OW18670   5.135   2.423   4.625
 5924SOL    HW118671   5.098   2.486   4.694
 5924SOL    HW218672   5.066   2.355   4.601
 5925SOL     OW18673   5.504   5.868   1.943
 5925SOL    HW118674   5.558   5.951   1.953
 5925SOL    HW218675   5.492   5.825   2.033
 5926SOL     OW18676   3.631   5.108   1.746
 5926SOL    HW118677   3.640   5.010   1.726
 5926SOL    HW218678   3.707   5.157   1.704
 5927SOL     OW18679   2.758   5.580   1.412
 5927SOL    HW118680   2.810   5.648   1.360
 5927SOL    HW218681   2.739   5.501   1.354
 5928SOL     OW18682   1.720   0.469   2.489
 5928SOL    HW118683   1.751   0.557   2.454
 5928SOL    HW218684   1.771   0.396   2.444
 5929SOL     OW18685   0.988   6.633   5.641
 5929SOL    HW118686   0.891   6.611   5.648
 5929SOL    HW218687   1.015   6.693   5.716
 5930SOL     OW18688   6.112   1.434   4.139
 5930SOL    HW118689   6.075   1.360   4.195
 5930SOL    HW218690   6.141   1.510   4.198
 5931SOL     OW18691   5.888   5.576   1.975
 5931SOL    HW118692   5.841   5.565   2.062
 5931SOL    HW218693   5.821   5.579   1.901
 5932SOL     OW18694   1.947   6.806   0.948
 5932SOL    HW118695   2.034   6.823   0.994
 5932SOL    HW218696   1.951   6.719   0.899
 5933SOL     OW18697   6.844   4.039   2.208
 5933SOL    HW118698   6.887   3.981   2.277
 5933SOL    HW218699   6.837   3.990   2.122
 5934SOL     OW18700   3.473   3.434   2.961
 5934SOL    HW118701   3.481   3.446   2.862
 5934SOL    HW218702   3.564   3.441   3.003
 5935SOL     OW18703   3.416   4.106   4.945
 5935SOL    HW118704   3.507   4.139   4.921
 5935SOL    HW218705   3.381   4.158   5.023
 5936SOL     OW18706   4.917   4.603   6.401
 5936SOL    HW118707   4.836   4.547   6.418
 5936SOL    HW218708   4.897   4.698   6.425
 5937SOL     OW18709   1.025   3.894   1.379
 5937SOL    HW118710   1.014   3.985   1.339
 5937SOL    HW218711   0.999   3.824   1.312
 5938SOL     OW18712   1.979   4.570   3.190
 5938SOL    HW118713   1.989   4.526   3.279
 5938SOL    HW218714   1.997   4.668   3.199
 5939SOL     OW18715   3.228   1.008   3.257
 5939SOL    HW118716   3.167   1.084   3.235
 5939SOL    HW218717   3.322   1.031   3.231
 5940SOL     OW18718   3.499   6.791   2.723
 5940SOL    HW118719   3.509   6.801   2.822
 5940SOL    HW218720   3.555   6.715   2.691
 5941SOL     OW18721   6.377   5.002   1.963
 5941SOL    HW118722   6.438   5.060   2.019
 5941SOL    HW218723   6.360   4.916   2.011
 5942SOL     OW18724   3.820   3.246   5.846
 5942SOL    HW118725   3.734   3.253   5.795
 5942SOL    HW218726   3.842   3.150   5.861
 5943SOL     OW18727   2.150   5.869   0.258
 5943SOL    HW118728   2.160   5.966   0.280
 5943SOL    HW218729   2.058   5.839   0.281
 5944SOL     OW18730   5.035   1.657   2.514
 5944SOL    HW118731   5.003   1.717   2.588
 5944SOL    HW218732   4.967   1.586   2.497
 5945SOL     OW18733   6.243   5.026   4.882
 5945SOL    HW118734   6.214   5.113   4.921
 5945SOL    HW218735   6.191   5.009   4.798
 5946SOL     OW18736   3.655   3.941   5.699
 5946SOL    HW118737   3.669   3.849   5.664
 5946SOL    HW218738   3.561   3.951   5.731
 5947SOL     OW18739   4.277   3.398   1.779
 5947SOL    HW118740   4.342   3.331   1.744
 5947SOL    HW218741   4.221   3.356   1.851
 5948SOL     OW18742   3.505   4.867   3.195
 5948SOL    HW118743   3.598   4.887   3.226
 5948SOL    HW218744   3.454   4.823   3.269
 5949SOL     OW18745   4.139   4.885   1.007
 5949SOL    HW118746   4.098   4.932   1.085
 5949SOL    HW218747   4.067   4.862   0.940
 5950SOL     OW18748   6.139   2.007   4.349
 5950SOL    HW118749   6.046   2.042   4.359
 5950SOL    HW218750   6.198   2.048   4.419
 5951SOL     OW18751   1.780   6.605   4.376
 5951SOL    HW118752   1.776   6.705   4.372
 5951SOL    HW218753   1.849   6.571   4.312
 5952SOL     OW18754   6.566   5.828   3.647
 5952SOL    HW118755   6.491   5.827   3.713
 5952SOL    HW218756   6.552   5.903   3.582
 5953SOL     OW18757   6.796   3.310   5.475
 5953SOL    HW118758   6.769   3.355   5.560
 5953SOL    HW218759   6.878   3.353   5.439
 5954SOL     OW18760   6.917   4.948   6.020
 5954SOL    HW118761   6.952   4.900   5.940
 5954SOL    HW218762   6.910   5.046   6.000
 5955SOL     OW18763   5.248   5.274   1.942
 5955SOL    HW118764   5.281   5.180   1.934
 5955SOL    HW218765   5.275   5.311   2.031
 5956SOL     OW18766   4.025   2.362   6.949
 5956SOL    HW118767   4.059   2.270   6.967
 5956SOL    HW218768   4.040   2.419   0.006
 5957SOL     OW18769   5.393   6.481   6.162
 5957SOL    HW118770   5.426   6.407   6.104
 5957SOL    HW218771   5.432   6.568   6.130
 5958SOL     OW18772   6.756   6.266   1.922
 5958SOL    HW118773   6.781   6.249   2.017
 5958SOL    HW218774   6.837   6.298   1.872
 5959SOL     OW18775   2.921   1.901   5.497
 5959SOL    HW118776   2.955   1.922   5.589
 5959SOL    HW218777   2.823   1.882   5.501
 5960SOL     OW18778   2.902   0.197   3.613
 5960SOL    HW118779   2.984   0.240   3.574
 5960SOL    HW218780   2.854   0.263   3.671
 5961SOL     OW18781   3.453   0.741   4.982
 5961SOL    HW118782   3.395   0.694   5.049
 5961SOL    HW218783   3.400   0.761   4.900
 5962SOL     OW18784   4.890   5.847   2.383
 5962SOL    HW118785   4.900   5.887   2.292
 5962SOL    HW218786   4.840   5.910   2.442
 5963SOL     OW18787   4.097   3.696   3.212
 5963SOL    HW118788   4.108   3.627   3.284
 5963SOL    HW218789   4.063   3.781   3.252
 5964SOL     OW18790   0.266   5.030   0.179
 5964SOL    HW118791   0.272   5.130   0.169
 5964SOL    HW218792   0.192   4.995   0.121
 5965SOL     OW18793   1.579   2.468   6.395
 5965SOL    HW118794   1.572   2.376   6.434
 5965SOL    HW218795   1.674   2.499   6.401
 5966SOL     OW18796   3.433   5.918   5.058
 5966SOL    HW118797   3.464   5.873   5.142
 5966SOL    HW218798   3.510   5.962   5.013
 5967SOL     OW18799   4.181   6.737   2.713
 5967SOL    HW118800   4.275   6.709   2.694
 5967SOL    HW218801   4.150   6.799   2.640
 5968SOL     OW18802   6.195   1.958   3.123
 5968SOL    HW118803   6.238   1.999   3.043
 5968SOL    HW218804   6.251   1.974   3.204
 5969SOL     OW18805   5.967   3.082   4.114
 5969SOL    HW118806   6.035   3.155   4.113
 5969SOL    HW218807   5.919   3.083   4.202
 5970SOL     OW18808   1.131   3.446   2.830
 5970SOL    HW118809   1.186   3.388   2.890
 5970SOL    HW218810   1.127   3.538   2.866
 5971SOL     OW18811   2.197   0.013   2.817
 5971SOL    HW118812   2.107   6.998   2.797
 5971SOL    HW218813   2.264   7.002   2.751
 5972SOL     OW18814   4.949   6.635   0.132
 5972SOL    HW118815   4.954   6.605   0.036
 5972SOL    HW218816   4.958   6.556   0.192
 5973SOL     OW18817   1.745   4.456   2.746
 5973SOL    HW118818   1.664   4.398   2.742
 5973SOL    HW218819   1.812   4.417   2.809
 5974SOL     OW18820   6.693   3.690   6.397
 5974SOL    HW118821   6.678   3.637   6.314
 5974SOL    HW218822   6.604   3.719   6.434
 5975SOL     OW18823   3.908   2.325   1.075
 5975SOL    HW118824   3.989   2.309   1.131
 5975SOL    HW218825   3.846   2.247   1.085
 5976SOL     OW18826   2.994   3.232   4.614
 5976SOL    HW118827   2.950   3.291   4.682
 5976SOL    HW218828   3.092   3.252   4.613
 5977SOL     OW18829   2.095   4.421   2.007
 5977SOL    HW118830   2.090   4.323   2.023
 5977SOL    HW218831   2.014   4.465   2.048
 5978SOL     OW18832   5.209   4.726   2.421
 5978SOL    HW118833   5.275   4.676   2.365
 5978SOL    HW218834   5.234   4.717   2.518
 5979SOL     OW18835   6.039   0.620   3.630
 5979SOL    HW118836   6.025   0.580   3.721
 5979SOL    HW218837   6.070   0.715   3.640
 5980SOL     OW18838   4.631   4.528   0.250
 5980SOL    HW118839   4.704   4.497   0.312
 5980SOL    HW218840   4.588   4.448   0.208
 5981SOL     OW18841   6.445   1.450   2.361
 5981SOL    HW118842   6.528   1.398   2.341
 5981SOL    HW218843   6.368   1.410   2.311
 5982SOL     OW18844   6.679   2.063   6.435
 5982SOL    HW118845   6.638   2.150   6.461
 5982SOL    HW218846   6.773   2.078   6.404
 5983SOL     OW18847   1.902   2.371   4.222
 5983SOL    HW118848   1.817   2.396   4.176
 5983SOL    HW218849   1.977   2.371   4.156
 5984SOL     OW18850   6.436   6.237   4.460
 5984SOL    HW118851   6.376   6.180   4.516
 5984SOL    HW218852   6.466   6.316   4.513
 5985SOL     OW18853   5.200   2.220   3.417
 5985SOL    HW118854   5.175   2.134   3.463
 5985SOL    HW218855   5.294   2.243   3.441
 5986SOL     OW18856   3.265   2.956   3.283
 5986SOL    HW118857   3.296   2.912   3.368
 5986SOL    HW218858   3.340   2.958   3.217
 5987SOL     OW18859   4.401   0.298   5.334
 5987SOL    HW118860   4.412   0.260   5.426
 5987SOL    HW218861   4.311   0.343   5.328
 5988SOL     OW18862   4.500   6.849   4.576
 5988SOL    HW118863   4.425   6.912   4.557
 5988SOL    HW218864   4.474   6.788   4.651
 5989SOL     OW18865   2.255   0.101   6.239
 5989SOL    HW118866   2.313   0.151   6.304
 5989SOL    HW218867   2.283   0.122   6.146
 5990SOL     OW18868   3.561   4.472   0.712
 5990SOL    HW118869   3.640   4.528   0.738
 5990SOL    HW218870   3.587   4.412   0.636
 5991SOL     OW18871   3.715   5.163   5.099
 5991SOL    HW118872   3.631   5.197   5.143
 5991SOL    HW218873   3.691   5.094   5.030
 5992SOL     OW18874   3.742   0.979   3.814
 5992SOL    HW118875   3.783   0.891   3.793
 5992SOL    HW218876   3.810   1.039   3.857
 5993SOL     OW18877   2.675   6.436   5.513
 5993SOL    HW118878   2.632   6.390   5.436
 5993SOL    HW218879   2.673   6.535   5.499
 5994SOL     OW18880   6.089   2.101   2.110
 5994SOL    HW118881   6.166   2.139   2.160
 5994SOL    HW218882   6.121   2.034   2.043
 5995SOL     OW18883   6.711   5.285   1.248
 5995SOL    HW118884   6.628   5.229   1.253
 5995SOL    HW218885   6.766   5.271   1.330
 5996SOL     OW18886   0.132   5.875   6.744
 5996SOL    HW118887   0.054   5.829   6.701
 5996SOL    HW218888   0.183   5.926   6.675
 5997SOL     OW18889   0.282   7.007   1.675
 5997SOL    HW118890   0.290   7.012   1.774
 5997SOL    HW218891   0.206   6.947   1.650
 5998SOL     OW18892   5.409   2.197   2.470
 5998SOL    HW118893   5.395   2.247   2.555
 5998SOL    HW218894   5.489   2.233   2.423
 5999SOL     OW18895   1.499   1.408   3.642
 5999SOL    HW118896   1.404   1.383   3.624
 5999SOL    HW218897   1.503   1.474   3.717
 6000SOL     OW18898   4.046   4.861   2.345
 6000SOL    HW118899   3.955   4.827   2.322
 6000SOL    HW218900   4.103   4.862   2.264
 6001SOL     OW18901   0.062   2.992   0.075
 6001SOL    HW118902   0.071   2.904   0.028
 6001SOL    HW218903   0.037   3.063   0.009
 6002SOL     OW18904   1.223   0.195   1.228
 6002SOL    HW118905   1.303   0.234   1.182
 6002SOL    HW218906   1.155   0.266   1.242
 6003SOL     OW18907   5.577   3.937   4.530
 6003SOL    HW118908   5.671   3.962   4.551
 6003SOL    HW218909   5.564   3.839   4.544
 6004SOL     OW18910   0.572   3.176   2.866
 6004SOL    HW118911   0.530   3.171   2.956
 6004SOL    HW218912   0.550   3.264   2.823
 6005SOL     OW18913   3.731   5.495   4.388
 6005SOL    HW118914   3.803   5.428   4.366
 6005SOL    HW218915   3.745   5.530   4.480
 6006SOL     OW18916   2.858   6.886   6.533
 6006SOL    HW118917   2.872   6.808   6.594
 6006SOL    HW218918   2.806   6.856   6.453
 6007SOL     OW18919   5.249   2.585   3.537
 6007SOL    HW118920   5.345   2.559   3.534
 6007SOL    HW218921   5.212   2.587   3.444
 6008SOL     OW18922   3.156   5.515   5.986
 6008SOL    HW118923   3.246   5.543   6.018
 6008SOL    HW218924   3.146   5.416   5.997
 6009SOL     OW18925   2.522   1.776   4.447
 6009SOL    HW118926   2.613   1.813   4.428
 6009SOL    HW218927   2.452   1.837   4.410
 6010SOL     OW18928   2.067   4.184   2.381
 6010SOL    HW118929   2.090   4.153   2.289
 6010SOL    HW218930   2.025   4.109   2.432
 6011SOL     OW18931   5.445   2.802   2.021
 6011SOL    HW118932   5.458   2.762   2.112
 6011SOL    HW218933   5.528   2.792   1.967
 6012SOL     OW18934   6.868   2.255   6.599
 6012SOL    HW118935   6.883   2.161   6.629
 6012SOL    HW218936   6.770   2.273   6.595
 6013SOL     OW18937   6.376   0.973   2.274
 6013SOL    HW118938   6.425   1.029   2.341
 6013SOL    HW218939   6.356   0.883   2.313
 6014SOL     OW18940   6.258   1.307   0.883
 6014SOL    HW118941   6.286   1.234   0.821
 6014SOL    HW218942   6.339   1.349   0.924
 6015SOL     OW18943   5.857   2.278   4.574
 6015SOL    HW118944   5.892   2.250   4.485
 6015SOL    HW218945   5.791   2.209   4.606
 6016SOL     OW18946   0.649   0.502   5.207
 6016SOL    HW118947   0.714   0.453   5.264
 6016SOL    HW218948   0.575   0.440   5.179
 6017SOL     OW18949   6.017   5.043   3.476
 6017SOL    HW118950   6.076   5.064   3.397
 6017SOL    HW218951   6.073   5.009   3.551
 6018SOL     OW18952   2.913   3.503   0.445
 6018SOL    HW118953   3.001   3.461   0.420
 6018SOL    HW218954   2.846   3.431   0.463
 6019SOL     OW18955   4.437   1.304   3.992
 6019SOL    HW118956   4.367   1.244   4.030
 6019SOL    HW218957   4.527   1.280   4.030
 6020SOL     OW18958   3.481   0.618   2.549
 6020SOL    HW118959   3.516   0.594   2.639
 6020SOL    HW218960   3.381   0.611   2.549
 6021SOL     OW18961   4.720   1.215   2.751
 6021SOL    HW118962   4.788   1.174   2.812
 6021SOL    HW218963   4.649   1.260   2.807
 6022SOL     OW18964   4.794   1.168   3.142
 6022SOL    HW118965   4.858   1.120   3.202
 6022SOL    HW218966   4.710   1.188   3.192
 6023SOL     OW18967   0.170   1.234   3.229
 6023SOL    HW118968   0.245   1.237   3.295
 6023SOL    HW218969   0.145   1.139   3.211
 6024SOL     OW18970   0.549   4.737   2.002
 6024SOL    HW118971   0.574   4.743   2.098
 6024SOL    HW218972   0.469   4.795   1.984
 6025SOL     OW18973   4.626   1.145   2.129
 6025SOL    HW118974   4.721   1.126   2.104
 6025SOL    HW218975   4.592   1.070   2.186
 6026SOL     OW18976   6.977   4.738   5.005
 6026SOL    HW118977   6.973   4.838   5.011
 6026SOL    HW218978   0.049   4.709   5.003
 6027SOL     OW18979   2.374   3.738   6.348
 6027SOL    HW118980   2.447   3.707   6.408
 6027SOL    HW218981   2.339   3.660   6.296
 6028SOL     OW18982   1.661   4.414   0.453
 6028SOL    HW118983   1.619   4.429   0.364
 6028SOL    HW218984   1.635   4.487   0.516
 6029SOL     OW18985   1.620   6.139   0.525
 6029SOL    HW118986   1.617   6.102   0.432
 6029SOL    HW218987   1.639   6.237   0.520
 6030SOL     OW18988   2.246   0.978   2.033
 6030SOL    HW118989   2.249   0.896   1.976
 6030SOL    HW218990   2.230   1.058   1.976
 6031SOL     OW18991   5.059   6.897   6.116
 6031SOL    HW118992   5.075   6.930   6.209
 6031SOL    HW218993   5.146   6.871   6.075
 6032SOL     OW18994   1.568   3.816   2.568
 6032SOL    HW118995   1.601   3.765   2.489
 6032SOL    HW218996   1.573   3.914   2.550
 6033SOL     OW18997   2.092   2.019   3.274
 6033SOL    HW118998   2.118   2.111   3.245
 6033SOL    HW218999   2.017   2.024   3.341
 6034SOL     OW19000   2.412   4.440   4.746
 6034SOL    HW119001   2.467   4.507   4.795
 6034SOL    HW219002   2.343   4.402   4.808
 6035SOL     OW19003   4.772   0.750   4.235
 6035SOL    HW119004   4.731   0.677   4.180
 6035SOL    HW219005   4.744   0.740   4.330
 6036SOL     OW19006   0.210   0.100   4.936
 6036SOL    HW119007   0.203   0.025   4.871
 6036SOL    HW219008   0.259   0.177   4.893
 6037SOL     OW19009   4.513   4.923   5.841
 6037SOL    HW119010   4.557   4.845   5.886
 6037SOL    HW219011   4.495   4.994   5.908
 6038SOL     OW19012   6.938   3.421   6.076
 6038SOL    HW119013   6.990   3.470   6.005
 6038SOL    HW219014   6.840   3.433   6.060
 6039SOL     OW19015   3.345   3.576   2.297
 6039SOL    HW119016   3.311   3.669   2.280
 6039SOL    HW219017   3.441   3.580   2.324
 6040SOL     OW19018   0.613   1.780   6.276
 6040SOL    HW119019   0.625   1.714   6.201
 6040SOL    HW219020   0.516   1.785   6.300
 6041SOL     OW19021   0.970   1.571   0.011
 6041SOL    HW119022   0.987   1.534   0.102
 6041SOL    HW219023   1.007   1.664   0.004
 6042SOL     OW19024   5.307   4.926   2.215
 6042SOL    HW119025   5.274   4.837   2.245
 6042SOL    HW219026   5.387   4.915   2.157
 6043SOL     OW19027   1.239   5.018   4.552
 6043SOL    HW119028   1.179   5.023   4.632
 6043SOL    HW219029   1.333   5.038   4.579
 6044SOL     OW19030   0.384   1.296   1.087
 6044SOL    HW119031   0.438   1.220   1.122
 6044SOL    HW219032   0.377   1.367   1.157
 6045SOL     OW19033   5.569   5.274   0.862
 6045SOL    HW119034   5.525   5.223   0.787
 6045SOL    HW219035   5.666   5.250   0.866
 6046SOL     OW19036   2.641   2.154   0.180
 6046SOL    HW119037   2.723   2.210   0.186
 6046SOL    HW219038   2.581   2.189   0.108
 6047SOL     OW19039   6.054   0.603   4.226
 6047SOL    HW119040   6.002   0.608   4.311
 6047SOL    HW219041   6.128   0.536   4.236
 6048SOL     OW19042   3.824   0.659   3.838
 6048SOL    HW119043   3.869   0.656   3.927
 6048SOL    HW219044   3.880   0.612   3.770
 6049SOL     OW19045   4.576   3.851   6.326
 6049SOL    HW119046   4.516   3.807   6.393
 6049SOL    HW219047   4.645   3.786   6.295
 6050SOL     OW19048   3.720   4.565   5.913
 6050SOL    HW119049   3.736   4.475   5.875
 6050SOL    HW219050   3.808   4.609   5.935
 6051SOL     OW19051   2.620   2.411   2.500
 6051SOL    HW119052   2.561   2.346   2.453
 6051SOL    HW219053   2.647   2.484   2.437
 6052SOL     OW19054   0.202   1.460   0.194
 6052SOL    HW119055   0.273   1.407   0.146
 6052SOL    HW219056   0.233   1.554   0.205
 6053SOL     OW19057   3.293   0.527   6.861
 6053SOL    HW119058   3.322   0.437   6.894
 6053SOL    HW219059   3.354   0.557   6.787
 6054SOL     OW19060   1.448   5.057   0.829
 6054SOL    HW119061   1.375   5.125   0.839
 6054SOL    HW219062   1.477   5.053   0.734
 6055SOL     OW19063   4.744   1.060   5.520
 6055SOL    HW119064   4.741   1.062   5.620
 6055SOL    HW219065   4.745   0.965   5.489
 6056SOL     OW19066   4.043   1.256   6.090
 6056SOL    HW119067   3.971   1.186   6.082
 6056SOL    HW219068   4.118   1.233   6.028
 6057SOL     OW19069   4.008   1.357   5.319
 6057SOL    HW119070   4.019   1.274   5.264
 6057SOL    HW219071   3.919   1.398   5.300
 6058SOL     OW19072   5.297   3.080   4.370
 6058SOL    HW119073   5.265   3.062   4.277
 6058SOL    HW219074   5.295   2.995   4.424
 6059SOL     OW19075   4.698   4.930   6.215
 6059SOL    HW119076   4.782   4.964   6.256
 6059SOL    HW219077   4.633   4.906   6.287
 6060SOL     OW19078   4.204   4.813   5.980
 6060SOL    HW119079   4.170   4.830   6.072
 6060SOL    HW219080   4.241   4.899   5.942
 6061SOL     OW19081   3.336   2.030   6.950
 6061SOL    HW119082   3.287   2.025   0.013
 6061SOL    HW219083   3.279   2.076   6.882
 6062SOL     OW19084   1.949   1.301   4.753
 6062SOL    HW119085   1.929   1.276   4.658
 6062SOL    HW219086   2.011   1.380   4.754
 6063SOL     OW19087   4.125   0.620   6.705
 6063SOL    HW119088   4.028   0.603   6.720
 6063SOL    HW219089   4.138   0.670   6.620
 6064SOL     OW19090   1.427   5.832   3.081
 6064SOL    HW119091   1.417   5.912   3.022
 6064SOL    HW219092   1.363   5.761   3.051
 6065SOL     OW19093   5.929   0.007   1.154
 6065SOL    HW119094   5.954   6.997   1.064
 6065SOL    HW219095   6.007   0.000   1.216
 6066SOL     OW19096   4.457   1.874   1.324
 6066SOL    HW119097   4.386   1.942   1.305
 6066SOL    HW219098   4.456   1.803   1.253
 6067SOL     OW19099   6.413   1.432   5.816
 6067SOL    HW119100   6.478   1.481   5.875
 6067SOL    HW219101   6.348   1.382   5.873
 6068SOL     OW19102   4.869   3.044   5.071
 6068SOL    HW119103   4.818   3.082   5.148
 6068SOL    HW219104   4.945   2.988   5.106
 6069SOL     OW19105   0.151   4.163   5.483
 6069SOL    HW119106   0.126   4.148   5.579
 6069SOL    HW219107   0.244   4.131   5.466
 6070SOL     OW19108   4.320   2.195   6.363
 6070SOL    HW119109   4.262   2.113   6.364
 6070SOL    HW219110   4.279   2.265   6.306
 6071SOL     OW19111   4.294   6.126   5.443
 6071SOL    HW119112   4.204   6.153   5.477
 6071SOL    HW219113   4.285   6.048   5.381
 6072SOL     OW19114   1.316   2.124   1.668
 6072SOL    HW119115   1.253   2.048   1.657
 6072SOL    HW219116   1.323   2.175   1.582
 6073SOL     OW19117   6.478   3.189   0.255
 6073SOL    HW119118   6.405   3.213   0.191
 6073SOL    HW219119   6.516   3.099   0.230
 6074SOL     OW19120   1.016   6.444   4.327
 6074SOL    HW119121   1.099   6.480   4.369
 6074SOL    HW219122   0.958   6.521   4.298
 6075SOL     OW19123   6.213   3.493   0.062
 6075SOL    HW119124   6.184   3.399   0.050
 6075SOL    HW219125   6.133   3.553   0.063
 6076SOL     OW19126   2.123   6.801   4.366
 6076SOL    HW119127   2.183   6.760   4.297
 6076SOL    HW219128   2.142   6.899   4.372
 6077SOL     OW19129   5.946   5.669   2.388
 6077SOL    HW119130   5.938   5.703   2.481
 6077SOL    HW219131   6.043   5.667   2.361
 6078SOL     OW19132   2.998   5.115   3.833
 6078SOL    HW119133   3.053   5.111   3.916
 6078SOL    HW219134   3.038   5.180   3.769
 6079SOL     OW19135   2.581   2.949   0.120
 6079SOL    HW119136   2.485   2.979   0.113
 6079SOL    HW219137   2.586   2.850   0.107
 6080SOL     OW19138   6.239   2.154   1.281
 6080SOL    HW119139   6.329   2.113   1.270
 6080SOL    HW219140   6.171   2.082   1.293
 6081SOL     OW19141   6.369   3.468   3.840
 6081SOL    HW119142   6.313   3.511   3.769
 6081SOL    HW219143   6.310   3.428   3.910
 6082SOL     OW19144   4.278   0.605   2.861
 6082SOL    HW119145   4.285   0.684   2.800
 6082SOL    HW219146   4.188   0.605   2.904
 6083SOL     OW19147   0.916   5.665   6.761
 6083SOL    HW119148   0.856   5.739   6.792
 6083SOL    HW219149   0.969   5.631   6.839
 6084SOL     OW19150   6.219   5.403   4.786
 6084SOL    HW119151   6.280   5.445   4.853
 6084SOL    HW219152   6.168   5.328   4.829
 6085SOL     OW19153   6.950   3.353   0.137
 6085SOL    HW119154   6.913   3.428   0.193
 6085SOL    HW219155   6.899   3.347   0.051
 6086SOL     OW19156   4.337   1.352   4.530
 6086SOL    HW119157   4.410   1.414   4.501
 6086SOL    HW219158   4.298   1.384   4.616
 6087SOL     OW19159   5.505   0.064   6.785
 6087SOL    HW119160   5.603   0.060   6.805
 6087SOL    HW219161   5.455   0.084   6.869
 6088SOL     OW19162   0.533   6.891   4.960
 6088SOL    HW119163   0.436   6.893   4.982
 6088SOL    HW219164   0.561   6.797   4.938
 6089SOL     OW19165   0.780   3.833   1.000
 6089SOL    HW119166   0.718   3.769   1.045
 6089SOL    HW219167   0.873   3.819   1.034
 6090SOL     OW19168   0.719   5.926   5.835
 6090SOL    HW119169   0.767   5.853   5.884
 6090SOL    HW219170   0.679   5.888   5.752
 6091SOL     OW19171   6.883   1.615   2.012
 6091SOL    HW119172   6.956   1.627   2.079
 6091SOL    HW219173   6.796   1.644   2.052
 6092SOL     OW19174   2.392   0.974   2.380
 6092SOL    HW119175   2.432   0.883   2.383
 6092SOL    HW219176   2.295   0.969   2.402
 6093SOL     OW19177   1.633   3.267   1.200
 6093SOL    HW119178   1.606   3.171   1.191
 6093SOL    HW219179   1.731   3.276   1.184
 6094SOL     OW19180   1.805   1.429   1.259
 6094SOL    HW119181   1.750   1.513   1.261
 6094SOL    HW219182   1.765   1.365   1.194
 6095SOL     OW19183   5.436   3.140   6.791
 6095SOL    HW119184   5.495   3.093   6.725
 6095SOL    HW219185   5.366   3.076   6.823
 6096SOL     OW19186   4.601   1.171   4.287
 6096SOL    HW119187   4.597   1.173   4.387
 6096SOL    HW219188   4.523   1.119   4.251
 6097SOL     OW19189   2.389   0.608   2.596
 6097SOL    HW119190   2.436   0.693   2.620
 6097SOL    HW219191   2.395   0.593   2.497
 6098SOL     OW19192   2.386   2.534   5.898
 6098SOL    HW119193   2.304   2.542   5.954
 6098SOL    HW219194   2.393   2.614   5.838
 6099SOL     OW19195   5.863   5.753   5.327
 6099SOL    HW119196   5.858   5.837   5.382
 6099SOL    HW219197   5.866   5.777   5.230
 6100SOL     OW19198   6.556   2.888   6.939
 6100SOL    HW119199   6.518   2.800   6.910
 6100SOL    HW219200   6.501   2.924   7.014
 6101SOL     OW19201   0.079   2.139   5.456
 6101SOL    HW119202   7.013   2.118   5.419
 6101SOL    HW219203   0.121   2.056   5.493
 6102SOL     OW19204   3.129   0.680   5.063
 6102SOL    HW119205   3.103   0.584   5.078
 6102SOL    HW219206   3.136   0.698   4.965
 6103SOL     OW19207   0.114   0.711   4.049
 6103SOL    HW119208   0.181   0.725   4.121
 6103SOL    HW219209   0.142   0.634   3.991
 6104SOL     OW19210   5.769   1.979   6.914
 6104SOL    HW119211   5.842   2.041   6.944
 6104SOL    HW219212   5.810   1.891   6.888
 6105SOL     OW19213   3.600   5.913   6.166
 6105SOL    HW119214   3.581   6.010   6.148
 6105SOL    HW219215   3.672   5.905   6.234
 6106SOL     OW19216   2.987   5.358   6.849
 6106SOL    HW119217   2.930   5.440   6.847
 6106SOL    HW219218   3.051   5.360   6.772
 6107SOL     OW19219   2.064   4.886   4.730
 6107SOL    HW119220   2.152   4.875   4.776
 6107SOL    HW219221   2.064   4.835   4.644
 6108SOL     OW19222   0.925   2.408   4.264
 6108SOL    HW119223   0.920   2.404   4.363
 6108SOL    HW219224   0.999   2.469   4.236
 6109SOL     OW19225   5.672   2.972   0.372
 6109SOL    HW119226   5.654   2.877   0.348
 6109SOL    HW219227   5.629   2.993   0.460
 6110SOL     OW19228   3.007   1.929   5.749
 6110SOL    HW119229   2.952   1.870   5.808
 6110SOL    HW219230   3.008   2.022   5.786
 6111SOL     OW19231   0.923   4.601   2.914
 6111SOL    HW119232   0.959   4.617   3.005
 6111SOL    HW219233   0.834   4.556   2.920
 6112SOL     OW19234   1.671   1.707   3.101
 6112SOL    HW119235   1.614   1.761   3.040
 6112SOL    HW219236   1.766   1.711   3.070
 6113SOL     OW19237   1.460   0.973   6.063
 6113SOL    HW119238   1.547   1.016   6.037
 6113SOL    HW219239   1.384   1.025   6.023
 6114SOL     OW19240   5.128   5.787   0.407
 6114SOL    HW119241   5.154   5.876   0.446
 6114SOL    HW219242   5.158   5.782   0.312
 6115SOL     OW19243   4.937   5.252   2.789
 6115SOL    HW119244   4.866   5.204   2.840
 6115SOL    HW219245   4.899   5.290   2.705
 6116SOL     OW19246   3.321   0.968   1.710
 6116SOL    HW119247   3.261   1.045   1.687
 6116SOL    HW219248   3.357   0.928   1.627
 6117SOL     OW19249   6.285   6.770   4.265
 6117SOL    HW119250   6.283   6.856   4.316
 6117SOL    HW219251   6.205   6.715   4.289
 6118SOL     OW19252   6.263   1.485   3.292
 6118SOL    HW119253   6.227   1.405   3.340
 6118SOL    HW219254   6.329   1.456   3.223
 6119SOL     OW19255   0.181   5.358   4.855
 6119SOL    HW119256   0.133   5.347   4.942
 6119SOL    HW219257   0.126   5.318   4.782
 6120SOL     OW19258   3.433   0.054   3.233
 6120SOL    HW119259   3.513   0.063   3.174
 6120SOL    HW219260   3.451   7.010   3.304
 6121SOL     OW19261   0.252   2.444   3.369
 6121SOL    HW119262   0.320   2.477   3.435
 6121SOL    HW219263   0.229   2.519   3.306
 6122SOL     OW19264   3.838   5.856   3.211
 6122SOL    HW119265   3.784   5.815   3.284
 6122SOL    HW219266   3.809   5.950   3.196
 6123SOL     OW19267   0.003   1.042   1.511
 6123SOL    HW119268   6.944   1.003   1.470
 6123SOL    HW219269   0.032   1.122   1.458
 6124SOL     OW19270   3.397   0.271   5.476
 6124SOL    HW119271   3.404   0.288   5.377
 6124SOL    HW219272   3.489   0.268   5.516
 6125SOL     OW19273   1.843   5.979   1.778
 6125SOL    HW119274   1.843   5.926   1.863
 6125SOL    HW219275   1.901   5.932   1.710
 6126SOL     OW19276   4.738   4.797   3.338
 6126SOL    HW119277   4.768   4.759   3.425
 6126SOL    HW219278   4.738   4.725   3.268
 6127SOL     OW19279   2.052   6.260   1.250
 6127SOL    HW119280   2.115   6.211   1.311
 6127SOL    HW219281   2.069   6.358   1.256
 6128SOL     OW19282   0.356   2.973   0.580
 6128SOL    HW119283   0.319   3.063   0.603
 6128SOL    HW219284   0.456   2.977   0.578
 6129SOL     OW19285   6.160   3.580   2.719
 6129SOL    HW119286   6.124   3.538   2.636
 6129SOL    HW219287   6.124   3.532   2.799
 6130SOL     OW19288   5.332   2.808   3.646
 6130SOL    HW119289   5.318   2.860   3.562
 6130SOL    HW219290   5.315   2.711   3.628
 6131SOL     OW19291   6.741   1.203   6.076
 6131SOL    HW119292   6.708   1.285   6.122
 6131SOL    HW219293   6.785   1.228   5.990
 6132SOL     OW19294   3.771   2.695   0.357
 6132SOL    HW119295   3.780   2.772   0.295
 6132SOL    HW219296   3.675   2.666   0.362
 6133SOL     OW19297   0.500   3.545   1.582
 6133SOL    HW119298   0.402   3.554   1.561
 6133SOL    HW219299   0.536   3.633   1.611
 6134SOL     OW19300   3.228   3.735   6.629
 6134SOL    HW119301   3.185   3.811   6.581
 6134SOL    HW219302   3.184   3.649   6.600
 6135SOL     OW19303   6.502   6.983   1.158
 6135SOL    HW119304   6.584   7.014   1.111
 6135SOL    HW219305   6.428   6.969   1.092
 6136SOL     OW19306   1.020   1.771   2.322
 6136SOL    HW119307   1.034   1.787   2.224
 6136SOL    HW219308   1.100   1.724   2.359
 6137SOL     OW19309   3.294   6.563   5.837
 6137SOL    HW119310   3.237   6.548   5.918
 6137SOL    HW219311   3.326   6.475   5.802
 6138SOL     OW19312   3.833   6.847   2.451
 6138SOL    HW119313   3.847   6.875   2.546
 6138SOL    HW219314   3.819   6.748   2.447
 6139SOL     OW19315   1.555   4.366   5.166
 6139SOL    HW119316   1.465   4.363   5.123
 6139SOL    HW219317   1.603   4.280   5.150
 6140SOL     OW19318   1.115   0.384   1.899
 6140SOL    HW119319   1.086   0.478   1.916
 6140SOL    HW219320   1.188   0.359   1.963
 6141SOL     OW19321   6.878   5.304   5.756
 6141SOL    HW119322   6.806   5.349   5.808
 6141SOL    HW219323   6.967   5.345   5.779
 6142SOL     OW19324   6.805   3.742   0.614
 6142SOL    HW119325   6.893   3.710   0.650
 6142SOL    HW219326   6.734   3.674   0.634
 6143SOL     OW19327   6.004   5.296   6.414
 6143SOL    HW119328   5.981   5.373   6.474
 6143SOL    HW219329   5.966   5.311   6.323
 6144SOL     OW19330   0.000   4.134   3.369
 6144SOL    HW119331   0.057   4.143   3.287
 6144SOL    HW219332   7.017   4.037   3.394
 6145SOL     OW19333   5.250   5.412   3.004
 6145SOL    HW119334   5.154   5.435   3.020
 6145SOL    HW219335   5.263   5.385   2.909
 6146SOL     OW19336   5.057   1.337   3.113
 6146SOL    HW119337   5.143   1.300   3.146
 6146SOL    HW219338   5.044   1.430   3.149
 6147SOL     OW19339   2.182   4.368   2.957
 6147SOL    HW119340   2.243   4.402   2.886
 6147SOL    HW219341   2.236   4.335   3.035
 6148SOL     OW19342   5.880   6.362   4.643
 6148SOL    HW119343   5.843   6.455   4.645
 6148SOL    HW219344   5.925   6.346   4.555
 6149SOL     OW19345   3.316   4.991   3.064
 6149SOL    HW119346   3.392   4.942   3.106
 6149SOL    HW219347   3.235   4.984   3.122
 6150SOL     OW19348   4.755   6.084   6.456
 6150SOL    HW119349   4.679   6.128   6.409
 6150SOL    HW219350   4.720   6.034   6.536
 6151SOL     OW19351   4.665   2.442   5.521
 6151SOL    HW119352   4.616   2.354   5.525
 6151SOL    HW219353   4.630   2.497   5.446
 6152SOL     OW19354   5.590   4.545   6.519
 6152SOL    HW119355   5.654   4.594   6.460
 6152SOL    HW219356   5.630   4.536   6.610
 6153SOL     OW19357   4.458   4.027   1.333
 6153SOL    HW119358   4.490   4.061   1.245
 6153SOL    HW219359   4.489   3.932   1.346
 6154SOL     OW19360   6.096   2.049   2.505
 6154SOL    HW119361   6.021   1.983   2.502
 6154SOL    HW219362   6.177   2.005   2.544
 6155SOL     OW19363   0.379   3.580   4.382
 6155SOL    HW119364   0.325   3.527   4.316
 6155SOL    HW219365   0.454   3.524   4.416
 6156SOL     OW19366   5.652   6.497   3.158
 6156SOL    HW119367   5.655   6.433   3.082
 6156SOL    HW219368   5.669   6.590   3.124
 6157SOL     OW19369   1.679   1.933   3.734
 6157SOL    HW119370   1.741   2.010   3.724
 6157SOL    HW219371   1.720   1.851   3.694
 6158SOL     OW19372   4.479   0.655   6.711
 6158SOL    HW119373   4.433   0.735   6.747
 6158SOL    HW219374   4.452   0.640   6.616
 6159SOL     OW19375   5.427   2.272   0.180
 6159SOL    HW119376   5.418   2.255   0.279
 6159SOL    HW219377   5.442   2.370   0.165
 6160SOL     OW19378   5.564   5.741   1.084
 6160SOL    HW119379   5.592   5.833   1.059
 6160SOL    HW219380   5.582   5.679   1.007
 6161SOL     OW19381   5.839   0.800   5.741
 6161SOL    HW119382   5.774   0.760   5.677
 6161SOL    HW219383   5.826   0.760   5.831
 6162SOL     OW19384   1.042   5.422   4.661
 6162SOL    HW119385   0.983   5.503   4.650
 6162SOL    HW219386   1.077   5.395   4.571
 6163SOL     OW19387   5.767   4.167   0.590
 6163SOL    HW119388   5.762   4.180   0.491
 6163SOL    HW219389   5.768   4.257   0.635
 6164SOL     OW19390   3.040   1.188   0.923
 6164SOL    HW119391   2.984   1.196   0.841
 6164SOL    HW219392   3.134   1.216   0.902
 6165SOL     OW19393   4.230   6.140   0.317
 6165SOL    HW119394   4.290   6.157   0.395
 6165SOL    HW219395   4.135   6.144   0.347
 6166SOL     OW19396   2.803   1.764   5.871
 6166SOL    HW119397   2.739   1.708   5.818
 6166SOL    HW219398   2.768   1.775   5.964
 6167SOL     OW19399   0.457   4.402   2.821
 6167SOL    HW119400   0.364   4.437   2.812
 6167SOL    HW219401   0.455   4.302   2.823
 6168SOL     OW19402   0.217   3.984   1.952
 6168SOL    HW119403   0.260   3.894   1.951
 6168SOL    HW219404   0.287   4.054   1.940
 6169SOL     OW19405   2.340   4.166   2.030
 6169SOL    HW119406   2.339   4.152   1.930
 6169SOL    HW219407   2.415   4.113   2.070
 6170SOL     OW19408   0.043   3.343   5.364
 6170SOL    HW119409   0.117   3.341   5.432
 6170SOL    HW219410   0.074   3.391   5.282
 6171SOL     OW19411   0.579   0.721   0.395
 6171SOL    HW119412   0.492   0.704   0.442
 6171SOL    HW219413   0.590   0.654   0.321
 6172SOL     OW19414   0.746   2.538   2.698
 6172SOL    HW119415   0.820   2.482   2.735
 6172SOL    HW219416   0.742   2.625   2.748
 6173SOL     OW19417   6.521   6.736   3.054
 6173SOL    HW119418   6.471   6.687   2.983
 6173SOL    HW219419   6.611   6.764   3.019
 6174SOL     OW19420   5.510   4.221   2.308
 6174SOL    HW119421   5.537   4.316   2.324
 6174SOL    HW219422   5.411   4.213   2.322
 6175SOL     OW19423   2.465   1.357   5.281
 6175SOL    HW119424   2.518   1.349   5.196
 6175SOL    HW219425   2.527   1.379   5.356
 6176SOL     OW19426   4.192   4.341   5.430
 6176SOL    HW119427   4.170   4.407   5.358
 6176SOL    HW219428   4.255   4.272   5.394
 6177SOL     OW19429   5.489   1.182   1.570
 6177SOL    HW119430   5.485   1.269   1.521
 6177SOL    HW219431   5.410   1.174   1.631
 6178SOL     OW19432   5.481   4.074   2.032
 6178SOL    HW119433   5.459   4.005   1.963
 6178SOL    HW219434   5.398   4.099   2.081
 6179SOL     OW19435   6.548   5.104   2.143
 6179SOL    HW119436   6.547   5.083   2.241
 6179SOL    HW219437   6.507   5.193   2.127
 6180SOL     OW19438   2.642   4.933   0.472
 6180SOL    HW119439   2.663   4.852   0.527
 6180SOL    HW219440   2.727   4.972   0.436
 6181SOL     OW19441   4.804   5.279   6.632
 6181SOL    HW119442   4.728   5.303   6.572
 6181SOL    HW219443   4.885   5.259   6.577
 6182SOL     OW19444   3.143   3.371   0.318
 6182SOL    HW119445   3.235   3.379   0.278
 6182SOL    HW219446   3.086   3.316   0.257
 6183SOL     OW19447   0.972   1.947   1.136
 6183SOL    HW119448   0.943   1.851   1.128
 6183SOL    HW219449   0.922   2.002   1.070
 6184SOL     OW19450   2.843   0.945   6.110
 6184SOL    HW119451   2.929   0.977   6.072
 6184SOL    HW219452   2.845   0.845   6.118
 6185SOL     OW19453   3.508   2.825   5.138
 6185SOL    HW119454   3.475   2.860   5.050
 6185SOL    HW219455   3.433   2.781   5.187
 6186SOL     OW19456   6.224   1.945   1.924
 6186SOL    HW119457   6.192   1.851   1.919
 6186SOL    HW219458   6.245   1.978   1.832
 6187SOL     OW19459   5.218   2.482   5.433
 6187SOL    HW119460   5.302   2.493   5.380
 6187SOL    HW219461   5.165   2.567   5.429
 6188SOL     OW19462   1.805   2.130   4.805
 6188SOL    HW119463   1.726   2.129   4.744
 6188SOL    HW219464   1.869   2.058   4.777
 6189SOL     OW19465   4.982   6.278   2.062
 6189SOL    HW119466   4.980   6.367   2.017
 6189SOL    HW219467   4.893   6.258   2.101
 6190SOL     OW19468   6.364   2.176   5.145
 6190SOL    HW119469   6.352   2.275   5.136
 6190SOL    HW219470   6.434   2.145   5.081
 6191SOL     OW19471   2.933   3.621   6.536
 6191SOL    HW119472   2.877   3.700   6.562
 6191SOL    HW219473   2.902   3.540   6.585
 6192SOL     OW19474   2.665   1.944   0.549
 6192SOL    HW119475   2.694   2.031   0.588
 6192SOL    HW219476   2.594   1.960   0.480
 6193SOL     OW19477   5.036   5.670   0.641
 6193SOL    HW119478   5.060   5.704   0.550
 6193SOL    HW219479   4.937   5.673   0.653
 6194SOL     OW19480   6.574   0.940   6.481
 6194SOL    HW119481   6.628   0.983   6.554
 6194SOL    HW219482   6.631   0.929   6.400
 6195SOL     OW19483   6.269   6.900   5.348
 6195SOL    HW119484   6.280   6.993   5.385
 6195SOL    HW219485   6.309   6.896   5.256
 6196SOL     OW19486   5.408   3.550   2.728
 6196SOL    HW119487   5.414   3.631   2.671
 6196SOL    HW219488   5.500   3.525   2.760
 6197SOL     OW19489   2.767   5.392   2.325
 6197SOL    HW119490   2.776   5.463   2.394
 6197SOL    HW219491   2.671   5.364   2.317
 6198SOL     OW19492   5.836   6.360   6.908
 6198SOL    HW119493   5.925   6.355   6.863
 6198SOL    HW219494   5.838   6.306   6.992
 6199SOL     OW19495   1.145   0.210   0.803
 6199SOL    HW119496   1.235   0.198   0.760
 6199SOL    HW219497   1.083   0.139   0.769
 6200SOL     OW19498   2.469   2.207   2.393
 6200SOL    HW119499   2.437   2.154   2.472
 6200SOL    HW219500   2.498   2.146   2.320
 6201SOL     OW19501   6.698   3.163   3.823
 6201SOL    HW119502   6.643   3.241   3.853
 6201SOL    HW219503   6.765   3.141   3.893
 6202SOL     OW19504   6.205   1.260   3.025
 6202SOL    HW119505   6.177   1.231   2.933
 6202SOL    HW219506   6.130   1.309   3.069
 6203SOL     OW19507   6.671   5.371   1.766
 6203SOL    HW119508   6.590   5.314   1.764
 6203SOL    HW219509   6.646   5.465   1.742
 6204SOL     OW19510   1.651   6.991   5.218
 6204SOL    HW119511   1.565   0.009   5.246
 6204SOL    HW219512   1.722   0.036   5.211
 6205SOL     OW19513   4.872   3.924   2.133
 6205SOL    HW119514   4.965   3.935   2.100
 6205SOL    HW219515   4.860   3.975   2.218
 6206SOL     OW19516   5.271   2.022   4.307
 6206SOL    HW119517   5.222   2.106   4.285
 6206SOL    HW219518   5.305   2.027   4.402
 6207SOL     OW19519   1.986   5.769   4.477
 6207SOL    HW119520   2.007   5.762   4.575
 6207SOL    HW219521   1.940   5.685   4.447
 6208SOL     OW19522   3.559   2.699   5.831
 6208SOL    HW119523   3.626   2.679   5.902
 6208SOL    HW219524   3.598   2.763   5.765
 6209SOL     OW19525   4.043   4.178   1.261
 6209SOL    HW119526   3.975   4.127   1.208
 6209SOL    HW219527   4.101   4.115   1.312
 6210SOL     OW19528   4.812   2.675   3.565
 6210SOL    HW119529   4.718   2.640   3.562
 6210SOL    HW219530   4.872   2.610   3.519
 6211SOL     OW19531   4.651   5.282   5.007
 6211SOL    HW119532   4.557   5.312   4.992
 6211SOL    HW219533   4.714   5.345   4.963
 6212SOL     OW19534   3.927   5.278   6.233
 6212SOL    HW119535   4.018   5.253   6.198
 6212SOL    HW219536   3.865   5.201   6.221
 6213SOL     OW19537   4.362   5.902   0.407
 6213SOL    HW119538   4.349   5.982   0.348
 6213SOL    HW219539   4.436   5.845   0.370
 6214SOL     OW19540   6.221   5.906   5.311
 6214SOL    HW119541   6.138   5.898   5.256
 6214SOL    HW219542   6.291   5.955   5.260
 6215SOL     OW19543   5.066   2.449   6.332
 6215SOL    HW119544   5.158   2.485   6.313
 6215SOL    HW219545   5.055   2.360   6.289
 6216SOL     OW19546   4.782   2.746   3.181
 6216SOL    HW119547   4.696   2.697   3.166
 6216SOL    HW219548   4.851   2.682   3.216
 6217SOL     OW19549   1.117   4.386   2.328
 6217SOL    HW119550   1.205   4.339   2.337
 6217SOL    HW219551   1.061   4.339   2.260
 6218SOL     OW19552   4.513   6.762   0.379
 6218SOL    HW119553   4.413   6.767   0.369
 6218SOL    HW219554   4.555   6.839   0.333
 6219SOL     OW19555   1.221   1.159   5.383
 6219SOL    HW119556   1.220   1.100   5.302
 6219SOL    HW219557   1.212   1.103   5.465
 6220SOL     OW19558   4.016   0.847   0.879
 6220SOL    HW119559   3.971   0.908   0.814
 6220SOL    HW219560   4.052   0.901   0.956
 6221SOL     OW19561   6.366   6.238   6.362
 6221SOL    HW119562   6.269   6.249   6.339
 6221SOL    HW219563   6.388   6.296   6.440
 6222SOL     OW19564   6.406   1.465   2.666
 6222SOL    HW119565   6.472   1.446   2.738
 6222SOL    HW219566   6.433   1.418   2.583
 6223SOL     OW19567   0.493   5.302   3.900
 6223SOL    HW119568   0.428   5.330   3.971
 6223SOL    HW219569   0.448   5.302   3.811
 6224SOL     OW19570   4.304   1.858   6.467
 6224SOL    HW119571   4.237   1.915   6.513
 6224SOL    HW219572   4.381   1.914   6.436
 6225SOL     OW19573   3.901   6.838   6.459
 6225SOL    HW119574   3.957   6.848   6.541
 6225SOL    HW219575   3.956   6.861   6.378
 6226SOL     OW19576   0.919   1.651   4.153
 6226SOL    HW119577   0.970   1.628   4.236
 6226SOL    HW219578   0.938   1.581   4.083
 6227SOL     OW19579   3.231   3.858   5.175
 6227SOL    HW119580   3.261   3.788   5.110
 6227SOL    HW219581   3.183   3.931   5.125
 6228SOL     OW19582   1.916   2.741   4.016
 6228SOL    HW119583   1.846   2.703   3.956
 6228SOL    HW219584   1.984   2.671   4.037
 6229SOL     OW19585   0.410   3.820   4.160
 6229SOL    HW119586   0.372   3.736   4.198
 6229SOL    HW219587   0.420   3.812   4.061
 6230SOL     OW19588   0.475   0.779   1.901
 6230SOL    HW119589   0.468   0.756   1.804
 6230SOL    HW219590   0.462   0.878   1.912
 6231SOL     OW19591   6.567   4.692   0.226
 6231SOL    HW119592   6.651   4.640   0.244
 6231SOL    HW219593   6.564   4.773   0.285
 6232SOL     OW19594   5.178   1.239   0.023
 6232SOL    HW119595   5.104   1.184   0.062
 6232SOL    HW219596   5.226   1.287   0.096
 6233SOL     OW19597   0.104   3.681   1.112
 6233SOL    HW119598   0.141   3.646   1.026
 6233SOL    HW219599   0.128   3.778   1.121
 6234SOL     OW19600   6.263   7.016   4.387
 6234SOL    HW119601   6.356   7.021   4.422
 6234SOL    HW219602   6.209   0.068   4.423
 6235SOL     OW19603   6.717   0.830   2.378
 6235SOL    HW119604   6.755   0.738   2.380
 6235SOL    HW219605   6.623   0.828   2.413
 6236SOL     OW19606   0.478   4.416   0.861
 6236SOL    HW119607   0.566   4.377   0.886
 6236SOL    HW219608   0.444   4.472   0.937
 6237SOL     OW19609   3.413   0.830   1.492
 6237SOL    HW119610   3.368   0.746   1.463
 6237SOL    HW219611   3.508   0.811   1.517
 6238SOL     OW19612   2.373   6.548   4.562
 6238SOL    HW119613   2.308   6.605   4.612
 6238SOL    HW219614   2.445   6.517   4.623
 6239SOL     OW19615   4.750   0.811   3.434
 6239SOL    HW119616   4.809   0.762   3.497
 6239SOL    HW219617   4.689   0.871   3.485
 6240SOL     OW19618   3.839   2.982   4.417
 6240SOL    HW119619   3.839   2.883   4.435
 6240SOL    HW219620   3.864   2.998   4.321
 6241SOL     OW19621   2.955   6.703   3.748
 6241SOL    HW119622   2.926   6.652   3.667
 6241SOL    HW219623   2.887   6.773   3.770
 6242SOL     OW19624   3.274   1.609   3.773
 6242SOL    HW119625   3.327   1.688   3.743
 6242SOL    HW219626   3.211   1.637   3.845
 6243SOL     OW19627   5.466   1.480   6.074
 6243SOL    HW119628   5.425   1.523   5.993
 6243SOL    HW219629   5.540   1.538   6.108
 6244SOL     OW19630   4.448   4.572   2.619
 6244SOL    HW119631   4.398   4.571   2.533
 6244SOL    HW219632   4.537   4.528   2.607
 6245SOL     OW19633   0.700   4.425   2.245
 6245SOL    HW119634   0.609   4.421   2.202
 6245SOL    HW219635   0.706   4.355   2.316
 6246SOL     OW19636   0.399   6.714   4.364
 6246SOL    HW119637   0.454   6.783   4.315
 6246SOL    HW219638   0.405   6.627   4.316
 6247SOL     OW19639   6.592   5.535   3.388
 6247SOL    HW119640   6.544   5.581   3.463
 6247SOL    HW219641   6.681   5.578   3.374
 6248SOL     OW19642   3.322   3.192   6.828
 6248SOL    HW119643   3.248   3.248   6.865
 6248SOL    HW219644   3.342   3.118   6.892
 6249SOL     OW19645   6.423   2.763   1.005
 6249SOL    HW119646   6.501   2.820   0.983
 6249SOL    HW219647   6.340   2.800   0.963
 6250SOL     OW19648   0.097   0.734   0.613
 6250SOL    HW119649   0.060   0.706   0.525
 6250SOL    HW219650   0.056   0.678   0.685
 6251SOL     OW19651   3.043   6.646   4.489
 6251SOL    HW119652   3.063   6.742   4.510
 6251SOL    HW219653   3.124   6.603   4.450
 6252SOL     OW19654   2.655   5.797   0.082
 6252SOL    HW119655   2.596   5.788   0.162
 6252SOL    HW219656   2.603   5.777   7.023
 6253SOL     OW19657   3.265   4.828   5.030
 6253SOL    HW119658   3.178   4.814   5.077
 6253SOL    HW219659   3.298   4.742   4.993
 6254SOL     OW19660   7.010   6.100   0.740
 6254SOL    HW119661   6.916   6.132   0.755
 6254SOL    HW219662   7.022   6.075   0.644
 6255SOL     OW19663   0.296   1.800   1.231
 6255SOL    HW119664   0.323   1.768   1.140
 6255SOL    HW219665   0.372   1.786   1.294
 6256SOL     OW19666   4.628   5.487   2.667
 6256SOL    HW119667   4.576   5.412   2.708
 6256SOL    HW219668   4.664   5.546   2.739
 6257SOL     OW19669   4.203   4.017   1.410
 6257SOL    HW119670   4.289   4.040   1.365
 6257SOL    HW219671   4.211   4.032   1.508
 6258SOL     OW19672   4.759   6.230   5.718
 6258SOL    HW119673   4.754   6.289   5.799
 6258SOL    HW219674   4.817   6.151   5.738
 6259SOL     OW19675   2.449   0.178   5.058
 6259SOL    HW119676   2.514   0.111   5.020
 6259SOL    HW219677   2.450   0.261   5.002
 6260SOL     OW19678   2.102   1.172   0.585
 6260SOL    HW119679   2.144   1.192   0.496
 6260SOL    HW219680   2.139   1.233   0.654
 6261SOL     OW19681   3.691   5.960   1.575
 6261SOL    HW119682   3.690   6.013   1.660
 6261SOL    HW219683   3.599   5.923   1.558
 6262SOL     OW19684   6.936   6.744   2.082
 6262SOL    HW119685   6.902   6.734   1.988
 6262SOL    HW219686   6.967   6.655   2.116
 6263SOL     OW19687   6.516   6.279   5.471
 6263SOL    HW119688   6.504   6.238   5.381
 6263SOL    HW219689   6.465   6.227   5.539
 6264SOL     OW19690   0.990   0.088   1.033
 6264SOL    HW119691   1.087   0.075   1.056
 6264SOL    HW219692   0.983   0.145   0.951
 6265SOL     OW19693   4.807   2.107   0.046
 6265SOL    HW119694   4.719   2.136   0.082
 6265SOL    HW219695   4.795   2.067   6.979
 6266SOL     OW19696   2.805   5.751   3.755
 6266SOL    HW119697   2.724   5.777   3.702
 6266SOL    HW219698   2.884   5.744   3.694
 6267SOL     OW19699   1.202   6.871   4.903
 6267SOL    HW119700   1.195   6.970   4.915
 6267SOL    HW219701   1.212   6.827   4.992
 6268SOL     OW19702   3.221   0.550   1.797
 6268SOL    HW119703   3.297   0.492   1.825
 6268SOL    HW219704   3.226   0.637   1.846
 6269SOL     OW19705   5.734   5.612   1.308
 6269SOL    HW119706   5.643   5.599   1.346
 6269SOL    HW219707   5.733   5.589   1.211
 6270SOL     OW19708   1.650   6.096   0.238
 6270SOL    HW119709   1.573   6.130   0.183
 6270SOL    HW219710   1.736   6.133   0.200
 6271SOL     OW19711   6.040   3.426   6.691
 6271SOL    HW119712   6.022   3.476   6.606
 6271SOL    HW219713   6.107   3.353   6.673
 6272SOL     OW19714   6.461   0.359   0.626
 6272SOL    HW119715   6.454   0.367   0.725
 6272SOL    HW219716   6.430   0.443   0.583
 6273SOL     OW19717   0.025   0.235   1.532
 6273SOL    HW119718   6.953   0.262   1.520
 6273SOL    HW219719   0.030   0.155   1.591
 6274SOL     OW19720   3.930   5.798   5.089
 6274SOL    HW119721   3.877   5.820   5.171
 6274SOL    HW219722   3.947   5.699   5.086
 6275SOL     OW19723   1.537   5.410   6.921
 6275SOL    HW119724   1.614   5.464   6.955
 6275SOL    HW219725   1.551   5.313   6.943
 6276SOL     OW19726   2.029   5.634   2.852
 6276SOL    HW119727   2.077   5.550   2.877
 6276SOL    HW219728   2.046   5.704   2.921
 6277SOL     OW19729   5.483   2.655   1.341
 6277SOL    HW119730   5.477   2.574   1.282
 6277SOL    HW219731   5.438   2.732   1.296
 6278SOL     OW19732   2.937   6.981   6.147
 6278SOL    HW119733   2.854   6.945   6.189
 6278SOL    HW219734   2.978   0.025   6.206
 6279SOL     OW19735   3.051   0.075   1.995
 6279SOL    HW119736   2.955   0.096   1.976
 6279SOL    HW219737   3.089   0.023   1.918
 6280SOL     OW19738   6.637   1.823   6.602
 6280SOL    HW119739   6.708   1.806   6.670
 6280SOL    HW219740   6.671   1.887   6.533
 6281SOL     OW19741   6.197   4.278   5.274
 6281SOL    HW119742   6.178   4.341   5.198
 6281SOL    HW219743   6.115   4.268   5.330
 6282SOL     OW19744   0.527   3.520   5.841
 6282SOL    HW119745   0.614   3.473   5.828
 6282SOL    HW219746   0.452   3.462   5.808
 6283SOL     OW19747   0.880   6.298   5.358
 6283SOL    HW119748   0.963   6.250   5.330
 6283SOL    HW219749   0.896   6.343   5.446
 6284SOL     OW19750   2.197   4.918   6.469
 6284SOL    HW119751   2.279   4.864   6.451
 6284SOL    HW219752   2.127   4.859   6.509
 6285SOL     OW19753   1.010   3.388   3.500
 6285SOL    HW119754   1.094   3.422   3.456
 6285SOL    HW219755   1.035   3.332   3.579
 6286SOL     OW19756   0.676   3.273   5.092
 6286SOL    HW119757   0.644   3.335   5.021
 6286SOL    HW219758   0.678   3.180   5.057
 6287SOL     OW19759   4.547   4.842   5.104
 6287SOL    HW119760   4.501   4.836   5.016
 6287SOL    HW219761   4.604   4.924   5.106
 6288SOL     OW19762   3.682   3.159   6.703
 6288SOL    HW119763   3.659   3.063   6.691
 6288SOL    HW219764   3.781   3.171   6.693
 6289SOL     OW19765   2.699   4.705   5.865
 6289SOL    HW119766   2.675   4.685   5.959
 6289SOL    HW219767   2.755   4.631   5.828
 6290SOL     OW19768   5.132   5.588   5.166
 6290SOL    HW119769   5.159   5.589   5.070
 6290SOL    HW219770   5.168   5.670   5.211
 6291SOL     OW19771   3.133   3.149   2.833
 6291SOL    HW119772   3.155   3.083   2.905
 6291SOL    HW219773   3.216   3.198   2.806
 6292SOL     OW19774   1.877   3.317   4.812
 6292SOL    HW119775   1.838   3.314   4.905
 6292SOL    HW219776   1.866   3.227   4.769
 6293SOL     OW19777   4.194   0.817   6.523
 6293SOL    HW119778   4.125   0.834   6.453
 6293SOL    HW219779   4.262   0.891   6.522
 6294SOL     OW19780   2.238   1.554   3.753
 6294SOL    HW119781   2.217   1.532   3.849
 6294SOL    HW219782   2.318   1.501   3.725
 6295SOL     OW19783   5.711   3.935   5.356
 6295SOL    HW119784   5.618   3.925   5.319
 6295SOL    HW219785   5.730   4.032   5.371
 6296SOL     OW19786   0.435   2.504   6.525
 6296SOL    HW119787   0.357   2.496   6.463
 6296SOL    HW219788   0.506   2.438   6.499
 6297SOL     OW19789   6.000   0.574   3.944
 6297SOL    HW119790   6.037   0.577   4.037
 6297SOL    HW219791   5.901   0.583   3.948
 6298SOL     OW19792   6.047   5.089   0.498
 6298SOL    HW119793   5.969   5.091   0.561
 6298SOL    HW219794   6.013   5.087   0.404
 6299SOL     OW19795   4.964   2.053   2.837
 6299SOL    HW119796   5.040   2.080   2.896
 6299SOL    HW219797   4.898   2.128   2.830
 6300SOL     OW19798   3.082   0.015   5.781
 6300SOL    HW119799   3.166   6.997   5.815
 6300SOL    HW219800   3.103   0.071   5.701
 6301SOL     OW19801   3.235   6.447   0.701
 6301SOL    HW119802   3.247   6.534   0.748
 6301SOL    HW219803   3.260   6.372   0.762
 6302SOL     OW19804   2.553   1.076   5.684
 6302SOL    HW119805   2.500   1.062   5.768
 6302SOL    HW219806   2.650   1.060   5.703
 6303SOL     OW19807   1.241   5.779   5.817
 6303SOL    HW119808   1.194   5.839   5.752
 6303SOL    HW219809   1.216   5.684   5.798
 6304SOL     OW19810   3.944   1.184   3.239
 6304SOL    HW119811   3.896   1.160   3.323
 6304SOL    HW219812   3.997   1.267   3.253
 6305SOL     OW19813   0.701   6.397   6.055
 6305SOL    HW119814   0.722   6.305   6.023
 6305SOL    HW219815   0.780   6.456   6.041
 6306SOL     OW19816   6.893   4.613   3.868
 6306SOL    HW119817   6.912   4.526   3.912
 6306SOL    HW219818   6.854   4.597   3.777
 6307SOL     OW19819   4.100   3.297   3.210
 6307SOL    HW119820   4.054   3.208   3.212
 6307SOL    HW219821   4.110   3.326   3.114
 6308SOL     OW19822   0.558   2.823   6.901
 6308SOL    HW119823   0.502   2.825   6.983
 6308SOL    HW219824   0.507   2.778   6.827
 6309SOL     OW19825   1.829   5.806   4.193
 6309SOL    HW119826   1.810   5.825   4.290
 6309SOL    HW219827   1.921   5.768   4.184
 6310SOL     OW19828   1.748   6.386   3.159
 6310SOL    HW119829   1.837   6.431   3.161
 6310SOL    HW219830   1.689   6.432   3.092
 6311SOL     OW19831   5.061   0.988   6.422
 6311SOL    HW119832   5.109   1.053   6.481
 6311SOL    HW219833   5.061   1.021   6.328
 6312SOL     OW19834   3.196   6.667   7.015
 6312SOL    HW119835   3.222   6.716   0.074
 6312SOL    HW219836   3.136   6.591   0.014
 6313SOL     OW19837   5.761   6.289   3.305
 6313SOL    HW119838   5.684   6.230   3.328
 6313SOL    HW219839   5.730   6.363   3.246
 6314SOL     OW19840   2.028   6.771   1.856
 6314SOL    HW119841   2.117   6.799   1.891
 6314SOL    HW219842   2.004   6.827   1.776
 6315SOL     OW19843   2.335   2.807   3.982
 6315SOL    HW119844   2.282   2.891   3.984
 6315SOL    HW219845   2.392   2.801   4.063
 6316SOL     OW19846   5.698   1.531   4.666
 6316SOL    HW119847   5.719   1.489   4.754
 6316SOL    HW219848   5.600   1.552   4.662
 6317SOL     OW19849   4.841   4.841   1.928
 6317SOL    HW119850   4.753   4.870   1.891
 6317SOL    HW219851   4.907   4.831   1.854
 6318SOL     OW19852   6.418   0.120   5.670
 6318SOL    HW119853   6.418   0.185   5.747
 6318SOL    HW219854   6.332   0.128   5.620
 6319SOL     OW19855   5.699   1.939   4.306
 6319SOL    HW119856   5.712   2.038   4.303
 6319SOL    HW219857   5.678   1.911   4.400
 6320SOL     OW19858   6.451   1.278   4.440
 6320SOL    HW119859   6.484   1.308   4.530
 6320SOL    HW219860   6.352   1.287   4.436
 6321SOL     OW19861   5.636   2.235   0.455
 6321SOL    HW119862   5.600   2.158   0.402
 6321SOL    HW219863   5.571   2.311   0.450
 6322SOL     OW19864   1.565   0.729   1.521
 6322SOL    HW119865   1.576   0.679   1.607
 6322SOL    HW219866   1.611   0.817   1.527
 6323SOL     OW19867   2.859   3.258   1.560
 6323SOL    HW119868   2.827   3.243   1.466
 6323SOL    HW219869   2.943   3.313   1.557
 6324SOL     OW19870   4.350   1.516   0.915
 6324SOL    HW119871   4.253   1.501   0.896
 6324SOL    HW219872   4.404   1.449   0.864
 6325SOL     OW19873   1.820   2.459   3.371
 6325SOL    HW119874   1.796   2.551   3.339
 6325SOL    HW219875   1.917   2.456   3.395
 6326SOL     OW19876   5.322   4.746   6.251
 6326SOL    HW119877   5.403   4.769   6.198
 6326SOL    HW219878   5.340   4.664   6.306
 6327SOL     OW19879   7.001   0.323   3.391
 6327SOL    HW119880   7.013   0.227   3.365
 6327SOL    HW219881   6.963   0.328   3.484
 6328SOL     OW19882   4.335   3.700   5.835
 6328SOL    HW119883   4.428   3.727   5.812
 6328SOL    HW219884   4.293   3.656   5.756
 6329SOL     OW19885   1.676   3.151   5.468
 6329SOL    HW119886   1.690   3.077   5.402
 6329SOL    HW219887   1.658   3.112   5.559
 6330SOL     OW19888   5.418   0.834   3.297
 6330SOL    HW119889   5.423   0.887   3.213
 6330SOL    HW219890   5.486   0.867   3.362
 6331SOL     OW19891   0.086   3.301   2.420
 6331SOL    HW119892   0.170   3.259   2.454
 6331SOL    HW219893   0.059   3.256   2.335
 6332SOL     OW19894   2.728   1.386   1.005
 6332SOL    HW119895   2.809   1.361   1.059
 6332SOL    HW219896   2.646   1.357   1.053
 6333SOL     OW19897   4.590   1.398   0.417
 6333SOL    HW119898   4.501   1.393   0.371
 6333SOL    HW219899   4.579   1.442   0.506
 6334SOL     OW19900   2.057   0.968   1.699
 6334SOL    HW119901   2.088   1.063   1.708
 6334SOL    HW219902   1.967   0.958   1.741
 6335SOL     OW19903   6.229   1.598   0.860
 6335SOL    HW119904   6.309   1.639   0.815
 6335SOL    HW219905   6.226   1.500   0.840
 6336SOL     OW19906   0.884   3.179   6.080
 6336SOL    HW119907   0.855   3.123   6.003
 6336SOL    HW219908   0.983   3.170   6.092
 6337SOL     OW19909   4.562   5.819   5.134
 6337SOL    HW119910   4.558   5.811   5.035
 6337SOL    HW219911   4.596   5.733   5.173
 6338SOL     OW19912   2.930   1.869   4.096
 6338SOL    HW119913   2.981   1.948   4.062
 6338SOL    HW219914   2.867   1.836   4.026
 6339SOL     OW19915   1.364   4.495   3.406
 6339SOL    HW119916   1.341   4.398   3.411
 6339SOL    HW219917   1.282   4.549   3.428
 6340SOL     OW19918   2.185   4.288   1.608
 6340SOL    HW119919   2.197   4.316   1.513
 6340SOL    HW219920   2.135   4.359   1.658
 6341SOL     OW19921   1.129   4.674   3.445
 6341SOL    HW119922   1.090   4.746   3.387
 6341SOL    HW219923   1.062   4.648   3.515
 6342SOL     OW19924   1.945   1.637   1.922
 6342SOL    HW119925   2.025   1.665   1.974
 6342SOL    HW219926   1.885   1.716   1.909
 6343SOL     OW19927   2.258   6.154   1.444
 6343SOL    HW119928   2.265   6.054   1.444
 6343SOL    HW219929   2.288   6.189   1.533
 6344SOL     OW19930   6.767   1.479   3.618
 6344SOL    HW119931   6.686   1.432   3.582
 6344SOL    HW219932   6.785   1.560   3.561
 6345SOL     OW19933   5.903   3.670   1.516
 6345SOL    HW119934   5.883   3.620   1.431
 6345SOL    HW219935   5.849   3.753   1.519
 6346SOL     OW19936   0.086   4.436   5.496
 6346SOL    HW119937   0.055   4.350   5.455
 6346SOL    HW219938   0.075   4.431   5.596
 6347SOL     OW19939   2.246   1.820   2.823
 6347SOL    HW119940   2.182   1.850   2.893
 6347SOL    HW219941   2.233   1.722   2.806
 6348SOL     OW19942   6.872   2.350   5.582
 6348SOL    HW119943   6.875   2.278   5.513
 6348SOL    HW219944   6.921   2.320   5.664
 6349SOL     OW19945   6.954   1.114   6.964
 6349SOL    HW119946   0.007   1.084   7.021
 6349SOL    HW219947   6.979   1.106   6.868
 6350SOL     OW19948   1.655   4.811   1.797
 6350SOL    HW119949   1.630   4.830   1.702
 6350SOL    HW219950   1.589   4.854   1.858
 6351SOL     OW19951   5.595   3.126   2.069
 6351SOL    HW119952   5.532   3.177   2.128
 6351SOL    HW219953   5.600   3.171   1.980
 6352SOL     OW19954   2.437   0.381   4.892
 6352SOL    HW119955   2.433   0.381   4.792
 6352SOL    HW219956   2.436   0.475   4.925
 6353SOL     OW19957   3.431   6.431   6.550
 6353SOL    HW119958   3.391   6.493   6.619
 6353SOL    HW219959   3.380   6.440   6.464
 6354SOL     OW19960   4.441   4.894   2.418
 6354SOL    HW119961   4.403   4.954   2.347
 6354SOL    HW219962   4.396   4.805   2.415
 6355SOL     OW19963   2.864   4.758   0.766
 6355SOL    HW119964   2.854   4.680   0.828
 6355SOL    HW219965   2.901   4.836   0.816
 6356SOL     OW19966   5.903   3.764   6.388
 6356SOL    HW119967   5.885   3.804   6.478
 6356SOL    HW219968   5.885   3.832   6.317
 6357SOL     OW19969   5.397   1.364   1.371
 6357SOL    HW119970   5.305   1.326   1.364
 6357SOL    HW219971   5.403   1.422   1.452
 6358SOL     OW19972   1.359   2.517   6.913
 6358SOL    HW119973   1.350   2.616   6.910
 6358SOL    HW219974   1.413   2.486   6.834
 6359SOL     OW19975   6.101   6.075   0.373
 6359SOL    HW119976   6.080   6.126   0.456
 6359SOL    HW219977   6.165   6.001   0.395
 6360SOL     OW19978   0.976   2.534   2.105
 6360SOL    HW119979   1.000   2.439   2.126
 6360SOL    HW219980   1.044   2.595   2.144
 6361SOL     OW19981   0.395   0.763   0.015
 6361SOL    HW119982   0.463   0.697   0.047
 6361SOL    HW219983   0.304   0.722   0.021
 6362SOL     OW19984   0.934   5.333   0.032
 6362SOL    HW119985   0.932   5.432   0.016
 6362SOL    HW219986   0.866   5.309   0.101
 6363SOL     OW19987   2.751   5.202   3.773
 6363SOL    HW119988   2.834   5.151   3.792
 6363SOL    HW219989   2.677   5.169   3.832
 6364SOL     OW19990   2.435   2.643   4.933
 6364SOL    HW119991   2.386   2.561   4.903
 6364SOL    HW219992   2.393   2.724   4.893
 6365SOL     OW19993   6.155   5.328   3.650
 6365SOL    HW119994   6.081   5.311   3.715
 6365SOL    HW219995   6.118   5.337   3.558
 6366SOL     OW19996   5.825   6.947   4.743
 6366SOL    HW119997   5.737   6.982   4.712
 6366SOL    HW219998   5.887   6.936   4.665
 6367SOL     OW19999   2.462   1.955   2.947
 6367SOL    HW120000   2.371   1.929   2.913
 6367SOL    HW220001   2.454   1.995   3.038
 6368SOL     OW20002   5.142   3.231   4.798
 6368SOL    HW120003   5.183   3.255   4.886
 6368SOL    HW220004   5.043   3.223   4.809
 6369SOL     OW20005   2.843   6.064   6.302
 6369SOL    HW120006   2.842   5.980   6.249
 6369SOL    HW220007   2.786   6.133   6.257
 6370SOL     OW20008   5.426   3.572   3.885
 6370SOL    HW120009   5.432   3.577   3.785
 6370SOL    HW220010   5.331   3.562   3.913
 6371SOL     OW20011   5.393   3.814   1.922
 6371SOL    HW120012   5.313   3.814   1.861
 6371SOL    HW220013   5.476   3.809   1.867
 6372SOL     OW20014   6.982   1.253   3.071
 6372SOL    HW120015   0.041   1.242   3.125
 6372SOL    HW220016   6.902   1.239   3.130
 6373SOL     OW20017   5.320   3.841   1.404
 6373SOL    HW120018   5.235   3.840   1.456
 6373SOL    HW220019   5.378   3.917   1.435
 6374SOL     OW20020   4.892   2.873   0.171
 6374SOL    HW120021   4.922   2.780   0.150
 6374SOL    HW220022   4.801   2.870   0.213
 6375SOL     OW20023   6.576   2.637   1.847
 6375SOL    HW120024   6.606   2.589   1.764
 6375SOL    HW220025   6.649   2.636   1.914
 6376SOL     OW20026   3.291   0.766   6.407
 6376SOL    HW120027   3.249   0.759   6.316
 6376SOL    HW220028   3.343   0.851   6.414
 6377SOL     OW20029   6.749   0.708   0.535
 6377SOL    HW120030   6.752   0.650   0.616
 6377SOL    HW220031   6.659   0.751   0.529
 6378SOL     OW20032   5.687   5.597   3.100
 6378SOL    HW120033   5.712   5.607   3.004
 6378SOL    HW220034   5.621   5.522   3.109
 6379SOL     OW20035   2.912   6.134   0.337
 6379SOL    HW120036   2.960   6.049   0.315
 6379SOL    HW220037   2.968   6.212   0.309
 6380SOL     OW20038   1.241   3.620   5.117
 6380SOL    HW120039   1.179   3.597   5.042
 6380SOL    HW220040   1.225   3.557   5.193
 6381SOL     OW20041   4.663   2.673   0.266
 6381SOL    HW120042   4.573   2.714   0.282
 6381SOL    HW220043   4.664   2.629   0.176
 6382SOL     OW20044   1.960   1.720   1.336
 6382SOL    HW120045   2.040   1.778   1.351
 6382SOL    HW220046   1.990   1.628   1.310
 6383SOL     OW20047   2.105   2.333   2.426
 6383SOL    HW120048   2.076   2.428   2.438
 6383SOL    HW220049   2.100   2.309   2.329
 6384SOL     OW20050   6.209   2.729   1.937
 6384SOL    HW120051   6.164   2.661   1.880
 6384SOL    HW220052   6.284   2.771   1.886
 6385SOL     OW20053   0.069   2.879   1.012
 6385SOL    HW120054   0.133   2.853   1.085
 6385SOL    HW220055   0.023   2.797   0.979
 6386SOL     OW20056   2.313   3.427   0.182
 6386SOL    HW120057   2.375   3.455   0.255
 6386SOL    HW220058   2.364   3.379   0.110
 6387SOL     OW20059   6.833   0.331   6.844
 6387SOL    HW120060   6.796   0.328   6.937
 6387SOL    HW220061   6.842   0.238   6.809
 6388SOL     OW20062   6.229   5.463   2.444
 6388SOL    HW120063   6.147   5.419   2.407
 6388SOL    HW220064   6.242   5.551   2.399
 6389SOL     OW20065   1.317   0.776   6.681
 6389SOL    HW120066   1.316   0.876   6.672
 6389SOL    HW220067   1.352   0.736   6.598
 6390SOL     OW20068   6.705   1.430   6.237
 6390SOL    HW120069   6.663   1.414   6.327
 6390SOL    HW220070   6.781   1.494   6.247
 6391SOL     OW20071   1.051   1.503   5.120
 6391SOL    HW120072   1.094   1.554   5.045
 6391SOL    HW220073   1.108   1.509   5.202
 6392SOL     OW20074   4.265   6.354   3.570
 6392SOL    HW120075   4.320   6.309   3.500
 6392SOL    HW220076   4.220   6.285   3.626
 6393SOL     OW20077   6.913   5.685   1.187
 6393SOL    HW120078   6.971   5.620   1.139
 6393SOL    HW220079   6.855   5.637   1.252
 6394SOL     OW20080   1.258   5.696   1.278
 6394SOL    HW120081   1.271   5.792   1.303
 6394SOL    HW220082   1.343   5.646   1.294
 6395SOL     OW20083   1.901   4.491   3.453
 6395SOL    HW120084   1.809   4.498   3.491
 6395SOL    HW220085   1.942   4.403   3.480
 6396SOL     OW20086   0.644   3.274   0.130
 6396SOL    HW120087   0.666   3.216   0.052
 6396SOL    HW220088   0.572   3.231   0.185
 6397SOL     OW20089   5.921   2.522   3.796
 6397SOL    HW120090   5.852   2.453   3.821
 6397SOL    HW220091   5.967   2.495   3.712
 6398SOL     OW20092   1.619   0.090   1.008
 6398SOL    HW120093   1.690   0.140   0.957
 6398SOL    HW220094   1.566   0.034   0.944
 6399SOL     OW20095   2.462   0.665   6.172
 6399SOL    HW120096   2.445   0.657   6.270
 6399SOL    HW220097   2.525   0.741   6.155
 6400SOL     OW20098   1.240   5.683   2.977
 6400SOL    HW120099   1.209   5.657   2.886
 6400SOL    HW220100   1.230   5.605   3.039
 6401SOL     OW20101   3.710   6.012   3.550
 6401SOL    HW120102   3.633   6.020   3.613
 6401SOL    HW220103   3.710   5.922   3.507
 6402SOL     OW20104   2.094   4.840   5.144
 6402SOL    HW120105   1.995   4.845   5.136
 6402SOL    HW220106   2.128   4.760   5.095
 6403SOL     OW20107   4.615   5.775   4.845
 6403SOL    HW120108   4.547   5.809   4.780
 6403SOL    HW220109   4.689   5.729   4.795
 6404SOL     OW20110   4.112   0.473   2.102
 6404SOL    HW120111   4.019   0.502   2.124
 6404SOL    HW220112   4.119   0.374   2.108
 6405SOL     OW20113   5.322   1.407   2.265
 6405SOL    HW120114   5.227   1.385   2.246
 6405SOL    HW220115   5.337   1.505   2.248
 6406SOL     OW20116   1.151   2.309   2.529
 6406SOL    HW120117   1.213   2.295   2.453
 6406SOL    HW220118   1.056   2.300   2.497
 6407SOL     OW20119   1.795   6.112   2.743
 6407SOL    HW120120   1.815   6.197   2.693
 6407SOL    HW220121   1.824   6.123   2.838
 6408SOL     OW20122   6.577   0.765   0.833
 6408SOL    HW120123   6.546   0.673   0.857
 6408SOL    HW220124   6.677   0.769   0.837
 6409SOL     OW20125   6.348   4.642   3.494
 6409SOL    HW120126   6.392   4.725   3.460
 6409SOL    HW220127   6.413   4.567   3.495
 6410SOL     OW20128   2.807   1.634   5.509
 6410SOL    HW120129   2.744   1.711   5.522
 6410SOL    HW220130   2.865   1.625   5.590
 6411SOL     OW20131   0.477   2.254   2.362
 6411SOL    HW120132   0.429   2.178   2.317
 6411SOL    HW220133   0.541   2.217   2.429
 6412SOL     OW20134   3.057   0.327   0.164
 6412SOL    HW120135   2.972   0.291   0.202
 6412SOL    HW220136   3.036   0.399   0.099
 6413SOL     OW20137   4.788   5.354   3.869
 6413SOL    HW120138   4.811   5.357   3.772
 6413SOL    HW220139   4.688   5.354   3.880
 6414SOL     OW20140   1.446   6.917   0.179
 6414SOL    HW120141   1.351   6.892   0.198
 6414SOL    HW220142   1.451   7.013   0.154
 6415SOL     OW20143   1.010   2.800   2.959
 6415SOL    HW120144   1.034   2.739   2.884
 6415SOL    HW220145   1.083   2.867   2.973
 6416SOL     OW20146   2.900   0.697   0.240
 6416SOL    HW120147   2.928   0.780   0.191
 6416SOL    HW220148   2.856   0.721   0.326
 6417SOL     OW20149   3.800   1.720   0.562
 6417SOL    HW120150   3.752   1.674   0.487
 6417SOL    HW220151   3.764   1.688   0.650
 6418SOL     OW20152   4.401   5.335   1.149
 6418SOL    HW120153   4.489   5.370   1.116
 6418SOL    HW220154   4.371   5.390   1.227
 6419SOL     OW20155   0.799   6.863   6.970
 6419SOL    HW120156   0.823   6.819   6.883
 6419SOL    HW220157   0.851   6.948   6.980
 6420SOL     OW20158   1.919   3.660   4.084
 6420SOL    HW120159   1.856   3.650   4.007
 6420SOL    HW220160   2.011   3.682   4.049
 6421SOL     OW20161   4.980   0.085   1.920
 6421SOL    HW120162   4.992   0.122   2.012
 6421SOL    HW220163   4.937   0.153   1.861
 6422SOL     OW20164   6.151   2.374   4.720
 6422SOL    HW120165   6.117   2.285   4.748
 6422SOL    HW220166   6.074   2.433   4.695
 6423SOL     OW20167   2.404   4.389   4.263
 6423SOL    HW120168   2.349   4.328   4.206
 6423SOL    HW220169   2.500   4.361   4.258
 6424SOL     OW20170   0.035   4.845   4.612
 6424SOL    HW120171   0.117   4.842   4.670
 6424SOL    HW220172   0.042   4.923   4.550
 6425SOL     OW20173   0.244   6.294   3.242
 6425SOL    HW120174   0.270   6.360   3.313
 6425SOL    HW220175   0.147   6.272   3.252
 6426SOL     OW20176   4.422   4.570   4.783
 6426SOL    HW120177   4.394   4.547   4.876
 6426SOL    HW220178   4.514   4.533   4.765
 6427SOL     OW20179   3.073   3.195   3.376
 6427SOL    HW120180   3.052   3.237   3.288
 6427SOL    HW220181   3.118   3.106   3.361
 6428SOL     OW20182   5.194   2.670   0.262
 6428SOL    HW120183   5.114   2.645   0.207
 6428SOL    HW220184   5.277   2.639   0.215
 6429SOL     OW20185   2.127   0.829   5.568
 6429SOL    HW120186   2.183   0.872   5.497
 6429SOL    HW220187   2.035   0.868   5.566
 6430SOL     OW20188   6.363   0.402   5.007
 6430SOL    HW120189   6.305   0.340   5.060
 6430SOL    HW220190   6.456   0.364   5.002
 6431SOL     OW20191   3.964   4.568   1.714
 6431SOL    HW120192   4.007   4.631   1.649
 6431SOL    HW220193   4.002   4.477   1.701
 6432SOL     OW20194   4.608   4.750   6.017
 6432SOL    HW120195   4.613   4.817   6.091
 6432SOL    HW220196   4.683   4.685   6.025
 6433SOL     OW20197   2.201   5.928   6.481
 6433SOL    HW120198   2.241   5.877   6.557
 6433SOL    HW220199   2.185   6.023   6.508
 6434SOL     OW20200   3.370   5.618   5.602
 6434SOL    HW120201   3.317   5.657   5.527
 6434SOL    HW220202   3.439   5.556   5.565
 6435SOL     OW20203   4.950   1.032   1.096
 6435SOL    HW120204   5.036   1.009   1.051
 6435SOL    HW220205   4.934   0.968   1.171
 6436SOL     OW20206   0.240   4.305   4.244
 6436SOL    HW120207   0.176   4.355   4.302
 6436SOL    HW220208   0.261   4.216   4.286
 6437SOL     OW20209   0.447   1.679   5.765
 6437SOL    HW120210   0.469   1.582   5.767
 6437SOL    HW220211   0.524   1.731   5.803
 6438SOL     OW20212   0.385   5.821   0.486
 6438SOL    HW120213   0.455   5.753   0.509
 6438SOL    HW220214   0.383   5.835   0.387
 6439SOL     OW20215   5.494   6.835   3.045
 6439SOL    HW120216   5.463   6.818   2.951
 6439SOL    HW220217   5.587   6.798   3.056
 6440SOL     OW20218   2.300   1.351   6.182
 6440SOL    HW120219   2.344   1.297   6.253
 6440SOL    HW220220   2.315   1.309   6.093
 6441SOL     OW20221   0.597   0.949   2.846
 6441SOL    HW120222   0.549   0.910   2.768
 6441SOL    HW220223   0.619   0.875   2.911
 6442SOL     OW20224   2.929   2.942   5.354
 6442SOL    HW120225   2.968   2.980   5.437
 6442SOL    HW220226   2.857   2.876   5.377
 6443SOL     OW20227   4.642   2.580   1.143
 6443SOL    HW120228   4.686   2.552   1.057
 6443SOL    HW220229   4.686   2.663   1.178
 6444SOL     OW20230   6.876   3.378   4.897
 6444SOL    HW120231   6.841   3.466   4.865
 6444SOL    HW220232   6.878   3.377   4.997
 6445SOL     OW20233   3.225   4.084   3.383
 6445SOL    HW120234   3.200   4.041   3.296
 6445SOL    HW220235   3.303   4.145   3.369
 6446SOL     OW20236   2.604   1.261   6.542
 6446SOL    HW120237   2.542   1.199   6.590
 6446SOL    HW220238   2.652   1.212   6.469
 6447SOL     OW20239   6.490   3.960   0.791
 6447SOL    HW120240   6.511   4.042   0.845
 6447SOL    HW220241   6.429   3.985   0.716
 6448SOL     OW20242   4.199   5.318   1.592
 6448SOL    HW120243   4.297   5.335   1.584
 6448SOL    HW220244   4.172   5.320   1.688
 6449SOL     OW20245   2.590   6.079   1.327
 6449SOL    HW120246   2.544   5.999   1.286
 6449SOL    HW220247   2.546   6.162   1.293
 6450SOL     OW20248   0.153   3.785   0.728
 6450SOL    HW120249   0.226   3.775   0.661
 6450SOL    HW220250   0.119   3.694   0.755
 6451SOL     OW20251   3.627   2.215   1.518
 6451SOL    HW120252   3.575   2.247   1.597
 6451SOL    HW220253   3.568   2.212   1.438
 6452SOL     OW20254   5.213   2.636   3.257
 6452SOL    HW120255   5.157   2.573   3.204
 6452SOL    HW220256   5.174   2.728   3.252
 6453SOL     OW20257   3.523   6.851   0.779
 6453SOL    HW120258   3.517   6.943   0.819
 6453SOL    HW220259   3.533   6.784   0.852
 6454SOL     OW20260   5.580   2.618   2.524
 6454SOL    HW120261   5.674   2.633   2.491
 6454SOL    HW220262   5.579   2.539   2.585
 6455SOL     OW20263   6.372   3.253   3.540
 6455SOL    HW120264   6.429   3.171   3.547
 6455SOL    HW220265   6.318   3.249   3.455
 6456SOL     OW20266   5.951   1.356   3.171
 6456SOL    HW120267   5.904   1.325   3.254
 6456SOL    HW220268   5.985   1.449   3.184
 6457SOL     OW20269   4.719   0.597   2.386
 6457SOL    HW120270   4.749   0.501   2.390
 6457SOL    HW220271   4.657   0.615   2.462
 6458SOL     OW20272   0.865   4.818   3.689
 6458SOL    HW120273   0.784   4.865   3.725
 6458SOL    HW220274   0.909   4.875   3.620
 6459SOL     OW20275   6.504   2.765   2.369
 6459SOL    HW120276   6.514   2.685   2.429
 6459SOL    HW220277   6.487   2.733   2.275
 6460SOL     OW20278   0.439   5.529   6.802
 6460SOL    HW120279   0.489   5.610   6.771
 6460SOL    HW220280   0.348   5.556   6.833
 6461SOL     OW20281   2.919   4.917   1.315
 6461SOL    HW120282   2.962   5.006   1.332
 6461SOL    HW220283   2.888   4.912   1.220
 6462SOL     OW20284   1.494   3.733   5.258
 6462SOL    HW120285   1.413   3.703   5.209
 6462SOL    HW220286   1.575   3.686   5.221
 6463SOL     OW20287   4.430   1.475   1.681
 6463SOL    HW120288   4.399   1.468   1.586
 6463SOL    HW220289   4.367   1.533   1.732
 6464SOL     OW20290   0.857   5.953   4.708
 6464SOL    HW120291   0.809   5.948   4.796
 6464SOL    HW220292   0.808   5.898   4.640
 6465SOL     OW20293   4.502   1.598   3.457
 6465SOL    HW120294   4.580   1.657   3.477
 6465SOL    HW220295   4.434   1.650   3.406
 6466SOL     OW20296   0.481   3.353   6.607
 6466SOL    HW120297   0.566   3.308   6.634
 6466SOL    HW220298   0.445   3.311   6.524
 6467SOL     OW20299   3.155   1.156   0.650
 6467SOL    HW120300   3.187   1.065   0.624
 6467SOL    HW220301   3.204   1.226   0.597
 6468SOL     OW20302   3.031   0.242   0.582
 6468SOL    HW120303   3.023   0.318   0.646
 6468SOL    HW220304   2.957   0.247   0.515
 6469SOL     OW20305   3.773   1.847   3.262
 6469SOL    HW120306   3.745   1.943   3.255
 6469SOL    HW220307   3.822   1.821   3.179
 6470SOL     OW20308   6.435   1.979   6.867
 6470SOL    HW120309   6.340   1.990   6.838
 6470SOL    HW220310   6.457   1.882   6.875
 6471SOL     OW20311   6.895   5.946   5.590
 6471SOL    HW120312   6.923   6.016   5.525
 6471SOL    HW220313   6.967   5.932   5.657
 6472SOL     OW20314   6.902   5.630   2.744
 6472SOL    HW120315   6.866   5.542   2.713
 6472SOL    HW220316   6.831   5.679   2.795
 6473SOL     OW20317   2.449   0.995   4.122
 6473SOL    HW120318   2.490   1.084   4.138
 6473SOL    HW220319   2.514   0.936   4.075
 6474SOL     OW20320   4.193   5.389   5.266
 6474SOL    HW120321   4.107   5.358   5.224
 6474SOL    HW220322   4.205   5.486   5.248
 6475SOL     OW20323   5.490   4.663   2.807
 6475SOL    HW120324   5.545   4.684   2.888
 6475SOL    HW220325   5.529   4.710   2.727
 6476SOL     OW20326   3.652   1.446   6.285
 6476SOL    HW120327   3.595   1.366   6.269
 6476SOL    HW220328   3.747   1.417   6.298
 6477SOL     OW20329   6.621   6.404   1.456
 6477SOL    HW120330   6.711   6.359   1.461
 6477SOL    HW220331   6.596   6.415   1.360
 6478SOL     OW20332   3.407   5.769   1.963
 6478SOL    HW120333   3.311   5.780   1.988
 6478SOL    HW220334   3.448   5.700   2.022
 6479SOL     OW20335   3.226   6.188   4.033
 6479SOL    HW120336   3.142   6.237   4.011
 6479SOL    HW220337   3.229   6.168   4.130
 6480SOL     OW20338   3.293   1.308   6.953
 6480SOL    HW120339   3.324   1.392   6.908
 6480SOL    HW220340   3.267   1.328   0.023
 6481SOL     OW20341   3.339   2.685   1.650
 6481SOL    HW120342   3.279   2.756   1.687
 6481SOL    HW220343   3.300   2.595   1.669
 6482SOL     OW20344   6.581   3.459   5.347
 6482SOL    HW120345   6.656   3.397   5.369
 6482SOL    HW220346   6.614   3.531   5.286
 6483SOL     OW20347   1.074   5.652   5.386
 6483SOL    HW120348   1.164   5.669   5.346
 6483SOL    HW220349   1.061   5.554   5.398
 6484SOL     OW20350   2.673   0.860   4.357
 6484SOL    HW120351   2.593   0.903   4.399
 6484SOL    HW220352   2.727   0.814   4.428
 6485SOL     OW20353   2.432   6.998   4.314
 6485SOL    HW120354   2.378   0.056   4.293
 6485SOL    HW220355   2.520   0.000   4.354
 6486SOL     OW20356   1.680   5.543   3.257
 6486SOL    HW120357   1.597   5.504   3.217
 6486SOL    HW220358   1.714   5.616   3.198
 6487SOL     OW20359   6.750   4.799   3.996
 6487SOL    HW120360   6.809   4.856   4.053
 6487SOL    HW220361   6.807   4.739   3.939
 6488SOL     OW20362   4.412   5.380   4.944
 6488SOL    HW120363   4.357   5.298   4.960
 6488SOL    HW220364   4.362   5.442   4.883
 6489SOL     OW20365   4.148   3.366   5.558
 6489SOL    HW120366   4.237   3.409   5.541
 6489SOL    HW220367   4.078   3.412   5.504
 6490SOL     OW20368   1.831   2.139   6.601
 6490SOL    HW120369   1.781   2.150   6.687
 6490SOL    HW220370   1.859   2.044   6.590
 6491SOL     OW20371   1.934   0.592   0.568
 6491SOL    HW120372   1.905   0.662   0.633
 6491SOL    HW220373   1.989   0.523   0.616
 6492SOL     OW20374   3.720   3.896   4.641
 6492SOL    HW120375   3.718   3.799   4.617
 6492SOL    HW220376   3.811   3.919   4.674
 6493SOL     OW20377   1.174   4.292   5.620
 6493SOL    HW120378   1.159   4.219   5.687
 6493SOL    HW220379   1.147   4.260   5.529
 6494SOL     OW20380   6.307   6.675   2.077
 6494SOL    HW120381   6.221   6.673   2.129
 6494SOL    HW220382   6.384   6.674   2.140
 6495SOL     OW20383   6.587   6.951   3.611
 6495SOL    HW120384   6.651   6.933   3.686
 6495SOL    HW220385   6.541   0.014   3.627
 6496SOL     OW20386   4.735   0.942   1.686
 6496SOL    HW120387   4.800   0.907   1.752
 6496SOL    HW220388   4.738   1.042   1.685
 6497SOL     OW20389   0.101   1.888   0.736
 6497SOL    HW120390   0.152   1.813   0.694
 6497SOL    HW220391   0.144   1.914   0.822
 6498SOL     OW20392   0.913   4.410   4.057
 6498SOL    HW120393   0.832   4.464   4.081
 6498SOL    HW220394   0.928   4.340   4.126
 6499SOL     OW20395   5.607   3.442   3.529
 6499SOL    HW120396   5.595   3.501   3.449
 6499SOL    HW220397   5.689   3.469   3.579
 6500SOL     OW20398   1.618   4.154   3.022
 6500SOL    HW120399   1.562   4.074   3.045
 6500SOL    HW220400   1.592   4.231   3.080
 6501SOL     OW20401   6.407   2.093   0.955
 6501SOL    HW120402   6.428   2.160   1.026
 6501SOL    HW220403   6.457   2.009   0.973
 6502SOL     OW20404   6.337   4.057   1.102
 6502SOL    HW120405   6.398   4.071   1.180
 6502SOL    HW220406   6.274   3.982   1.123
 6503SOL     OW20407   6.518   3.079   5.231
 6503SOL    HW120408   6.540   3.134   5.312
 6503SOL    HW220409   6.522   2.982   5.254
 6504SOL     OW20410   4.384   6.143   6.098
 6504SOL    HW120411   4.435   6.181   6.021
 6504SOL    HW220412   4.303   6.198   6.115
 6505SOL     OW20413   5.902   5.702   0.179
 6505SOL    HW120414   5.924   5.723   0.274
 6505SOL    HW220415   5.808   5.671   0.172
 6506SOL     OW20416   0.133   2.912   2.277
 6506SOL    HW120417   0.101   2.874   2.365
 6506SOL    HW220418   0.095   3.004   2.265
 6507SOL     OW20419   3.860   4.414   6.881
 6507SOL    HW120420   3.913   4.362   6.948
 6507SOL    HW220421   3.844   4.357   6.800
 6508SOL     OW20422   1.247   6.403   2.040
 6508SOL    HW120423   1.320   6.458   2.000
 6508SOL    HW220424   1.226   6.327   1.979
 6509SOL     OW20425   3.493   1.916   5.931
 6509SOL    HW120426   3.456   1.910   6.024
 6509SOL    HW220427   3.460   1.838   5.877
 6510SOL     OW20428   4.689   5.841   5.623
 6510SOL    HW120429   4.619   5.779   5.659
 6510SOL    HW220430   4.746   5.875   5.698
 6511SOL     OW20431   2.944   0.906   0.638
 6511SOL    HW120432   2.989   0.964   0.570
 6511SOL    HW220433   2.998   0.904   0.722
 6512SOL     OW20434   3.329   0.575   1.281
 6512SOL    HW120435   3.244   0.522   1.289
 6512SOL    HW220436   3.319   0.642   1.207
 6513SOL     OW20437   2.319   5.603   3.931
 6513SOL    HW120438   2.387   5.579   3.861
 6513SOL    HW220439   2.352   5.575   4.021
 6514SOL     OW20440   5.967   0.429   5.664
 6514SOL    HW120441   5.942   0.340   5.702
 6514SOL    HW220442   6.037   0.471   5.722
 6515SOL     OW20443   2.212   4.937   2.542
 6515SOL    HW120444   2.205   4.961   2.445
 6515SOL    HW220445   2.120   4.928   2.581
 6516SOL     OW20446   6.950   3.280   0.694
 6516SOL    HW120447   6.906   3.275   0.604
 6516SOL    HW220448   6.980   3.189   0.722
 6517SOL     OW20449   0.173   2.585   6.771
 6517SOL    HW120450   0.126   2.563   6.686
 6517SOL    HW220451   0.208   2.502   6.813
 6518SOL     OW20452   1.512   1.511   2.893
 6518SOL    HW120453   1.541   1.539   2.985
 6518SOL    HW220454   1.498   1.412   2.892
 6519SOL     OW20455   1.217   1.477   3.178
 6519SOL    HW120456   1.237   1.570   3.209
 6519SOL    HW220457   1.281   1.413   3.221
 6520SOL     OW20458   0.376   5.846   0.221
 6520SOL    HW120459   0.333   5.928   0.182
 6520SOL    HW220460   0.311   5.771   0.221
 6521SOL     OW20461   1.122   3.255   4.475
 6521SOL    HW120462   1.193   3.322   4.497
 6521SOL    HW220463   1.154   3.196   4.401
 6522SOL     OW20464   2.640   3.906   5.364
 6522SOL    HW120465   2.575   3.935   5.294
 6522SOL    HW220466   2.728   3.885   5.320
 6523SOL     OW20467   6.140   0.632   7.024
 6523SOL    HW120468   6.154   0.538   6.994
 6523SOL    HW220469   6.046   0.642   0.033
 6524SOL     OW20470   1.933   2.309   1.651
 6524SOL    HW120471   1.906   2.214   1.633
 6524SOL    HW220472   1.888   2.341   1.734
 6525SOL     OW20473   1.121   4.626   3.120
 6525SOL    HW120474   1.123   4.582   3.210
 6525SOL    HW220475   1.192   4.696   3.115
 6526SOL     OW20476   6.954   6.837   0.585
 6526SOL    HW120477   6.978   6.740   0.585
 6526SOL    HW220478   6.973   6.876   0.495
 6527SOL     OW20479   0.692   2.326   0.429
 6527SOL    HW120480   0.605   2.294   0.392
 6527SOL    HW220481   0.745   2.368   0.356
 6528SOL     OW20482   5.483   0.793   5.805
 6528SOL    HW120483   5.536   0.734   5.743
 6528SOL    HW220484   5.541   0.867   5.838
 6529SOL     OW20485   0.142   1.296   2.258
 6529SOL    HW120486   0.073   1.357   2.298
 6529SOL    HW220487   0.097   1.217   2.216
 6530SOL     OW20488   0.537   2.590   2.357
 6530SOL    HW120489   0.495   2.501   2.371
 6530SOL    HW220490   0.469   2.654   2.323
 6531SOL     OW20491   3.973   3.496   5.389
 6531SOL    HW120492   3.992   3.593   5.375
 6531SOL    HW220493   4.027   3.442   5.324
 6532SOL     OW20494   1.177   0.603   0.666
 6532SOL    HW120495   1.115   0.526   0.651
 6532SOL    HW220496   1.210   0.637   0.577
 6533SOL     OW20497   4.791   3.717   0.260
 6533SOL    HW120498   4.742   3.797   0.226
 6533SOL    HW220499   4.747   3.634   0.228
 6534SOL     OW20500   6.455   4.316   2.665
 6534SOL    HW120501   6.479   4.379   2.591
 6534SOL    HW220502   6.538   4.290   2.715
 6535SOL     OW20503   6.394   3.457   5.127
 6535SOL    HW120504   6.294   3.459   5.126
 6535SOL    HW220505   6.426   3.423   5.216
 6536SOL     OW20506   1.027   3.936   4.796
 6536SOL    HW120507   1.073   3.956   4.710
 6536SOL    HW220508   1.066   3.994   4.868
 6537SOL     OW20509   5.887   5.286   4.007
 6537SOL    HW120510   5.860   5.366   4.059
 6537SOL    HW220511   5.907   5.312   3.912
 6538SOL     OW20512   2.550   3.658   5.438
 6538SOL    HW120513   2.572   3.751   5.411
 6538SOL    HW220514   2.632   3.601   5.432
 6539SOL     OW20515   6.385   0.710   6.182
 6539SOL    HW120516   6.347   0.802   6.182
 6539SOL    HW220517   6.322   0.648   6.133
 6540SOL     OW20518   4.784   2.662   6.154
 6540SOL    HW120519   4.704   2.722   6.147
 6540SOL    HW220520   4.786   2.619   6.244
 6541SOL     OW20521   5.915   0.999   4.516
 6541SOL    HW120522   5.918   0.999   4.416
 6541SOL    HW220523   6.001   0.964   4.553
 6542SOL     OW20524   1.554   3.744   4.423
 6542SOL    HW120525   1.613   3.680   4.373
 6542SOL    HW220526   1.464   3.747   4.381
 6543SOL     OW20527   3.824   2.108   5.077
 6543SOL    HW120528   3.783   2.129   4.989
 6543SOL    HW220529   3.774   2.034   5.121
 6544SOL     OW20530   0.942   6.412   2.136
 6544SOL    HW120531   0.901   6.329   2.097
 6544SOL    HW220532   1.040   6.412   2.119
 6545SOL     OW20533   4.647   6.947   1.374
 6545SOL    HW120534   4.645   6.892   1.291
 6545SOL    HW220535   4.606   0.013   1.355
 6546SOL     OW20536   5.005   3.514   6.048
 6546SOL    HW120537   4.919   3.475   6.080
 6546SOL    HW220538   4.993   3.547   5.954
 6547SOL     OW20539   5.829   5.764   6.886
 6547SOL    HW120540   5.899   5.813   6.938
 6547SOL    HW220541   5.823   5.670   6.919
 6548SOL     OW20542   0.611   2.322   5.303
 6548SOL    HW120543   0.537   2.320   5.235
 6548SOL    HW220544   0.577   2.289   5.391
 6549SOL     OW20545   5.352   6.893   1.928
 6549SOL    HW120546   5.309   6.971   1.883
 6549SOL    HW220547   5.441   6.875   1.885
 6550SOL     OW20548   6.140   6.976   3.311
 6550SOL    HW120549   6.191   6.989   3.226
 6550SOL    HW220550   6.167   6.890   3.354
 6551SOL     OW20551   3.118   3.336   1.424
 6551SOL    HW120552   3.044   3.400   1.402
 6551SOL    HW220553   3.206   3.382   1.415
 6552SOL     OW20554   1.986   6.729   0.204
 6552SOL    HW120555   1.966   6.806   0.145
 6552SOL    HW220556   1.991   6.760   0.299
 6553SOL     OW20557   0.112   0.684   2.918
 6553SOL    HW120558   0.174   0.759   2.942
 6553SOL    HW220559   0.035   0.682   2.982
 6554SOL     OW20560   3.253   1.408   4.600
 6554SOL    HW120561   3.181   1.448   4.656
 6554SOL    HW220562   3.262   1.459   4.514
 6555SOL     OW20563   6.792   2.306   4.170
 6555SOL    HW120564   6.751   2.391   4.202
 6555SOL    HW220565   6.889   2.304   4.196
 6556SOL     OW20566   4.943   2.697   3.790
 6556SOL    HW120567   4.891   2.680   3.706
 6556SOL    HW220568   4.995   2.782   3.780
 6557SOL     OW20569   1.953   6.905   2.178
 6557SOL    HW120570   1.885   6.934   2.246
 6557SOL    HW220571   1.942   6.807   2.160
 6558SOL     OW20572   5.353   5.098   0.411
 6558SOL    HW120573   5.253   5.093   0.403
 6558SOL    HW220574   5.385   5.182   0.367
 6559SOL     OW20575   6.484   2.945   6.312
 6559SOL    HW120576   6.448   2.998   6.235
 6559SOL    HW220577   6.548   2.877   6.279
 6560SOL     OW20578   4.916   4.744   0.305
 6560SOL    HW120579   5.002   4.700   0.280
 6560SOL    HW220580   4.917   4.768   0.402
 6561SOL     OW20581   3.790   4.562   0.503
 6561SOL    HW120582   3.730   4.641   0.513
 6561SOL    HW220583   3.884   4.592   0.489
 6562SOL     OW20584   5.746   2.972   1.176
 6562SOL    HW120585   5.768   3.066   1.203
 6562SOL    HW220586   5.828   2.916   1.183
 6563SOL     OW20587   5.389   5.943   4.913
 6563SOL    HW120588   5.303   5.908   4.950
 6563SOL    HW220589   5.370   6.013   4.844
 6564SOL     OW20590   0.015   3.927   2.650
 6564SOL    HW120591   6.982   3.998   2.692
 6564SOL    HW220592   7.006   3.908   2.558
 6565SOL     OW20593   5.747   0.161   3.014
 6565SOL    HW120594   5.770   0.127   3.105
 6565SOL    HW220595   5.765   0.259   3.010
 6566SOL     OW20596   3.930   6.242   2.597
 6566SOL    HW120597   4.029   6.231   2.605
 6566SOL    HW220598   3.884   6.189   2.668
 6567SOL     OW20599   4.080   0.346   0.969
 6567SOL    HW120600   4.090   0.365   0.871
 6567SOL    HW220601   4.032   0.260   0.981
 6568SOL     OW20602   3.773   1.286   1.903
 6568SOL    HW120603   3.789   1.258   1.997
 6568SOL    HW220604   3.771   1.205   1.844
 6569SOL     OW20605   0.551   3.785   5.888
 6569SOL    HW120606   0.483   3.826   5.949
 6569SOL    HW220607   0.534   3.687   5.879
 6570SOL     OW20608   3.804   6.309   2.001
 6570SOL    HW120609   3.802   6.277   2.096
 6570SOL    HW220610   3.850   6.398   1.997
 6571SOL     OW20611   2.528   5.075   3.132
 6571SOL    HW120612   2.594   5.142   3.166
 6571SOL    HW220613   2.525   5.079   3.032
 6572SOL     OW20614   0.652   5.936   3.753
 6572SOL    HW120615   0.746   5.909   3.731
 6572SOL    HW220616   0.628   5.900   3.843
 6573SOL     OW20617   1.993   1.393   2.928
 6573SOL    HW120618   2.077   1.351   2.961
 6573SOL    HW220619   1.959   1.342   2.848
 6574SOL     OW20620   2.000   6.007   2.174
 6574SOL    HW120621   1.993   6.094   2.126
 6574SOL    HW220622   1.968   5.933   2.115
 6575SOL     OW20623   6.632   0.051   2.730
 6575SOL    HW120624   6.601   0.131   2.678
 6575SOL    HW220625   6.651   0.078   2.824
 6576SOL     OW20626   3.446   5.830   0.625
 6576SOL    HW120627   3.514   5.758   0.609
 6576SOL    HW220628   3.373   5.822   0.557
 6577SOL     OW20629   1.704   2.156   4.042
 6577SOL    HW120630   1.712   2.196   3.950
 6577SOL    HW220631   1.727   2.059   4.038
 6578SOL     OW20632   1.724   5.094   2.045
 6578SOL    HW120633   1.820   5.082   2.022
 6578SOL    HW220634   1.694   5.018   2.103
 6579SOL     OW20635   7.023   1.350   3.997
 6579SOL    HW120636   7.017   1.275   3.931
 6579SOL    HW220637   6.936   1.359   4.046
 6580SOL     OW20638   0.937   0.034   0.080
 6580SOL    HW120639   1.015   0.073   0.129
 6580SOL    HW220640   0.854   0.048   0.133
 6581SOL     OW20641   1.622   1.658   6.947
 6581SOL    HW120642   1.611   1.561   6.970
 6581SOL    HW220643   1.621   1.713   0.006
 6582SOL     OW20644   6.360   0.971   2.732
 6582SOL    HW120645   6.324   0.908   2.801
 6582SOL    HW220646   6.459   0.960   2.725
 6583SOL     OW20647   4.274   6.296   6.972
 6583SOL    HW120648   4.238   6.373   6.919
 6583SOL    HW220649   4.287   6.217   6.912
 6584SOL     OW20650   3.356   2.188   1.136
 6584SOL    HW120651   3.348   2.230   1.227
 6584SOL    HW220652   3.411   2.104   1.142
 6585SOL     OW20653   5.576   0.345   1.508
 6585SOL    HW120654   5.585   0.442   1.531
 6585SOL    HW220655   5.662   0.312   1.469
 6586SOL     OW20656   6.146   2.223   6.245
 6586SOL    HW120657   6.054   2.255   6.265
 6586SOL    HW220658   6.204   2.237   6.326
 6587SOL     OW20659   1.503   4.146   5.438
 6587SOL    HW120660   1.550   4.090   5.507
 6587SOL    HW220661   1.526   4.242   5.452
 6588SOL     OW20662   0.669   2.990   0.508
 6588SOL    HW120663   0.642   3.032   0.421
 6588SOL    HW220664   0.768   2.982   0.511
 6589SOL     OW20665   6.900   1.070   1.766
 6589SOL    HW120666   6.959   1.071   1.685
 6589SOL    HW220667   6.907   1.157   1.814
 6590SOL     OW20668   1.293   0.480   4.189
 6590SOL    HW120669   1.230   0.403   4.183
 6590SOL    HW220670   1.333   0.484   4.281
 6591SOL     OW20671   5.249   4.542   3.877
 6591SOL    HW120672   5.210   4.452   3.858
 6591SOL    HW220673   5.176   4.611   3.881
 6592SOL     OW20674   4.941   6.217   3.086
 6592SOL    HW120675   4.923   6.308   3.048
 6592SOL    HW220676   5.022   6.177   3.041
 6593SOL     OW20677   2.669   2.071   2.797
 6593SOL    HW120678   2.648   2.062   2.700
 6593SOL    HW220679   2.602   2.020   2.851
 6594SOL     OW20680   3.871   1.842   6.324
 6594SOL    HW120681   3.877   1.850   6.224
 6594SOL    HW220682   3.924   1.762   6.353
 6595SOL     OW20683   1.525   2.365   4.901
 6595SOL    HW120684   1.585   2.445   4.894
 6595SOL    HW220685   1.538   2.306   4.821
 6596SOL     OW20686   5.587   6.108   2.492
 6596SOL    HW120687   5.595   6.008   2.500
 6596SOL    HW220688   5.656   6.142   2.429
 6597SOL     OW20689   1.571   4.888   2.441
 6597SOL    HW120690   1.518   4.931   2.367
 6597SOL    HW220691   1.562   4.943   2.524
 6598SOL     OW20692   1.814   4.667   4.256
 6598SOL    HW120693   1.879   4.714   4.317
 6598SOL    HW220694   1.804   4.720   4.172
 6599SOL     OW20695   5.819   5.846   6.225
 6599SOL    HW120696   5.720   5.842   6.208
 6599SOL    HW220697   5.835   5.863   6.322
 6600SOL     OW20698   4.556   6.788   5.479
 6600SOL    HW120699   4.493   6.817   5.408
 6600SOL    HW220700   4.505   6.744   5.554
 6601SOL     OW20701   1.540   2.967   2.218
 6601SOL    HW120702   1.620   3.008   2.262
 6601SOL    HW220703   1.520   3.017   2.134
 6602SOL     OW20704   2.273   6.821   1.485
 6602SOL    HW120705   2.293   6.744   1.424
 6602SOL    HW220706   2.320   6.808   1.572
 6603SOL     OW20707   0.438   2.834   3.314
 6603SOL    HW120708   0.498   2.904   3.276
 6603SOL    HW220709   0.438   2.840   3.414
 6604SOL     OW20710   1.740   6.553   2.082
 6604SOL    HW120711   1.716   6.617   2.008
 6604SOL    HW220712   1.692   6.466   2.067
 6605SOL     OW20713   6.410   5.454   1.304
 6605SOL    HW120714   6.429   5.356   1.312
 6605SOL    HW220715   6.338   5.469   1.237
 6606SOL     OW20716   1.943   3.322   3.838
 6606SOL    HW120717   1.945   3.311   3.938
 6606SOL    HW220718   2.007   3.394   3.811
 6607SOL     OW20719   5.752   3.913   3.364
 6607SOL    HW120720   5.809   3.844   3.320
 6607SOL    HW220721   5.725   3.882   3.455
 6608SOL     OW20722   0.463   6.943   6.109
 6608SOL    HW120723   0.441   6.995   6.191
 6608SOL    HW220724   0.549   6.894   6.123
 6609SOL     OW20725   4.400   2.065   5.728
 6609SOL    HW120726   4.415   1.967   5.745
 6609SOL    HW220727   4.358   2.106   5.809
 6610SOL     OW20728   3.019   5.180   1.309
 6610SOL    HW120729   2.991   5.274   1.326
 6610SOL    HW220730   3.119   5.174   1.306
 6611SOL     OW20731   4.565   1.994   4.052
 6611SOL    HW120732   4.557   2.001   4.151
 6611SOL    HW220733   4.586   1.899   4.027
 6612SOL     OW20734   5.658   1.985   6.216
 6612SOL    HW120735   5.750   1.983   6.256
 6612SOL    HW220736   5.599   2.044   6.271
 6613SOL     OW20737   4.971   0.440   6.790
 6613SOL    HW120738   4.878   0.466   6.764
 6613SOL    HW220739   4.974   0.423   6.889
 6614SOL     OW20740   4.366   5.937   1.815
 6614SOL    HW120741   4.305   6.010   1.844
 6614SOL    HW220742   4.433   5.918   1.887
 6615SOL     OW20743   2.692   5.844   0.647
 6615SOL    HW120744   2.789   5.841   0.624
 6615SOL    HW220745   2.681   5.854   0.746
 6616SOL     OW20746   4.476   1.042   5.903
 6616SOL    HW120747   4.507   1.073   5.812
 6616SOL    HW220748   4.534   0.967   5.933
 6617SOL     OW20749   4.206   0.604   3.643
 6617SOL    HW120750   4.258   0.588   3.728
 6617SOL    HW220751   4.270   0.611   3.566
 6618SOL     OW20752   0.576   2.123   2.650
 6618SOL    HW120753   0.570   2.222   2.658
 6618SOL    HW220754   0.509   2.080   2.711
 6619SOL     OW20755   5.066   6.461   3.767
 6619SOL    HW120756   4.973   6.446   3.802
 6619SOL    HW220757   5.073   6.552   3.726
 6620SOL     OW20758   0.465   3.489   3.597
 6620SOL    HW120759   0.430   3.434   3.521
 6620SOL    HW220760   0.412   3.469   3.680
 6621SOL     OW20761   3.984   3.153   4.879
 6621SOL    HW120762   3.998   3.091   4.802
 6621SOL    HW220763   3.902   3.207   4.864
 6622SOL     OW20764   0.240   6.194   0.806
 6622SOL    HW120765   0.156   6.145   0.781
 6622SOL    HW220766   0.297   6.208   0.725
 6623SOL     OW20767   3.314   4.389   5.915
 6623SOL    HW120768   3.361   4.337   5.844
 6623SOL    HW220769   3.344   4.357   6.005
 6624SOL     OW20770   0.923   2.433   4.549
 6624SOL    HW120771   1.018   2.464   4.543
 6624SOL    HW220772   0.872   2.495   4.608
 6625SOL     OW20773   5.953   2.363   5.474
 6625SOL    HW120774   5.978   2.394   5.566
 6625SOL    HW220775   5.914   2.439   5.423
 6626SOL     OW20776   3.105   6.415   4.828
 6626SOL    HW120777   3.112   6.514   4.828
 6626SOL    HW220778   3.081   6.383   4.920
 6627SOL     OW20779   1.134   5.924   4.414
 6627SOL    HW120780   1.120   6.017   4.448
 6627SOL    HW220781   1.053   5.894   4.363
 6628SOL     OW20782   4.521   5.650   4.038
 6628SOL    HW120783   4.503   5.712   4.115
 6628SOL    HW220784   4.615   5.616   4.045
 6629SOL     OW20785   5.599   6.098   0.003
 6629SOL    HW120786   5.675   6.124   0.062
 6629SOL    HW220787   5.635   6.058   6.943
 6630SOL     OW20788   2.277   1.501   1.421
 6630SOL    HW120789   2.319   1.489   1.511
 6630SOL    HW220790   2.208   1.573   1.426
 6631SOL     OW20791   1.684   4.774   5.747
 6631SOL    HW120792   1.709   4.738   5.657
 6631SOL    HW220793   1.753   4.840   5.777
 6632SOL     OW20794   1.107   0.172   0.273
 6632SOL    HW120795   1.029   0.181   0.335
 6632SOL    HW220796   1.191   0.191   0.322
 6633SOL     OW20797   3.199   5.783   6.685
 6633SOL    HW120798   3.191   5.801   6.587
 6633SOL    HW220799   3.124   5.829   6.734
 6634SOL     OW20800   5.055   1.559   4.978
 6634SOL    HW120801   5.001   1.476   4.967
 6634SOL    HW220802   5.000   1.630   5.021
 6635SOL     OW20803   5.556   4.718   2.031
 6635SOL    HW120804   5.632   4.665   2.070
 6635SOL    HW220805   5.573   4.736   1.935
 6636SOL     OW20806   3.548   0.111   1.838
 6636SOL    HW120807   3.506   0.123   1.748
 6636SOL    HW220808   3.556   0.013   1.858
 6637SOL     OW20809   1.389   1.149   0.750
 6637SOL    HW120810   1.469   1.102   0.787
 6637SOL    HW220811   1.406   1.174   0.655
 6638SOL     OW20812   3.244   4.098   3.696
 6638SOL    HW120813   3.221   4.106   3.599
 6638SOL    HW220814   3.327   4.151   3.715
 6639SOL     OW20815   4.854   2.782   1.377
 6639SOL    HW120816   4.931   2.821   1.327
 6639SOL    HW220817   4.768   2.819   1.341
 6640SOL     OW20818   1.135   2.820   5.262
 6640SOL    HW120819   1.043   2.847   5.233
 6640SOL    HW220820   1.188   2.901   5.287
 6641SOL     OW20821   3.976   2.177   1.480
 6641SOL    HW120822   3.911   2.253   1.486
 6641SOL    HW220823   4.048   2.189   1.548
 6642SOL     OW20824   1.195   5.379   0.259
 6642SOL    HW120825   1.140   5.361   0.340
 6642SOL    HW220826   1.135   5.397   0.181
 6643SOL     OW20827   4.807   6.851   0.267
 6643SOL    HW120828   4.836   6.764   0.226
 6643SOL    HW220829   4.884   6.915   0.265
 6644SOL     OW20830   1.957   6.682   3.025
 6644SOL    HW120831   2.026   6.696   3.096
 6644SOL    HW220832   1.894   6.760   3.023
 6645SOL     OW20833   6.480   2.694   0.647
 6645SOL    HW120834   6.433   2.676   0.561
 6645SOL    HW220835   6.495   2.608   0.696
 6646SOL     OW20836   3.750   6.995   6.986
 6646SOL    HW120837   3.704   6.963   6.903
 6646SOL    HW220838   3.795   6.918   0.007
 6647SOL     OW20839   4.496   5.055   1.259
 6647SOL    HW120840   4.564   5.075   1.329
 6647SOL    HW220841   4.451   5.141   1.231
 6648SOL     OW20842   2.584   6.281   5.317
 6648SOL    HW120843   2.506   6.289   5.255
 6648SOL    HW220844   2.659   6.235   5.270
 6649SOL     OW20845   5.909   2.289   6.759
 6649SOL    HW120846   5.928   2.376   6.806
 6649SOL    HW220847   5.931   2.213   6.821
 6650SOL     OW20848   2.959   1.081   5.333
 6650SOL    HW120849   3.031   1.017   5.307
 6650SOL    HW220850   2.963   1.162   5.274
 6651SOL     OW20851   0.623   1.851   6.883
 6651SOL    HW120852   0.534   1.876   6.844
 6651SOL    HW220853   0.611   1.775   6.946
 6652SOL     OW20854   1.073   4.689   0.504
 6652SOL    HW120855   1.142   4.747   0.548
 6652SOL    HW220856   1.106   4.595   0.497
 6653SOL     OW20857   5.597   2.633   0.490
 6653SOL    HW120858   5.498   2.638   0.505
 6653SOL    HW220859   5.638   2.570   0.556
 6654SOL     OW20860   0.699   4.429   2.949
 6654SOL    HW120861   0.623   4.431   2.884
 6654SOL    HW220862   0.664   4.419   3.042
 6655SOL     OW20863   6.755   5.196   1.565
 6655SOL    HW120864   6.781   5.293   1.559
 6655SOL    HW220865   6.719   5.178   1.657
 6656SOL     OW20866   4.520   1.757   2.698
 6656SOL    HW120867   4.558   1.664   2.688
 6656SOL    HW220868   4.557   1.815   2.625
 6657SOL     OW20869   5.679   2.214   4.303
 6657SOL    HW120870   5.626   2.240   4.384
 6657SOL    HW220871   5.628   2.238   4.220
 6658SOL     OW20872   6.165   6.727   5.030
 6658SOL    HW120873   6.125   6.671   5.103
 6658SOL    HW220874   6.101   6.734   4.954
 6659SOL     OW20875   1.232   4.935   1.957
 6659SOL    HW120876   1.188   4.846   1.957
 6659SOL    HW220877   1.275   4.951   1.867
 6660SOL     OW20878   0.628   6.111   3.200
 6660SOL    HW120879   0.622   6.026   3.253
 6660SOL    HW220880   0.720   6.147   3.206
 6661SOL     OW20881   3.113   6.495   4.068
 6661SOL    HW120882   3.186   6.510   4.135
 6661SOL    HW220883   3.153   6.472   3.979
 6662SOL     OW20884   2.774   6.971   2.189
 6662SOL    HW120885   2.773   0.047   2.195
 6662SOL    HW220886   2.684   6.938   2.163
 6663SOL     OW20887   1.556   4.542   5.894
 6663SOL    HW120888   1.627   4.599   5.854
 6663SOL    HW220889   1.495   4.509   5.821
 6664SOL     OW20890   3.051   0.887   2.104
 6664SOL    HW120891   3.072   0.809   2.163
 6664SOL    HW220892   3.090   0.870   2.013
 6665SOL     OW20893   2.603   0.434   6.072
 6665SOL    HW120894   2.683   0.410   6.127
 6665SOL    HW220895   2.564   0.520   6.105
 6666SOL     OW20896   5.707   6.010   4.891
 6666SOL    HW120897   5.730   5.961   4.807
 6666SOL    HW220898   5.611   5.998   4.912
 6667SOL     OW20899   6.442   6.621   6.536
 6667SOL    HW120900   6.427   6.615   6.437
 6667SOL    HW220901   6.451   6.528   6.574
 6668SOL     OW20902   0.087   6.186   1.377
 6668SOL    HW120903   0.092   6.119   1.452
 6668SOL    HW220904   0.003   6.170   1.325
 6669SOL     OW20905   1.999   1.379   1.932
 6669SOL    HW120906   1.968   1.474   1.935
 6669SOL    HW220907   1.924   1.320   1.904
 6670SOL     OW20908   3.347   2.323   0.140
 6670SOL    HW120909   3.309   2.323   0.047
 6670SOL    HW220910   3.447   2.318   0.135
 6671SOL     OW20911   5.198   6.437   0.132
 6671SOL    HW120912   5.110   6.444   0.085
 6671SOL    HW220913   5.271   6.431   0.065
 6672SOL     OW20914   1.454   2.300   0.491
 6672SOL    HW120915   1.453   2.310   0.591
 6672SOL    HW220916   1.508   2.221   0.466
 6673SOL     OW20917   5.828   3.660   4.334
 6673SOL    HW120918   5.776   3.575   4.339
 6673SOL    HW220919   5.769   3.734   4.302
 6674SOL     OW20920   0.199   2.800   6.943
 6674SOL    HW120921   0.235   2.883   6.899
 6674SOL    HW220922   0.182   2.730   6.874
 6675SOL     OW20923   4.502   2.792   6.797
 6675SOL    HW120924   4.462   2.866   6.851
 6675SOL    HW220925   4.528   2.827   6.707
 6676SOL     OW20926   1.390   3.777   3.621
 6676SOL    HW120927   1.442   3.750   3.539
 6676SOL    HW220928   1.312   3.716   3.632
 6677SOL     OW20929   0.484   1.614   0.294
 6677SOL    HW120930   0.500   1.521   0.325
 6677SOL    HW220931   0.393   1.644   0.323
 6678SOL     OW20932   1.696   4.784   0.370
 6678SOL    HW120933   1.620   4.841   0.339
 6678SOL    HW220934   1.696   4.779   0.470
 6679SOL     OW20935   2.601   0.808   4.000
 6679SOL    HW120936   2.563   0.739   4.061
 6679SOL    HW220937   2.639   0.763   3.919
 6680SOL     OW20938   5.710   6.415   0.280
 6680SOL    HW120939   5.643   6.462   0.223
 6680SOL    HW220940   5.780   6.480   0.309
 6681SOL     OW20941   4.385   5.598   1.293
 6681SOL    HW120942   4.455   5.564   1.356
 6681SOL    HW220943   4.299   5.611   1.342
 6682SOL     OW20944   3.367   5.502   0.098
 6682SOL    HW120945   3.274   5.496   0.133
 6682SOL    HW220946   3.366   5.493   7.022
 6683SOL     OW20947   5.845   3.597   6.770
 6683SOL    HW120948   5.930   3.545   6.764
 6683SOL    HW220949   5.767   3.536   6.756
 6684SOL     OW20950   3.374   6.933   1.527
 6684SOL    HW120951   3.398   0.006   1.526
 6684SOL    HW220952   3.275   6.923   1.519
 6685SOL     OW20953   3.912   3.398   7.017
 6685SOL    HW120954   3.968   3.480   0.001
 6685SOL    HW220955   3.969   3.317   0.010
 6686SOL     OW20956   5.543   5.149   3.759
 6686SOL    HW120957   5.561   5.240   3.798
 6686SOL    HW220958   5.590   5.080   3.813
 6687SOL     OW20959   6.413   2.323   2.006
 6687SOL    HW120960   6.398   2.300   1.910
 6687SOL    HW220961   6.449   2.415   2.013
 6688SOL     OW20962   4.003   5.021   1.211
 6688SOL    HW120963   3.976   5.108   1.172
 6688SOL    HW220964   4.093   5.030   1.255
 6689SOL     OW20965   2.980   5.131   6.300
 6689SOL    HW120966   2.989   5.221   6.344
 6689SOL    HW220967   3.010   5.138   6.205
 6690SOL     OW20968   0.742   0.312   5.798
 6690SOL    HW120969   0.788   0.326   5.885
 6690SOL    HW220970   0.763   0.220   5.763
 6691SOL     OW20971   2.064   1.806   2.460
 6691SOL    HW120972   2.043   1.903   2.475
 6691SOL    HW220973   1.988   1.750   2.492
 6692SOL     OW20974   4.575   4.752   1.475
 6692SOL    HW120975   4.531   4.834   1.512
 6692SOL    HW220976   4.654   4.727   1.531
 6693SOL     OW20977   4.229   1.467   4.865
 6693SOL    HW120978   4.310   1.485   4.921
 6693SOL    HW220979   4.192   1.553   4.831
 6694SOL     OW20980   3.856   5.738   1.057
 6694SOL    HW120981   3.883   5.720   0.962
 6694SOL    HW220982   3.879   5.832   1.081
 6695SOL     OW20983   2.891   1.983   6.936
 6695SOL    HW120984   2.900   2.082   6.951
 6695SOL    HW220985   2.885   1.936   7.023
 6696SOL     OW20986   4.082   3.662   4.407
 6696SOL    HW120987   4.120   3.662   4.315
 6696SOL    HW220988   4.014   3.735   4.415
 6697SOL     OW20989   4.749   2.359   2.392
 6697SOL    HW120990   4.820   2.343   2.461
 6697SOL    HW220991   4.726   2.273   2.347
 6698SOL     OW20992   3.556   4.207   1.763
 6698SOL    HW120993   3.462   4.229   1.739
 6698SOL    HW220994   3.618   4.275   1.722
 6699SOL     OW20995   1.130   4.988   5.441
 6699SOL    HW120996   1.146   4.906   5.385
 6699SOL    HW220997   1.216   5.016   5.484
 6700SOL     OW20998   6.101   0.583   0.712
 6700SOL    HW120999   6.085   0.530   0.795
 6700SOL    HW221000   6.015   0.594   0.662
 6701SOL     OW21001   5.773   6.830   1.576
 6701SOL    HW121002   5.727   6.800   1.660
 6701SOL    HW221003   5.800   6.750   1.522
 6702SOL     OW21004   2.430   2.142   0.747
 6702SOL    HW121005   2.426   2.175   0.841
 6702SOL    HW221006   2.526   2.135   0.718
 6703SOL     OW21007   1.953   1.983   5.868
 6703SOL    HW121008   1.903   2.034   5.798
 6703SOL    HW221009   1.940   1.885   5.854
 6704SOL     OW21010   3.856   1.658   4.954
 6704SOL    HW121011   3.775   1.628   5.005
 6704SOL    HW221012   3.924   1.584   4.952
 6705SOL     OW21013   6.366   3.556   1.213
 6705SOL    HW121014   6.421   3.513   1.142
 6705SOL    HW221015   6.279   3.508   1.221
 6706SOL     OW21016   0.717   6.287   1.436
 6706SOL    HW121017   0.740   6.369   1.384
 6706SOL    HW221018   0.722   6.307   1.534
 6707SOL     OW21019   6.134   0.326   2.353
 6707SOL    HW121020   6.084   0.258   2.299
 6707SOL    HW221021   6.117   0.417   2.317
 6708SOL     OW21022   0.119   3.961   1.172
 6708SOL    HW121023   0.194   3.969   1.238
 6708SOL    HW221024   0.156   3.956   1.080
 6709SOL     OW21025   1.262   4.826   2.412
 6709SOL    HW121026   1.224   4.819   2.320
 6709SOL    HW221027   1.233   4.913   2.453
 6710SOL     OW21028   4.246   0.940   2.334
 6710SOL    HW121029   4.150   0.965   2.335
 6710SOL    HW221030   4.296   1.001   2.272
 6711SOL     OW21031   4.565   6.196   6.310
 6711SOL    HW121032   4.489   6.180   6.247
 6711SOL    HW221033   4.561   6.291   6.343
 6712SOL     OW21034   5.808   3.718   0.524
 6712SOL    HW121035   5.890   3.673   0.488
 6712SOL    HW221036   5.835   3.792   0.586
 6713SOL     OW21037   1.714   0.383   4.132
 6713SOL    HW121038   1.693   0.294   4.172
 6713SOL    HW221039   1.716   0.453   4.204
 6714SOL     OW21040   5.897   1.210   0.538
 6714SOL    HW121041   5.945   1.240   0.621
 6714SOL    HW221042   5.841   1.130   0.560
 6715SOL     OW21043   1.204   0.938   1.191
 6715SOL    HW121044   1.208   1.016   1.128
 6715SOL    HW221045   1.221   0.970   1.284
 6716SOL     OW21046   6.789   5.440   2.577
 6716SOL    HW121047   6.692   5.458   2.593
 6716SOL    HW221048   6.805   5.342   2.577
 6717SOL     OW21049   3.363   2.753   6.717
 6717SOL    HW121050   3.381   2.675   6.658
 6717SOL    HW221051   3.309   2.723   6.796
 6718SOL     OW21052   3.332   0.823   2.164
 6718SOL    HW121053   3.302   0.737   2.204
 6718SOL    HW221054   3.351   0.889   2.237
 6719SOL     OW21055   1.889   0.163   6.619
 6719SOL    HW121056   1.797   0.158   6.581
 6719SOL    HW221057   1.894   0.107   6.703
 6720SOL     OW21058   2.533   0.699   5.787
 6720SOL    HW121059   2.582   0.744   5.861
 6720SOL    HW221060   2.512   0.605   5.813
 6721SOL     OW21061   0.484   1.366   0.486
 6721SOL    HW121062   0.443   1.276   0.502
 6721SOL    HW221063   0.517   1.403   0.572
 6722SOL     OW21064   6.335   2.896   0.156
 6722SOL    HW121065   6.322   2.989   0.123
 6722SOL    HW221066   6.291   2.886   0.245
 6723SOL     OW21067   1.470   1.955   6.176
 6723SOL    HW121068   1.448   1.887   6.106
 6723SOL    HW221069   1.569   1.962   6.186
 6724SOL     OW21070   2.064   3.359   5.742
 6724SOL    HW121071   1.984   3.301   5.752
 6724SOL    HW221072   2.096   3.356   5.647
 6725SOL     OW21073   6.137   2.925   3.198
 6725SOL    HW121074   6.038   2.938   3.194
 6725SOL    HW221075   6.171   2.955   3.287
 6726SOL     OW21076   0.140   1.145   5.483
 6726SOL    HW121077   0.052   1.191   5.474
 6726SOL    HW221078   0.211   1.201   5.439
 6727SOL     OW21079   1.025   4.575   5.583
 6727SOL    HW121080   1.092   4.577   5.509
 6727SOL    HW221081   1.073   4.576   5.671
 6728SOL     OW21082   4.070   1.945   3.810
 6728SOL    HW121083   4.100   1.876   3.744
 6728SOL    HW221084   4.138   2.018   3.813
 6729SOL     OW21085   5.079   1.870   1.175
 6729SOL    HW121086   5.088   1.940   1.246
 6729SOL    HW221087   5.041   1.910   1.092
 6730SOL     OW21088   1.640   1.270   1.077
 6730SOL    HW121089   1.592   1.207   1.138
 6730SOL    HW221090   1.680   1.219   1.001
 6731SOL     OW21091   2.652   6.238   1.002
 6731SOL    HW121092   2.577   6.261   0.940
 6731SOL    HW221093   2.736   6.225   0.949
 6732SOL     OW21094   5.819   4.460   4.638
 6732SOL    HW121095   5.898   4.406   4.667
 6732SOL    HW221096   5.735   4.419   4.673
 6733SOL     OW21097   3.182   5.830   0.054
 6733SOL    HW121098   3.203   5.859   6.984
 6733SOL    HW221099   3.265   5.838   0.109
 6734SOL     OW21100   5.355   1.511   4.858
 6734SOL    HW121101   5.275   1.535   4.913
 6734SOL    HW221102   5.337   1.426   4.809
 6735SOL     OW21103   5.850   3.129   3.867
 6735SOL    HW121104   5.872   3.090   3.957
 6735SOL    HW221105   5.925   3.189   3.838
 6736SOL     OW21106   3.456   3.933   1.115
 6736SOL    HW121107   3.430   3.841   1.086
 6736SOL    HW221108   3.412   4.000   1.055
 6737SOL     OW21109   1.321   2.498   1.489
 6737SOL    HW121110   1.372   2.579   1.459
 6737SOL    HW221111   1.332   2.487   1.588
 6738SOL     OW21112   1.793   5.680   3.488
 6738SOL    HW121113   1.858   5.623   3.539
 6738SOL    HW221114   1.768   5.633   3.403
 6739SOL     OW21115   6.500   0.033   4.126
 6739SOL    HW121116   6.531   6.978   4.075
 6739SOL    HW221117   6.516   0.019   4.224
 6740SOL     OW21118   6.517   6.595   4.321
 6740SOL    HW121119   6.453   6.672   4.315
 6740SOL    HW221120   6.603   6.620   4.276
 6741SOL     OW21121   4.679   1.812   5.885
 6741SOL    HW121122   4.735   1.744   5.932
 6741SOL    HW221123   4.730   1.851   5.809
 6742SOL     OW21124   5.596   4.481   3.316
 6742SOL    HW121125   5.609   4.402   3.376
 6742SOL    HW221126   5.665   4.550   3.337
 6743SOL     OW21127   4.163   4.042   0.046
 6743SOL    HW121128   4.119   4.074   0.130
 6743SOL    HW221129   4.129   3.951   0.023
 6744SOL     OW21130   6.405   5.407   6.349
 6744SOL    HW121131   6.441   5.319   6.315
 6744SOL    HW221132   6.409   5.474   6.275
 6745SOL     OW21133   0.026   6.228   4.189
 6745SOL    HW121134   0.035   6.278   4.276
 6745SOL    HW221135   6.955   6.227   4.161
 6746SOL     OW21136   1.948   1.509   2.598
 6746SOL    HW121137   1.919   1.587   2.652
 6746SOL    HW221138   1.920   1.522   2.503
 6747SOL     OW21139   0.869   6.833   6.434
 6747SOL    HW121140   0.956   6.880   6.452
 6747SOL    HW221141   0.794   6.883   6.478
 6748SOL     OW21142   2.803   1.623   4.023
 6748SOL    HW121143   2.771   1.634   4.117
 6748SOL    HW221144   2.725   1.611   3.962
 6749SOL     OW21145   3.650   4.102   0.731
 6749SOL    HW121146   3.665   4.167   0.656
 6749SOL    HW221147   3.719   4.117   0.802
 6750SOL     OW21148   2.982   1.361   4.428
 6750SOL    HW121149   3.014   1.453   4.451
 6750SOL    HW221150   2.885   1.354   4.453
 6751SOL     OW21151   4.703   6.998   3.453
 6751SOL    HW121152   4.660   6.923   3.505
 6751SOL    HW221153   4.785   6.964   3.408
 6752SOL     OW21154   1.799   6.535   2.834
 6752SOL    HW121155   1.841   6.586   2.908
 6752SOL    HW221156   1.870   6.491   2.779
 6753SOL     OW21157   3.795   2.600   5.632
 6753SOL    HW121158   3.786   2.584   5.533
 6753SOL    HW221159   3.737   2.677   5.659
 6754SOL     OW21160   5.720   0.611   1.206
 6754SOL    HW121161   5.639   0.656   1.243
 6754SOL    HW221162   5.700   0.515   1.188
 6755SOL     OW21163   3.041   4.940   0.863
 6755SOL    HW121164   3.067   4.862   0.920
 6755SOL    HW221165   3.085   4.932   0.773
 6756SOL     OW21166   2.422   1.573   5.690
 6756SOL    HW121167   2.387   1.479   5.690
 6756SOL    HW221168   2.422   1.608   5.596
 6757SOL     OW21169   3.258   0.762   0.951
 6757SOL    HW121170   3.358   0.758   0.948
 6757SOL    HW221171   3.223   0.684   1.002
 6758SOL     OW21172   5.182   2.352   1.110
 6758SOL    HW121173   5.200   2.449   1.095
 6758SOL    HW221174   5.089   2.330   1.082
 6759SOL     OW21175   0.196   3.430   2.698
 6759SOL    HW121176   0.235   3.498   2.636
 6759SOL    HW221177   0.106   3.402   2.664
 6760SOL     OW21178   5.930   2.843   2.634
 6760SOL    HW121179   6.025   2.835   2.665
 6760SOL    HW221180   5.925   2.902   2.554
 6761SOL     OW21181   4.962   2.223   4.596
 6761SOL    HW121182   4.942   2.214   4.693
 6761SOL    HW221183   4.921   2.145   4.546
 6762SOL     OW21184   0.040   5.304   4.078
 6762SOL    HW121185   7.013   5.272   3.998
 6762SOL    HW221186   7.015   5.277   4.161
 6763SOL     OW21187   4.833   5.998   4.861
 6763SOL    HW121188   4.762   6.068   4.853
 6763SOL    HW221189   4.791   5.907   4.862
 6764SOL     OW21190   1.453   5.354   2.222
 6764SOL    HW121191   1.393   5.351   2.142
 6764SOL    HW221192   1.548   5.359   2.191
 6765SOL     OW21193   6.449   5.083   3.792
 6765SOL    HW121194   6.372   5.107   3.851
 6765SOL    HW221195   6.445   4.986   3.768
 6766SOL     OW21196   4.730   6.359   0.205
 6766SOL    HW121197   4.698   6.273   0.243
 6766SOL    HW221198   4.666   6.432   0.230
 6767SOL     OW21199   2.996   0.394   0.819
 6767SOL    HW121200   3.045   0.481   0.812
 6767SOL    HW221201   2.998   0.362   0.914
 6768SOL     OW21202   1.994   0.780   6.680
 6768SOL    HW121203   2.085   0.747   6.656
 6768SOL    HW221204   1.998   0.878   6.699
 6769SOL     OW21205   3.204   2.264   0.369
 6769SOL    HW121206   3.271   2.279   0.296
 6769SOL    HW221207   3.192   2.349   0.421
 6770SOL     OW21208   6.751   0.832   1.694
 6770SOL    HW121209   6.658   0.817   1.726
 6770SOL    HW221210   6.788   0.915   1.736
 6771SOL     OW21211   4.572   2.240   3.268
 6771SOL    HW121212   4.561   2.272   3.173
 6771SOL    HW221213   4.663   2.201   3.279
 6772SOL     OW21214   3.108   1.308   2.540
 6772SOL    HW121215   3.134   1.394   2.583
 6772SOL    HW221216   3.187   1.269   2.492
 6773SOL     OW21217   6.746   4.204   1.662
 6773SOL    HW121218   6.718   4.264   1.737
 6773SOL    HW221219   6.762   4.259   1.580
 6774SOL     OW21220   6.865   2.894   5.973
 6774SOL    HW121221   6.897   2.882   5.879
 6774SOL    HW221222   6.944   2.901   6.034
 6775SOL     OW21223   2.591   3.424   0.752
 6775SOL    HW121224   2.515   3.475   0.791
 6775SOL    HW221225   2.583   3.327   0.778
 6776SOL     OW21226   4.221   4.588   0.082
 6776SOL    HW121227   4.151   4.574   0.012
 6776SOL    HW221228   4.295   4.523   0.070
 6777SOL     OW21229   3.924   4.524   6.170
 6777SOL    HW121230   3.909   4.433   6.131
 6777SOL    HW221231   3.855   4.541   6.241
 6778SOL     OW21232   0.396   4.146   1.859
 6778SOL    HW121233   0.411   4.125   1.763
 6778SOL    HW221234   0.485   4.154   1.906
 6779SOL     OW21235   6.697   4.126   6.791
 6779SOL    HW121236   6.607   4.135   6.834
 6779SOL    HW221237   6.748   4.211   6.803
 6780SOL     OW21238   0.896   2.265   2.420
 6780SOL    HW121239   0.820   2.330   2.407
 6780SOL    HW221240   0.881   2.212   2.503
 6781SOL     OW21241   5.609   6.369   5.087
 6781SOL    HW121242   5.618   6.405   5.180
 6781SOL    HW221243   5.568   6.277   5.091
 6782SOL     OW21244   0.238   0.449   2.633
 6782SOL    HW121245   0.236   0.422   2.537
 6782SOL    HW221246   0.147   0.438   2.673
 6783SOL     OW21247   0.662   6.790   6.239
 6783SOL    HW121248   0.642   6.699   6.276
 6783SOL    HW221249   0.721   6.839   6.303
 6784SOL     OW21250   3.892   3.957   0.479
 6784SOL    HW121251   3.876   3.992   0.387
 6784SOL    HW221252   3.973   4.001   0.518
 6785SOL     OW21253   5.858   4.632   2.372
 6785SOL    HW121254   5.831   4.722   2.338
 6785SOL    HW221255   5.956   4.632   2.392
 6786SOL     OW21256   1.245   1.676   6.712
 6786SOL    HW121257   1.178   1.628   6.654
 6786SOL    HW221258   1.203   1.759   6.749
 6787SOL     OW21259   2.003   3.595   0.930
 6787SOL    HW121260   2.034   3.599   1.025
 6787SOL    HW221261   2.054   3.663   0.876
 6788SOL     OW21262   2.794   3.790   1.565
 6788SOL    HW121263   2.822   3.788   1.661
 6788SOL    HW221264   2.733   3.713   1.546
 6789SOL     OW21265   0.367   7.016   2.429
 6789SOL    HW121266   0.447   0.035   2.387
 6789SOL    HW221267   0.354   6.925   2.391
 6790SOL     OW21268   1.458   4.140   0.285
 6790SOL    HW121269   1.451   4.042   0.267
 6790SOL    HW221270   1.437   4.158   0.381
 6791SOL     OW21271   3.950   2.428   0.823
 6791SOL    HW121272   3.912   2.520   0.831
 6791SOL    HW221273   3.935   2.378   0.908
 6792SOL     OW21274   6.765   6.217   6.176
 6792SOL    HW121275   6.754   6.119   6.195
 6792SOL    HW221276   6.785   6.230   6.079
 6793SOL     OW21277   0.574   2.455   0.632
 6793SOL    HW121278   0.615   2.410   0.553
 6793SOL    HW221279   0.630   2.534   0.658
 6794SOL     OW21280   5.359   1.230   4.785
 6794SOL    HW121281   5.410   1.207   4.702
 6794SOL    HW221282   5.414   1.207   4.865
 6795SOL     OW21283   2.437   6.218   0.828
 6795SOL    HW121284   2.457   6.147   0.760
 6795SOL    HW221285   2.344   6.207   0.862
 6796SOL     OW21286   6.100   0.893   2.449
 6796SOL    HW121287   6.089   0.911   2.351
 6796SOL    HW221288   6.060   0.969   2.501
 6797SOL     OW21289   4.956   3.544   1.548
 6797SOL    HW121290   4.891   3.499   1.487
 6797SOL    HW221291   4.939   3.514   1.642
 6798SOL     OW21292   5.742   5.548   2.820
 6798SOL    HW121293   5.788   5.570   2.734
 6798SOL    HW221294   5.646   5.526   2.803
 6799SOL     OW21295   6.011   5.727   0.446
 6799SOL    HW121296   6.074   5.786   0.395
 6799SOL    HW221297   5.946   5.784   0.496
 6800SOL     OW21298   1.989   4.439   0.662
 6800SOL    HW121299   2.084   4.445   0.694
 6800SOL    HW221300   1.972   4.511   0.595
 6801SOL     OW21301   1.784   1.232   2.125
 6801SOL    HW121302   1.838   1.152   2.098
 6801SOL    HW221303   1.787   1.241   2.225
 6802SOL     OW21304   2.560   6.091   0.604
 6802SOL    HW121305   2.585   5.994   0.606
 6802SOL    HW221306   2.636   6.145   0.569
 6803SOL     OW21307   4.587   2.479   6.327
 6803SOL    HW121308   4.551   2.554   6.383
 6803SOL    HW221309   4.580   2.393   6.378
 6804SOL     OW21310   2.457   5.519   3.539
 6804SOL    HW121311   2.459   5.602   3.483
 6804SOL    HW221312   2.396   5.452   3.496
 6805SOL     OW21313   5.732   6.631   4.526
 6805SOL    HW121314   5.814   6.670   4.485
 6805SOL    HW221315   5.659   6.629   4.458
 6806SOL     OW21316   5.269   1.186   3.549
 6806SOL    HW121317   5.324   1.152   3.473
 6806SOL    HW221318   5.322   1.254   3.600
 6807SOL     OW21319   2.470   3.474   0.390
 6807SOL    HW121320   2.567   3.477   0.415
 6807SOL    HW221321   2.426   3.397   0.436
 6808SOL     OW21322   0.781   2.944   5.452
 6808SOL    HW121323   0.865   2.990   5.479
 6808SOL    HW221324   0.712   3.012   5.428
 6809SOL     OW21325   1.532   4.197   6.898
 6809SOL    HW121326   1.450   4.252   6.879
 6809SOL    HW221327   1.599   4.252   6.946
 6810SOL     OW21328   1.553   0.266   1.638
 6810SOL    HW121329   1.545   0.364   1.659
 6810SOL    HW221330   1.621   0.253   1.566
 6811SOL     OW21331   4.767   4.169   0.219
 6811SOL    HW121332   4.694   4.209   0.165
 6811SOL    HW221333   4.855   4.203   0.187
 6812SOL     OW21334   3.520   3.124   3.460
 6812SOL    HW121335   3.468   3.039   3.468
 6812SOL    HW221336   3.474   3.186   3.397
 6813SOL     OW21337   4.703   1.447   1.608
 6813SOL    HW121338   4.707   1.373   1.676
 6813SOL    HW221339   4.608   1.472   1.592
 6814SOL     OW21340   3.312   2.717   0.604
 6814SOL    HW121341   3.238   2.783   0.612
 6814SOL    HW221342   3.398   2.759   0.635
 6815SOL     OW21343   3.290   0.137   1.271
 6815SOL    HW121344   3.334   0.051   1.243
 6815SOL    HW221345   3.354   0.190   1.327
 6816SOL     OW21346   6.861   5.581   0.132
 6816SOL    HW121347   6.839   5.619   0.042
 6816SOL    HW221348   6.788   5.520   0.162
 6817SOL     OW21349   6.647   1.659   5.166
 6817SOL    HW121350   6.623   1.676   5.261
 6817SOL    HW221351   6.651   1.560   5.150
 6818SOL     OW21352   2.802   6.107   1.937
 6818SOL    HW121353   2.759   6.187   1.978
 6818SOL    HW221354   2.732   6.051   1.893
 6819SOL     OW21355   3.545   0.857   4.170
 6819SOL    HW121356   3.520   0.920   4.097
 6819SOL    HW221357   3.467   0.846   4.232
 6820SOL     OW21358   1.245   5.156   3.199
 6820SOL    HW121359   1.271   5.231   3.260
 6820SOL    HW221360   1.323   5.130   3.142
 6821SOL     OW21361   2.969   1.522   5.048
 6821SOL    HW121362   3.056   1.551   5.089
 6821SOL    HW221363   2.894   1.543   5.110
 6822SOL     OW21364   5.751   1.760   5.870
 6822SOL    HW121365   5.832   1.774   5.927
 6822SOL    HW221366   5.672   1.744   5.929
 6823SOL     OW21367   3.875   3.377   3.948
 6823SOL    HW121368   3.835   3.410   3.863
 6823SOL    HW221369   3.816   3.402   4.025
 6824SOL     OW21370   0.540   2.873   6.193
 6824SOL    HW121371   0.548   2.874   6.293
 6824SOL    HW221372   0.579   2.957   6.155
 6825SOL     OW21373   4.967   6.812   2.483
 6825SOL    HW121374   4.969   6.712   2.486
 6825SOL    HW221375   5.009   6.848   2.566
 6826SOL     OW21376   2.112   3.903   2.994
 6826SOL    HW121377   2.139   3.873   3.086
 6826SOL    HW221378   2.117   4.003   2.989
 6827SOL     OW21379   5.133   6.135   0.316
 6827SOL    HW121380   5.194   6.117   0.239
 6827SOL    HW221381   5.141   6.231   0.342
 6828SOL     OW21382   1.863   2.041   1.517
 6828SOL    HW121383   1.871   1.942   1.531
 6828SOL    HW221384   1.929   2.071   1.449
 6829SOL     OW21385   5.089   6.687   3.647
 6829SOL    HW121386   5.023   6.752   3.685
 6829SOL    HW221387   5.182   6.719   3.665
 6830SOL     OW21388   5.531   1.252   2.954
 6830SOL    HW121389   5.524   1.152   2.965
 6830SOL    HW221390   5.439   1.291   2.947
 6831SOL     OW21391   1.057   0.434   6.341
 6831SOL    HW121392   1.110   0.383   6.410
 6831SOL    HW221393   1.117   0.498   6.294
 6832SOL     OW21394   2.807   4.468   1.493
 6832SOL    HW121395   2.791   4.561   1.528
 6832SOL    HW221396   2.895   4.435   1.527
 6833SOL     OW21397   4.454   5.302   7.019
 6833SOL    HW121398   4.476   5.209   0.021
 6833SOL    HW221399   4.358   5.321   0.017
 6834SOL     OW21400   4.505   6.405   1.740
 6834SOL    HW121401   4.529   6.499   1.718
 6834SOL    HW221402   4.421   6.403   1.795
 6835SOL     OW21403   4.391   6.859   5.280
 6835SOL    HW121404   4.300   6.849   5.320
 6835SOL    HW221405   4.398   6.801   5.199
 6836SOL     OW21406   3.285   6.245   0.885
 6836SOL    HW121407   3.304   6.181   0.811
 6836SOL    HW221408   3.222   6.203   0.951
 6837SOL     OW21409   1.475   3.304   2.223
 6837SOL    HW121410   1.469   3.402   2.242
 6837SOL    HW221411   1.553   3.287   2.163
 6838SOL     OW21412   1.632   0.733   0.992
 6838SOL    HW121413   1.659   0.703   1.084
 6838SOL    HW221414   1.538   0.705   0.974
 6839SOL     OW21415   5.029   1.161   0.358
 6839SOL    HW121416   4.957   1.147   0.426
 6839SOL    HW221417   5.042   1.258   0.342
 6840SOL     OW21418   2.203   2.195   5.373
 6840SOL    HW121419   2.187   2.136   5.452
 6840SOL    HW221420   2.121   2.251   5.356
 6841SOL     OW21421   5.787   3.446   5.866
 6841SOL    HW121422   5.794   3.391   5.783
 6841SOL    HW221423   5.725   3.402   5.931
 6842SOL     OW21424   2.374   4.521   1.139
 6842SOL    HW121425   2.419   4.536   1.227
 6842SOL    HW221426   2.425   4.452   1.088
 6843SOL     OW21427   5.266   0.222   6.571
 6843SOL    HW121428   5.209   0.224   6.653
 6843SOL    HW221429   5.352   0.270   6.589
 6844SOL     OW21430   5.692   0.811   4.196
 6844SOL    HW121431   5.603   0.824   4.154
 6844SOL    HW221432   5.685   0.829   4.295
 6845SOL     OW21433   6.172   2.801   2.795
 6845SOL    HW121434   6.092   2.772   2.847
 6845SOL    HW221435   6.195   2.895   2.820
 6846SOL     OW21436   2.970   4.050   0.138
 6846SOL    HW121437   2.949   3.975   0.074
 6846SOL    HW221438   3.034   4.113   0.095
 6847SOL     OW21439   6.565   4.095   4.649
 6847SOL    HW121440   6.653   4.094   4.600
 6847SOL    HW221441   6.574   4.044   4.734
 6848SOL     OW21442   5.339   4.252   4.023
 6848SOL    HW121443   5.330   4.207   3.934
 6848SOL    HW221444   5.252   4.293   4.049
 6849SOL     OW21445   3.387   4.599   5.718
 6849SOL    HW121446   3.387   4.514   5.771
 6849SOL    HW221447   3.304   4.651   5.740
 6850SOL     OW21448   4.210   2.274   3.160
 6850SOL    HW121449   4.170   2.182   3.161
 6850SOL    HW221450   4.172   2.326   3.084
 6851SOL     OW21451   1.948   2.851   2.719
 6851SOL    HW121452   2.015   2.914   2.681
 6851SOL    HW221453   1.991   2.797   2.792
 6852SOL     OW21454   2.840   5.141   1.101
 6852SOL    HW121455   2.886   5.148   1.013
 6852SOL    HW221456   2.906   5.153   1.175
 6853SOL     OW21457   5.381   3.287   5.994
 6853SOL    HW121458   5.454   3.350   6.020
 6853SOL    HW221459   5.407   3.194   6.020
 6854SOL     OW21460   5.259   6.320   5.782
 6854SOL    HW121461   5.251   6.419   5.786
 6854SOL    HW221462   5.265   6.283   5.875
 6855SOL     OW21463   4.506   5.615   3.627
 6855SOL    HW121464   4.529   5.518   3.622
 6855SOL    HW221465   4.443   5.638   3.553
 6856SOL     OW21466   0.575   2.380   6.026
 6856SOL    HW121467   0.516   2.430   6.089
 6856SOL    HW221468   0.522   2.351   5.947
 6857SOL     OW21469   0.883   3.436   6.710
 6857SOL    HW121470   0.938   3.488   6.644
 6857SOL    HW221471   0.943   3.377   6.763
 6858SOL     OW21472   3.304   4.219   1.634
 6858SOL    HW121473   3.211   4.190   1.658
 6858SOL    HW221474   3.301   4.305   1.584
 6859SOL     OW21475   0.948   1.328   1.665
 6859SOL    HW121476   0.992   1.247   1.627
 6859SOL    HW221477   0.865   1.300   1.715
 6860SOL     OW21478   0.199   5.109   2.526
 6860SOL    HW121479   0.272   5.040   2.529
 6860SOL    HW221480   0.160   5.113   2.434
 6861SOL     OW21481   4.788   3.303   5.577
 6861SOL    HW121482   4.832   3.234   5.519
 6861SOL    HW221483   4.708   3.262   5.622
 6862SOL     OW21484   0.724   5.023   5.981
 6862SOL    HW121485   0.790   4.977   5.921
 6862SOL    HW221486   0.701   5.113   5.941
 6863SOL     OW21487   6.925   5.892   4.853
 6863SOL    HW121488   6.862   5.837   4.799
 6863SOL    HW221489   7.017   5.853   4.847
 6864SOL     OW21490   1.837   3.962   6.177
 6864SOL    HW121491   1.890   3.936   6.257
 6864SOL    HW221492   1.815   3.880   6.124
 6865SOL     OW21493   2.252   0.862   5.035
 6865SOL    HW121494   2.164   0.842   4.991
 6865SOL    HW221495   2.311   0.910   4.970
 6866SOL     OW21496   6.152   4.197   1.997
 6866SOL    HW121497   6.087   4.221   1.925
 6866SOL    HW221498   6.105   4.146   2.069
 6867SOL     OW21499   1.677   4.317   1.177
 6867SOL    HW121500   1.640   4.265   1.100
 6867SOL    HW221501   1.776   4.304   1.182
 6868SOL     OW21502   2.193   5.903   5.444
 6868SOL    HW121503   2.130   5.837   5.485
 6868SOL    HW221504   2.239   5.861   5.365
 6869SOL     OW21505   3.903   6.952   5.520
 6869SOL    HW121506   3.828   6.885   5.524
 6869SOL    HW221507   3.889   7.022   5.590
 6870SOL     OW21508   0.874   3.432   0.108
 6870SOL    HW121509   0.900   3.342   0.072
 6870SOL    HW221510   0.790   3.424   0.161
 6871SOL     OW21511   6.745   3.439   1.938
 6871SOL    HW121512   6.755   3.444   2.038
 6871SOL    HW221513   6.796   3.514   1.896
 6872SOL     OW21514   1.415   2.726   2.237
 6872SOL    HW121515   1.446   2.821   2.243
 6872SOL    HW221516   1.476   2.674   2.178
 6873SOL     OW21517   1.338   3.976   4.088
 6873SOL    HW121518   1.337   3.907   4.160
 6873SOL    HW221519   1.431   3.986   4.052
 6874SOL     OW21520   6.153   5.263   2.967
 6874SOL    HW121521   6.058   5.283   2.993
 6874SOL    HW221522   6.206   5.348   2.966
 6875SOL     OW21523   1.724   2.788   1.752
 6875SOL    HW121524   1.767   2.833   1.674
 6875SOL    HW221525   1.703   2.693   1.729
 6876SOL     OW21526   3.688   0.183   3.717
 6876SOL    HW121527   3.614   0.145   3.661
 6876SOL    HW221528   3.672   0.280   3.731
 6877SOL     OW21529   2.711   4.306   1.718
 6877SOL    HW121530   2.671   4.362   1.646
 6877SOL    HW221531   2.767   4.364   1.778
 6878SOL     OW21532   2.104   1.435   3.989
 6878SOL    HW121533   2.028   1.371   3.997
 6878SOL    HW221534   2.076   1.516   3.937
 6879SOL     OW21535   2.132   2.221   0.407
 6879SOL    HW121536   2.211   2.247   0.462
 6879SOL    HW221537   2.150   2.133   0.362
 6880SOL     OW21538   1.035   5.876   6.144
 6880SOL    HW121539   1.066   5.810   6.212
 6880SOL    HW221540   1.066   5.967   6.169
 6881SOL     OW21541   1.702   3.732   0.579
 6881SOL    HW121542   1.634   3.789   0.532
 6881SOL    HW221543   1.687   3.636   0.555
 6882SOL     OW21544   2.695   0.931   0.261
 6882SOL    HW121545   2.622   0.993   0.290
 6882SOL    HW221546   2.752   0.977   0.192
 6883SOL     OW21547   5.307   0.699   6.667
 6883SOL    HW121548   5.290   0.641   6.747
 6883SOL    HW221549   5.224   0.706   6.612
 6884SOL     OW21550   1.930   4.294   2.893
 6884SOL    HW121551   2.023   4.329   2.899
 6884SOL    HW221552   1.881   4.312   2.978
 6885SOL     OW21553   4.787   4.817   4.380
 6885SOL    HW121554   4.836   4.844   4.463
 6885SOL    HW221555   4.826   4.733   4.344
 6886SOL     OW21556   5.913   1.388   5.138
 6886SOL    HW121557   5.982   1.418   5.203
 6886SOL    HW221558   5.841   1.337   5.186
 6887SOL     OW21559   4.755   5.894   0.068
 6887SOL    HW121560   4.796   5.816   0.021
 6887SOL    HW221561   4.818   5.928   0.139
 6888SOL     OW21562   5.592   4.019   6.252
 6888SOL    HW121563   5.497   3.991   6.241
 6888SOL    HW221564   5.598   4.090   6.322
 6889SOL     OW21565   1.486   2.684   5.950
 6889SOL    HW121566   1.547   2.762   5.932
 6889SOL    HW221567   1.472   2.676   6.049
 6890SOL     OW21568   3.751   5.533   3.095
 6890SOL    HW121569   3.668   5.586   3.077
 6890SOL    HW221570   3.831   5.588   3.073
 6891SOL     OW21571   2.382   2.812   1.516
 6891SOL    HW121572   2.387   2.713   1.500
 6891SOL    HW221573   2.316   2.830   1.589
 6892SOL     OW21574   3.420   1.635   4.146
 6892SOL    HW121575   3.494   1.662   4.085
 6892SOL    HW221576   3.372   1.717   4.178
 6893SOL     OW21577   6.255   3.567   6.837
 6893SOL    HW121578   6.266   3.535   6.931
 6893SOL    HW221579   6.186   3.512   6.791
 6894SOL     OW21580   5.419   4.022   1.143
 6894SOL    HW121581   5.487   4.031   1.215
 6894SOL    HW221582   5.341   4.083   1.162
 6895SOL     OW21583   1.272   5.991   0.679
 6895SOL    HW121584   1.228   6.080   0.665
 6895SOL    HW221585   1.365   6.004   0.713
 6896SOL     OW21586   3.696   1.647   4.424
 6896SOL    HW121587   3.680   1.706   4.345
 6896SOL    HW221588   3.660   1.556   4.406
 6897SOL     OW21589   4.912   3.763   4.844
 6897SOL    HW121590   4.876   3.708   4.920
 6897SOL    HW221591   5.011   3.774   4.855
 6898SOL     OW21592   2.635   1.316   1.413
 6898SOL    HW121593   2.645   1.409   1.449
 6898SOL    HW221594   2.614   1.253   1.488
 6899SOL     OW21595   5.628   5.834   2.552
 6899SOL    HW121596   5.727   5.829   2.562
 6899SOL    HW221597   5.592   5.741   2.540
 6900SOL     OW21598   6.810   4.447   6.340
 6900SOL    HW121599   6.785   4.496   6.257
 6900SOL    HW221600   6.835   4.353   6.317
 6901SOL     OW21601   4.619   4.601   6.867
 6901SOL    HW121602   4.652   4.657   6.943
 6901SOL    HW221603   4.674   4.620   6.786
 6902SOL     OW21604   6.738   6.039   5.950
 6902SOL    HW121605   6.766   6.134   5.937
 6902SOL    HW221606   6.681   6.031   6.032
 6903SOL     OW21607   2.337   4.861   5.436
 6903SOL    HW121608   2.372   4.860   5.342
 6903SOL    HW221609   2.273   4.786   5.448
 6904SOL     OW21610   0.282   6.196   5.490
 6904SOL    HW121611   0.310   6.214   5.584
 6904SOL    HW221612   0.301   6.100   5.467
 6905SOL     OW21613   5.422   5.321   0.247
 6905SOL    HW121614   5.486   5.392   0.277
 6905SOL    HW221615   5.468   5.262   0.180
 6906SOL     OW21616   3.666   1.892   3.893
 6906SOL    HW121617   3.760   1.918   3.915
 6906SOL    HW221618   3.605   1.969   3.912
 6907SOL     OW21619   6.323   2.054   1.604
 6907SOL    HW121620   6.280   1.986   1.544
 6907SOL    HW221621   6.395   2.102   1.554
 6908SOL     OW21622   2.208   4.672   6.899
 6908SOL    HW121623   2.216   4.623   6.812
 6908SOL    HW221624   2.280   4.642   6.961
 6909SOL     OW21625   5.160   4.860   1.894
 6909SOL    HW121626   5.122   4.891   1.981
 6909SOL    HW221627   5.237   4.917   1.868
 6910SOL     OW21628   1.493   3.338   3.248
 6910SOL    HW121629   1.534   3.382   3.168
 6910SOL    HW221630   1.546   3.362   3.330
 6911SOL     OW21631   3.704   0.168   5.269
 6911SOL    HW121632   3.799   0.154   5.241
 6911SOL    HW221633   3.651   0.085   5.255
 6912SOL     OW21634   2.182   3.244   5.953
 6912SOL    HW121635   2.151   3.298   5.874
 6912SOL    HW221636   2.279   3.260   5.968
 6913SOL     OW21637   5.437   6.151   5.106
 6913SOL    HW121638   5.343   6.162   5.139
 6913SOL    HW221639   5.437   6.098   5.021
 6914SOL     OW21640   6.152   4.027   1.655
 6914SOL    HW121641   6.090   4.092   1.698
 6914SOL    HW221642   6.161   4.048   1.558
 6915SOL     OW21643   1.021   3.215   2.151
 6915SOL    HW121644   1.065   3.233   2.063
 6915SOL    HW221645   0.922   3.211   2.140
 6916SOL     OW21646   5.025   1.105   6.180
 6916SOL    HW121647   5.002   1.013   6.148
 6916SOL    HW221648   4.942   1.150   6.214
 6917SOL     OW21649   4.992   5.532   1.882
 6917SOL    HW121650   4.912   5.548   1.824
 6917SOL    HW221651   5.075   5.550   1.830
 6918SOL     OW21652   0.450   3.149   2.116
 6918SOL    HW121653   0.465   3.061   2.069
 6918SOL    HW221654   0.486   3.143   2.209
 6919SOL     OW21655   6.054   6.532   2.801
 6919SOL    HW121656   6.025   6.619   2.841
 6919SOL    HW221657   6.057   6.462   2.873
 6920SOL     OW21658   4.802   0.230   5.184
 6920SOL    HW121659   4.732   0.165   5.155
 6920SOL    HW221660   4.760   0.303   5.237
 6921SOL     OW21661   4.262   0.187   4.296
 6921SOL    HW121662   4.223   0.112   4.350
 6921SOL    HW221663   4.338   0.154   4.241
 6922SOL     OW21664   1.895   6.037   4.499
 6922SOL    HW121665   1.948   5.957   4.470
 6922SOL    HW221666   1.800   6.027   4.469
 6923SOL     OW21667   6.037   6.386   3.012
 6923SOL    HW121668   6.009   6.422   3.101
 6923SOL    HW221669   6.056   6.288   3.020
 6924SOL     OW21670   3.474   6.008   1.379
 6924SOL    HW121671   3.474   5.923   1.432
 6924SOL    HW221672   3.448   5.988   1.284
 6925SOL     OW21673   5.124   6.234   6.297
 6925SOL    HW121674   5.135   6.309   6.232
 6925SOL    HW221675   5.211   6.185   6.307
 6926SOL     OW21676   2.211   1.326   0.272
 6926SOL    HW121677   2.150   1.361   0.201
 6926SOL    HW221678   2.197   1.377   0.357
 6927SOL     OW21679   3.914   0.995   0.359
 6927SOL    HW121680   3.923   0.945   0.446
 6927SOL    HW221681   3.922   1.093   0.376
 6928SOL     OW21682   4.979   5.385   0.578
 6928SOL    HW121683   4.950   5.459   0.638
 6928SOL    HW221684   4.913   5.376   0.503
 6929SOL     OW21685   5.463   5.071   1.606
 6929SOL    HW121686   5.537   5.122   1.650
 6929SOL    HW221687   5.500   5.014   1.533
 6930SOL     OW21688   0.865   1.139   0.538
 6930SOL    HW121689   0.834   1.227   0.575
 6930SOL    HW221690   0.928   1.156   0.462
 6931SOL     OW21691   2.375   1.932   1.257
 6931SOL    HW121692   2.347   1.902   1.166
 6931SOL    HW221693   2.380   2.031   1.259
 6932SOL     OW21694   4.665   4.919   0.535
 6932SOL    HW121695   4.606   4.848   0.497
 6932SOL    HW221696   4.615   5.005   0.543
 6933SOL     OW21697   3.639   6.211   6.121
 6933SOL    HW121698   3.564   6.255   6.070
 6933SOL    HW221699   3.720   6.205   6.062
 6934SOL     OW21700   4.891   3.827   6.553
 6934SOL    HW121701   4.853   3.821   6.646
 6934SOL    HW221702   4.923   3.736   6.525
 6935SOL     OW21703   4.616   5.673   2.417
 6935SOL    HW121704   4.693   5.730   2.445
 6935SOL    HW221705   4.605   5.596   2.480
 6936SOL     OW21706   0.662   2.436   4.167
 6936SOL    HW121707   0.757   2.439   4.199
 6936SOL    HW221708   0.621   2.349   4.195
 6937SOL     OW21709   5.993   6.153   0.617
 6937SOL    HW121710   6.007   6.242   0.659
 6937SOL    HW221711   6.038   6.082   0.672
 6938SOL     OW21712   0.325   0.931   4.667
 6938SOL    HW121713   0.230   0.910   4.641
 6938SOL    HW221714   0.360   0.859   4.727
 6939SOL     OW21715   6.453   5.216   3.255
 6939SOL    HW121716   6.429   5.301   3.209
 6939SOL    HW221717   6.462   5.232   3.353
 6940SOL     OW21718   5.019   6.725   0.591
 6940SOL    HW121719   5.022   6.641   0.537
 6940SOL    HW221720   5.105   6.774   0.580
 6941SOL     OW21721   2.853   3.564   2.420
 6941SOL    HW121722   2.903   3.506   2.484
 6941SOL    HW221723   2.797   3.507   2.360
 6942SOL     OW21724   6.259   6.443   1.948
 6942SOL    HW121725   6.305   6.424   1.861
 6942SOL    HW221726   6.296   6.527   1.987
 6943SOL     OW21727   3.725   4.719   0.036
 6943SOL    HW121728   3.704   4.793   0.100
 6943SOL    HW221729   3.761   4.759   6.975
 6944SOL     OW21730   0.932   4.729   6.056
 6944SOL    HW121731   0.913   4.807   6.115
 6944SOL    HW221732   0.927   4.757   5.960
 6945SOL     OW21733   6.560   2.200   0.657
 6945SOL    HW121734   6.529   2.114   0.698
 6945SOL    HW221735   6.607   2.180   0.571
 6946SOL     OW21736   3.961   6.008   2.105
 6946SOL    HW121737   3.897   6.046   2.172
 6946SOL    HW221738   4.006   6.082   2.056
 6947SOL     OW21739   4.101   4.906   6.183
 6947SOL    HW121740   4.082   4.867   6.273
 6947SOL    HW221741   4.127   5.002   6.193
 6948SOL     OW21742   0.129   6.434   1.297
 6948SOL    HW121743   0.045   6.488   1.293
 6948SOL    HW221744   0.110   6.346   1.341
 6949SOL     OW21745   2.787   2.221   3.737
 6949SOL    HW121746   2.696   2.249   3.767
 6949SOL    HW221747   2.802   2.125   3.763
 6950SOL     OW21748   1.129   0.272   4.128
 6950SOL    HW121749   1.084   0.183   4.133
 6950SOL    HW221750   1.217   0.262   4.081
 6951SOL     OW21751   6.330   5.260   6.810
 6951SOL    HW121752   6.291   5.177   6.769
 6951SOL    HW221753   6.345   5.328   6.739
 6952SOL     OW21754   2.850   5.074   3.116
 6952SOL    HW121755   2.885   4.983   3.093
 6952SOL    HW221756   2.797   5.110   3.039
 6953SOL     OW21757   5.199   6.933   0.761
 6953SOL    HW121758   5.206   6.964   0.666
 6953SOL    HW221759   5.262   6.856   0.776
 6954SOL     OW21760   0.151   3.354   1.026
 6954SOL    HW121761   0.060   3.377   1.061
 6954SOL    HW221762   0.183   3.426   0.965
 6955SOL     OW21763   5.403   0.220   2.600
 6955SOL    HW121764   5.398   0.193   2.504
 6955SOL    HW221765   5.420   0.138   2.656
 6956SOL     OW21766   6.082   5.709   2.084
 6956SOL    HW121767   6.101   5.668   2.173
 6956SOL    HW221768   6.008   5.659   2.040
 6957SOL     OW21769   5.339   6.097   6.329
 6957SOL    HW121770   5.412   6.073   6.394
 6957SOL    HW221771   5.308   6.015   6.282
 6958SOL     OW21772   3.623   3.564   3.925
 6958SOL    HW121773   3.532   3.600   3.947
 6958SOL    HW221774   3.640   3.575   3.827
 6959SOL     OW21775   1.425   3.851   3.159
 6959SOL    HW121776   1.473   3.787   3.099
 6959SOL    HW221777   1.330   3.859   3.130
 6960SOL     OW21778   1.525   4.794   0.862
 6960SOL    HW121779   1.482   4.881   0.885
 6960SOL    HW221780   1.465   4.718   0.889
 6961SOL     OW21781   4.186   1.202   4.799
 6961SOL    HW121782   4.176   1.297   4.828
 6961SOL    HW221783   4.122   1.183   4.724
 6962SOL     OW21784   3.545   6.540   0.074
 6962SOL    HW121785   3.579   6.485   7.021
 6962SOL    HW221786   3.488   6.614   0.039
 6963SOL     OW21787   4.914   6.003   0.255
 6963SOL    HW121788   4.848   6.075   0.277
 6963SOL    HW221789   5.006   6.043   0.253
 6964SOL     OW21790   3.016   0.295   5.714
 6964SOL    HW121791   3.063   0.263   5.632
 6964SOL    HW221792   3.045   0.241   5.793
 6965SOL     OW21793   1.188   2.125   0.219
 6965SOL    HW121794   1.119   2.056   0.236
 6965SOL    HW221795   1.191   2.147   0.122
 6966SOL     OW21796   1.401   0.904   1.914
 6966SOL    HW121797   1.421   1.002   1.915
 6966SOL    HW221798   1.303   0.891   1.901
 6967SOL     OW21799   3.455   1.546   5.920
 6967SOL    HW121800   3.519   1.471   5.901
 6967SOL    HW221801   3.489   1.599   5.998
 6968SOL     OW21802   3.688   0.111   3.090
 6968SOL    HW121803   3.691   0.185   3.022
 6968SOL    HW221804   3.721   0.026   3.049
 6969SOL     OW21805   2.861   1.655   1.163
 6969SOL    HW121806   2.872   1.558   1.183
 6969SOL    HW221807   2.901   1.709   1.238
 6970SOL     OW21808   3.127   4.878   6.317
 6970SOL    HW121809   3.081   4.802   6.271
 6970SOL    HW221810   3.063   4.953   6.331
 6971SOL     OW21811   5.228   4.264   1.294
 6971SOL    HW121812   5.151   4.201   1.287
 6971SOL    HW221813   5.195   4.354   1.324
 6972SOL     OW21814   4.933   3.512   3.010
 6972SOL    HW121815   4.948   3.602   3.052
 6972SOL    HW221816   5.021   3.469   2.991
 6973SOL     OW21817   1.208   2.026   2.475
 6973SOL    HW121818   1.214   2.103   2.539
 6973SOL    HW221819   1.285   2.028   2.412
 6974SOL     OW21820   2.996   3.795   2.492
 6974SOL    HW121821   2.930   3.726   2.463
 6974SOL    HW221822   3.008   3.862   2.420
 6975SOL     OW21823   3.199   5.598   4.766
 6975SOL    HW121824   3.131   5.549   4.712
 6975SOL    HW221825   3.179   5.587   4.864
 6976SOL     OW21826   4.795   4.025   5.385
 6976SOL    HW121827   4.699   4.016   5.410
 6976SOL    HW221828   4.803   4.028   5.285
 6977SOL     OW21829   4.034   4.296   1.698
 6977SOL    HW121830   4.083   4.212   1.720
 6977SOL    HW221831   3.973   4.280   1.620
 6978SOL     OW21832   5.800   3.047   0.904
 6978SOL    HW121833   5.805   3.143   0.932
 6978SOL    HW221834   5.770   2.991   0.981
 6979SOL     OW21835   0.976   3.487   1.440
 6979SOL    HW121836   0.889   3.532   1.419
 6979SOL    HW221837   1.027   3.542   1.505
 6980SOL     OW21838   1.591   0.774   3.051
 6980SOL    HW121839   1.542   0.687   3.049
 6980SOL    HW221840   1.556   0.834   2.979
 6981SOL     OW21841   3.671   3.429   6.885
 6981SOL    HW121842   3.619   3.469   6.960
 6981SOL    HW221843   3.763   3.405   6.917
 6982SOL     OW21844   1.079   1.206   4.096
 6982SOL    HW121845   1.066   1.184   4.193
 6982SOL    HW221846   1.148   1.144   4.057
 6983SOL     OW21847   4.191   0.946   4.898
 6983SOL    HW121848   4.189   1.041   4.868
 6983SOL    HW221849   4.286   0.914   4.904
 6984SOL     OW21850   1.329   2.700   2.764
 6984SOL    HW121851   1.399   2.630   2.748
 6984SOL    HW221852   1.238   2.657   2.758
 6985SOL     OW21853   0.100   4.337   6.995
 6985SOL    HW121854   0.151   4.312   6.913
 6985SOL    HW221855   0.069   4.255   0.018
 6986SOL     OW21856   4.097   6.142   6.422
 6986SOL    HW121857   4.000   6.124   6.439
 6986SOL    HW221858   4.132   6.204   6.492
 6987SOL     OW21859   0.127   1.621   5.556
 6987SOL    HW121860   0.119   1.569   5.471
 6987SOL    HW221861   0.188   1.573   5.619
 6988SOL     OW21862   2.850   0.402   6.195
 6988SOL    HW121863   2.902   0.381   6.278
 6988SOL    HW221864   2.898   0.365   6.115
 6989SOL     OW21865   0.023   4.223   2.162
 6989SOL    HW121866   0.055   4.236   2.256
 6989SOL    HW221867   6.960   4.174   2.163
 6990SOL     OW21868   3.823   2.944   2.162
 6990SOL    HW121869   3.906   2.985   2.199
 6990SOL    HW221870   3.816   2.849   2.193
 6991SOL     OW21871   5.256   4.857   3.109
 6991SOL    HW121872   5.235   4.944   3.152
 6991SOL    HW221873   5.353   4.835   3.123
 6992SOL     OW21874   0.227   6.790   0.421
 6992SOL    HW121875   0.290   6.809   0.346
 6992SOL    HW221876   0.133   6.789   0.386
 6993SOL     OW21877   5.746   1.071   1.880
 6993SOL    HW121878   5.695   1.036   1.801
 6993SOL    HW221879   5.831   1.114   1.849
 6994SOL     OW21880   1.490   0.002   3.737
 6994SOL    HW121881   1.553   7.004   3.811
 6994SOL    HW221882   1.523   6.987   3.652
 6995SOL     OW21883   0.773   3.822   0.080
 6995SOL    HW121884   0.720   3.746   0.043
 6995SOL    HW221885   0.719   3.871   0.148
 6996SOL     OW21886   1.687   0.507   6.789
 6996SOL    HW121887   1.634   0.542   6.712
 6996SOL    HW221888   1.673   0.408   6.796
 6997SOL     OW21889   6.818   4.621   5.212
 6997SOL    HW121890   6.854   4.662   5.129
 6997SOL    HW221891   6.861   4.533   5.228
 6998SOL     OW21892   1.070   1.504   1.340
 6998SOL    HW121893   1.095   1.418   1.296
 6998SOL    HW221894   1.152   1.546   1.380
 6999SOL     OW21895   0.575   2.762   6.435
 6999SOL    HW121896   0.538   2.675   6.467
 6999SOL    HW221897   0.675   2.762   6.443
 7000SOL     OW21898   6.116   0.311   2.651
 7000SOL    HW121899   6.118   0.213   2.633
 7000SOL    HW221900   6.096   0.360   2.566
 7001SOL     OW21901   0.851   1.580   4.511
 7001SOL    HW121902   0.935   1.531   4.489
 7001SOL    HW221903   0.774   1.537   4.464
 7002SOL     OW21904   0.609   5.510   3.777
 7002SOL    HW121905   0.632   5.471   3.688
 7002SOL    HW221906   0.591   5.437   3.843
 7003SOL     OW21907   5.919   4.711   1.159
 7003SOL    HW121908   5.978   4.633   1.182
 7003SOL    HW221909   5.941   4.743   1.067
 7004SOL     OW21910   1.651   5.841   0.311
 7004SOL    HW121911   1.578   5.786   0.353
 7004SOL    HW221912   1.611   5.919   0.264
 7005SOL     OW21913   0.958   0.309   0.005
 7005SOL    HW121914   0.943   0.211   7.014
 7005SOL    HW221915   1.046   0.321   0.052
 7006SOL     OW21916   6.836   6.606   3.488
 7006SOL    HW121917   6.769   6.651   3.429
 7006SOL    HW221918   6.807   6.615   3.583
 7007SOL     OW21919   4.187   0.774   5.776
 7007SOL    HW121920   4.089   0.780   5.755
 7007SOL    HW221921   4.200   0.785   5.875
 7008SOL     OW21922   6.634   4.272   3.516
 7008SOL    HW121923   6.613   4.183   3.554
 7008SOL    HW221924   6.727   4.272   3.479
 7009SOL     OW21925   3.826   6.574   2.343
 7009SOL    HW121926   3.806   6.484   2.382
 7009SOL    HW221927   3.755   6.599   2.278
 7010SOL     OW21928   5.569   3.973   2.372
 7010SOL    HW121929   5.554   4.067   2.341
 7010SOL    HW221930   5.587   3.972   2.470
 7011SOL     OW21931   3.405   6.435   0.482
 7011SOL    HW121932   3.333   6.452   0.549
 7011SOL    HW221933   3.408   6.511   0.417
 7012SOL     OW21934   1.256   2.898   0.755
 7012SOL    HW121935   1.242   2.845   0.671
 7012SOL    HW221936   1.308   2.844   0.821
 7013SOL     OW21937   2.691   0.963   6.733
 7013SOL    HW121938   2.623   1.012   6.787
 7013SOL    HW221939   2.665   0.867   6.724
 7014SOL     OW21940   6.129   3.859   1.220
 7014SOL    HW121941   6.038   3.863   1.261
 7014SOL    HW221942   6.183   3.789   1.267
 7015SOL     OW21943   5.856   4.277   2.272
 7015SOL    HW121944   5.948   4.313   2.258
 7015SOL    HW221945   5.804   4.339   2.331
 7016SOL     OW21946   3.386   4.919   1.022
 7016SOL    HW121947   3.395   5.018   1.033
 7016SOL    HW221948   3.291   4.892   1.033
 7017SOL     OW21949   3.839   4.894   3.699
 7017SOL    HW121950   3.741   4.875   3.703
 7017SOL    HW221951   3.854   4.993   3.699
 7018SOL     OW21952   4.956   3.169   4.388
 7018SOL    HW121953   4.926   3.222   4.467
 7018SOL    HW221954   5.055   3.168   4.384
 7019SOL     OW21955   4.890   5.426   2.130
 7019SOL    HW121956   4.926   5.447   2.039
 7019SOL    HW221957   4.944   5.354   2.172
 7020SOL     OW21958   0.723   3.227   6.628
 7020SOL    HW121959   0.762   3.213   6.537
 7020SOL    HW221960   0.765   3.307   6.670
 7021SOL     OW21961   0.951   2.763   4.994
 7021SOL    HW121962   0.906   2.777   5.082
 7021SOL    HW221963   0.969   2.665   4.981
 7022SOL     OW21964   4.112   0.719   0.059
 7022SOL    HW121965   4.091   0.621   0.057
 7022SOL    HW221966   4.181   0.737   0.129
 7023SOL     OW21967   0.668   1.663   1.947
 7023SOL    HW121968   0.614   1.608   1.883
 7023SOL    HW221969   0.668   1.620   2.037
 7024SOL     OW21970   3.725   2.916   3.906
 7024SOL    HW121971   3.645   2.884   3.957
 7024SOL    HW221972   3.797   2.943   3.970
 7025SOL     OW21973   3.245   0.076   0.074
 7025SOL    HW121974   3.310   0.140   0.116
 7025SOL    HW221975   3.258   7.010   0.115
 7026SOL     OW21976   3.206   1.222   1.206
 7026SOL    HW121977   3.169   1.293   1.267
 7026SOL    HW221978   3.272   1.166   1.256
 7027SOL     OW21979   2.436   5.601   2.967
 7027SOL    HW121980   2.401   5.693   2.951
 7027SOL    HW221981   2.393   5.538   2.902
 7028SOL     OW21982   2.739   0.665   3.809
 7028SOL    HW121983   2.795   0.747   3.796
 7028SOL    HW221984   2.663   0.666   3.743
 7029SOL     OW21985   3.203   3.364   5.626
 7029SOL    HW121986   3.281   3.385   5.567
 7029SOL    HW221987   3.234   3.358   5.721
 7030SOL     OW21988   0.708   1.827   4.551
 7030SOL    HW121989   0.774   1.753   4.542
 7030SOL    HW221990   0.719   1.892   4.476
 7031SOL     OW21991   4.617   6.073   0.549
 7031SOL    HW121992   4.524   6.103   0.569
 7031SOL    HW221993   4.683   6.128   0.601
 7032SOL     OW21994   4.169   0.318   4.059
 7032SOL    HW121995   4.190   0.282   4.149
 7032SOL    HW221996   4.117   0.250   4.007
 7033SOL     OW21997   1.320   2.486   5.040
 7033SOL    HW121998   1.396   2.446   4.987
 7033SOL    HW221999   1.288   2.419   5.108
 7034SOL     OW22000   6.491   2.188   3.400
 7034SOL    HW122001   6.391   2.191   3.399
 7034SOL    HW222002   6.524   2.135   3.322
 7035SOL     OW22003   1.870   0.226   1.621
 7035SOL    HW122004   1.887   0.321   1.645
 7035SOL    HW222005   1.807   0.222   1.543
 7036SOL     OW22006   0.412   1.326   2.200
 7036SOL    HW122007   0.315   1.311   2.217
 7036SOL    HW222008   0.443   1.405   2.253
 7037SOL     OW22009   0.134   0.244   5.454
 7037SOL    HW122010   0.223   0.250   5.410
 7037SOL    HW222011   0.115   0.328   5.504
 7038SOL     OW22012   2.282   4.441   6.342
 7038SOL    HW122013   2.231   4.355   6.336
 7038SOL    HW222014   2.378   4.425   6.318
 7039SOL     OW22015   0.758   5.202   3.114
 7039SOL    HW122016   0.745   5.242   3.023
 7039SOL    HW222017   0.671   5.164   3.146
 7040SOL     OW22018   4.419   2.124   4.993
 7040SOL    HW122019   4.321   2.101   4.994
 7040SOL    HW222020   4.431   2.221   5.013
 7041SOL     OW22021   1.212   1.380   3.612
 7041SOL    HW122022   1.164   1.333   3.687
 7041SOL    HW222023   1.176   1.348   3.525
 7042SOL     OW22024   4.562   6.097   5.133
 7042SOL    HW122025   4.566   6.125   5.037
 7042SOL    HW222026   4.576   5.999   5.140
 7043SOL     OW22027   2.385   4.315   3.559
 7043SOL    HW122028   2.391   4.218   3.535
 7043SOL    HW222029   2.398   4.370   3.477
 7044SOL     OW22030   4.966   6.179   4.329
 7044SOL    HW122031   4.957   6.136   4.419
 7044SOL    HW222032   4.909   6.130   4.263
 7045SOL     OW22033   6.008   5.324   2.341
 7045SOL    HW122034   5.915   5.323   2.305
 7045SOL    HW222035   6.014   5.261   2.419
 7046SOL     OW22036   3.034   2.148   4.293
 7046SOL    HW122037   3.034   2.058   4.336
 7046SOL    HW222038   2.988   2.214   4.353
 7047SOL     OW22039   0.671   0.451   1.519
 7047SOL    HW122040   0.737   0.382   1.488
 7047SOL    HW222041   0.628   0.420   1.604
 7048SOL     OW22042   6.681   6.356   5.093
 7048SOL    HW122043   6.726   6.395   5.014
 7048SOL    HW222044   6.595   6.312   5.065
 7049SOL     OW22045   3.986   1.607   1.841
 7049SOL    HW122046   4.082   1.629   1.856
 7049SOL    HW222047   3.979   1.527   1.782
 7050SOL     OW22048   3.675   4.955   0.779
 7050SOL    HW122049   3.624   4.963   0.865
 7050SOL    HW222050   3.666   4.862   0.744
 7051SOL     OW22051   0.257   0.081   1.932
 7051SOL    HW122052   0.312   0.158   1.899
 7051SOL    HW222053   0.236   0.094   2.029
 7052SOL     OW22054   5.736   6.756   3.086
 7052SOL    HW122055   5.808   6.722   3.025
 7052SOL    HW222056   5.766   6.841   3.128
 7053SOL     OW22057   1.355   3.246   3.810
 7053SOL    HW122058   1.326   3.184   3.883
 7053SOL    HW222059   1.377   3.335   3.850
 7054SOL     OW22060   0.043   0.446   1.032
 7054SOL    HW122061   0.060   0.530   1.083
 7054SOL    HW222062   0.094   0.370   1.072
 7055SOL     OW22063   1.852   0.491   6.531
 7055SOL    HW122064   1.809   0.418   6.477
 7055SOL    HW222065   1.785   0.526   6.597
 7056SOL     OW22066   6.132   5.921   1.298
 7056SOL    HW122067   6.111   5.951   1.205
 7056SOL    HW222068   6.223   5.879   1.299
 7057SOL     OW22069   2.962   4.933   4.880
 7057SOL    HW122070   2.878   4.958   4.928
 7057SOL    HW222071   3.029   5.006   4.891
 7058SOL     OW22072   5.126   2.058   6.634
 7058SOL    HW122073   5.030   2.034   6.652
 7058SOL    HW222074   5.180   1.974   6.628
 7059SOL     OW22075   2.118   1.501   4.675
 7059SOL    HW122076   2.201   1.455   4.709
 7059SOL    HW222077   2.110   1.485   4.577
 7060SOL     OW22078   3.242   6.789   2.648
 7060SOL    HW122079   3.210   6.836   2.565
 7060SOL    HW222080   3.339   6.808   2.662
 7061SOL     OW22081   1.824   2.047   2.679
 7061SOL    HW122082   1.801   2.053   2.777
 7061SOL    HW222083   1.765   2.109   2.627
 7062SOL     OW22084   4.637   1.728   3.920
 7062SOL    HW122085   4.657   1.677   3.837
 7062SOL    HW222086   4.722   1.742   3.972
 7063SOL     OW22087   0.735   6.546   2.481
 7063SOL    HW122088   0.711   6.464   2.429
 7063SOL    HW222089   0.652   6.594   2.509
 7064SOL     OW22090   4.852   1.927   5.709
 7064SOL    HW122091   4.830   2.000   5.644
 7064SOL    HW222092   4.948   1.901   5.699
 7065SOL     OW22093   3.716   4.684   5.608
 7065SOL    HW122094   3.671   4.647   5.690
 7065SOL    HW222095   3.732   4.611   5.542
 7066SOL     OW22096   4.566   0.303   6.957
 7066SOL    HW122097   4.470   0.314   6.981
 7066SOL    HW222098   4.581   0.334   6.863
 7067SOL     OW22099   1.999   3.158   6.881
 7067SOL    HW122100   2.080   3.171   6.824
 7067SOL    HW222101   1.974   3.245   6.924
 7068SOL     OW22102   5.760   4.147   4.176
 7068SOL    HW122103   5.683   4.123   4.235
 7068SOL    HW222104   5.728   4.201   4.098
 7069SOL     OW22105   6.095   1.138   5.755
 7069SOL    HW122106   6.010   1.095   5.724
 7069SOL    HW222107   6.079   1.234   5.777
 7070SOL     OW22108   0.253   6.652   4.797
 7070SOL    HW122109   0.252   6.625   4.893
 7070SOL    HW222110   0.347   6.648   4.762
 7071SOL     OW22111   4.961   6.543   6.466
 7071SOL    HW122112   5.057   6.563   6.447
 7071SOL    HW222113   4.954   6.453   6.509
 7072SOL     OW22114   0.800   4.343   6.515
 7072SOL    HW122115   0.727   4.380   6.457
 7072SOL    HW222116   0.759   4.294   6.592
 7073SOL     OW22117   4.327   0.307   3.378
 7073SOL    HW122118   4.339   0.331   3.282
 7073SOL    HW222119   4.349   0.386   3.435
 7074SOL     OW22120   6.603   3.267   3.307
 7074SOL    HW122121   6.693   3.305   3.286
 7074SOL    HW222122   6.541   3.341   3.333
 7075SOL     OW22123   3.485   4.747   5.353
 7075SOL    HW122124   3.390   4.757   5.324
 7075SOL    HW222125   3.494   4.667   5.412
 7076SOL     OW22126   5.973   3.310   1.925
 7076SOL    HW122127   5.960   3.356   1.837
 7076SOL    HW222128   5.886   3.303   1.972
 7077SOL     OW22129   2.432   5.076   2.204
 7077SOL    HW122130   2.514   5.088   2.148
 7077SOL    HW222131   2.437   5.138   2.283
 7078SOL     OW22132   5.497   6.846   0.553
 7078SOL    HW122133   5.517   6.900   0.635
 7078SOL    HW222134   5.410   6.877   0.513
 7079SOL     OW22135   1.024   6.887   3.683
 7079SOL    HW122136   1.098   6.822   3.666
 7079SOL    HW222137   1.058   6.980   3.668
 7080SOL     OW22138   4.211   1.896   5.041
 7080SOL    HW122139   4.230   1.798   5.037
 7080SOL    HW222140   4.150   1.915   5.118
 7081SOL     OW22141   1.343   1.022   0.021
 7081SOL    HW122142   1.419   0.957   0.020
 7081SOL    HW222143   1.368   1.101   0.077
 7082SOL     OW22144   6.603   3.694   2.013
 7082SOL    HW122145   6.519   3.743   1.989
 7082SOL    HW222146   6.656   3.676   1.929
 7083SOL     OW22147   6.582   2.550   2.526
 7083SOL    HW122148   6.522   2.474   2.502
 7083SOL    HW222149   6.642   2.524   2.602
 7084SOL     OW22150   0.595   5.757   0.074
 7084SOL    HW122151   0.525   5.810   0.122
 7084SOL    HW222152   0.668   5.818   0.043
 7085SOL     OW22153   0.233   2.509   2.581
 7085SOL    HW122154   0.161   2.534   2.646
 7085SOL    HW222155   0.201   2.435   2.523
 7086SOL     OW22156   6.334   0.973   6.625
 7086SOL    HW122157   6.345   0.943   6.720
 7086SOL    HW222158   6.421   0.962   6.577
 7087SOL     OW22159   5.684   3.025   2.678
 7087SOL    HW122160   5.751   2.951   2.684
 7087SOL    HW222161   5.732   3.112   2.663
 7088SOL     OW22162   5.637   1.763   5.169
 7088SOL    HW122163   5.694   1.825   5.116
 7088SOL    HW222164   5.693   1.716   5.238
 7089SOL     OW22165   4.311   5.471   1.949
 7089SOL    HW122166   4.364   5.387   1.957
 7089SOL    HW222167   4.320   5.525   2.033
 7090SOL     OW22168   3.583   1.468   1.015
 7090SOL    HW122169   3.488   1.441   1.031
 7090SOL    HW222170   3.641   1.431   1.088
 7091SOL     OW22171   0.809   6.856   0.330
 7091SOL    HW122172   0.808   6.873   0.429
 7091SOL    HW222173   0.894   6.892   0.291
 7092SOL     OW22174   4.200   2.041   6.666
 7092SOL    HW122175   4.232   2.136   6.659
 7092SOL    HW222176   4.105   2.040   6.697
 7093SOL     OW22177   3.321   3.929   0.692
 7093SOL    HW122178   3.302   3.977   0.606
 7093SOL    HW222179   3.251   3.860   0.708
 7094SOL     OW22180   2.086   6.898   5.668
 7094SOL    HW122181   2.115   6.803   5.680
 7094SOL    HW222182   2.036   6.906   5.581
 7095SOL     OW22183   2.952   4.865   5.639
 7095SOL    HW122184   2.920   4.945   5.690
 7095SOL    HW222185   2.875   4.803   5.623
 7096SOL     OW22186   6.775   0.615   1.075
 7096SOL    HW122187   6.830   0.611   1.159
 7096SOL    HW222188   6.832   0.647   0.999
 7097SOL     OW22189   5.580   0.046   1.825
 7097SOL    HW122190   5.644   0.064   1.750
 7097SOL    HW222191   5.623   7.009   1.892
 7098SOL     OW22192   1.523   0.086   4.120
 7098SOL    HW122193   1.463   0.091   4.041
 7098SOL    HW222194   1.478   0.034   4.193
 7099SOL     OW22195   3.312   2.109   4.231
 7099SOL    HW122196   3.326   2.136   4.327
 7099SOL    HW222197   3.223   2.142   4.200
 7100SOL     OW22198   0.784   3.471   0.848
 7100SOL    HW122199   0.818   3.382   0.818
 7100SOL    HW222200   0.832   3.543   0.798
 7101SOL     OW22201   1.825   6.731   5.204
 7101SOL    HW122202   1.878   6.702   5.284
 7101SOL    HW222203   1.884   6.731   5.123
 7102SOL     OW22204   5.016   0.884   0.546
 7102SOL    HW122205   5.105   0.857   0.583
 7102SOL    HW222206   4.969   0.943   0.612
 7103SOL     OW22207   5.062   5.300   2.310
 7103SOL    HW122208   5.114   5.240   2.370
 7103SOL    HW222209   4.971   5.262   2.295
 7104SOL     OW22210   5.490   3.162   3.240
 7104SOL    HW122211   5.546   3.181   3.321
 7104SOL    HW222212   5.490   3.063   3.223
 7105SOL     OW22213   3.594   4.159   4.059
 7105SOL    HW122214   3.625   4.066   4.039
 7105SOL    HW222215   3.512   4.155   4.117
 7106SOL     OW22216   3.731   3.054   1.462
 7106SOL    HW122217   3.637   3.033   1.489
 7106SOL    HW222218   3.787   3.065   1.544
 7107SOL     OW22219   4.224   6.894   0.107
 7107SOL    HW122220   4.230   6.820   0.173
 7107SOL    HW222221   4.313   6.908   0.064
 7108SOL     OW22222   2.890   6.097   2.773
 7108SOL    HW122223   2.929   6.142   2.693
 7108SOL    HW222224   2.888   6.162   2.850
 7109SOL     OW22225   1.672   0.451   6.127
 7109SOL    HW122226   1.719   0.532   6.161
 7109SOL    HW222227   1.707   0.370   6.174
 7110SOL     OW22228   3.207   6.450   4.425
 7110SOL    HW122229   3.219   6.464   4.523
 7110SOL    HW222230   3.140   6.377   4.410
 7111SOL     OW22231   1.333   0.756   3.983
 7111SOL    HW122232   1.233   0.757   3.990
 7111SOL    HW222233   1.362   0.668   3.944
 7112SOL     OW22234   2.077   4.485   4.501
 7112SOL    HW122235   2.085   4.556   4.431
 7112SOL    HW222236   2.140   4.411   4.481
 7113SOL     OW22237   3.003   4.806   5.155
 7113SOL    HW122238   2.921   4.773   5.108
 7113SOL    HW222239   3.042   4.731   5.209
 7114SOL     OW22240   4.866   5.286   1.264
 7114SOL    HW122241   4.875   5.359   1.332
 7114SOL    HW222242   4.928   5.211   1.288
 7115SOL     OW22243   6.220   4.291   6.679
 7115SOL    HW122244   6.245   4.237   6.599
 7115SOL    HW222245   6.300   4.343   6.711
 7116SOL     OW22246   6.588   3.390   3.985
 7116SOL    HW122247   6.665   3.440   4.024
 7116SOL    HW222248   6.535   3.452   3.927
 7117SOL     OW22249   6.121   0.261   3.329
 7117SOL    HW122250   6.094   0.233   3.421
 7117SOL    HW222251   6.115   0.183   3.267
 7118SOL     OW22252   3.992   4.530   5.302
 7118SOL    HW122253   3.937   4.608   5.271
 7118SOL    HW222254   4.084   4.537   5.262
 7119SOL     OW22255   4.975   0.188   4.900
 7119SOL    HW122256   4.882   0.220   4.882
 7119SOL    HW222257   4.989   0.100   4.855
 7120SOL     OW22258   4.854   1.272   1.020
 7120SOL    HW122259   4.896   1.183   1.040
 7120SOL    HW222260   4.858   1.330   1.101
 7121SOL     OW22261   0.910   6.533   3.500
 7121SOL    HW122262   0.996   6.498   3.535
 7121SOL    HW222263   0.836   6.469   3.522
 7122SOL     OW22264   2.953   0.236   5.994
 7122SOL    HW122265   2.991   0.144   6.006
 7122SOL    HW222266   2.872   0.230   5.935
 7123SOL     OW22267   6.122   5.247   5.021
 7123SOL    HW122268   6.171   5.211   5.101
 7123SOL    HW222269   6.026   5.219   5.026
 7124SOL     OW22270   0.749   2.538   1.355
 7124SOL    HW122271   0.753   2.447   1.313
 7124SOL    HW222272   0.659   2.579   1.337
 7125SOL     OW22273   0.881   0.292   1.422
 7125SOL    HW122274   0.930   0.281   1.508
 7125SOL    HW222275   0.942   0.331   1.353
 7126SOL     OW22276   4.031   6.054   1.594
 7126SOL    HW122277   4.000   5.959   1.583
 7126SOL    HW222278   4.120   6.065   1.550
 7127SOL     OW22279   3.055   6.058   5.080
 7127SOL    HW122280   3.110   6.048   5.163
 7127SOL    HW222281   2.983   5.989   5.079
 7128SOL     OW22282   3.239   4.442   6.622
 7128SOL    HW122283   3.259   4.470   6.528
 7128SOL    HW222284   3.248   4.520   6.683
 7129SOL     OW22285   0.249   1.210   1.374
 7129SOL    HW122286   0.300   1.296   1.377
 7129SOL    HW222287   0.312   1.134   1.390
 7130SOL     OW22288   2.759   6.694   4.421
 7130SOL    HW122289   2.786   6.680   4.326
 7130SOL    HW222290   2.816   6.638   4.481
 7131SOL     OW22291   4.103   0.613   2.410
 7131SOL    HW122292   4.076   0.645   2.319
 7131SOL    HW222293   4.022   0.603   2.467
 7132SOL     OW22294   5.506   3.721   6.819
 7132SOL    HW122295   5.547   3.637   6.783
 7132SOL    HW222296   5.514   3.794   6.751
 7133SOL     OW22297   3.370   5.738   3.470
 7133SOL    HW122298   3.382   5.724   3.568
 7133SOL    HW222299   3.300   5.677   3.435
 7134SOL     OW22300   6.082   5.457   1.398
 7134SOL    HW122301   6.089   5.548   1.438
 7134SOL    HW222302   6.162   5.403   1.423
 7135SOL     OW22303   2.110   3.237   2.047
 7135SOL    HW122304   2.121   3.173   1.971
 7135SOL    HW222305   2.162   3.321   2.029
 7136SOL     OW22306   3.070   1.748   1.726
 7136SOL    HW122307   3.128   1.824   1.753
 7136SOL    HW222308   2.978   1.781   1.705
 7137SOL     OW22309   2.805   2.111   1.536
 7137SOL    HW122310   2.860   2.125   1.453
 7137SOL    HW222311   2.801   2.196   1.588
 7138SOL     OW22312   1.962   1.883   0.607
 7138SOL    HW122313   1.936   1.847   0.697
 7138SOL    HW222314   2.061   1.896   0.604
 7139SOL     OW22315   6.192   5.703   1.815
 7139SOL    HW122316   6.132   5.693   1.736
 7139SOL    HW222317   6.136   5.710   1.898
 7140SOL     OW22318   6.634   3.508   0.637
 7140SOL    HW122319   6.635   3.429   0.698
 7140SOL    HW222320   6.578   3.487   0.557
 7141SOL     OW22321   3.991   6.711   1.269
 7141SOL    HW122322   4.090   6.708   1.281
 7141SOL    HW222323   3.966   6.680   1.178
 7142SOL     OW22324   3.400   0.651   4.710
 7142SOL    HW122325   3.336   0.647   4.633
 7142SOL    HW222326   3.387   0.570   4.768
 7143SOL     OW22327   2.432   4.772   6.671
 7143SOL    HW122328   2.483   4.739   6.750
 7143SOL    HW222329   2.369   4.700   6.640
 7144SOL     OW22330   6.713   1.210   4.319
 7144SOL    HW122331   6.636   1.233   4.379
 7144SOL    HW222332   6.737   1.114   4.333
 7145SOL     OW22333   4.975   2.090   0.360
 7145SOL    HW122334   4.933   2.104   0.450
 7145SOL    HW222335   4.909   2.115   0.288
 7146SOL     OW22336   2.275   0.887   5.343
 7146SOL    HW122337   2.264   0.880   5.244
 7146SOL    HW222338   2.370   0.906   5.365
 7147SOL     OW22339   5.652   4.432   2.435
 7147SOL    HW122340   5.712   4.510   2.414
 7147SOL    HW222341   5.633   4.429   2.533
 7148SOL     OW22342   6.625   6.135   1.040
 7148SOL    HW122343   6.701   6.099   1.095
 7148SOL    HW222344   6.649   6.129   0.943
 7149SOL     OW22345   6.504   5.227   4.375
 7149SOL    HW122346   6.519   5.139   4.330
 7149SOL    HW222347   6.450   5.213   4.458
 7150SOL     OW22348   4.189   3.487   0.232
 7150SOL    HW122349   4.144   3.464   0.319
 7150SOL    HW222350   4.284   3.512   0.249
 7151SOL     OW22351   3.701   0.249   0.716
 7151SOL    HW122352   3.694   0.303   0.633
 7151SOL    HW222353   3.732   0.307   0.791
 7152SOL     OW22354   0.498   1.259   6.714
 7152SOL    HW122355   0.492   1.210   6.627
 7152SOL    HW222356   0.490   1.357   6.697
 7153SOL     OW22357   4.277   6.441   0.972
 7153SOL    HW122358   4.337   6.473   1.046
 7153SOL    HW222359   4.285   6.503   0.894
 7154SOL     OW22360   4.491   1.350   2.252
 7154SOL    HW122361   4.466   1.323   2.345
 7154SOL    HW222362   4.546   1.278   2.210
 7155SOL     OW22363   3.522   1.827   2.574
 7155SOL    HW122364   3.621   1.822   2.568
 7155SOL    HW222365   3.481   1.767   2.505
 7156SOL     OW22366   6.117   3.841   0.327
 7156SOL    HW122367   6.173   3.915   0.290
 7156SOL    HW222368   6.176   3.773   0.371
 7157SOL     OW22369   6.007   4.254   6.151
 7157SOL    HW122370   6.012   4.350   6.180
 7157SOL    HW222371   6.086   4.204   6.187
 7158SOL     OW22372   4.806   6.778   3.984
 7158SOL    HW122373   4.762   6.689   3.971
 7158SOL    HW222374   4.860   6.800   3.903
 7159SOL     OW22375   0.411   5.711   3.658
 7159SOL    HW122376   0.431   5.809   3.656
 7159SOL    HW222377   0.497   5.660   3.664
 7160SOL     OW22378   5.486   0.092   3.024
 7160SOL    HW122379   5.565   0.153   3.026
 7160SOL    HW222380   5.502   0.014   3.084
 7161SOL     OW22381   3.809   3.192   3.406
 7161SOL    HW122382   3.713   3.169   3.421
 7161SOL    HW222383   3.825   3.288   3.430
 7162SOL     OW22384   0.493   5.272   2.435
 7162SOL    HW122385   0.533   5.354   2.477
 7162SOL    HW222386   0.394   5.279   2.437
 7163SOL     OW22387   1.008   1.383   1.961
 7163SOL    HW122388   1.047   1.291   1.953
 7163SOL    HW222389   0.949   1.400   1.882
 7164SOL     OW22390   1.553   1.289   5.998
 7164SOL    HW122391   1.546   1.355   6.073
 7164SOL    HW222392   1.461   1.260   5.970
 7165SOL     OW22393   6.222   0.348   0.154
 7165SOL    HW122394   6.291   0.376   0.088
 7165SOL    HW222395   6.193   0.255   0.135
 7166SOL     OW22396   5.391   6.780   6.368
 7166SOL    HW122397   5.398   6.770   6.269
 7166SOL    HW222398   5.392   6.878   6.391
 7167SOL     OW22399   5.724   2.091   4.757
 7167SOL    HW122400   5.758   2.005   4.794
 7167SOL    HW222401   5.780   2.167   4.790
 7168SOL     OW22402   2.545   0.858   2.014
 7168SOL    HW122403   2.454   0.898   2.025
 7168SOL    HW222404   2.585   0.842   2.105
 7169SOL     OW22405   2.181   4.311   6.006
 7169SOL    HW122406   2.188   4.213   6.024
 7169SOL    HW222407   2.118   4.326   5.929
 7170SOL     OW22408   4.159   0.898   1.898
 7170SOL    HW122409   4.254   0.868   1.903
 7170SOL    HW222410   4.147   0.981   1.952
 7171SOL     OW22411   5.825   5.014   0.773
 7171SOL    HW122412   5.783   4.964   0.698
 7171SOL    HW222413   5.872   4.950   0.834
 7172SOL     OW22414   1.542   1.299   4.230
 7172SOL    HW122415   1.586   1.257   4.309
 7172SOL    HW222416   1.444   1.280   4.233
 7173SOL     OW22417   5.387   5.889   6.725
 7173SOL    HW122418   5.306   5.945   6.704
 7173SOL    HW222419   5.360   5.812   6.782
 7174SOL     OW22420   6.126   4.511   1.129
 7174SOL    HW122421   6.130   4.413   1.110
 7174SOL    HW222422   6.148   4.562   1.047
 7175SOL     OW22423   5.776   3.697   5.418
 7175SOL    HW122424   5.749   3.786   5.383
 7175SOL    HW222425   5.766   3.628   5.345
 7176SOL     OW22426   0.023   1.616   4.479
 7176SOL    HW122427   6.972   1.663   4.526
 7176SOL    HW222428   7.010   1.557   4.407
 7177SOL     OW22429   1.814   5.271   4.863
 7177SOL    HW122430   1.896   5.315   4.901
 7177SOL    HW222431   1.744   5.266   4.934
 7178SOL     OW22432   0.773   0.856   5.543
 7178SOL    HW122433   0.702   0.923   5.562
 7178SOL    HW222434   0.801   0.812   5.629
 7179SOL     OW22435   3.463   5.730   6.741
 7179SOL    HW122436   3.363   5.724   6.739
 7179SOL    HW222437   3.499   5.731   6.648
 7180SOL     OW22438   1.309   4.873   1.330
 7180SOL    HW122439   1.362   4.885   1.414
 7180SOL    HW222440   1.347   4.798   1.277
 7181SOL     OW22441   2.407   1.705   5.950
 7181SOL    HW122442   2.392   1.647   5.869
 7181SOL    HW222443   2.326   1.762   5.965
 7182SOL     OW22444   0.939   3.638   4.003
 7182SOL    HW122445   0.946   3.574   3.926
 7182SOL    HW222446   0.919   3.729   3.968
 7183SOL     OW22447   1.322   6.435   1.479
 7183SOL    HW122448   1.331   6.336   1.486
 7183SOL    HW222449   1.412   6.476   1.463
 7184SOL     OW22450   6.431   0.184   3.926
 7184SOL    HW122451   6.423   0.102   3.982
 7184SOL    HW222452   6.373   0.256   3.963
 7185SOL     OW22453   4.735   0.532   4.788
 7185SOL    HW122454   4.820   0.519   4.739
 7185SOL    HW222455   4.715   0.450   4.842
 7186SOL     OW22456   0.452   0.060   0.053
 7186SOL    HW122457   0.380   0.050   0.121
 7186SOL    HW222458   0.459   6.999   7.023
 7187SOL     OW22459   2.967   3.256   4.989
 7187SOL    HW122460   2.955   3.323   4.916
 7187SOL    HW222461   2.987   3.166   4.950
 7188SOL     OW22462   3.940   5.075   7.006
 7188SOL    HW122463   3.868   5.090   0.049
 7188SOL    HW222464   3.917   5.120   6.920
 7189SOL     OW22465   6.145   2.217   4.980
 7189SOL    HW122466   6.126   2.218   5.078
 7189SOL    HW222467   6.243   2.200   4.966
 7190SOL     OW22468   5.790   5.398   1.531
 7190SOL    HW122469   5.701   5.363   1.498
 7190SOL    HW222470   5.835   5.446   1.456
 7191SOL     OW22471   0.481   4.001   3.089
 7191SOL    HW122472   0.411   3.973   3.155
 7191SOL    HW222473   0.568   3.958   3.114
 7192SOL     OW22474   1.819   5.208   6.689
 7192SOL    HW122475   1.915   5.182   6.681
 7192SOL    HW222476   1.785   5.185   6.780
 7193SOL     OW22477   2.619   2.308   2.955
 7193SOL    HW122478   2.526   2.274   2.966
 7193SOL    HW222479   2.666   2.254   2.884
 7194SOL     OW22480   3.030   2.706   6.414
 7194SOL    HW122481   3.062   2.670   6.502
 7194SOL    HW222482   2.937   2.673   6.398
 7195SOL     OW22483   0.297   2.906   6.564
 7195SOL    HW122484   0.359   2.837   6.602
 7195SOL    HW222485   0.254   2.869   6.481
 7196SOL     OW22486   3.376   4.168   2.224
 7196SOL    HW122487   3.409   4.144   2.133
 7196SOL    HW222488   3.400   4.263   2.245
 7197SOL     OW22489   1.862   3.876   5.378
 7197SOL    HW122490   1.803   3.878   5.297
 7197SOL    HW222491   1.826   3.810   5.444
 7198SOL     OW22492   6.808   1.419   0.460
 7198SOL    HW122493   6.762   1.331   0.472
 7198SOL    HW222494   6.893   1.405   0.409
 7199SOL     OW22495   1.141   0.892   2.307
 7199SOL    HW122496   1.097   0.802   2.302
 7199SOL    HW222497   1.213   0.897   2.239
 7200SOL     OW22498   2.132   2.378   0.736
 7200SOL    HW122499   2.141   2.399   0.834
 7200SOL    HW222500   2.213   2.328   0.705
 7201SOL     OW22501   5.645   5.325   4.393
 7201SOL    HW122502   5.580   5.344   4.319
 7201SOL    HW222503   5.736   5.358   4.367
 7202SOL     OW22504   4.831   0.392   5.563
 7202SOL    HW122505   4.844   0.294   5.576
 7202SOL    HW222506   4.745   0.409   5.515
 7203SOL     OW22507   0.056   1.659   2.311
 7203SOL    HW122508   0.123   1.669   2.238
 7203SOL    HW222509   0.097   1.611   2.388
 7204SOL     OW22510   0.188   1.522   1.048
 7204SOL    HW122511   0.264   1.457   1.046
 7204SOL    HW222512   0.153   1.529   1.141
 7205SOL     OW22513   1.975   2.310   5.296
 7205SOL    HW122514   1.906   2.261   5.243
 7205SOL    HW222515   1.941   2.401   5.318
 7206SOL     OW22516   2.015   2.134   1.301
 7206SOL    HW122517   2.038   2.225   1.337
 7206SOL    HW222518   2.082   2.109   1.231
 7207SOL     OW22519   1.727   1.880   4.015
 7207SOL    HW122520   1.692   1.885   3.922
 7207SOL    HW222521   1.687   1.801   4.062
 7208SOL     OW22522   3.633   0.940   4.430
 7208SOL    HW122523   3.625   0.873   4.356
 7208SOL    HW222524   3.726   0.977   4.431
 7209SOL     OW22525   2.647   2.376   2.151
 7209SOL    HW122526   2.656   2.308   2.224
 7209SOL    HW222527   2.731   2.380   2.098
 7210SOL     OW22528   2.928   1.630   2.988
 7210SOL    HW122529   2.839   1.610   2.947
 7210SOL    HW222530   2.978   1.694   2.929
 7211SOL     OW22531   3.284   5.744   5.354
 7211SOL    HW122532   3.373   5.743   5.307
 7211SOL    HW222533   3.247   5.836   5.352
 7212SOL     OW22534   5.965   5.263   5.974
 7212SOL    HW122535   5.893   5.272   5.905
 7212SOL    HW222536   5.991   5.167   5.983
 7213SOL     OW22537   3.675   1.120   0.441
 7213SOL    HW122538   3.594   1.151   0.390
 7213SOL    HW222539   3.720   1.048   0.389
 7214SOL     OW22540   0.645   0.975   6.178
 7214SOL    HW122541   0.696   0.920   6.244
 7214SOL    HW222542   0.550   0.943   6.174
 7215SOL     OW22543   0.183   2.886   2.914
 7215SOL    HW122544   0.168   2.886   3.012
 7215SOL    HW222545   0.183   2.980   2.880
 7216SOL     OW22546   3.002   6.200   3.336
 7216SOL    HW122547   2.916   6.229   3.379
 7216SOL    HW222548   3.027   6.266   3.265
 7217SOL     OW22549   1.325   4.453   3.749
 7217SOL    HW122550   1.364   4.499   3.669
 7217SOL    HW222551   1.296   4.361   3.724
 7218SOL     OW22552   6.496   3.453   4.800
 7218SOL    HW122553   6.509   3.527   4.866
 7218SOL    HW222554   6.503   3.365   4.847
 7219SOL     OW22555   3.480   6.373   1.784
 7219SOL    HW122556   3.528   6.455   1.813
 7219SOL    HW222557   3.443   6.326   1.865
 7220SOL     OW22558   6.833   4.536   4.403
 7220SOL    HW122559   6.734   4.552   4.400
 7220SOL    HW222560   6.856   4.457   4.346
 7221SOL     OW22561   3.614   6.088   4.930
 7221SOL    HW122562   3.542   6.150   4.960
 7221SOL    HW222563   3.626   6.096   4.831
 7222SOL     OW22564   6.446   6.458   3.373
 7222SOL    HW122565   6.392   6.415   3.300
 7222SOL    HW222566   6.406   6.436   3.462
 7223SOL     OW22567   1.750   2.095   0.905
 7223SOL    HW122568   1.818   2.140   0.848
 7223SOL    HW222569   1.792   2.018   0.952
 7224SOL     OW22570   4.525   2.015   3.666
 7224SOL    HW122571   4.483   2.051   3.749
 7224SOL    HW222572   4.615   1.978   3.687
 7225SOL     OW22573   1.796   6.685   0.560
 7225SOL    HW122574   1.886   6.675   0.519
 7225SOL    HW222575   1.726   6.656   0.495
 7226SOL     OW22576   5.863   1.351   0.236
 7226SOL    HW122577   5.793   1.366   0.307
 7226SOL    HW222578   5.923   1.277   0.265
 7227SOL     OW22579   2.648   0.769   2.310
 7227SOL    HW122580   2.573   0.704   2.298
 7227SOL    HW222581   2.727   0.737   2.257
 7228SOL     OW22582   0.715   2.053   2.323
 7228SOL    HW122583   0.755   2.000   2.248
 7228SOL    HW222584   0.786   2.108   2.368
 7229SOL     OW22585   6.765   0.174   4.401
 7229SOL    HW122586   6.782   0.181   4.499
 7229SOL    HW222587   6.787   0.082   4.369
 7230SOL     OW22588   2.652   4.968   3.925
 7230SOL    HW122589   2.596   4.936   3.848
 7230SOL    HW222590   2.714   4.895   3.953
 7231SOL     OW22591   4.038   1.294   6.662
 7231SOL    HW122592   3.956   1.351   6.673
 7231SOL    HW222593   4.014   1.198   6.675
 7232SOL     OW22594   5.383   0.100   2.366
 7232SOL    HW122595   5.338   0.011   2.365
 7232SOL    HW222596   5.355   0.153   2.286
 7233SOL     OW22597   6.036   1.509   5.672
 7233SOL    HW122598   6.118   1.566   5.660
 7233SOL    HW222599   6.030   1.480   5.767
 7234SOL     OW22600   4.985   3.730   3.184
 7234SOL    HW122601   4.959   3.691   3.272
 7234SOL    HW222602   4.916   3.797   3.155
 7235SOL     OW22603   6.742   5.589   1.384
 7235SOL    HW122604   6.687   5.659   1.430
 7235SOL    HW222605   6.681   5.519   1.346
 7236SOL     OW22606   1.976   2.771   2.993
 7236SOL    HW122607   1.904   2.704   2.974
 7236SOL    HW222608   2.046   2.729   3.051
 7237SOL     OW22609   5.231   0.474   6.824
 7237SOL    HW122610   5.133   0.460   6.808
 7237SOL    HW222611   5.243   0.535   6.903
 7238SOL     OW22612   4.680   2.626   7.012
 7238SOL    HW122613   4.753   2.573   6.969
 7238SOL    HW222614   4.624   2.669   6.941
 7239SOL     OW22615   0.370   3.748   2.174
 7239SOL    HW122616   0.444   3.777   2.235
 7239SOL    HW222617   0.285   3.793   2.201
 7240SOL     OW22618   6.660   1.740   5.776
 7240SOL    HW122619   6.606   1.709   5.854
 7240SOL    HW222620   6.718   1.665   5.744
 7241SOL     OW22621   2.445   0.542   0.909
 7241SOL    HW122622   2.538   0.507   0.902
 7241SOL    HW222623   2.435   0.623   0.851
 7242SOL     OW22624   0.139   5.851   4.463
 7242SOL    HW122625   0.166   5.947   4.472
 7242SOL    HW222626   0.055   5.845   4.410
 7243SOL     OW22627   6.695   4.024   6.015
 7243SOL    HW122628   6.726   4.059   6.103
 7243SOL    HW222629   6.611   3.971   6.028
 7244SOL     OW22630   0.431   6.801   0.222
 7244SOL    HW122631   0.517   6.839   0.186
 7244SOL    HW222632   0.401   6.725   0.164
 7245SOL     OW22633   1.844   2.452   6.957
 7245SOL    HW122634   1.778   2.387   6.920
 7245SOL    HW222635   1.935   2.412   6.956
 7246SOL     OW22636   3.062   0.385   4.721
 7246SOL    HW122637   3.027   0.345   4.636
 7246SOL    HW222638   3.005   0.463   4.747
 7247SOL     OW22639   3.033   2.572   5.513
 7247SOL    HW122640   3.130   2.597   5.516
 7247SOL    HW222641   3.014   2.522   5.429
 7248SOL     OW22642   3.272   0.327   4.053
 7248SOL    HW122643   3.263   0.250   4.116
 7248SOL    HW222644   3.184   0.345   4.010
 7249SOL     OW22645   4.235   4.685   2.132
 7249SOL    HW122646   4.152   4.691   2.075
 7249SOL    HW222647   4.315   4.704   2.076
 7250SOL     OW22648   5.274   4.826   5.632
 7250SOL    HW122649   5.316   4.874   5.709
 7250SOL    HW222650   5.280   4.883   5.550
 7251SOL     OW22651   0.730   6.616   5.695
 7251SOL    HW122652   0.723   6.656   5.787
 7251SOL    HW222653   0.641   6.623   5.649
 7252SOL     OW22654   3.184   4.009   2.303
 7252SOL    HW122655   3.235   4.092   2.285
 7252SOL    HW222656   3.199   3.944   2.228
 7253SOL     OW22657   1.474   6.354   6.068
 7253SOL    HW122658   1.492   6.427   6.002
 7253SOL    HW222659   1.517   6.270   6.037
 7254SOL     OW22660   5.690   4.416   3.751
 7254SOL    HW122661   5.592   4.406   3.733
 7254SOL    HW222662   5.713   4.372   3.838
 7255SOL     OW22663   4.985   3.456   6.727
 7255SOL    HW122664   5.077   3.416   6.722
 7255SOL    HW222665   4.969   3.490   6.820
 7256SOL     OW22666   3.477   6.783   5.361
 7256SOL    HW122667   3.497   6.861   5.303
 7256SOL    HW222668   3.454   6.703   5.305
 7257SOL     OW22669   0.127   1.910   4.877
 7257SOL    HW122670   0.052   1.955   4.828
 7257SOL    HW222671   0.150   1.962   4.959
 7258SOL     OW22672   5.669   2.733   1.879
 7258SOL    HW122673   5.764   2.714   1.901
 7258SOL    HW222674   5.626   2.650   1.842
 7259SOL     OW22675   1.266   3.611   3.202
 7259SOL    HW122676   1.283   3.602   3.104
 7259SOL    HW222677   1.167   3.613   3.219
 7260SOL     OW22678   5.418   2.401   1.235
 7260SOL    HW122679   5.326   2.384   1.199
 7260SOL    HW222680   5.423   2.369   1.330
 7261SOL     OW22681   0.505   3.804   0.774
 7261SOL    HW122682   0.485   3.732   0.709
 7261SOL    HW222683   0.566   3.769   0.846
 7262SOL     OW22684   5.140   1.662   5.959
 7262SOL    HW122685   5.206   1.638   6.030
 7262SOL    HW222686   5.178   1.734   5.902
 7263SOL     OW22687   0.744   6.907   0.631
 7263SOL    HW122688   0.682   6.985   0.618
 7263SOL    HW222689   0.692   6.822   0.624
 7264SOL     OW22690   5.997   1.303   0.785
 7264SOL    HW122691   6.096   1.291   0.795
 7264SOL    HW222692   5.969   1.390   0.825
 7265SOL     OW22693   5.256   5.494   4.536
 7265SOL    HW122694   5.310   5.414   4.563
 7265SOL    HW222695   5.161   5.466   4.520
 7266SOL     OW22696   6.991   0.578   3.751
 7266SOL    HW122697   0.063   0.601   3.736
 7266SOL    HW222698   6.939   0.661   3.767
 7267SOL     OW22699   6.430   6.640   4.929
 7267SOL    HW122700   6.485   6.674   5.005
 7267SOL    HW222701   6.333   6.655   4.949
 7268SOL     OW22702   6.440   5.646   4.489
 7268SOL    HW122703   6.505   5.570   4.493
 7268SOL    HW222704   6.396   5.648   4.399
 7269SOL     OW22705   1.778   5.917   5.948
 7269SOL    HW122706   1.865   5.928   5.900
 7269SOL    HW222707   1.795   5.876   6.038
 7270SOL     OW22708   0.198   2.149   4.275
 7270SOL    HW122709   0.140   2.091   4.331
 7270SOL    HW222710   0.142   2.196   4.206
 7271SOL     OW22711   1.396   5.114   3.909
 7271SOL    HW122712   1.370   5.210   3.917
 7271SOL    HW222713   1.381   5.067   3.995
 7272SOL     OW22714   6.630   6.530   1.816
 7272SOL    HW122715   6.538   6.502   1.788
 7272SOL    HW222716   6.677   6.452   1.858
 7273SOL     OW22717   5.010   3.243   6.036
 7273SOL    HW122718   5.059   3.315   5.986
 7273SOL    HW222719   4.993   3.166   5.974
 7274SOL     OW22720   0.635   4.409   6.909
 7274SOL    HW122721   0.623   4.506   6.885
 7274SOL    HW222722   0.562   4.381   6.972
 7275SOL     OW22723   0.019   6.504   3.009
 7275SOL    HW122724   0.079   6.531   2.933
 7275SOL    HW222725   7.007   6.413   2.992
 7276SOL     OW22726   5.583   0.249   3.721
 7276SOL    HW122727   5.581   0.155   3.687
 7276SOL    HW222728   5.568   0.249   3.820
 7277SOL     OW22729   4.930   0.546   5.774
 7277SOL    HW122730   4.979   0.618   5.725
 7277SOL    HW222731   4.894   0.479   5.709
 7278SOL     OW22732   3.017   4.012   1.917
 7278SOL    HW122733   3.011   4.077   1.841
 7278SOL    HW222734   3.058   4.057   1.996
 7279SOL     OW22735   4.008   6.082   0.098
 7279SOL    HW122736   3.997   6.072   0.197
 7279SOL    HW222737   4.105   6.093   0.076
 7280SOL     OW22738   5.601   6.787   5.105
 7280SOL    HW122739   5.554   6.826   5.025
 7280SOL    HW222740   5.672   6.723   5.074
 7281SOL     OW22741   2.698   1.479   6.993
 7281SOL    HW122742   2.705   1.579   6.989
 7281SOL    HW222743   2.704   1.442   6.900
 7282SOL     OW22744   6.259   4.875   2.593
 7282SOL    HW122745   6.161   4.878   2.615
 7282SOL    HW222746   6.312   4.888   2.677
 7283SOL     OW22747   2.750   1.253   3.477
 7283SOL    HW122748   2.827   1.273   3.538
 7283SOL    HW222749   2.708   1.339   3.447
 7284SOL     OW22750   0.430   4.006   5.455
 7284SOL    HW122751   0.445   3.963   5.366
 7284SOL    HW222752   0.393   3.938   5.519
 7285SOL     OW22753   5.345   4.633   2.189
 7285SOL    HW122754   5.359   4.537   2.163
 7285SOL    HW222755   5.417   4.689   2.147
 7286SOL     OW22756   2.719   1.950   0.949
 7286SOL    HW122757   2.713   1.852   0.932
 7286SOL    HW222758   2.627   1.989   0.955
 7287SOL     OW22759   0.936   2.427   6.345
 7287SOL    HW122760   0.936   2.327   6.335
 7287SOL    HW222761   1.030   2.460   6.344
 7288SOL     OW22762   3.833   0.655   6.418
 7288SOL    HW122763   3.804   0.586   6.484
 7288SOL    HW222764   3.782   0.642   6.332
 7289SOL     OW22765   5.915   1.518   3.470
 7289SOL    HW122766   6.010   1.543   3.450
 7289SOL    HW222767   5.854   1.566   3.405
 7290SOL     OW22768   2.519   5.719   5.615
 7290SOL    HW122769   2.500   5.801   5.561
 7290SOL    HW222770   2.547   5.746   5.707
 7291SOL     OW22771   2.207   0.377   1.318
 7291SOL    HW122772   2.216   0.281   1.343
 7291SOL    HW222773   2.112   0.397   1.295
 7292SOL     OW22774   2.490   0.361   3.930
 7292SOL    HW122775   2.467   0.318   4.017
 7292SOL    HW222776   2.475   0.296   3.855
 7293SOL     OW22777   1.582   1.491   4.900
 7293SOL    HW122778   1.484   1.490   4.883
 7293SOL    HW222779   1.606   1.570   4.956
 7294SOL     OW22780   2.646   5.163   0.713
 7294SOL    HW122781   2.565   5.167   0.654
 7294SOL    HW222782   2.727   5.147   0.657
 7295SOL     OW22783   1.157   2.515   0.728
 7295SOL    HW122784   1.220   2.549   0.798
 7295SOL    HW222785   1.064   2.518   0.763
 7296SOL     OW22786   3.164   4.704   0.974
 7296SOL    HW122787   3.250   4.653   0.964
 7296SOL    HW222788   3.090   4.641   0.998
 7297SOL     OW22789   3.987   5.940   0.678
 7297SOL    HW122790   3.942   6.024   0.708
 7297SOL    HW222791   4.043   5.904   0.753
 7298SOL     OW22792   5.031   4.173   5.762
 7298SOL    HW122793   5.021   4.137   5.669
 7298SOL    HW222794   5.123   4.152   5.795
 7299SOL     OW22795   0.616   2.090   6.584
 7299SOL    HW122796   0.672   2.045   6.515
 7299SOL    HW222797   0.661   2.085   6.673
 7300SOL     OW22798   5.554   5.071   2.035
 7300SOL    HW122799   5.645   5.062   1.996
 7300SOL    HW222800   5.553   5.144   2.104
 7301SOL     OW22801   5.913   0.755   4.685
 7301SOL    HW122802   5.999   0.798   4.714
 7301SOL    HW222803   5.931   0.696   4.606
 7302SOL     OW22804   0.338   1.598   6.829
 7302SOL    HW122805   0.401   1.594   6.751
 7302SOL    HW222806   0.306   1.506   6.851
 7303SOL     OW22807   5.116   0.836   6.956
 7303SOL    HW122808   5.191   0.792   7.004
 7303SOL    HW222809   5.029   0.793   6.982
 7304SOL     OW22810   3.580   4.474   6.869
 7304SOL    HW122811   3.673   4.488   6.905
 7304SOL    HW222812   3.522   4.552   6.895
 7305SOL     OW22813   4.518   1.742   1.038
 7305SOL    HW122814   4.470   1.657   1.013
 7305SOL    HW222815   4.476   1.819   0.991
 7306SOL     OW22816   5.177   2.935   1.222
 7306SOL    HW122817   5.167   2.848   1.270
 7306SOL    HW222818   5.274   2.956   1.211
 7307SOL     OW22819   3.107   6.898   1.500
 7307SOL    HW122820   3.036   6.964   1.522
 7307SOL    HW222821   3.083   6.808   1.537
 7308SOL     OW22822   0.127   3.568   5.540
 7308SOL    HW122823   0.190   3.643   5.558
 7308SOL    HW222824   0.116   3.555   5.442
 7309SOL     OW22825   5.548   6.282   0.650
 7309SOL    HW122826   5.460   6.235   0.660
 7309SOL    HW222827   5.532   6.375   0.617
 7310SOL     OW22828   2.077   4.100   1.166
 7310SOL    HW122829   2.058   4.006   1.197
 7310SOL    HW222830   2.081   4.161   1.245
 7311SOL     OW22831   3.639   1.821   2.291
 7311SOL    HW122832   3.702   1.796   2.365
 7311SOL    HW222833   3.691   1.862   2.216
 7312SOL     OW22834   0.136   3.220   5.824
 7312SOL    HW122835   0.108   3.217   5.920
 7312SOL    HW222836   0.061   3.186   5.767
 7313SOL     OW22837   4.516   2.448   6.071
 7313SOL    HW122838   4.575   2.380   6.028
 7313SOL    HW222839   4.563   2.489   6.149
 7314SOL     OW22840   6.796   4.008   5.132
 7314SOL    HW122841   6.875   4.049   5.177
 7314SOL    HW222842   6.721   3.999   5.198
 7315SOL     OW22843   6.618   0.590   3.031
 7315SOL    HW122844   6.619   0.554   3.124
 7315SOL    HW222845   6.529   0.571   2.989
 7316SOL     OW22846   3.105   3.681   6.053
 7316SOL    HW122847   3.114   3.586   6.023
 7316SOL    HW222848   3.038   3.728   5.995
 7317SOL     OW22849   4.622   0.934   2.312
 7317SOL    HW122850   4.721   0.944   2.320
 7317SOL    HW222851   4.581   0.943   2.402
 7318SOL     OW22852   0.862   1.505   0.953
 7318SOL    HW122853   0.922   1.426   0.963
 7318SOL    HW222854   0.869   1.541   0.860
 7319SOL     OW22855   6.284   3.789   6.208
 7319SOL    HW122856   6.283   3.717   6.278
 7319SOL    HW222857   6.213   3.770   6.140
 7320SOL     OW22858   6.737   3.652   1.532
 7320SOL    HW122859   6.710   3.642   1.436
 7320SOL    HW222860   6.790   3.736   1.543
 7321SOL     OW22861   3.113   6.897   5.323
 7321SOL    HW122862   3.141   6.925   5.415
 7321SOL    HW222863   3.182   6.925   5.257
 7322SOL     OW22864   0.774   2.516   2.439
 7322SOL    HW122865   0.784   2.520   2.538
 7322SOL    HW222866   0.708   2.585   2.409
 7323SOL     OW22867   2.126   2.250   2.157
 7323SOL    HW122868   2.192   2.260   2.082
 7323SOL    HW222869   2.085   2.159   2.153
 7324SOL     OW22870   5.401   6.534   2.496
 7324SOL    HW122871   5.362   6.624   2.518
 7324SOL    HW222872   5.336   6.463   2.520
 7325SOL     OW22873   3.710   0.020   6.373
 7325SOL    HW122874   3.778   0.068   6.428
 7325SOL    HW222875   3.739   6.950   6.358
 7326SOL     OW22876   2.387   6.340   5.122
 7326SOL    HW122877   2.359   6.395   5.043
 7326SOL    HW222878   2.345   6.377   5.204
 7327SOL     OW22879   6.492   2.793   5.223
 7327SOL    HW122880   6.443   2.736   5.289
 7327SOL    HW222881   6.497   2.746   5.135
 7328SOL     OW22882   3.276   0.491   6.510
 7328SOL    HW122883   3.299   0.513   6.416
 7328SOL    HW222884   3.354   0.446   6.554
 7329SOL     OW22885   4.417   3.768   1.701
 7329SOL    HW122886   4.453   3.857   1.676
 7329SOL    HW222887   4.491   3.711   1.738
 7330SOL     OW22888   3.040   2.239   6.997
 7330SOL    HW122889   3.061   2.218   6.902
 7330SOL    HW222890   3.120   2.218   0.030
 7331SOL     OW22891   5.376   0.164   1.670
 7331SOL    HW122892   5.387   0.129   1.577
 7331SOL    HW222893   5.460   0.149   1.722
 7332SOL     OW22894   2.070   6.188   0.530
 7332SOL    HW122895   2.166   6.171   0.511
 7332SOL    HW222896   2.042   6.135   0.610
 7333SOL     OW22897   0.210   3.136   3.550
 7333SOL    HW122898   0.132   3.191   3.578
 7333SOL    HW222899   0.262   3.109   3.631
 7334SOL     OW22900   3.853   5.986   6.867
 7334SOL    HW122901   3.899   5.998   6.954
 7334SOL    HW222902   3.867   5.892   6.835
 7335SOL     OW22903   1.774   2.819   2.497
 7335SOL    HW122904   1.748   2.907   2.457
 7335SOL    HW222905   1.820   2.835   2.585
 7336SOL     OW22906   1.726   6.146   3.042
 7336SOL    HW122907   1.725   6.216   3.113
 7336SOL    HW222908   1.637   6.142   2.996
 7337SOL     OW22909   0.487   2.907   2.010
 7337SOL    HW122910   0.542   2.824   2.009
 7337SOL    HW222911   0.394   2.887   1.978
 7338SOL     OW22912   6.641   2.791   1.438
 7338SOL    HW122913   6.709   2.783   1.366
 7338SOL    HW222914   6.685   2.821   1.523
 7339SOL     OW22915   5.129   5.752   3.597
 7339SOL    HW122916   5.191   5.760   3.519
 7339SOL    HW222917   5.093   5.842   3.620
 7340SOL     OW22918   1.668   1.115   0.291
 7340SOL    HW122919   1.679   1.016   0.278
 7340SOL    HW222920   1.691   1.139   0.385
 7341SOL     OW22921   0.095   2.250   6.479
 7341SOL    HW122922   0.027   2.282   6.545
 7341SOL    HW222923   0.183   2.239   6.525
 7342SOL     OW22924   6.546   0.974   1.844
 7342SOL    HW122925   6.592   0.995   1.930
 7342SOL    HW222926   6.447   0.980   1.858
 7343SOL     OW22927   4.385   3.043   6.922
 7343SOL    HW122928   4.357   3.139   6.918
 7343SOL    HW222929   4.373   3.009   7.015
 7344SOL     OW22930   1.353   6.917   5.989
 7344SOL    HW122931   1.374   6.858   6.067
 7344SOL    HW222932   1.437   6.940   5.941
 7345SOL     OW22933   3.552   3.199   5.331
 7345SOL    HW122934   3.483   3.267   5.307
 7345SOL    HW222935   3.517   3.107   5.312
 7346SOL     OW22936   3.860   6.854   3.279
 7346SOL    HW122937   3.767   6.857   3.317
 7346SOL    HW222938   3.862   6.901   3.191
 7347SOL     OW22939   0.552   1.945   0.170
 7347SOL    HW122940   0.619   1.903   0.230
 7347SOL    HW222941   0.559   1.905   0.078
 7348SOL     OW22942   1.235   3.523   3.931
 7348SOL    HW122943   1.207   3.477   4.015
 7348SOL    HW222944   1.268   3.615   3.954
 7349SOL     OW22945   4.060   0.187   1.728
 7349SOL    HW122946   4.099   0.279   1.736
 7349SOL    HW222947   3.960   0.194   1.728
 7350SOL     OW22948   2.651   1.397   5.493
 7350SOL    HW122949   2.703   1.315   5.518
 7350SOL    HW222950   2.701   1.479   5.522
 7351SOL     OW22951   5.189   5.495   3.294
 7351SOL    HW122952   5.090   5.509   3.301
 7351SOL    HW222953   5.211   5.457   3.205
 7352SOL     OW22954   1.293   1.761   2.590
 7352SOL    HW122955   1.195   1.784   2.597
 7352SOL    HW222956   1.328   1.793   2.502
 7353SOL     OW22957   0.798   0.629   6.638
 7353SOL    HW122958   0.840   0.699   6.696
 7353SOL    HW222959   0.869   0.584   6.582
 7354SOL     OW22960   2.302   0.848   4.314
 7354SOL    HW122961   2.344   0.926   4.361
 7354SOL    HW222962   2.307   0.862   4.215
 7355SOL     OW22963   0.084   2.334   6.237
 7355SOL    HW122964   0.156   2.285   6.188
 7355SOL    HW222965   0.074   2.295   6.329
 7356SOL     OW22966   3.550   4.379   6.121
 7356SOL    HW122967   3.538   4.476   6.099
 7356SOL    HW222968   3.647   4.356   6.116
 7357SOL     OW22969   3.459   6.112   2.202
 7357SOL    HW122970   3.475   6.207   2.175
 7357SOL    HW222971   3.482   6.051   2.127
 7358SOL     OW22972   6.235   3.091   1.862
 7358SOL    HW122973   6.283   3.017   1.815
 7358SOL    HW222974   6.142   3.098   1.827
 7359SOL     OW22975   4.445   2.717   5.852
 7359SOL    HW122976   4.488   2.653   5.915
 7359SOL    HW222977   4.361   2.753   5.893
 7360SOL     OW22978   2.116   3.685   5.477
 7360SOL    HW122979   2.134   3.590   5.501
 7360SOL    HW222980   2.180   3.716   5.407
 7361SOL     OW22981   5.216   0.347   2.784
 7361SOL    HW122982   5.220   0.446   2.773
 7361SOL    HW222983   5.271   0.303   2.713
 7362SOL     OW22984   3.507   5.681   6.457
 7362SOL    HW122985   3.595   5.716   6.423
 7362SOL    HW222986   3.432   5.735   6.419
 7363SOL     OW22987   4.414   0.796   1.463
 7363SOL    HW122988   4.377   0.868   1.404
 7363SOL    HW222989   4.403   0.822   1.558
 7364SOL     OW22990   4.599   0.186   1.731
 7364SOL    HW122991   4.520   0.182   1.792
 7364SOL    HW222992   4.584   0.257   1.662
 7365SOL     OW22993   6.681   5.954   2.765
 7365SOL    HW122994   6.714   5.899   2.842
 7365SOL    HW222995   6.678   6.050   2.793
 7366SOL     OW22996   2.155   0.156   4.830
 7366SOL    HW122997   2.149   0.134   4.732
 7366SOL    HW222998   2.200   0.244   4.841
 7367SOL     OW22999   4.288   2.119   0.336
 7367SOL    HW123000   4.289   2.201   0.279
 7367SOL    HW223001   4.265   2.143   0.430
 7368SOL     OW23002   3.618   2.991   2.883
 7368SOL    HW123003   3.555   3.046   2.828
 7368SOL    HW223004   3.686   2.948   2.824
 7369SOL     OW23005   3.674   2.511   1.093
 7369SOL    HW123006   3.736   2.439   1.123
 7369SOL    HW223007   3.590   2.470   1.059
 7370SOL     OW23008   2.478   2.302   5.275
 7370SOL    HW123009   2.452   2.397   5.256
 7370SOL    HW223010   2.399   2.242   5.262
 7371SOL     OW23011   3.483   6.419   4.015
 7371SOL    HW123012   3.471   6.490   4.084
 7371SOL    HW223013   3.394   6.389   3.980
 7372SOL     OW23014   4.162   6.933   4.822
 7372SOL    HW123015   4.175   7.022   4.777
 7372SOL    HW223016   4.241   6.875   4.803
 7373SOL     OW23017   5.212   1.658   5.299
 7373SOL    HW123018   5.176   1.744   5.263
 7373SOL    HW223019   5.276   1.618   5.232
 7374SOL     OW23020   1.346   1.916   4.926
 7374SOL    HW123021   1.336   1.858   4.845
 7374SOL    HW223022   1.414   1.875   4.987
 7375SOL     OW23023   2.291   2.832   2.342
 7375SOL    HW123024   2.370   2.817   2.402
 7375SOL    HW223025   2.254   2.744   2.313
 7376SOL     OW23026   1.103   3.211   1.444
 7376SOL    HW123027   1.061   3.124   1.468
 7376SOL    HW223028   1.034   3.271   1.404
 7377SOL     OW23029   3.991   5.228   0.773
 7377SOL    HW123030   4.001   5.232   0.873
 7377SOL    HW223031   4.063   5.170   0.735
 7378SOL     OW23032   1.947   6.988   4.100
 7378SOL    HW123033   1.938   0.063   4.092
 7378SOL    HW223034   2.043   6.963   4.087
 7379SOL     OW23035   2.968   0.286   1.638
 7379SOL    HW123036   2.935   0.376   1.667
 7379SOL    HW223037   2.896   0.218   1.653
 7380SOL     OW23038   6.222   4.139   3.666
 7380SOL    HW123039   6.125   4.163   3.675
 7380SOL    HW223040   6.261   4.189   3.589
 7381SOL     OW23041   4.216   2.750   0.935
 7381SOL    HW123042   4.215   2.739   0.835
 7381SOL    HW223043   4.141   2.698   0.975
 7382SOL     OW23044   6.134   1.953   6.097
 7382SOL    HW123045   6.110   2.048   6.114
 7382SOL    HW223046   6.051   1.897   6.095
 7383SOL     OW23047   1.928   6.278   2.093
 7383SOL    HW123048   1.879   6.259   2.178
 7383SOL    HW223049   1.863   6.292   2.019
 7384SOL     OW23050   6.611   6.710   1.225
 7384SOL    HW123051   6.617   6.700   1.325
 7384SOL    HW223052   6.562   6.793   1.203
 7385SOL     OW23053   3.071   5.115   2.783
 7385SOL    HW123054   3.170   5.122   2.796
 7385SOL    HW223055   3.051   5.076   2.693
 7386SOL     OW23056   0.051   3.262   6.504
 7386SOL    HW123057   0.025   3.170   6.533
 7386SOL    HW223058   0.151   3.271   6.508
 7387SOL     OW23059   6.289   5.297   5.936
 7387SOL    HW123060   6.212   5.353   5.905
 7387SOL    HW223061   6.313   5.232   5.864
 7388SOL     OW23062   0.905   5.759   2.887
 7388SOL    HW123063   0.814   5.752   2.846
 7388SOL    HW223064   0.974   5.736   2.818
 7389SOL     OW23065   0.455   3.209   0.318
 7389SOL    HW123066   0.450   3.265   0.401
 7389SOL    HW223067   0.364   3.194   0.282
 7390SOL     OW23068   3.026   1.944   2.183
 7390SOL    HW123069   3.118   1.946   2.143
 7390SOL    HW223070   3.012   1.858   2.231
 7391SOL     OW23071   4.086   3.543   2.645
 7391SOL    HW123072   4.099   3.585   2.734
 7391SOL    HW223073   4.085   3.443   2.654
 7392SOL     OW23074   3.634   6.364   6.911
 7392SOL    HW123075   3.553   6.320   6.871
 7392SOL    HW223076   3.700   6.382   6.839
 7393SOL     OW23077   6.776   4.634   3.613
 7393SOL    HW123078   6.707   4.580   3.565
 7393SOL    HW223079   6.785   4.723   3.568
 7394SOL     OW23080   2.116   2.924   6.551
 7394SOL    HW123081   2.170   2.995   6.505
 7394SOL    HW223082   2.032   2.908   6.499
 7395SOL     OW23083   2.190   3.197   1.504
 7395SOL    HW123084   2.217   3.201   1.600
 7395SOL    HW223085   2.204   3.286   1.461
 7396SOL     OW23086   2.571   5.995   1.820
 7396SOL    HW123087   2.578   5.903   1.858
 7396SOL    HW223088   2.475   6.017   1.803
 7397SOL     OW23089   4.982   3.740   4.569
 7397SOL    HW123090   5.078   3.732   4.545
 7397SOL    HW223091   4.971   3.732   4.668
 7398SOL     OW23092   1.391   4.731   3.141
 7398SOL    HW123093   1.392   4.788   3.224
 7398SOL    HW223094   1.375   4.789   3.062
 7399SOL     OW23095   6.233   3.085   4.359
 7399SOL    HW123096   6.245   3.069   4.261
 7399SOL    HW223097   6.152   3.140   4.375
 7400SOL     OW23098   5.206   2.281   5.249
 7400SOL    HW123099   5.214   2.316   5.156
 7400SOL    HW223100   5.219   2.356   5.314
 7401SOL     OW23101   1.692   2.936   3.263
 7401SOL    HW123102   1.772   2.969   3.214
 7401SOL    HW223103   1.637   2.879   3.202
 7402SOL     OW23104   2.577   5.171   5.923
 7402SOL    HW123105   2.558   5.093   5.864
 7402SOL    HW223106   2.490   5.213   5.951
 7403SOL     OW23107   1.978   2.952   3.220
 7403SOL    HW123108   1.976   2.901   3.306
 7403SOL    HW223109   1.998   2.890   3.144
 7404SOL     OW23110   3.342   4.038   1.408
 7404SOL    HW123111   3.337   4.114   1.474
 7404SOL    HW223112   3.304   3.956   1.449
 7405SOL     OW23113   2.993   5.395   5.352
 7405SOL    HW123114   2.924   5.457   5.314
 7405SOL    HW223115   3.083   5.423   5.319
 7406SOL     OW23116   0.527   1.451   5.313
 7406SOL    HW123117   0.474   1.532   5.286
 7406SOL    HW223118   0.623   1.466   5.291
 7407SOL     OW23119   0.855   6.315   6.779
 7407SOL    HW123120   0.779   6.350   6.833
 7407SOL    HW223121   0.819   6.255   6.707
 7408SOL     OW23122   3.245   4.323   5.441
 7408SOL    HW123123   3.169   4.377   5.477
 7408SOL    HW223124   3.319   4.320   5.508
 7409SOL     OW23125   5.483   3.824   0.048
 7409SOL    HW123126   5.391   3.855   0.070
 7409SOL    HW223127   5.491   3.807   6.974
 7410SOL     OW23128   0.104   0.735   0.209
 7410SOL    HW123129   0.062   0.769   0.293
 7410SOL    HW223130   0.135   0.641   0.222
 7411SOL     OW23131   1.271   1.634   5.896
 7411SOL    HW123132   1.237   1.699   5.828
 7411SOL    HW223133   1.356   1.669   5.935
 7412SOL     OW23134   4.302   0.142   0.235
 7412SOL    HW123135   4.293   0.080   0.158
 7412SOL    HW223136   4.260   0.102   0.316
 7413SOL     OW23137   5.031   4.574   2.771
 7413SOL    HW123138   4.965   4.567   2.846
 7413SOL    HW223139   4.982   4.573   2.684
 7414SOL     OW23140   2.220   2.213   4.534
 7414SOL    HW123141   2.292   2.271   4.495
 7414SOL    HW223142   2.175   2.262   4.608
 7415SOL     OW23143   3.317   6.643   6.718
 7415SOL    HW123144   3.233   6.590   6.729
 7415SOL    HW223145   3.303   6.718   6.654
 7416SOL     OW23146   1.435   1.324   2.557
 7416SOL    HW123147   1.353   1.379   2.545
 7416SOL    HW223148   1.451   1.309   2.655
 7417SOL     OW23149   1.453   2.373   3.612
 7417SOL    HW123150   1.378   2.437   3.599
 7417SOL    HW223151   1.535   2.423   3.640
 7418SOL     OW23152   1.541   4.874   6.533
 7418SOL    HW123153   1.480   4.795   6.526
 7418SOL    HW223154   1.599   4.878   6.451
 7419SOL     OW23155   6.061   3.671   3.558
 7419SOL    HW123156   6.134   3.605   3.540
 7419SOL    HW223157   6.101   3.759   3.585
 7420SOL     OW23158   6.795   5.976   1.832
 7420SOL    HW123159   6.731   5.911   1.873
 7420SOL    HW223160   6.776   6.068   1.865
 7421SOL     OW23161   4.820   3.494   1.087
 7421SOL    HW123162   4.746   3.501   1.020
 7421SOL    HW223163   4.899   3.546   1.054
 7422SOL     OW23164   6.248   3.377   1.797
 7422SOL    HW123165   6.170   3.411   1.745
 7422SOL    HW223166   6.226   3.288   1.837
 7423SOL     OW23167   5.522   1.827   5.672
 7423SOL    HW123168   5.460   1.819   5.594
 7423SOL    HW223169   5.541   1.736   5.710
 7424SOL     OW23170   6.423   1.114   5.060
 7424SOL    HW123171   6.388   1.057   5.135
 7424SOL    HW223172   6.439   1.207   5.094
 7425SOL     OW23173   5.237   6.876   0.467
 7425SOL    HW123174   5.218   6.807   0.398
 7425SOL    HW223175   5.235   6.967   0.425
 7426SOL     OW23176   3.037   2.665   6.074
 7426SOL    HW123177   3.107   2.595   6.068
 7426SOL    HW223178   2.963   2.634   6.134
 7427SOL     OW23179   3.913   1.501   3.972
 7427SOL    HW123180   3.958   1.415   3.948
 7427SOL    HW223181   3.983   1.570   3.991
 7428SOL     OW23182   4.029   6.384   5.662
 7428SOL    HW123183   3.982   6.445   5.725
 7428SOL    HW223184   4.118   6.422   5.638
 7429SOL     OW23185   1.282   6.581   3.129
 7429SOL    HW123186   1.278   6.505   3.194
 7429SOL    HW223187   1.355   6.644   3.155
 7430SOL     OW23188   6.470   4.395   2.419
 7430SOL    HW123189   6.563   4.362   2.407
 7430SOL    HW223190   6.405   4.330   2.379
 7431SOL     OW23191   2.185   2.515   4.566
 7431SOL    HW123192   2.140   2.553   4.485
 7431SOL    HW223193   2.117   2.469   4.623
 7432SOL     OW23194   1.723   0.764   3.286
 7432SOL    HW123195   1.687   0.780   3.193
 7432SOL    HW223196   1.647   0.761   3.350
 7433SOL     OW23197   2.954   6.812   6.945
 7433SOL    HW123198   3.048   6.780   6.936
 7433SOL    HW223199   2.907   6.801   6.857
 7434SOL     OW23200   4.970   6.171   5.993
 7434SOL    HW123201   4.876   6.181   6.027
 7434SOL    HW223202   5.023   6.251   6.019
 7435SOL     OW23203   5.032   6.215   1.709
 7435SOL    HW123204   4.950   6.272   1.712
 7435SOL    HW223205   5.046   6.181   1.616
 7436SOL     OW23206   4.742   4.430   6.024
 7436SOL    HW123207   4.651   4.405   5.990
 7436SOL    HW223208   4.777   4.357   6.083
 7437SOL     OW23209   2.954   5.436   1.241
 7437SOL    HW123210   2.868   5.421   1.193
 7437SOL    HW223211   3.010   5.500   1.189
 7438SOL     OW23212   1.789   0.761   0.728
 7438SOL    HW123213   1.852   0.815   0.783
 7438SOL    HW223214   1.763   0.679   0.779
 7439SOL     OW23215   1.714   5.089   5.771
 7439SOL    HW123216   1.651   5.161   5.802
 7439SOL    HW223217   1.686   5.058   5.681
 7440SOL     OW23218   5.188   3.161   4.093
 7440SOL    HW123219   5.104   3.108   4.084
 7440SOL    HW223220   5.167   3.254   4.122
 7441SOL     OW23221   5.665   6.630   2.521
 7441SOL    HW123222   5.657   6.712   2.577
 7441SOL    HW223223   5.577   6.582   2.519
 7442SOL     OW23224   5.976   1.140   6.180
 7442SOL    HW123225   5.962   1.175   6.273
 7442SOL    HW223226   5.921   1.193   6.116
 7443SOL     OW23227   0.173   5.689   2.068
 7443SOL    HW123228   0.246   5.684   2.136
 7443SOL    HW223229   0.204   5.740   1.989
 7444SOL     OW23230   6.914   0.610   5.933
 7444SOL    HW123231   6.946   0.549   6.006
 7444SOL    HW223232   6.831   0.657   5.963
 7445SOL     OW23233   3.938   6.929   2.028
 7445SOL    HW123234   3.892   6.899   1.944
 7445SOL    HW223235   3.870   6.951   2.098
 7446SOL     OW23236   5.272   2.956   0.580
 7446SOL    HW123237   5.235   3.043   0.547
 7446SOL    HW223238   5.357   2.973   0.630
 7447SOL     OW23239   0.387   4.394   0.052
 7447SOL    HW123240   0.298   4.375   0.010
 7447SOL    HW223241   0.389   4.489   0.084
 7448SOL     OW23242   5.504   5.917   6.484
 7448SOL    HW123243   5.481   5.907   6.581
 7448SOL    HW223244   5.603   5.929   6.476
 7449SOL     OW23245   0.327   4.564   0.319
 7449SOL    HW123246   0.289   4.519   0.400
 7449SOL    HW223247   0.307   4.661   0.322
 7450SOL     OW23248   5.140   1.890   5.673
 7450SOL    HW123249   5.219   1.919   5.728
 7450SOL    HW223250   5.145   1.933   5.582
 7451SOL     OW23251   5.749   5.552   2.225
 7451SOL    HW123252   5.828   5.596   2.269
 7451SOL    HW223253   5.679   5.534   2.293
 7452SOL     OW23254   6.152   6.357   5.015
 7452SOL    HW123255   6.122   6.403   5.098
 7452SOL    HW223256   6.075   6.308   4.974
 7453SOL     OW23257   5.401   5.572   6.407
 7453SOL    HW123258   5.464   5.525   6.345
 7453SOL    HW223259   5.418   5.671   6.402
 7454SOL     OW23260   3.456   1.911   0.679
 7454SOL    HW123261   3.370   1.956   0.654
 7454SOL    HW223262   3.467   1.912   0.778
 7455SOL     OW23263   6.224   2.856   2.347
 7455SOL    HW123264   6.223   2.946   2.303
 7455SOL    HW223265   6.318   2.832   2.370
 7456SOL     OW23266   2.672   2.416   4.978
 7456SOL    HW123267   2.632   2.506   4.997
 7456SOL    HW223268   2.731   2.389   5.054
 7457SOL     OW23269   2.273   0.136   3.945
 7457SOL    HW123270   2.344   0.114   3.878
 7457SOL    HW223271   2.220   0.054   3.965
 7458SOL     OW23272   1.279   6.823   4.612
 7458SOL    HW123273   1.205   6.872   4.567
 7458SOL    HW223274   1.261   6.816   4.710
 7459SOL     OW23275   6.610   1.220   2.635
 7459SOL    HW123276   6.552   1.233   2.555
 7459SOL    HW223277   6.583   1.137   2.684
 7460SOL     OW23278   1.692   6.696   6.962
 7460SOL    HW123279   1.727   6.781   7.003
 7460SOL    HW223280   1.645   6.643   0.008
 7461SOL     OW23281   6.850   6.441   5.656
 7461SOL    HW123282   6.795   6.417   5.576
 7461SOL    HW223283   6.944   6.458   5.627
 7462SOL     OW23284   0.998   5.693   1.088
 7462SOL    HW123285   1.054   5.749   1.026
 7462SOL    HW223286   1.056   5.656   1.160
 7463SOL     OW23287   3.598   4.756   0.624
 7463SOL    HW123288   3.516   4.760   0.681
 7463SOL    HW223289   3.581   4.805   0.539
 7464SOL     OW23290   0.498   5.634   4.578
 7464SOL    HW123291   0.550   5.555   4.545
 7464SOL    HW223292   0.481   5.696   4.501
 7465SOL     OW23293   2.389   5.086   0.199
 7465SOL    HW123294   2.420   5.038   0.117
 7465SOL    HW223295   2.385   5.184   0.182
 7466SOL     OW23296   0.409   0.549   5.567
 7466SOL    HW123297   0.320   0.517   5.537
 7466SOL    HW223298   0.480   0.504   5.513
 7467SOL     OW23299   0.308   2.808   6.015
 7467SOL    HW123300   0.332   2.785   6.109
 7467SOL    HW223301   0.381   2.862   5.974
 7468SOL     OW23302   5.815   2.804   4.614
 7468SOL    HW123303   5.846   2.883   4.667
 7468SOL    HW223304   5.833   2.720   4.666
 7469SOL     OW23305   6.686   2.121   0.439
 7469SOL    HW123306   6.726   2.031   0.424
 7469SOL    HW223307   6.676   2.168   0.352
 7470SOL     OW23308   5.962   3.737   3.227
 7470SOL    HW123309   6.008   3.659   3.270
 7470SOL    HW223310   6.008   3.822   3.253
 7471SOL     OW23311   5.544   5.835   6.155
 7471SOL    HW123312   5.562   5.754   6.099
 7471SOL    HW223313   5.454   5.826   6.199
 7472SOL     OW23314   6.798   0.424   5.715
 7472SOL    HW123315   6.819   0.460   5.805
 7472SOL    HW223316   6.804   0.497   5.647
 7473SOL     OW23317   4.493   6.908   3.847
 7473SOL    HW123318   4.507   6.968   3.926
 7473SOL    HW223319   4.470   6.963   3.767
 7474SOL     OW23320   5.545   2.249   6.370
 7474SOL    HW123321   5.623   2.216   6.422
 7474SOL    HW223322   5.461   2.226   6.418
 7475SOL     OW23323   4.649   1.914   2.113
 7475SOL    HW123324   4.743   1.882   2.127
 7475SOL    HW223325   4.632   1.925   2.015
 7476SOL     OW23326   2.104   2.020   2.959
 7476SOL    HW123327   2.036   2.042   3.030
 7476SOL    HW223328   2.106   2.093   2.891
 7477SOL     OW23329   0.468   3.751   4.914
 7477SOL    HW123330   0.480   3.748   4.814
 7477SOL    HW223331   0.552   3.720   4.958
 7478SOL     OW23332   5.913   2.277   4.876
 7478SOL    HW123333   5.912   2.377   4.866
 7478SOL    HW223334   6.008   2.245   4.880
 7479SOL     OW23335   5.621   3.150   0.074
 7479SOL    HW123336   5.705   3.203   0.068
 7479SOL    HW223337   5.553   3.201   0.127
 7480SOL     OW23338   2.778   5.220   2.558
 7480SOL    HW123339   2.863   5.224   2.506
 7480SOL    HW223340   2.731   5.308   2.553
 7481SOL     OW23341   6.186   4.490   6.326
 7481SOL    HW123342   6.223   4.406   6.366
 7481SOL    HW223343   6.159   4.553   6.399
 7482SOL     OW23344   4.362   2.291   2.532
 7482SOL    HW123345   4.263   2.279   2.540
 7482SOL    HW223346   4.388   2.291   2.435
 7483SOL     OW23347   4.499   1.880   4.887
 7483SOL    HW123348   4.470   1.967   4.927
 7483SOL    HW223349   4.437   1.807   4.917
 7484SOL     OW23350   2.397   6.277   4.824
 7484SOL    HW123351   2.346   6.362   4.840
 7484SOL    HW223352   2.333   6.204   4.799
 7485SOL     OW23353   2.528   0.016   3.929
 7485SOL    HW123354   2.507   6.964   3.990
 7485SOL    HW223355   2.593   0.077   3.974
 7486SOL     OW23356   0.593   6.111   0.307
 7486SOL    HW123357   0.511   6.087   0.358
 7486SOL    HW223358   0.669   6.053   0.336
 7487SOL     OW23359   4.711   0.473   3.511
 7487SOL    HW123360   4.790   0.531   3.530
 7487SOL    HW223361   4.732   0.379   3.536
 7488SOL     OW23362   0.916   6.003   4.237
 7488SOL    HW123363   0.838   5.996   4.299
 7488SOL    HW223364   0.932   6.100   4.214
 7489SOL     OW23365   5.902   3.927   0.206
 7489SOL    HW123366   5.996   3.899   0.225
 7489SOL    HW223367   5.878   3.901   0.113
 7490SOL     OW23368   1.428   2.447   2.664
 7490SOL    HW123369   1.367   2.384   2.713
 7490SOL    HW223370   1.390   2.467   2.574
 7491SOL     OW23371   4.565   2.949   0.802
 7491SOL    HW123372   4.637   2.908   0.858
 7491SOL    HW223373   4.484   2.963   0.857
 7492SOL     OW23374   1.788   0.685   4.148
 7492SOL    HW123375   1.847   0.765   4.154
 7492SOL    HW223376   1.696   0.714   4.121
 7493SOL     OW23377   6.504   3.664   5.532
 7493SOL    HW123378   6.584   3.713   5.567
 7493SOL    HW223379   6.534   3.578   5.490
 7494SOL     OW23380   6.054   0.722   2.791
 7494SOL    HW123381   6.021   0.691   2.702
 7494SOL    HW223382   5.983   0.775   2.837
 7495SOL     OW23383   2.302   2.848   4.803
 7495SOL    HW123384   2.313   2.917   4.875
 7495SOL    HW223385   2.205   2.826   4.792
 7496SOL     OW23386   6.461   3.517   3.279
 7496SOL    HW123387   6.453   3.592   3.214
 7496SOL    HW223388   6.525   3.542   3.352
 7497SOL     OW23389   1.142   6.631   0.765
 7497SOL    HW123390   1.204   6.569   0.718
 7497SOL    HW223391   1.052   6.589   0.774
 7498SOL     OW23392   3.336   0.524   3.278
 7498SOL    HW123393   3.408   0.535   3.210
 7498SOL    HW223394   3.266   0.594   3.264
 7499SOL     OW23395   3.881   2.154   3.988
 7499SOL    HW123396   3.876   2.166   3.889
 7499SOL    HW223397   3.915   2.062   4.009
 7500SOL     OW23398   4.185   6.788   3.772
 7500SOL    HW123399   4.107   6.750   3.723
 7500SOL    HW223400   4.236   6.850   3.712
 7501SOL     OW23401   5.403   2.817   4.250
 7501SOL    HW123402   5.350   2.776   4.176
 7501SOL    HW223403   5.481   2.868   4.212
 7502SOL     OW23404   3.532   0.362   4.555
 7502SOL    HW123405   3.559   0.436   4.493
 7502SOL    HW223406   3.600   0.354   4.628
 7503SOL     OW23407   1.746   6.043   1.010
 7503SOL    HW123408   1.771   6.067   1.103
 7503SOL    HW223409   1.822   6.065   0.948
 7504SOL     OW23410   0.061   6.217   2.445
 7504SOL    HW123411   0.140   6.156   2.438
 7504SOL    HW223412   7.016   6.175   2.504
 7505SOL     OW23413   0.318   0.974   5.016
 7505SOL    HW123414   0.308   0.909   4.942
 7505SOL    HW223415   0.235   1.031   5.022
 7506SOL     OW23416   3.153   1.753   3.363
 7506SOL    HW123417   3.071   1.744   3.306
 7506SOL    HW223418   3.177   1.850   3.371
 7507SOL     OW23419   6.344   3.441   4.566
 7507SOL    HW123420   6.402   3.467   4.643
 7507SOL    HW223421   6.364   3.347   4.539
 7508SOL     OW23422   1.676   5.922   6.995
 7508SOL    HW123423   1.729   5.889   6.917
 7508SOL    HW223424   1.726   5.995   0.017
 7509SOL     OW23425   5.121   4.222   6.707
 7509SOL    HW123426   5.218   4.201   6.720
 7509SOL    HW223427   5.066   4.145   6.738
 7510SOL     OW23428   3.986   3.115   3.949
 7510SOL    HW123429   4.076   3.125   3.907
 7510SOL    HW223430   3.939   3.203   3.947
 7511SOL     OW23431   3.491   5.645   2.771
 7511SOL    HW123432   3.571   5.685   2.726
 7511SOL    HW223433   3.434   5.600   2.702
 7512SOL     OW23434   2.990   0.562   0.009
 7512SOL    HW123435   2.929   0.562   6.953
 7512SOL    HW223436   2.943   0.605   0.086
 7513SOL     OW23437   2.171   2.656   3.584
 7513SOL    HW123438   2.116   2.728   3.627
 7513SOL    HW223439   2.214   2.693   3.502
 7514SOL     OW23440   2.089   4.265   3.486
 7514SOL    HW123441   2.128   4.177   3.458
 7514SOL    HW223442   2.162   4.327   3.514
 7515SOL     OW23443   0.012   4.097   5.244
 7515SOL    HW123444   0.042   4.161   5.174
 7515SOL    HW223445   0.042   4.129   5.334
 7516SOL     OW23446   1.174   5.284   5.594
 7516SOL    HW123447   1.145   5.329   5.509
 7516SOL    HW223448   1.252   5.224   5.575
 7517SOL     OW23449   1.259   2.660   0.160
 7517SOL    HW123450   1.312   2.579   0.134
 7517SOL    HW223451   1.175   2.631   0.206
 7518SOL     OW23452   4.873   3.146   4.114
 7518SOL    HW123453   4.884   3.144   4.213
 7518SOL    HW223454   4.801   3.083   4.087
 7519SOL     OW23455   4.684   0.031   4.590
 7519SOL    HW123456   4.642   6.965   4.594
 7519SOL    HW223457   4.618   0.099   4.623
 7520SOL     OW23458   1.733   1.500   2.083
 7520SOL    HW123459   1.743   1.402   2.100
 7520SOL    HW223460   1.824   1.543   2.081
 7521SOL     OW23461   5.430   1.607   4.564
 7521SOL    HW123462   5.406   1.654   4.649
 7521SOL    HW223463   5.500   1.660   4.516
 7522SOL     OW23464   1.163   6.637   4.012
 7522SOL    HW123465   1.235   6.574   3.982
 7522SOL    HW223466   1.077   6.611   3.968
 7523SOL     OW23467   5.427   0.814   6.324
 7523SOL    HW123468   5.338   0.813   6.370
 7523SOL    HW223469   5.414   0.807   6.225
 7524SOL     OW23470   7.021   2.833   4.377
 7524SOL    HW123471   0.032   2.757   4.431
 7524SOL    HW223472   0.054   2.914   4.394
 7525SOL     OW23473   4.517   6.497   6.930
 7525SOL    HW123474   4.534   6.401   6.952
 7525SOL    HW223475   4.418   6.515   6.935
 7526SOL     OW23476   2.042   3.416   1.745
 7526SOL    HW123477   2.007   3.322   1.744
 7526SOL    HW223478   2.095   3.431   1.828
 7527SOL     OW23479   4.189   5.925   3.816
 7527SOL    HW123480   4.269   5.869   3.797
 7527SOL    HW223481   4.165   5.916   3.913
 7528SOL     OW23482   5.583   2.196   6.858
 7528SOL    HW123483   5.654   2.126   6.865
 7528SOL    HW223484   5.506   2.173   6.917
 7529SOL     OW23485   5.846   1.796   3.703
 7529SOL    HW123486   5.786   1.756   3.633
 7529SOL    HW223487   5.799   1.794   3.791
 7530SOL     OW23488   0.113   1.460   2.520
 7530SOL    HW123489   0.022   1.454   2.562
 7530SOL    HW223490   0.156   1.370   2.521
 7531SOL     OW23491   4.560   2.609   3.635
 7531SOL    HW123492   4.502   2.616   3.554
 7531SOL    HW223493   4.519   2.545   3.700
 7532SOL     OW23494   5.010   6.280   6.557
 7532SOL    HW123495   5.095   6.278   6.611
 7532SOL    HW223496   5.028   6.240   6.467
 7533SOL     OW23497   4.473   3.168   1.683
 7533SOL    HW123498   4.529   3.131   1.757
 7533SOL    HW223499   4.532   3.211   1.615
 7534SOL     OW23500   5.316   6.602   4.580
 7534SOL    HW123501   5.370   6.531   4.535
 7534SOL    HW223502   5.302   6.578   4.676
 7535SOL     OW23503   1.081   6.909   4.443
 7535SOL    HW123504   0.984   6.897   4.465
 7535SOL    HW223505   1.108   6.842   4.373
 7536SOL     OW23506   5.560   5.914   4.344
 7536SOL    HW123507   5.462   5.893   4.336
 7536SOL    HW223508   5.603   5.848   4.406
 7537SOL     OW23509   2.327   5.735   2.144
 7537SOL    HW123510   2.283   5.675   2.212
 7537SOL    HW223511   2.353   5.821   2.189
 7538SOL     OW23512   0.959   3.274   1.726
 7538SOL    HW123513   0.987   3.282   1.630
 7538SOL    HW223514   0.877   3.328   1.741
 7539SOL     OW23515   1.735   5.187   3.532
 7539SOL    HW123516   1.834   5.194   3.520
 7539SOL    HW223517   1.703   5.262   3.590
 7540SOL     OW23518   4.986   5.708   4.423
 7540SOL    HW123519   5.075   5.750   4.440
 7540SOL    HW223520   4.945   5.747   4.341
 7541SOL     OW23521   0.852   3.876   6.625
 7541SOL    HW123522   0.895   3.959   6.663
 7541SOL    HW223523   0.828   3.814   6.699
 7542SOL     OW23524   6.131   6.399   5.765
 7542SOL    HW123525   6.100   6.443   5.850
 7542SOL    HW223526   6.120   6.300   5.773
 7543SOL     OW23527   2.712   0.403   5.434
 7543SOL    HW123528   2.657   0.486   5.433
 7543SOL    HW223529   2.718   0.365   5.342
 7544SOL     OW23530   0.046   2.587   3.950
 7544SOL    HW123531   6.973   2.606   3.939
 7544SOL    HW223532   0.058   2.502   4.001
 7545SOL     OW23533   0.544   5.774   6.751
 7545SOL    HW123534   0.475   5.826   6.802
 7545SOL    HW223535   0.536   5.795   6.654
 7546SOL     OW23536   3.609   2.730   1.867
 7546SOL    HW123537   3.516   2.695   1.878
 7546SOL    HW223538   3.668   2.657   1.831
 7547SOL     OW23539   4.577   0.529   1.946
 7547SOL    HW123540   4.646   0.596   1.918
 7547SOL    HW223541   4.487   0.572   1.943
 7548SOL     OW23542   4.545   2.258   6.487
 7548SOL    HW123543   4.591   2.169   6.486
 7548SOL    HW223544   4.453   2.249   6.448
 7549SOL     OW23545   4.091   2.694   5.960
 7549SOL    HW123546   4.069   2.634   6.037
 7549SOL    HW223547   4.158   2.762   5.990
 7550SOL     OW23548   1.537   4.233   4.168
 7550SOL    HW123549   1.628   4.272   4.180
 7550SOL    HW223550   1.529   4.195   4.076
 7551SOL     OW23551   4.793   2.143   5.554
 7551SOL    HW123552   4.700   2.132   5.517
 7551SOL    HW223553   4.800   2.231   5.600
 7552SOL     OW23554   2.307   5.834   4.271
 7552SOL    HW123555   2.291   5.864   4.365
 7552SOL    HW223556   2.269   5.901   4.207
 7553SOL     OW23557   5.718   5.890   5.860
 7553SOL    HW123558   5.696   5.895   5.958
 7553SOL    HW223559   5.712   5.795   5.829
 7554SOL     OW23560   5.457   1.309   0.322
 7554SOL    HW123561   5.527   1.313   0.393
 7554SOL    HW223562   5.414   1.219   0.321
 7555SOL     OW23563   2.966   6.590   6.419
 7555SOL    HW123564   2.917   6.615   6.503
 7555SOL    HW223565   2.915   6.519   6.371
 7556SOL     OW23566   1.252   1.421   0.541
 7556SOL    HW123567   1.344   1.428   0.503
 7556SOL    HW223568   1.250   1.466   0.630
 7557SOL     OW23569   5.017   0.099   6.956
 7557SOL    HW123570   5.036   0.195   6.978
 7557SOL    HW223571   4.929   0.073   6.995
 7558SOL     OW23572   0.946   2.765   4.239
 7558SOL    HW123573   0.967   2.838   4.304
 7558SOL    HW223574   0.848   2.744   4.242
 7559SOL     OW23575   3.559   2.079   5.004
 7559SOL    HW123576   3.491   2.145   5.037
 7559SOL    HW223577   3.595   2.026   5.080
 7560SOL     OW23578   6.716   0.143   6.529
 7560SOL    HW123579   6.667   0.223   6.494
 7560SOL    HW223580   6.671   0.060   6.497
 7561SOL     OW23581   5.209   2.300   5.817
 7561SOL    HW123582   5.146   2.343   5.752
 7561SOL    HW223583   5.284   2.256   5.767
 7562SOL     OW23584   0.905   5.445   4.890
 7562SOL    HW123585   0.945   5.422   4.801
 7562SOL    HW223586   0.925   5.540   4.912
 7563SOL     OW23587   2.916   6.540   2.401
 7563SOL    HW123588   2.866   6.481   2.338
 7563SOL    HW223589   2.854   6.609   2.438
 7564SOL     OW23590   4.433   0.495   5.069
 7564SOL    HW123591   4.339   0.497   5.035
 7564SOL    HW223592   4.446   0.415   5.127
 7565SOL     OW23593   5.539   3.698   6.199
 7565SOL    HW123594   5.485   3.782   6.207
 7565SOL    HW223595   5.488   3.622   6.240
 7566SOL     OW23596   5.060   4.998   2.131
 7566SOL    HW123597   5.152   5.018   2.164
 7566SOL    HW223598   4.995   5.006   2.206
 7567SOL     OW23599   0.500   1.349   4.110
 7567SOL    HW123600   0.591   1.353   4.151
 7567SOL    HW223601   0.431   1.368   4.181
 7568SOL     OW23602   5.827   5.058   1.956
 7568SOL    HW123603   5.924   5.063   1.930
 7568SOL    HW223604   5.811   5.117   2.036
 7569SOL     OW23605   3.619   5.044   6.632
 7569SOL    HW123606   3.621   4.946   6.614
 7569SOL    HW223607   3.679   5.092   6.568
 7570SOL     OW23608   6.913   2.929   2.954
 7570SOL    HW123609   6.855   2.969   2.882
 7570SOL    HW223610   6.995   2.890   2.913
 7571SOL     OW23611   5.608   3.203   2.941
 7571SOL    HW123612   5.614   3.109   2.908
 7571SOL    HW223613   5.568   3.204   3.032
 7572SOL     OW23614   4.888   6.497   2.835
 7572SOL    HW123615   4.826   6.484   2.912
 7572SOL    HW223616   4.853   6.570   2.776
 7573SOL     OW23617   5.999   0.311   5.351
 7573SOL    HW123618   5.972   0.403   5.376
 7573SOL    HW223619   6.091   0.313   5.311
 7574SOL     OW23620   6.293   0.742   4.079
 7574SOL    HW123621   6.277   0.677   4.154
 7574SOL    HW223622   6.326   0.692   3.999
 7575SOL     OW23623   6.148   6.724   0.970
 7575SOL    HW123624   6.156   6.657   1.044
 7575SOL    HW223625   6.167   6.679   0.882
 7576SOL     OW23626   5.300   2.925   0.938
 7576SOL    HW123627   5.371   2.855   0.947
 7576SOL    HW223628   5.342   3.015   0.933
 7577SOL     OW23629   0.502   7.022   0.591
 7577SOL    HW123630   0.445   6.948   0.555
 7577SOL    HW223631   0.481   0.011   0.688
 7578SOL     OW23632   0.544   5.031   3.279
 7578SOL    HW123633   0.561   5.048   3.376
 7578SOL    HW223634   0.579   4.941   3.254
 7579SOL     OW23635   6.535   1.940   1.734
 7579SOL    HW123636   6.466   1.888   1.685
 7579SOL    HW223637   6.565   2.017   1.677
 7580SOL     OW23638   1.854   4.348   3.151
 7580SOL    HW123639   1.907   4.431   3.166
 7580SOL    HW223640   1.756   4.369   3.156
 7581SOL     OW23641   0.649   1.375   1.297
 7581SOL    HW123642   0.665   1.285   1.256
 7581SOL    HW223643   0.723   1.397   1.360
 7582SOL     OW23644   4.430   1.575   4.229
 7582SOL    HW123645   4.388   1.644   4.171
 7582SOL    HW223646   4.385   1.486   4.214
 7583SOL     OW23647   5.143   3.367   3.617
 7583SOL    HW123648   5.170   3.284   3.666
 7583SOL    HW223649   5.218   3.434   3.620
 7584SOL     OW23650   1.406   0.968   2.927
 7584SOL    HW123651   1.363   1.035   2.866
 7584SOL    HW223652   1.346   0.888   2.937
 7585SOL     OW23653   1.190   2.527   6.349
 7585SOL    HW123654   1.173   2.579   6.265
 7585SOL    HW223655   1.257   2.576   6.405
 7586SOL     OW23656   1.533   1.035   2.204
 7586SOL    HW123657   1.526   1.033   2.104
 7586SOL    HW223658   1.452   1.077   2.242
 7587SOL     OW23659   3.282   0.916   0.735
 7587SOL    HW123660   3.256   0.868   0.651
 7587SOL    HW223661   3.248   0.866   0.814
 7588SOL     OW23662   0.950   3.142   4.640
 7588SOL    HW123663   0.983   3.101   4.725
 7588SOL    HW223664   1.027   3.183   4.591
 7589SOL     OW23665   0.619   0.683   2.916
 7589SOL    HW123666   0.621   0.642   2.824
 7589SOL    HW223667   0.642   0.613   2.983
 7590SOL     OW23668   0.593   1.659   0.052
 7590SOL    HW123669   0.641   1.578   0.021
 7590SOL    HW223670   0.566   1.648   0.148
 7591SOL     OW23671   4.251   2.825   6.581
 7591SOL    HW123672   4.197   2.756   6.532
 7591SOL    HW223673   4.199   2.910   6.586
 7592SOL     OW23674   6.151   4.899   4.639
 7592SOL    HW123675   6.203   4.867   4.560
 7592SOL    HW223676   6.124   4.822   4.696
 7593SOL     OW23677   6.995   1.815   5.322
 7593SOL    HW123678   6.901   1.781   5.333
 7593SOL    HW223679   0.015   1.819   5.411
 7594SOL     OW23680   0.101   4.237   0.788
 7594SOL    HW123681   0.049   4.161   0.827
 7594SOL    HW223682   0.165   4.202   0.719
 7595SOL     OW23683   6.171   2.919   5.945
 7595SOL    HW123684   6.115   2.882   6.019
 7595SOL    HW223685   6.112   2.971   5.882
 7596SOL     OW23686   2.999   0.164   5.166
 7596SOL    HW123687   3.071   0.126   5.225
 7596SOL    HW223688   2.917   0.108   5.174
 7597SOL     OW23689   2.052   6.029   2.673
 7597SOL    HW123690   1.956   6.051   2.689
 7597SOL    HW223691   2.078   6.059   2.581
 7598SOL     OW23692   5.995   0.638   2.548
 7598SOL    HW123693   5.963   0.595   2.463
 7598SOL    HW223694   5.999   0.737   2.536
 7599SOL     OW23695   4.152   3.241   0.968
 7599SOL    HW123696   4.180   3.331   0.933
 7599SOL    HW223697   4.082   3.253   1.038
 7600SOL     OW23698   1.615   1.144   3.646
 7600SOL    HW123699   1.568   1.104   3.725
 7600SOL    HW223700   1.594   1.241   3.640
 7601SOL     OW23701   3.956   5.467   2.018
 7601SOL    HW123702   3.971   5.557   2.058
 7601SOL    HW223703   3.879   5.423   2.064
 7602SOL     OW23704   0.419   2.274   0.424
 7602SOL    HW123705   0.419   2.374   0.431
 7602SOL    HW223706   0.395   2.235   0.513
 7603SOL     OW23707   2.545   0.052   6.005
 7603SOL    HW123708   2.529   6.985   6.042
 7603SOL    HW223709   2.572   0.045   5.909
 7604SOL     OW23710   1.425   2.162   5.071
 7604SOL    HW123711   1.436   2.229   4.998
 7604SOL    HW223712   1.385   2.078   5.034
 7605SOL     OW23713   2.023   0.473   6.885
 7605SOL    HW123714   1.933   0.505   6.853
 7605SOL    HW223715   2.094   0.514   6.828
 7606SOL     OW23716   6.176   1.645   4.292
 7606SOL    HW123717   6.250   1.695   4.246
 7606SOL    HW223718   6.160   1.685   4.382
 7607SOL     OW23719   3.019   6.484   0.077
 7607SOL    HW123720   2.947   6.553   0.083
 7607SOL    HW223721   3.032   6.443   0.167
 7608SOL     OW23722   5.321   2.560   6.313
 7608SOL    HW123723   5.301   2.617   6.393
 7608SOL    HW223724   5.419   2.546   6.305
 7609SOL     OW23725   0.280   3.054   3.806
 7609SOL    HW123726   0.360   3.097   3.847
 7609SOL    HW223727   0.281   2.956   3.825
 7610SOL     OW23728   3.420   5.446   6.339
 7610SOL    HW123729   3.431   5.375   6.408
 7610SOL    HW223730   3.452   5.533   6.376
 7611SOL     OW23731   4.738   2.865   1.000
 7611SOL    HW123732   4.816   2.923   1.024
 7611SOL    HW223733   4.692   2.835   1.084
 7612SOL     OW23734   3.449   2.030   3.127
 7612SOL    HW123735   3.514   2.023   3.203
 7612SOL    HW223736   3.494   2.071   3.048
 7613SOL     OW23737   1.711   2.126   2.295
 7613SOL    HW123738   1.736   2.170   2.381
 7613SOL    HW223739   1.792   2.085   2.254
 7614SOL     OW23740   4.932   3.013   0.558
 7614SOL    HW123741   4.886   2.925   0.561
 7614SOL    HW223742   4.868   3.085   0.585
 7615SOL     OW23743   5.507   3.356   5.166
 7615SOL    HW123744   5.439   3.361   5.238
 7615SOL    HW223745   5.567   3.278   5.182
 7616SOL     OW23746   5.820   6.652   3.413
 7616SOL    HW123747   5.873   6.624   3.332
 7616SOL    HW223748   5.730   6.685   3.384
 7617SOL     OW23749   4.886   4.961   3.156
 7617SOL    HW123750   4.925   4.894   3.093
 7617SOL    HW223751   4.813   4.918   3.209
 7618SOL     OW23752   2.493   2.023   0.366
 7618SOL    HW123753   2.396   2.040   0.348
 7618SOL    HW223754   2.547   2.060   0.291
 7619SOL     OW23755   0.795   2.210   4.491
 7619SOL    HW123756   0.854   2.290   4.494
 7619SOL    HW223757   0.787   2.178   4.397
 7620SOL     OW23758   3.353   4.511   0.912
 7620SOL    HW123759   3.427   4.509   0.844
 7620SOL    HW223760   3.386   4.553   0.996
 7621SOL     OW23761   0.221   5.598   0.883
 7621SOL    HW123762   0.289   5.528   0.862
 7621SOL    HW223763   0.257   5.689   0.859
 7622SOL     OW23764   4.381   4.276   0.330
 7622SOL    HW123765   4.443   4.302   0.404
 7622SOL    HW223766   4.287   4.301   0.355
 7623SOL     OW23767   4.081   4.723   1.519
 7623SOL    HW123768   4.114   4.693   1.429
 7623SOL    HW223769   3.996   4.774   1.508
 7624SOL     OW23770   0.205   2.143   1.983
 7624SOL    HW123771   0.138   2.188   2.043
 7624SOL    HW223772   0.293   2.190   1.990
 7625SOL     OW23773   4.967   1.816   0.321
 7625SOL    HW123774   4.991   1.911   0.341
 7625SOL    HW223775   4.969   1.762   0.405
 7626SOL     OW23776   6.154   0.681   5.613
 7626SOL    HW123777   6.227   0.669   5.545
 7626SOL    HW223778   6.072   0.716   5.568
 7627SOL     OW23779   3.636   1.881   0.059
 7627SOL    HW123780   3.596   1.852   0.146
 7627SOL    HW223781   3.711   1.819   0.036
 7628SOL     OW23782   3.501   2.339   0.941
 7628SOL    HW123783   3.439   2.402   0.895
 7628SOL    HW223784   3.455   2.297   1.019
 7629SOL     OW23785   5.520   3.176   3.553
 7629SOL    HW123786   5.535   3.274   3.547
 7629SOL    HW223787   5.608   3.129   3.562
 7630SOL     OW23788   1.388   0.495   5.200
 7630SOL    HW123789   1.430   0.412   5.164
 7630SOL    HW223790   1.439   0.527   5.280
 7631SOL     OW23791   2.415   6.905   4.579
 7631SOL    HW123792   2.471   6.825   4.599
 7631SOL    HW223793   2.418   6.924   4.481
 7632SOL     OW23794   4.788   5.689   1.265
 7632SOL    HW123795   4.784   5.605   1.211
 7632SOL    HW223796   4.716   5.752   1.233
 7633SOL     OW23797   5.348   0.315   1.059
 7633SOL    HW123798   5.355   0.216   1.053
 7633SOL    HW223799   5.258   0.344   1.026
 7634SOL     OW23800   1.548   1.945   0.769
 7634SOL    HW123801   1.556   1.941   0.670
 7634SOL    HW223802   1.617   2.008   0.806
 7635SOL     OW23803   2.685   4.983   4.982
 7635SOL    HW123804   2.637   4.909   5.030
 7635SOL    HW223805   2.663   4.979   4.885
 7636SOL     OW23806   0.747   4.937   4.622
 7636SOL    HW123807   0.696   4.861   4.582
 7636SOL    HW223808   0.794   4.988   4.549
 7637SOL     OW23809   0.434   6.475   4.238
 7637SOL    HW123810   0.355   6.449   4.182
 7637SOL    HW223811   0.516   6.433   4.199
 7638SOL     OW23812   0.747   5.406   1.809
 7638SOL    HW123813   0.708   5.474   1.747
 7638SOL    HW223814   0.704   5.415   1.899
 7639SOL     OW23815   0.706   1.347   0.232
 7639SOL    HW123816   0.633   1.311   0.290
 7639SOL    HW223817   0.669   1.369   0.142
 7640SOL     OW23818   3.154   1.123   6.840
 7640SOL    HW123819   3.087   1.162   6.777
 7640SOL    HW223820   3.217   1.195   6.870
 7641SOL     OW23821   6.340   4.043   2.872
 7641SOL    HW123822   6.335   4.010   2.778
 7641SOL    HW223823   6.426   4.093   2.885
 7642SOL     OW23824   5.537   1.283   3.240
 7642SOL    HW123825   5.549   1.258   3.144
 7642SOL    HW223826   5.517   1.381   3.247
 7643SOL     OW23827   5.344   2.585   2.914
 7643SOL    HW123828   5.395   2.568   2.998
 7643SOL    HW223829   5.402   2.633   2.848
 7644SOL     OW23830   4.853   3.436   1.790
 7644SOL    HW123831   4.891   3.444   1.882
 7644SOL    HW223832   4.837   3.339   1.770
 7645SOL     OW23833   3.160   3.938   6.105
 7645SOL    HW123834   3.141   3.843   6.081
 7645SOL    HW223835   3.253   3.961   6.076
 7646SOL     OW23836   1.493   2.976   2.646
 7646SOL    HW123837   1.583   2.957   2.685
 7646SOL    HW223838   1.426   2.910   2.681
 7647SOL     OW23839   6.834   3.104   4.842
 7647SOL    HW123840   6.857   3.200   4.850
 7647SOL    HW223841   6.769   3.079   4.914
 7648SOL     OW23842   2.060   2.280   3.141
 7648SOL    HW123843   1.960   2.282   3.140
 7648SOL    HW223844   2.093   2.324   3.225
 7649SOL     OW23845   6.472   0.968   4.548
 7649SOL    HW123846   6.511   1.018   4.625
 7649SOL    HW223847   6.429   1.034   4.485
 7650SOL     OW23848   4.127   0.946   1.123
 7650SOL    HW123849   4.145   0.891   1.205
 7650SOL    HW223850   4.121   1.042   1.148
 7651SOL     OW23851   2.423   4.836   4.575
 7651SOL    HW123852   2.445   4.925   4.534
 7651SOL    HW223853   2.439   4.840   4.673
 7652SOL     OW23854   6.199   1.746   4.555
 7652SOL    HW123855   6.215   1.658   4.599
 7652SOL    HW223856   6.230   1.820   4.614
 7653SOL     OW23857   0.783   1.633   6.434
 7653SOL    HW123858   0.706   1.680   6.391
 7653SOL    HW223859   0.777   1.642   6.533
 7654SOL     OW23860   6.119   3.494   5.190
 7654SOL    HW123861   6.104   3.593   5.180
 7654SOL    HW223862   6.063   3.459   5.265
 7655SOL     OW23863   3.224   0.557   3.650
 7655SOL    HW123864   3.217   0.657   3.657
 7655SOL    HW223865   3.211   0.516   3.740
 7656SOL     OW23866   6.790   4.142   6.243
 7656SOL    HW123867   6.887   4.127   6.259
 7656SOL    HW223868   6.743   4.153   6.331
 7657SOL     OW23869   1.227   4.268   4.835
 7657SOL    HW123870   1.182   4.192   4.882
 7657SOL    HW223871   1.299   4.232   4.775
 7658SOL     OW23872   2.538   0.538   0.499
 7658SOL    HW123873   2.493   0.589   0.426
 7658SOL    HW223874   2.539   0.592   0.582
 7659SOL     OW23875   4.407   4.198   5.324
 7659SOL    HW123876   4.481   4.202   5.391
 7659SOL    HW223877   4.432   4.250   5.243
 7660SOL     OW23878   6.713   5.123   4.578
 7660SOL    HW123879   6.667   5.150   4.493
 7660SOL    HW223880   6.774   5.196   4.607
 7661SOL     OW23881   4.592   1.776   6.263
 7661SOL    HW123882   4.687   1.750   6.247
 7661SOL    HW223883   4.540   1.696   6.293
 7662SOL     OW23884   1.573   1.891   2.079
 7662SOL    HW123885   1.536   1.962   2.140
 7662SOL    HW223886   1.552   1.915   1.984
 7663SOL     OW23887   5.759   5.610   5.774
 7663SOL    HW123888   5.726   5.608   5.680
 7663SOL    HW223889   5.854   5.577   5.776
 7664SOL     OW23890   4.075   1.237   2.928
 7664SOL    HW123891   4.053   1.141   2.909
 7664SOL    HW223892   3.993   1.293   2.915
 7665SOL     OW23893   4.407   2.407   3.741
 7665SOL    HW123894   4.395   2.308   3.748
 7665SOL    HW223895   4.322   2.449   3.708
 7666SOL     OW23896   5.639   5.393   3.798
 7666SOL    HW123897   5.559   5.450   3.777
 7666SOL    HW223898   5.700   5.442   3.860
 7667SOL     OW23899   4.965   6.290   2.662
 7667SOL    HW123900   4.948   6.350   2.740
 7667SOL    HW223901   4.887   6.293   2.600
 7668SOL     OW23902   2.311   5.113   0.902
 7668SOL    HW123903   2.392   5.059   0.879
 7668SOL    HW223904   2.328   5.167   0.984
 7669SOL     OW23905   3.522   6.790   6.260
 7669SOL    HW123906   3.607   6.743   6.238
 7669SOL    HW223907   3.507   6.865   6.195
 7670SOL     OW23908   0.470   6.402   0.294
 7670SOL    HW123909   0.375   6.405   0.326
 7670SOL    HW223910   0.524   6.343   0.355
 7671SOL     OW23911   5.316   0.234   2.029
 7671SOL    HW123912   5.412   0.258   2.018
 7671SOL    HW223913   5.275   0.218   1.938
 7672SOL     OW23914   5.760   4.614   2.974
 7672SOL    HW123915   5.795   4.681   3.040
 7672SOL    HW223916   5.804   4.627   2.886
 7673SOL     OW23917   1.403   5.912   3.485
 7673SOL    HW123918   1.398   6.001   3.530
 7673SOL    HW223919   1.481   5.911   3.422
 7674SOL     OW23920   3.715   0.535   4.372
 7674SOL    HW123921   3.780   0.461   4.351
 7674SOL    HW223922   3.762   0.605   4.426
 7675SOL     OW23923   3.616   6.459   3.167
 7675SOL    HW123924   3.546   6.430   3.102
 7675SOL    HW223925   3.603   6.410   3.254
 7676SOL     OW23926   3.142   3.137   5.912
 7676SOL    HW123927   3.154   3.055   5.969
 7676SOL    HW223928   3.232   3.171   5.884
 7677SOL     OW23929   6.435   4.674   1.248
 7677SOL    HW123930   6.386   4.662   1.334
 7677SOL    HW223931   6.445   4.586   1.202
 7678SOL     OW23932   1.657   1.998   5.551
 7678SOL    HW123933   1.597   2.010   5.472
 7678SOL    HW223934   1.623   1.922   5.607
 7679SOL     OW23935   2.173   5.100   5.144
 7679SOL    HW123936   2.146   5.004   5.140
 7679SOL    HW223937   2.252   5.115   5.084
 7680SOL     OW23938   1.543   0.613   5.391
 7680SOL    HW123939   1.479   0.690   5.380
 7680SOL    HW223940   1.617   0.639   5.452
 7681SOL     OW23941   3.171   2.907   6.065
 7681SOL    HW123942   3.117   2.823   6.058
 7681SOL    HW223943   3.214   2.910   6.156
 7682SOL     OW23944   3.026   1.822   2.844
 7682SOL    HW123945   3.082   1.820   2.761
 7682SOL    HW223946   2.989   1.913   2.857
 7683SOL     OW23947   0.049   1.196   4.561
 7683SOL    HW123948   0.002   1.110   4.541
 7683SOL    HW223949   0.025   1.264   4.491
 7684SOL     OW23950   4.198   2.587   1.739
 7684SOL    HW123951   4.134   2.511   1.754
 7684SOL    HW223952   4.146   2.673   1.732
 7685SOL     OW23953   3.564   0.833   0.316
 7685SOL    HW123954   3.496   0.861   0.248
 7685SOL    HW223955   3.650   0.810   0.271
 7686SOL     OW23956   4.456   0.475   4.455
 7686SOL    HW123957   4.375   0.516   4.499
 7686SOL    HW223958   4.429   0.434   4.369
 7687SOL     OW23959   5.487   5.349   4.608
 7687SOL    HW123960   5.527   5.375   4.695
 7687SOL    HW223961   5.558   5.346   4.538
 7688SOL     OW23962   0.653   5.171   6.269
 7688SOL    HW123963   0.564   5.124   6.266
 7688SOL    HW223964   0.682   5.179   6.365
 7689SOL     OW23965   4.392   0.607   1.724
 7689SOL    HW123966   4.461   0.567   1.663
 7689SOL    HW223967   4.419   0.700   1.748
 7690SOL     OW23968   5.884   5.152   0.293
 7690SOL    HW123969   5.831   5.130   0.211
 7690SOL    HW223970   5.916   5.246   0.287
 7691SOL     OW23971   4.191   4.701   3.263
 7691SOL    HW123972   4.211   4.668   3.355
 7691SOL    HW223973   4.275   4.700   3.208
 7692SOL     OW23974   1.263   6.871   2.220
 7692SOL    HW123975   1.186   6.815   2.188
 7692SOL    HW223976   1.256   6.882   2.319
 7693SOL     OW23977   2.560   0.922   0.861
 7693SOL    HW123978   2.589   1.014   0.836
 7693SOL    HW223979   2.635   0.858   0.844
 7694SOL     OW23980   5.908   2.523   4.657
 7694SOL    HW123981   5.878   2.442   4.606
 7694SOL    HW223982   5.965   2.580   4.598
 7695SOL     OW23983   6.513   0.228   2.998
 7695SOL    HW123984   6.462   0.299   3.046
 7695SOL    HW223985   6.451   0.172   2.943
 7696SOL     OW23986   0.433   2.221   6.264
 7696SOL    HW123987   0.484   2.274   6.333
 7696SOL    HW223988   0.491   2.205   6.185
 7697SOL     OW23989   3.786   6.919   2.977
 7697SOL    HW123990   3.798   6.956   2.885
 7697SOL    HW223991   3.802   6.821   2.976
 7698SOL     OW23992   6.104   2.199   6.582
 7698SOL    HW123993   6.156   2.280   6.557
 7698SOL    HW223994   6.019   2.226   6.627
 7699SOL     OW23995   3.018   5.652   0.382
 7699SOL    HW123996   3.029   5.738   0.331
 7699SOL    HW223997   3.066   5.660   0.470
 7700SOL     OW23998   4.477   5.985   2.846
 7700SOL    HW123999   4.554   6.036   2.883
 7700SOL    HW224000   4.460   5.904   2.902
 7701SOL     OW24001   0.480   2.567   6.198
 7701SOL    HW124002   0.507   2.663   6.207
 7701SOL    HW224003   0.390   2.553   6.239
 7702SOL     OW24004   4.688   6.988   5.615
 7702SOL    HW124005   4.631   7.010   5.694
 7702SOL    HW224006   4.642   6.920   5.558
 7703SOL     OW24007   6.476   0.221   4.492
 7703SOL    HW124008   6.549   0.165   4.453
 7703SOL    HW224009   6.484   0.315   4.459
 7704SOL     OW24010   6.375   1.417   3.971
 7704SOL    HW124011   6.413   1.455   4.056
 7704SOL    HW224012   6.276   1.411   3.979
 7705SOL     OW24013   2.368   4.904   0.655
 7705SOL    HW124014   2.444   4.937   0.710
 7705SOL    HW224015   2.316   4.836   0.706
 7706SOL     OW24016   3.809   2.941   2.711
 7706SOL    HW124017   3.857   2.945   2.624
 7706SOL    HW224018   3.869   2.972   2.784
 7707SOL     OW24019   6.471   6.017   0.258
 7707SOL    HW124020   6.501   5.959   0.183
 7707SOL    HW224021   6.418   5.963   0.323
 7708SOL     OW24022   2.398   6.759   4.209
 7708SOL    HW124023   2.401   6.841   4.266
 7708SOL    HW224024   2.483   6.750   4.157
 7709SOL     OW24025   6.568   4.760   0.816
 7709SOL    HW124026   6.581   4.722   0.725
 7709SOL    HW224027   6.487   4.818   0.817
 7710SOL     OW24028   1.989   3.368   0.545
 7710SOL    HW124029   1.979   3.277   0.506
 7710SOL    HW224030   2.006   3.360   0.643
 7711SOL     OW24031   6.588   4.481   5.456
 7711SOL    HW124032   6.537   4.546   5.400
 7711SOL    HW224033   6.585   4.510   5.551
 7712SOL     OW24034   6.776   4.641   5.877
 7712SOL    HW124035   6.858   4.698   5.868
 7712SOL    HW224036   6.695   4.694   5.853
 7713SOL     OW24037   1.684   4.765   0.643
 7713SOL    HW124038   1.629   4.751   0.726
 7713SOL    HW224039   1.687   4.862   0.621
 7714SOL     OW24040   6.684   0.512   4.130
 7714SOL    HW124041   6.766   0.503   4.185
 7714SOL    HW224042   6.709   0.535   4.036
 7715SOL     OW24043   1.849   2.653   6.502
 7715SOL    HW124044   1.939   2.613   6.520
 7715SOL    HW224045   1.810   2.688   6.588
 7716SOL     OW24046   0.721   6.146   6.555
 7716SOL    HW124047   0.764   6.058   6.576
 7716SOL    HW224048   0.664   6.136   6.473
 7717SOL     OW24049   1.212   2.241   6.417
 7717SOL    HW124050   1.227   2.313   6.485
 7717SOL    HW224051   1.268   2.260   6.336
 7718SOL     OW24052   1.362   4.244   2.445
 7718SOL    HW124053   1.345   4.337   2.479
 7718SOL    HW224054   1.432   4.247   2.374
 7719SOL     OW24055   1.654   4.043   4.859
 7719SOL    HW124056   1.644   3.991   4.774
 7719SOL    HW224057   1.567   4.045   4.908
 7720SOL     OW24058   6.139   1.907   6.389
 7720SOL    HW124059   6.185   1.940   6.306
 7720SOL    HW224060   6.206   1.897   6.462
 7721SOL     OW24061   1.422   0.327   2.667
 7721SOL    HW124062   1.485   0.278   2.727
 7721SOL    HW224063   1.388   0.409   2.714
 7722SOL     OW24064   2.046   4.926   4.042
 7722SOL    HW124065   1.974   4.969   3.987
 7722SOL    HW224066   2.112   4.995   4.070
 7723SOL     OW24067   4.879   2.886   6.856
 7723SOL    HW124068   4.834   2.799   6.874
 7723SOL    HW224069   4.865   2.948   6.933
 7724SOL     OW24070   2.929   4.066   1.502
 7724SOL    HW124071   2.887   4.094   1.416
 7724SOL    HW224072   2.880   3.988   1.539
 7725SOL     OW24073   5.830   2.386   2.474
 7725SOL    HW124074   5.896   2.351   2.408
 7725SOL    HW224075   5.814   2.483   2.456
 7726SOL     OW24076   0.628   3.164   5.709
 7726SOL    HW124077   0.667   3.155   5.617
 7726SOL    HW224078   0.591   3.256   5.720
 7727SOL     OW24079   5.149   2.671   2.283
 7727SOL    HW124080   5.052   2.658   2.302
 7727SOL    HW224081   5.167   2.648   2.187
 7728SOL     OW24082   2.358   3.049   5.410
 7728SOL    HW124083   2.393   3.024   5.320
 7728SOL    HW224084   2.288   2.982   5.438
 7729SOL     OW24085   5.814   1.740   2.751
 7729SOL    HW124086   5.732   1.684   2.764
 7729SOL    HW224087   5.890   1.699   2.801
 7730SOL     OW24088   5.614   4.698   5.518
 7730SOL    HW124089   5.615   4.702   5.618
 7730SOL    HW224090   5.544   4.633   5.488
 7731SOL     OW24091   5.985   0.383   0.930
 7731SOL    HW124092   6.005   0.362   1.026
 7731SOL    HW224093   5.901   0.437   0.925
 7732SOL     OW24094   4.650   0.363   6.441
 7732SOL    HW124095   4.604   0.300   6.378
 7732SOL    HW224096   4.749   0.347   6.438
 7733SOL     OW24097   6.520   5.738   2.386
 7733SOL    HW124098   6.541   5.691   2.300
 7733SOL    HW224099   6.554   5.685   2.463
 7734SOL     OW24100   2.615   4.390   5.647
 7734SOL    HW124101   2.537   4.366   5.705
 7734SOL    HW224102   2.587   4.388   5.551
 7735SOL     OW24103   6.232   6.340   0.484
 7735SOL    HW124104   6.255   6.304   0.574
 7735SOL    HW224105   6.292   6.298   0.415
 7736SOL     OW24106   2.787   3.120   0.848
 7736SOL    HW124107   2.816   3.077   0.762
 7736SOL    HW224108   2.861   3.113   0.915
 7737SOL     OW24109   4.081   5.436   1.069
 7737SOL    HW124110   4.119   5.427   1.161
 7737SOL    HW224111   4.123   5.514   1.023
 7738SOL     OW24112   2.676   6.212   6.938
 7738SOL    HW124113   2.725   6.126   6.927
 7738SOL    HW224114   2.717   6.282   6.879
 7739SOL     OW24115   1.375   3.127   1.950
 7739SOL    HW124116   1.383   3.027   1.950
 7739SOL    HW224117   1.331   3.156   2.035
 7740SOL     OW24118   1.263   0.731   3.618
 7740SOL    HW124119   1.229   0.638   3.631
 7740SOL    HW224120   1.362   0.733   3.631
 7741SOL     OW24121   1.916   4.730   6.052
 7741SOL    HW124122   1.961   4.648   6.089
 7741SOL    HW224123   1.961   4.756   5.966
 7742SOL     OW24124   3.648   1.826   4.218
 7742SOL    HW124125   3.663   1.924   4.206
 7742SOL    HW224126   3.672   1.777   4.134
 7743SOL     OW24127   5.249   1.160   6.567
 7743SOL    HW124128   5.225   1.256   6.577
 7743SOL    HW224129   5.250   1.116   6.657
 7744SOL     OW24130   0.610   5.949   4.882
 7744SOL    HW124131   0.613   5.995   4.971
 7744SOL    HW224132   0.636   5.853   4.893
 7745SOL     OW24133   1.814   6.231   6.881
 7745SOL    HW124134   1.863   6.317   6.871
 7745SOL    HW224135   1.863   6.171   6.944
 7746SOL     OW24136   0.980   6.334   1.050
 7746SOL    HW124137   1.065   6.322   0.999
 7746SOL    HW224138   0.943   6.245   1.076
 7747SOL     OW24139   6.861   6.440   0.834
 7747SOL    HW124140   6.939   6.417   0.893
 7747SOL    HW224141   6.794   6.492   0.887
 7748SOL     OW24142   4.020   2.901   5.773
 7748SOL    HW124143   3.966   2.887   5.690
 7748SOL    HW224144   4.035   2.813   5.818
 7749SOL     OW24145   3.818   3.448   3.476
 7749SOL    HW124146   3.906   3.475   3.515
 7749SOL    HW224147   3.746   3.458   3.545
 7750SOL     OW24148   5.583   5.039   6.170
 7750SOL    HW124149   5.586   5.094   6.087
 7750SOL    HW224150   5.512   5.075   6.231
 7751SOL     OW24151   6.767   1.440   4.113
 7751SOL    HW124152   6.759   1.490   4.027
 7751SOL    HW224153   6.682   1.451   4.166
 7752SOL     OW24154   5.919   5.286   5.403
 7752SOL    HW124155   5.956   5.378   5.394
 7752SOL    HW224156   5.890   5.271   5.497
 7753SOL     OW24157   2.637   0.085   4.453
 7753SOL    HW124158   2.632   0.104   4.551
 7753SOL    HW224159   2.732   0.083   4.424
 7754SOL     OW24160   5.679   0.344   1.197
 7754SOL    HW124161   5.634   0.271   1.146
 7754SOL    HW224162   5.737   0.305   1.268
 7755SOL     OW24163   0.377   6.282   5.735
 7755SOL    HW124164   0.372   6.308   5.831
 7755SOL    HW224165   0.472   6.262   5.711
 7756SOL     OW24166   2.672   5.015   2.426
 7756SOL    HW124167   2.751   4.981   2.375
 7756SOL    HW224168   2.671   5.115   2.424
 7757SOL     OW24169   4.915   6.265   5.487
 7757SOL    HW124170   4.865   6.279   5.401
 7757SOL    HW224171   4.850   6.260   5.563
 7758SOL     OW24172   2.365   2.901   6.210
 7758SOL    HW124173   2.313   2.875   6.128
 7758SOL    HW224174   2.463   2.898   6.189
 7759SOL     OW24175   2.204   0.643   4.473
 7759SOL    HW124176   2.196   0.656   4.572
 7759SOL    HW224177   2.261   0.715   4.435
 7760SOL     OW24178   5.256   3.166   1.524
 7760SOL    HW124179   5.199   3.154   1.605
 7760SOL    HW224180   5.313   3.085   1.510
 7761SOL     OW24181   3.118   6.789   6.081
 7761SOL    HW124182   3.061   6.869   6.097
 7761SOL    HW224183   3.147   6.751   6.169
 7762SOL     OW24184   4.190   1.150   0.044
 7762SOL    HW124185   4.196   1.105   6.979
 7762SOL    HW224186   4.127   1.228   0.038
 7763SOL     OW24187   1.260   2.196   0.916
 7763SOL    HW124188   1.311   2.192   1.002
 7763SOL    HW224189   1.162   2.201   0.934
 7764SOL     OW24190   3.898   3.396   2.443
 7764SOL    HW124191   3.940   3.466   2.385
 7764SOL    HW224192   3.836   3.440   2.508
 7765SOL     OW24193   6.024   3.261   3.586
 7765SOL    HW124194   6.112   3.305   3.608
 7765SOL    HW224195   6.041   3.167   3.557
 7766SOL     OW24196   5.749   1.553   0.085
 7766SOL    HW124197   5.725   1.630   0.144
 7766SOL    HW224198   5.788   1.479   0.141
 7767SOL     OW24199   3.863   6.422   3.556
 7767SOL    HW124200   3.898   6.330   3.537
 7767SOL    HW224201   3.766   6.416   3.581
 7768SOL     OW24202   3.404   4.961   2.512
 7768SOL    HW124203   3.422   4.940   2.608
 7768SOL    HW224204   3.414   4.878   2.457
 7769SOL     OW24205   4.718   2.016   1.292
 7769SOL    HW124206   4.716   2.031   1.193
 7769SOL    HW224207   4.651   1.946   1.318
 7770SOL     OW24208   2.929   5.010   1.725
 7770SOL    HW124209   2.981   4.972   1.801
 7770SOL    HW224210   2.883   5.094   1.754
 7771SOL     OW24211   2.625   2.094   4.642
 7771SOL    HW124212   2.674   2.052   4.566
 7771SOL    HW224213   2.534   2.054   4.650
 7772SOL     OW24214   5.269   1.187   4.164
 7772SOL    HW124215   5.218   1.136   4.096
 7772SOL    HW224216   5.206   1.247   4.215
 7773SOL     OW24217   3.841   4.254   6.053
 7773SOL    HW124218   3.890   4.245   5.966
 7773SOL    HW224219   3.783   4.174   6.067
 7774SOL     OW24220   5.286   1.243   6.193
 7774SOL    HW124221   5.240   1.332   6.187
 7774SOL    HW224222   5.217   1.171   6.202
 7775SOL     OW24223   3.603   6.752   3.219
 7775SOL    HW124224   3.579   6.747   3.122
 7775SOL    HW224225   3.675   6.686   3.239
 7776SOL     OW24226   3.445   3.568   6.184
 7776SOL    HW124227   3.429   3.470   6.186
 7776SOL    HW224228   3.454   3.602   6.278
 7777SOL     OW24229   2.018   1.190   5.861
 7777SOL    HW124230   2.044   1.095   5.876
 7777SOL    HW224231   2.045   1.245   5.941
 7778SOL     OW24232   5.830   0.591   0.605
 7778SOL    HW124233   5.819   0.661   0.535
 7778SOL    HW224234   5.857   0.505   0.562
 7779SOL     OW24235   3.326   2.553   0.872
 7779SOL    HW124236   3.333   2.630   0.809
 7779SOL    HW224237   3.242   2.502   0.854
 7780SOL     OW24238   1.108   6.201   4.484
 7780SOL    HW124239   1.101   6.270   4.411
 7780SOL    HW224240   1.150   6.242   4.564
 7781SOL     OW24241   1.554   3.720   5.898
 7781SOL    HW124242   1.559   3.675   5.809
 7781SOL    HW224243   1.643   3.759   5.922
 7782SOL     OW24244   2.156   4.015   6.038
 7782SOL    HW124245   2.145   3.925   6.080
 7782SOL    HW224246   2.096   4.022   5.959
 7783SOL     OW24247   2.574   6.697   6.526
 7783SOL    HW124248   2.561   6.688   6.427
 7783SOL    HW224249   2.536   6.784   6.557
 7784SOL     OW24250   1.354   3.049   7.004
 7784SOL    HW124251   1.359   3.136   6.955
 7784SOL    HW224252   1.403   3.056   0.066
 7785SOL     OW24253   2.247   6.688   3.842
 7785SOL    HW124254   2.278   6.727   3.756
 7785SOL    HW224255   2.312   6.617   3.871
 7786SOL     OW24256   3.144   4.635   5.333
 7786SOL    HW124257   3.145   4.598   5.426
 7786SOL    HW224258   3.072   4.591   5.280
 7787SOL     OW24259   2.168   2.887   5.159
 7787SOL    HW124260   2.256   2.906   5.114
 7787SOL    HW224261   2.110   2.968   5.152
 7788SOL     OW24262   1.582   1.661   1.663
 7788SOL    HW124263   1.674   1.634   1.635
 7788SOL    HW224264   1.540   1.717   1.592
 7789SOL     OW24265   2.538   6.998   1.151
 7789SOL    HW124266   2.505   6.967   1.062
 7789SOL    HW224267   2.632   0.009   1.140
 7790SOL     OW24268   6.590   4.137   3.059
 7790SOL    HW124269   6.581   4.040   3.079
 7790SOL    HW224270   6.506   4.185   3.084
 7791SOL     OW24271   2.597   5.936   4.430
 7791SOL    HW124272   2.696   5.942   4.443
 7791SOL    HW224273   2.563   6.022   4.393
 7792SOL     OW24274   1.358   5.516   6.356
 7792SOL    HW124275   1.318   5.425   6.344
 7792SOL    HW224276   1.305   5.582   6.303
 7793SOL     OW24277   1.647   1.003   5.147
 7793SOL    HW124278   1.589   0.970   5.072
 7793SOL    HW224279   1.729   1.046   5.109
 7794SOL     OW24280   5.158   4.798   4.646
 7794SOL    HW124281   5.084   4.830   4.706
 7794SOL    HW224282   5.242   4.846   4.669
 7795SOL     OW24283   1.881   4.375   5.516
 7795SOL    HW124284   1.859   4.304   5.583
 7795SOL    HW224285   1.927   4.334   5.437
 7796SOL     OW24286   4.030   3.764   3.620
 7796SOL    HW124287   4.111   3.716   3.586
 7796SOL    HW224288   4.043   3.785   3.717
 7797SOL     OW24289   0.868   6.253   3.222
 7797SOL    HW124290   0.964   6.242   3.249
 7797SOL    HW224291   0.863   6.266   3.123
 7798SOL     OW24292   2.764   5.518   0.499
 7798SOL    HW124293   2.696   5.473   0.440
 7798SOL    HW224294   2.830   5.567   0.442
 7799SOL     OW24295   6.937   5.777   1.739
 7799SOL    HW124296   6.895   5.857   1.782
 7799SOL    HW224297   6.954   5.707   1.809
 7800SOL     OW24298   0.665   4.653   1.262
 7800SOL    HW124299   0.597   4.693   1.323
 7800SOL    HW224300   0.645   4.680   1.168
 7801SOL     OW24301   2.433   1.348   0.747
 7801SOL    HW124302   2.528   1.329   0.768
 7801SOL    HW224303   2.423   1.369   0.650
 7802SOL     OW24304   5.926   2.701   1.613
 7802SOL    HW124305   5.890   2.774   1.670
 7802SOL    HW224306   5.855   2.673   1.547
 7803SOL     OW24307   4.431   3.414   5.656
 7803SOL    HW124308   4.450   3.318   5.638
 7803SOL    HW224309   4.517   3.461   5.681
 7804SOL     OW24310   5.971   1.267   4.294
 7804SOL    HW124311   5.888   1.302   4.337
 7804SOL    HW224312   5.960   1.171   4.271
 7805SOL     OW24313   5.421   1.985   1.580
 7805SOL    HW124314   5.366   2.040   1.643
 7805SOL    HW224315   5.362   1.938   1.515
 7806SOL     OW24316   5.582   2.841   5.798
 7806SOL    HW124317   5.593   2.776   5.872
 7806SOL    HW224318   5.488   2.876   5.797
 7807SOL     OW24319   0.147   4.697   6.093
 7807SOL    HW124320   0.057   4.725   6.060
 7807SOL    HW224321   0.213   4.703   6.019
 7808SOL     OW24322   0.802   1.513   5.273
 7808SOL    HW124323   0.894   1.525   5.235
 7808SOL    HW224324   0.794   1.564   5.358
 7809SOL     OW24325   2.423   5.467   4.570
 7809SOL    HW124326   2.383   5.386   4.528
 7809SOL    HW224327   2.501   5.498   4.515
 7810SOL     OW24328   2.952   0.781   5.643
 7810SOL    HW124329   3.040   0.822   5.618
 7810SOL    HW224330   2.890   0.785   5.564
 7811SOL     OW24331   6.048   4.802   4.289
 7811SOL    HW124332   6.016   4.729   4.349
 7811SOL    HW224333   6.024   4.781   4.195
 7812SOL     OW24334   1.388   1.857   4.473
 7812SOL    HW124335   1.320   1.849   4.546
 7812SOL    HW224336   1.347   1.901   4.394
 7813SOL     OW24337   5.019   3.092   6.555
 7813SOL    HW124338   5.006   3.090   6.456
 7813SOL    HW224339   4.936   3.126   6.599
 7814SOL     OW24340   6.987   2.581   3.328
 7814SOL    HW124341   6.942   2.631   3.255
 7814SOL    HW224342   6.984   2.483   3.310
 7815SOL     OW24343   5.157   1.350   6.789
 7815SOL    HW124344   5.177   1.371   6.885
 7815SOL    HW224345   5.111   1.262   6.783
 7816SOL     OW24346   0.825   3.371   5.861
 7816SOL    HW124347   0.848   3.283   5.903
 7816SOL    HW224348   0.886   3.388   5.784
 7817SOL     OW24349   6.099   3.680   4.215
 7817SOL    HW124350   6.008   3.648   4.242
 7817SOL    HW224351   6.105   3.779   4.227
 7818SOL     OW24352   5.774   0.107   1.641
 7818SOL    HW124353   5.807   0.163   1.564
 7818SOL    HW224354   5.779   0.010   1.616
 7819SOL     OW24355   0.308   3.102   1.265
 7819SOL    HW124356   0.349   3.068   1.350
 7819SOL    HW224357   0.367   3.172   1.224
 7820SOL     OW24358   1.849   2.244   5.044
 7820SOL    HW124359   1.871   2.331   4.999
 7820SOL    HW224360   1.814   2.180   4.976
 7821SOL     OW24361   4.195   5.846   0.809
 7821SOL    HW124362   4.176   5.749   0.828
 7821SOL    HW224363   4.203   5.896   0.895
 7822SOL     OW24364   0.754   6.691   5.401
 7822SOL    HW124365   0.672   6.640   5.426
 7822SOL    HW224366   0.828   6.671   5.466
 7823SOL     OW24367   2.301   4.330   4.512
 7823SOL    HW124368   2.339   4.375   4.430
 7823SOL    HW224369   2.340   4.373   4.593
 7824SOL     OW24370   6.971   2.574   5.428
 7824SOL    HW124371   6.922   2.590   5.343
 7824SOL    HW224372   6.923   2.504   5.482
 7825SOL     OW24373   2.372   3.089   6.711
 7825SOL    HW124374   2.450   3.055   6.658
 7825SOL    HW224375   2.292   3.095   6.652
 7826SOL     OW24376   6.998   2.158   6.999
 7826SOL    HW124377   0.002   2.063   7.010
 7826SOL    HW224378   6.995   2.203   0.064
 7827SOL     OW24379   0.446   5.812   3.059
 7827SOL    HW124380   0.352   5.780   3.045
 7827SOL    HW224381   0.461   5.895   3.006
 7828SOL     OW24382   6.887   3.822   6.548
 7828SOL    HW124383   6.977   3.824   6.504
 7828SOL    HW224384   6.820   3.783   6.483
 7829SOL     OW24385   3.361   3.022   1.395
 7829SOL    HW124386   3.272   3.032   1.441
 7829SOL    HW224387   3.428   2.984   1.460
 7830SOL     OW24388   3.455   5.250   5.118
 7830SOL    HW124389   3.395   5.245   5.198
 7830SOL    HW224390   3.400   5.265   5.036
 7831SOL     OW24391   2.079   1.588   1.066
 7831SOL    HW124392   2.024   1.543   0.996
 7831SOL    HW224393   2.146   1.522   1.103
 7832SOL     OW24394   5.167   0.521   4.517
 7832SOL    HW124395   5.153   0.581   4.438
 7832SOL    HW224396   5.223   0.569   4.585
 7833SOL     OW24397   1.493   0.414   4.007
 7833SOL    HW124398   1.428   0.428   4.081
 7833SOL    HW224399   1.585   0.404   4.044
 7834SOL     OW24400   6.616   1.863   4.252
 7834SOL    HW124401   6.590   1.840   4.158
 7834SOL    HW224402   6.553   1.819   4.316
 7835SOL     OW24403   3.940   1.849   5.519
 7835SOL    HW124404   3.874   1.924   5.527
 7835SOL    HW224405   3.907   1.771   5.573
 7836SOL     OW24406   3.931   4.235   5.153
 7836SOL    HW124407   3.998   4.308   5.137
 7836SOL    HW224408   3.965   4.149   5.116
 7837SOL     OW24409   5.903   6.532   0.498
 7837SOL    HW124410   5.993   6.534   0.454
 7837SOL    HW224411   5.876   6.625   0.521
 7838SOL     OW24412   5.222   5.151   1.551
 7838SOL    HW124413   5.222   5.248   1.576
 7838SOL    HW224414   5.314   5.124   1.522
 7839SOL     OW24415   6.102   4.419   5.037
 7839SOL    HW124416   6.092   4.322   5.017
 7839SOL    HW224417   6.177   4.457   4.983
 7840SOL     OW24418   1.334   3.944   3.819
 7840SOL    HW124419   1.319   3.931   3.917
 7840SOL    HW224420   1.370   3.860   3.780
 7841SOL     OW24421   4.850   1.641   6.359
 7841SOL    HW124422   4.902   1.667   6.441
 7841SOL    HW224423   4.763   1.600   6.387
 7842SOL     OW24424   2.367   2.029   2.599
 7842SOL    HW124425   2.280   2.024   2.551
 7842SOL    HW224426   2.365   1.968   2.678
 7843SOL     OW24427   6.724   6.683   4.128
 7843SOL    HW124428   6.811   6.731   4.114
 7843SOL    HW224429   6.735   6.587   4.102
 7844SOL     OW24430   3.727   1.034   2.502
 7844SOL    HW124431   3.705   0.955   2.445
 7844SOL    HW224432   3.646   1.093   2.510
 7845SOL     OW24433   5.831   1.699   1.670
 7845SOL    HW124434   5.876   1.784   1.696
 7845SOL    HW224435   5.861   1.671   1.579
 7846SOL     OW24436   1.783   2.879   0.540
 7846SOL    HW124437   1.816   2.788   0.565
 7846SOL    HW224438   1.690   2.891   0.574
 7847SOL     OW24439   5.735   2.275   3.855
 7847SOL    HW124440   5.747   2.194   3.913
 7847SOL    HW224441   5.640   2.279   3.823
 7848SOL     OW24442   2.833   4.573   0.947
 7848SOL    HW124443   2.798   4.493   0.899
 7848SOL    HW224444   2.860   4.547   1.040
 7849SOL     OW24445   5.509   3.164   5.703
 7849SOL    HW124446   5.439   3.113   5.753
 7849SOL    HW224447   5.474   3.253   5.675
 7850SOL     OW24448   0.031   1.538   3.318
 7850SOL    HW124449   6.978   1.583   3.363
 7850SOL    HW224450   0.010   1.525   3.222
 7851SOL     OW24451   0.822   4.006   1.778
 7851SOL    HW124452   0.917   3.979   1.761
 7851SOL    HW224453   0.761   3.940   1.735
 7852SOL     OW24454   3.192   1.397   0.172
 7852SOL    HW124455   3.226   1.489   0.193
 7852SOL    HW224456   3.092   1.396   0.180
 7853SOL     OW24457   4.086   3.193   1.526
 7853SOL    HW124458   4.132   3.117   1.572
 7853SOL    HW224459   4.141   3.224   1.449
 7854SOL     OW24460   4.506   1.929   6.068
 7854SOL    HW124461   4.546   1.895   6.153
 7854SOL    HW224462   4.535   1.870   5.992
 7855SOL     OW24463   4.896   6.624   4.503
 7855SOL    HW124464   4.903   6.557   4.577
 7855SOL    HW224465   4.921   6.581   4.416
 7856SOL     OW24466   1.574   4.523   4.899
 7856SOL    HW124467   1.630   4.491   4.976
 7856SOL    HW224468   1.479   4.533   4.928
 7857SOL     OW24469   5.220   3.978   0.013
 7857SOL    HW124470   5.156   3.979   0.091
 7857SOL    HW224471   5.268   4.066   0.008
 7858SOL     OW24472   0.072   5.420   5.866
 7858SOL    HW124473   0.068   5.458   5.959
 7858SOL    HW224474   0.168   5.413   5.837
 7859SOL     OW24475   4.792   3.326   6.144
 7859SOL    HW124476   4.723   3.290   6.081
 7859SOL    HW224477   4.883   3.297   6.115
 7860SOL     OW24478   3.237   1.152   4.439
 7860SOL    HW124479   3.147   1.111   4.452
 7860SOL    HW224480   3.229   1.251   4.443
 7861SOL     OW24481   2.604   5.471   1.856
 7861SOL    HW124482   2.652   5.489   1.770
 7861SOL    HW224483   2.670   5.444   1.926
 7862SOL     OW24484   2.958   5.666   2.060
 7862SOL    HW124485   2.862   5.673   2.084
 7862SOL    HW224486   3.013   5.659   2.143
 7863SOL     OW24487   6.882   4.378   3.377
 7863SOL    HW124488   6.940   4.297   3.389
 7863SOL    HW224489   6.937   4.461   3.393
 7864SOL     OW24490   2.102   6.329   6.241
 7864SOL    HW124491   2.134   6.418   6.272
 7864SOL    HW224492   2.056   6.282   6.317
 7865SOL     OW24493   5.864   6.126   3.818
 7865SOL    HW124494   5.787   6.110   3.755
 7865SOL    HW224495   5.864   6.054   3.888
 7866SOL     OW24496   1.759   0.475   5.664
 7866SOL    HW124497   1.839   0.481   5.724
 7866SOL    HW224498   1.701   0.556   5.677
 7867SOL     OW24499   5.543   0.287   3.985
 7867SOL    HW124500   5.484   0.363   3.961
 7867SOL    HW224501   5.491   0.202   3.983
 7868SOL     OW24502   3.860   6.157   0.811
 7868SOL    HW124503   3.874   6.249   0.774
 7868SOL    HW224504   3.792   6.161   0.884
 7869SOL     OW24505   5.592   4.857   5.820
 7869SOL    HW124506   5.656   4.922   5.780
 7869SOL    HW224507   5.507   4.904   5.846
 7870SOL     OW24508   4.574   6.526   5.056
 7870SOL    HW124509   4.576   6.526   5.156
 7870SOL    HW224510   4.494   6.476   5.025
 7871SOL     OW24511   5.093   1.124   2.196
 7871SOL    HW124512   5.192   1.118   2.187
 7871SOL    HW224513   5.068   1.207   2.246
 7872SOL     OW24514   1.999   5.206   2.558
 7872SOL    HW124515   1.905   5.233   2.578
 7872SOL    HW224516   2.001   5.158   2.470
 7873SOL     OW24517   6.845   1.317   0.955
 7873SOL    HW124518   6.766   1.366   0.919
 7873SOL    HW224519   6.850   1.330   1.054
 7874SOL     OW24520   5.573   2.415   0.964
 7874SOL    HW124521   5.538   2.385   1.053
 7874SOL    HW224522   5.638   2.347   0.930
 7875SOL     OW24523   4.113   3.622   0.006
 7875SOL    HW124524   4.048   3.691   0.038
 7875SOL    HW224525   4.154   3.576   0.085
 7876SOL     OW24526   0.814   0.008   2.429
 7876SOL    HW124527   0.790   0.009   2.526
 7876SOL    HW224528   0.872   6.953   2.410
 7877SOL     OW24529   6.155   1.574   2.649
 7877SOL    HW124530   6.238   1.529   2.682
 7877SOL    HW224531   6.078   1.547   2.708
 7878SOL     OW24532   4.883   3.917   3.621
 7878SOL    HW124533   4.941   3.841   3.652
 7878SOL    HW224534   4.845   3.894   3.531
 7879SOL     OW24535   3.104   5.327   3.677
 7879SOL    HW124536   3.173   5.369   3.618
 7879SOL    HW224537   3.043   5.399   3.712
 7880SOL     OW24538   2.333   3.737   1.487
 7880SOL    HW124539   2.287   3.826   1.484
 7880SOL    HW224540   2.328   3.701   1.580
 7881SOL     OW24541   5.068   3.969   4.366
 7881SOL    HW124542   5.102   3.994   4.456
 7881SOL    HW224543   4.970   3.988   4.361
 7882SOL     OW24544   2.451   3.651   1.262
 7882SOL    HW124545   2.492   3.566   1.296
 7882SOL    HW224546   2.391   3.689   1.332
 7883SOL     OW24547   0.544   0.857   5.115
 7883SOL    HW124548   0.464   0.915   5.097
 7883SOL    HW224549   0.576   0.817   5.029
 7884SOL     OW24550   0.669   2.896   4.439
 7884SOL    HW124551   0.674   2.955   4.358
 7884SOL    HW224552   0.586   2.841   4.436
 7885SOL     OW24553   6.189   5.537   0.735
 7885SOL    HW124554   6.117   5.587   0.783
 7885SOL    HW224555   6.187   5.441   0.762
 7886SOL     OW24556   4.771   5.574   0.618
 7886SOL    HW124557   4.756   5.516   0.537
 7886SOL    HW224558   4.718   5.658   0.608
 7887SOL     OW24559   4.117   1.760   6.938
 7887SOL    HW124560   4.182   1.703   6.888
 7887SOL    HW224561   4.162   1.801   7.017
 7888SOL     OW24562   5.019   0.712   4.377
 7888SOL    HW124563   5.081   0.769   4.324
 7888SOL    HW224564   4.935   0.696   4.325
 7889SOL     OW24565   0.294   6.017   2.425
 7889SOL    HW124566   0.344   6.092   2.382
 7889SOL    HW224567   0.326   6.005   2.519
 7890SOL     OW24568   2.175   3.891   2.153
 7890SOL    HW124569   2.202   3.829   2.227
 7890SOL    HW224570   2.090   3.937   2.178
 7891SOL     OW24571   2.812   4.720   2.211
 7891SOL    HW124572   2.890   4.704   2.150
 7891SOL    HW224573   2.731   4.677   2.172
 7892SOL     OW24574   1.799   2.541   5.360
 7892SOL    HW124575   1.714   2.508   5.401
 7892SOL    HW224576   1.837   2.613   5.418
 7893SOL     OW24577   5.646   6.926   0.810
 7893SOL    HW124578   5.658   6.998   0.878
 7893SOL    HW224579   5.699   6.845   0.837
 7894SOL     OW24580   2.109   6.156   2.396
 7894SOL    HW124581   2.020   6.144   2.352
 7894SOL    HW224582   2.181   6.149   2.328
 7895SOL     OW24583   6.282   1.112   4.829
 7895SOL    HW124584   6.194   1.130   4.873
 7895SOL    HW224585   6.353   1.102   4.899
 7896SOL     OW24586   5.350   3.824   5.548
 7896SOL    HW124587   5.373   3.920   5.530
 7896SOL    HW224588   5.327   3.814   5.645
 7897SOL     OW24589   2.096   3.792   6.611
 7897SOL    HW124590   2.123   3.812   6.705
 7897SOL    HW224591   2.088   3.693   6.599
 7898SOL     OW24592   4.294   2.160   3.825
 7898SOL    HW124593   4.281   2.137   3.922
 7898SOL    HW224594   4.211   2.203   3.790
 7899SOL     OW24595   5.636   2.442   1.980
 7899SOL    HW124596   5.690   2.373   1.931
 7899SOL    HW224597   5.555   2.398   2.019
 7900SOL     OW24598   1.757   5.393   1.073
 7900SOL    HW124599   1.765   5.344   1.160
 7900SOL    HW224600   1.814   5.475   1.076
 7901SOL     OW24601   6.097   6.665   6.398
 7901SOL    HW124602   6.100   6.688   6.496
 7901SOL    HW224603   6.012   6.616   6.378
 7902SOL     OW24604   4.520   4.541   0.931
 7902SOL    HW124605   4.493   4.451   0.964
 7902SOL    HW224606   4.468   4.611   0.979
 7903SOL     OW24607   6.764   1.890   0.317
 7903SOL    HW124608   6.719   1.924   0.235
 7903SOL    HW224609   6.845   1.837   0.291
 7904SOL     OW24610   0.018   1.292   2.805
 7904SOL    HW124611   6.963   1.336   2.763
 7904SOL    HW224612   0.001   1.278   2.902
 7905SOL     OW24613   3.793   1.592   1.348
 7905SOL    HW124614   3.769   1.603   1.252
 7905SOL    HW224615   3.889   1.620   1.362
 7906SOL     OW24616   6.242   5.864   6.586
 7906SOL    HW124617   6.238   5.955   6.626
 7906SOL    HW224618   6.187   5.801   6.641
 7907SOL     OW24619   6.317   2.262   3.956
 7907SOL    HW124620   6.375   2.327   3.906
 7907SOL    HW224621   6.274   2.200   3.891
 7908SOL     OW24622   0.415   1.202   3.741
 7908SOL    HW124623   0.340   1.255   3.780
 7908SOL    HW224624   0.501   1.229   3.785
 7909SOL     OW24625   4.828   4.039   4.528
 7909SOL    HW124626   4.766   3.963   4.550
 7909SOL    HW224627   4.853   4.086   4.613
 7910SOL     OW24628   4.125   3.381   6.125
 7910SOL    HW124629   4.141   3.442   6.202
 7910SOL    HW224630   4.088   3.434   6.048
 7911SOL     OW24631   6.838   4.805   0.555
 7911SOL    HW124632   6.784   4.838   0.478
 7911SOL    HW224633   6.849   4.706   0.548
 7912SOL     OW24634   6.055   4.617   6.125
 7912SOL    HW124635   6.118   4.605   6.201
 7912SOL    HW224636   6.068   4.709   6.086
 7913SOL     OW24637   0.055   5.243   6.734
 7913SOL    HW124638   0.023   5.149   6.747
 7913SOL    HW224639   0.131   5.262   6.797
 7914SOL     OW24640   6.210   4.619   0.896
 7914SOL    HW124641   6.173   4.652   0.810
 7914SOL    HW224642   6.276   4.545   0.878
 7915SOL     OW24643   4.791   1.896   3.201
 7915SOL    HW124644   4.886   1.925   3.210
 7915SOL    HW224645   4.749   1.944   3.124
 7916SOL     OW24646   5.528   2.895   5.304
 7916SOL    HW124647   5.532   2.848   5.392
 7916SOL    HW224648   5.529   2.827   5.230
 7917SOL     OW24649   3.999   3.662   4.759
 7917SOL    HW124650   4.034   3.568   4.749
 7917SOL    HW224651   4.027   3.698   4.848
 7918SOL     OW24652   6.416   1.157   2.086
 7918SOL    HW124653   6.400   1.074   2.140
 7918SOL    HW224654   6.343   1.223   2.104
 7919SOL     OW24655   5.791   4.854   2.208
 7919SOL    HW124656   5.868   4.832   2.147
 7919SOL    HW224657   5.705   4.830   2.164
 7920SOL     OW24658   0.511   4.739   1.474
 7920SOL    HW124659   0.416   4.751   1.442
 7920SOL    HW224660   0.510   4.700   1.566
 7921SOL     OW24661   2.755   6.575   1.565
 7921SOL    HW124662   2.806   6.559   1.650
 7921SOL    HW224663   2.818   6.604   1.493
 7922SOL     OW24664   0.411   5.293   6.607
 7922SOL    HW124665   0.436   5.389   6.611
 7922SOL    HW224666   0.485   5.241   6.562
 7923SOL     OW24667   1.593   1.509   3.259
 7923SOL    HW124668   1.664   1.451   3.300
 7923SOL    HW224669   1.635   1.572   3.193
 7924SOL     OW24670   3.200   6.758   3.859
 7924SOL    HW124671   3.107   6.733   3.833
 7924SOL    HW224672   3.238   6.687   3.918
 7925SOL     OW24673   6.005   1.637   6.373
 7925SOL    HW124674   6.024   1.548   6.332
 7925SOL    HW224675   6.088   1.693   6.372
 7926SOL     OW24676   2.682   0.898   2.918
 7926SOL    HW124677   2.741   0.886   2.998
 7926SOL    HW224678   2.596   0.940   2.946
 7927SOL     OW24679   4.341   5.229   5.451
 7927SOL    HW124680   4.302   5.290   5.382
 7927SOL    HW224681   4.339   5.274   5.540
 7928SOL     OW24682   1.886   4.941   3.276
 7928SOL    HW124683   1.970   4.909   3.234
 7928SOL    HW224684   1.810   4.933   3.212
 7929SOL     OW24685   4.079   3.891   4.659
 7929SOL    HW124686   4.177   3.890   4.641
 7929SOL    HW224687   4.050   3.801   4.691
 7930SOL     OW24688   4.166   5.320   3.439
 7930SOL    HW124689   4.114   5.317   3.525
 7930SOL    HW224690   4.232   5.245   3.437
 7931SOL     OW24691   2.061   2.390   0.201
 7931SOL    HW124692   2.032   2.318   0.139
 7931SOL    HW224693   2.079   2.352   0.292
 7932SOL     OW24694   2.235   6.875   0.033
 7932SOL    HW124695   2.316   6.851   0.086
 7932SOL    HW224696   2.253   6.961   7.008
 7933SOL     OW24697   0.983   0.128   6.639
 7933SOL    HW124698   1.009   0.052   6.699
 7933SOL    HW224699   1.063   0.186   6.623
 7934SOL     OW24700   2.753   3.787   0.347
 7934SOL    HW124701   2.805   3.707   0.320
 7934SOL    HW224702   2.677   3.758   0.406
 7935SOL     OW24703   4.931   6.287   0.990
 7935SOL    HW124704   4.913   6.300   1.087
 7935SOL    HW224705   5.007   6.346   0.961
 7936SOL     OW24706   3.993   6.150   3.291
 7936SOL    HW124707   3.927   6.130   3.219
 7936SOL    HW224708   4.012   6.248   3.292
 7937SOL     OW24709   6.005   6.530   5.245
 7937SOL    HW124710   6.043   6.476   5.320
 7937SOL    HW224711   5.999   6.626   5.272
 7938SOL     OW24712   3.866   5.303   4.829
 7938SOL    HW124713   3.839   5.241   4.755
 7938SOL    HW224714   3.819   5.277   4.913
 7939SOL     OW24715   0.685   1.452   5.717
 7939SOL    HW124716   0.617   1.397   5.669
 7939SOL    HW224717   0.675   1.438   5.816
 7940SOL     OW24718   2.043   5.341   1.117
 7940SOL    HW124719   1.994   5.256   1.137
 7940SOL    HW224720   2.015   5.412   1.181
 7941SOL     OW24721   0.375   1.060   0.701
 7941SOL    HW124722   0.465   1.041   0.740
 7941SOL    HW224723   0.383   1.068   0.602
 7942SOL     OW24724   0.577   6.884   1.945
 7942SOL    HW124725   0.561   6.869   2.043
 7942SOL    HW224726   0.549   6.803   1.894
 7943SOL     OW24727   5.152   2.200   1.349
 7943SOL    HW124728   5.171   2.241   1.260
 7943SOL    HW224729   5.232   2.210   1.409
 7944SOL     OW24730   0.441   3.373   1.077
 7944SOL    HW124731   0.343   3.378   1.062
 7944SOL    HW224732   0.484   3.321   1.003
 7945SOL     OW24733   5.528   6.669   2.834
 7945SOL    HW124734   5.454   6.612   2.869
 7945SOL    HW224735   5.616   6.622   2.846
 7946SOL     OW24736   1.462   2.661   6.240
 7946SOL    HW124737   1.498   2.574   6.274
 7946SOL    HW224738   1.400   2.700   6.307
 7947SOL     OW24739   3.847   2.839   6.301
 7947SOL    HW124740   3.875   2.863   6.208
 7947SOL    HW224741   3.826   2.741   6.305
 7948SOL     OW24742   6.667   0.253   0.529
 7948SOL    HW124743   6.578   0.277   0.568
 7948SOL    HW224744   6.706   0.177   0.582
 7949SOL     OW24745   5.021   4.906   4.136
 7949SOL    HW124746   5.084   4.952   4.200
 7949SOL    HW224747   5.020   4.808   4.156
 7950SOL     OW24748   4.091   4.789   3.660
 7950SOL    HW124749   4.123   4.757   3.749
 7950SOL    HW224750   3.993   4.810   3.665
 7951SOL     OW24751   3.107   3.766   0.731
 7951SOL    HW124752   3.134   3.682   0.778
 7951SOL    HW224753   3.015   3.792   0.760
 7952SOL     OW24754   6.863   2.573   6.889
 7952SOL    HW124755   6.841   2.670   6.893
 7952SOL    HW224756   6.914   2.546   6.970
 7953SOL     OW24757   2.506   2.570   3.356
 7953SOL    HW124758   2.466   2.480   3.339
 7953SOL    HW224759   2.600   2.572   3.321
 7954SOL     OW24760   4.712   5.058   5.285
 7954SOL    HW124761   4.780   5.091   5.350
 7954SOL    HW224762   4.754   5.046   5.195
 7955SOL     OW24763   6.896   6.533   6.826
 7955SOL    HW124764   6.854   6.473   6.759
 7955SOL    HW224765   6.845   6.619   6.831
 7956SOL     OW24766   6.810   6.010   3.473
 7956SOL    HW124767   6.745   6.086   3.478
 7956SOL    HW224768   6.850   5.994   3.563
 7957SOL     OW24769   1.150   1.868   0.482
 7957SOL    HW124770   1.055   1.860   0.450
 7957SOL    HW224771   1.159   1.949   0.539
 7958SOL     OW24772   3.216   5.474   4.403
 7958SOL    HW124773   3.157   5.502   4.478
 7958SOL    HW224774   3.229   5.375   4.406
 7959SOL     OW24775   5.739   5.018   0.493
 7959SOL    HW124776   5.772   5.078   0.421
 7959SOL    HW224777   5.682   4.947   0.454
 7960SOL     OW24778   3.276   0.907   1.217
 7960SOL    HW124779   3.353   0.869   1.166
 7960SOL    HW224780   3.310   0.974   1.284
 7961SOL     OW24781   1.181   6.329   6.009
 7961SOL    HW124782   1.211   6.238   5.979
 7961SOL    HW224783   1.253   6.372   6.063
 7962SOL     OW24784   2.466   0.942   1.664
 7962SOL    HW124785   2.460   0.941   1.564
 7962SOL    HW224786   2.517   1.023   1.694
 7963SOL     OW24787   0.564   1.039   5.612
 7963SOL    HW124788   0.587   1.058   5.707
 7963SOL    HW224789   0.507   0.958   5.606
 7964SOL     OW24790   5.404   5.155   3.174
 7964SOL    HW124791   5.338   5.169   3.248
 7964SOL    HW224792   5.482   5.102   3.209
 7965SOL     OW24793   4.593   2.212   0.821
 7965SOL    HW124794   4.526   2.284   0.837
 7965SOL    HW224795   4.682   2.253   0.800
 7966SOL     OW24796   1.328   5.390   3.957
 7966SOL    HW124797   1.293   5.425   3.870
 7966SOL    HW224798   1.404   5.447   3.988
 7967SOL     OW24799   3.224   5.747   2.844
 7967SOL    HW124800   3.166   5.670   2.814
 7967SOL    HW224801   3.315   5.737   2.805
 7968SOL     OW24802   2.275   2.364   4.170
 7968SOL    HW124803   2.247   2.285   4.116
 7968SOL    HW224804   2.307   2.333   4.260
 7969SOL     OW24805   4.336   0.727   3.227
 7969SOL    HW124806   4.378   0.802   3.279
 7969SOL    HW224807   4.374   0.726   3.134
 7970SOL     OW24808   6.846   4.087   2.803
 7970SOL    HW124809   6.764   4.131   2.767
 7970SOL    HW224810   6.896   4.153   2.860
 7971SOL     OW24811   2.779   0.952   2.483
 7971SOL    HW124812   2.804   1.038   2.438
 7971SOL    HW224813   2.732   0.893   2.417
 7972SOL     OW24814   0.105   4.539   1.338
 7972SOL    HW124815   0.122   4.461   1.278
 7972SOL    HW224816   0.010   4.569   1.328
 7973SOL     OW24817   5.148   3.457   3.929
 7973SOL    HW124818   5.176   3.432   4.022
 7973SOL    HW224819   5.087   3.536   3.933
 7974SOL     OW24820   5.220   0.250   4.374
 7974SOL    HW124821   5.146   0.211   4.318
 7974SOL    HW224822   5.180   0.311   4.443
 7975SOL     OW24823   3.767   0.451   4.739
 7975SOL    HW124824   3.834   0.475   4.668
 7975SOL    HW224825   3.808   0.384   4.801
 7976SOL     OW24826   0.779   6.212   4.915
 7976SOL    HW124827   0.712   6.209   4.989
 7976SOL    HW224828   0.731   6.217   4.827
 7977SOL     OW24829   4.871   5.960   2.140
 7977SOL    HW124830   4.907   5.876   2.100
 7977SOL    HW224831   4.890   6.037   2.079
 7978SOL     OW24832   4.354   3.586   6.232
 7978SOL    HW124833   4.441   3.582   6.184
 7978SOL    HW224834   4.287   3.636   6.176
 7979SOL     OW24835   2.958   0.269   4.502
 7979SOL    HW124836   2.949   0.349   4.444
 7979SOL    HW224837   2.935   0.187   4.450
 7980SOL     OW24838   3.524   6.045   0.238
 7980SOL    HW124839   3.565   6.137   0.234
 7980SOL    HW224840   3.580   5.982   0.184
 7981SOL     OW24841   0.995   5.022   2.302
 7981SOL    HW124842   1.050   4.938   2.299
 7981SOL    HW224843   0.942   5.030   2.218
 7982SOL     OW24844   6.808   2.495   0.622
 7982SOL    HW124845   6.769   2.534   0.705
 7982SOL    HW224846   6.782   2.399   0.614
 7983SOL     OW24847   5.533   1.952   2.540
 7983SOL    HW124848   5.533   1.867   2.487
 7983SOL    HW224849   5.484   2.023   2.489
 7984SOL     OW24850   1.016   2.238   2.140
 7984SOL    HW124851   0.962   2.217   2.059
 7984SOL    HW224852   0.967   2.208   2.222
 7985SOL     OW24853   1.194   0.658   2.487
 7985SOL    HW124854   1.294   0.663   2.493
 7985SOL    HW224855   1.153   0.731   2.542
 7986SOL     OW24856   3.952   1.372   6.327
 7986SOL    HW124857   4.005   1.368   6.242
 7986SOL    HW224858   4.012   1.399   6.403
 7987SOL     OW24859   0.480   2.844   5.537
 7987SOL    HW124860   0.407   2.896   5.492
 7987SOL    HW224861   0.569   2.885   5.514
 7988SOL     OW24862   2.965   2.304   4.511
 7988SOL    HW124863   2.940   2.352   4.595
 7988SOL    HW224864   3.065   2.302   4.503
 7989SOL     OW24865   3.472   2.413   5.345
 7989SOL    HW124866   3.445   2.399   5.440
 7989SOL    HW224867   3.391   2.435   5.290
 7990SOL     OW24868   0.858   3.398   4.122
 7990SOL    HW124869   0.884   3.485   4.080
 7990SOL    HW224870   0.868   3.405   4.221
 7991SOL     OW24871   0.188   2.622   5.803
 7991SOL    HW124872   0.218   2.671   5.884
 7991SOL    HW224873   0.255   2.634   5.730
 7992SOL     OW24874   1.813   6.988   0.616
 7992SOL    HW124875   1.761   6.926   0.558
 7992SOL    HW224876   1.823   6.949   0.707
 7993SOL     OW24877   1.898   5.550   6.593
 7993SOL    HW124878   1.902   5.555   6.693
 7993SOL    HW224879   1.803   5.560   6.562
 7994SOL     OW24880   4.667   0.554   4.019
 7994SOL    HW124881   4.722   0.472   4.033
 7994SOL    HW224882   4.647   0.566   3.922
 7995SOL     OW24883   3.686   5.123   3.806
 7995SOL    HW124884   3.697   5.158   3.713
 7995SOL    HW224885   3.605   5.064   3.810
 7996SOL     OW24886   3.540   0.104   4.511
 7996SOL    HW124887   3.526   0.203   4.509
 7996SOL    HW224888   3.621   0.083   4.564
 7997SOL     OW24889   6.466   2.328   1.073
 7997SOL    HW124890   6.382   2.377   1.048
 7997SOL    HW224891   6.487   2.343   1.169
 7998SOL     OW24892   5.510   4.868   0.401
 7998SOL    HW124893   5.456   4.950   0.381
 7998SOL    HW224894   5.479   4.827   0.486
 7999SOL     OW24895   1.431   0.115   5.288
 7999SOL    HW124896   1.429   0.171   5.205
 7999SOL    HW224897   1.355   0.143   5.348
 8000SOL     OW24898   6.237   0.522   6.065
 8000SOL    HW124899   6.148   0.560   6.091
 8000SOL    HW224900   6.248   0.528   5.966
 8001SOL     OW24901   1.414   6.572   1.871
 8001SOL    HW124902   1.341   6.586   1.804
 8001SOL    HW224903   1.500   6.608   1.834
 8002SOL     OW24904   0.075   3.565   5.171
 8002SOL    HW124905   0.073   3.665   5.167
 8002SOL    HW224906   0.110   3.529   5.085
 8003SOL     OW24907   3.092   5.220   3.180
 8003SOL    HW124908   3.075   5.132   3.136
 8003SOL    HW224909   3.191   5.236   3.187
 8004SOL     OW24910   2.267   4.260   3.194
 8004SOL    HW124911   2.312   4.174   3.220
 8004SOL    HW224912   2.190   4.276   3.255
 8005SOL     OW24913   3.103   0.687   2.296
 8005SOL    HW124914   3.070   0.600   2.258
 8005SOL    HW224915   3.070   0.696   2.390
 8006SOL     OW24916   2.533   5.717   0.317
 8006SOL    HW124917   2.538   5.739   0.415
 8006SOL    HW224918   2.536   5.618   0.305
 8007SOL     OW24919   0.470   0.274   3.804
 8007SOL    HW124920   0.453   0.316   3.715
 8007SOL    HW224921   0.569   0.267   3.819
 8008SOL     OW24922   5.622   6.417   6.777
 8008SOL    HW124923   5.709   6.421   6.826
 8008SOL    HW224924   5.593   6.510   6.753
 8009SOL     OW24925   6.866   0.450   3.192
 8009SOL    HW124926   6.851   0.365   3.143
 8009SOL    HW224927   6.918   0.432   3.276
 8010SOL     OW24928   2.410   1.839   0.067
 8010SOL    HW124929   2.386   1.752   0.108
 8010SOL    HW224930   2.508   1.840   0.044
 8011SOL     OW24931   2.701   2.245   1.167
 8011SOL    HW124932   2.669   2.305   1.241
 8011SOL    HW224933   2.790   2.276   1.136
 8012SOL     OW24934   1.942   6.933   1.276
 8012SOL    HW124935   1.955   6.993   1.198
 8012SOL    HW224936   1.851   6.891   1.271
 8013SOL     OW24937   6.209   5.057   3.986
 8013SOL    HW124938   6.111   5.051   3.965
 8013SOL    HW224939   6.222   5.061   4.085
 8014SOL     OW24940   1.914   6.237   6.449
 8014SOL    HW124941   1.858   6.213   6.528
 8014SOL    HW224942   1.870   6.203   6.366
 8015SOL     OW24943   2.720   2.651   0.888
 8015SOL    HW124944   2.813   2.683   0.907
 8015SOL    HW224945   2.659   2.729   0.876
 8016SOL     OW24946   4.627   0.229   0.660
 8016SOL    HW124947   4.618   0.133   0.684
 8016SOL    HW224948   4.594   0.244   0.567
 8017SOL     OW24949   6.790   4.299   5.383
 8017SOL    HW124950   6.740   4.381   5.412
 8017SOL    HW224951   6.812   4.306   5.286
 8018SOL     OW24952   4.447   1.804   5.740
 8018SOL    HW124953   4.455   1.749   5.656
 8018SOL    HW224954   4.516   1.774   5.806
 8019SOL     OW24955   1.629   5.395   0.491
 8019SOL    HW124956   1.711   5.361   0.536
 8019SOL    HW224957   1.611   5.342   0.408
 8020SOL     OW24958   5.784   5.919   6.513
 8020SOL    HW124959   5.810   5.853   6.584
 8020SOL    HW224960   5.780   6.011   6.551
 8021SOL     OW24961   0.995   1.598   1.633
 8021SOL    HW124962   1.093   1.587   1.621
 8021SOL    HW224963   0.954   1.509   1.656
 8022SOL     OW24964   4.668   0.254   3.200
 8022SOL    HW124965   4.643   0.347   3.227
 8022SOL    HW224966   4.752   0.227   3.248
 8023SOL     OW24967   6.216   5.739   2.341
 8023SOL    HW124968   6.250   5.797   2.415
 8023SOL    HW224969   6.275   5.749   2.261
 8024SOL     OW24970   4.415   5.714   6.227
 8024SOL    HW124971   4.405   5.632   6.172
 8024SOL    HW224972   4.472   5.781   6.179
 8025SOL     OW24973   3.769   6.275   6.366
 8025SOL    HW124974   3.737   6.354   6.418
 8025SOL    HW224975   3.721   6.271   6.278
 8026SOL     OW24976   1.152   3.313   6.804
 8026SOL    HW124977   1.236   3.349   6.764
 8026SOL    HW224978   1.158   3.317   6.904
 8027SOL     OW24979   4.397   1.777   5.295
 8027SOL    HW124980   4.358   1.774   5.387
 8027SOL    HW224981   4.493   1.805   5.300
 8028SOL     OW24982   4.597   5.187   6.000
 8028SOL    HW124983   4.584   5.285   6.006
 8028SOL    HW224984   4.594   5.158   5.904
 8029SOL     OW24985   4.286   4.533   6.728
 8029SOL    HW124986   4.247   4.481   6.653
 8029SOL    HW224987   4.358   4.480   6.772
 8030SOL     OW24988   5.401   4.565   5.399
 8030SOL    HW124989   5.402   4.523   5.308
 8030SOL    HW224990   5.429   4.498   5.468
 8031SOL     OW24991   4.741   5.100   1.744
 8031SOL    HW124992   4.736   5.123   1.647
 8031SOL    HW224993   4.831   5.125   1.780
 8032SOL     OW24994   5.949   4.217   4.940
 8032SOL    HW124995   5.873   4.156   4.920
 8032SOL    HW224996   5.995   4.243   4.856
 8033SOL     OW24997   5.468   2.558   0.131
 8033SOL    HW124998   5.428   2.599   0.049
 8033SOL    HW224999   5.554   2.603   0.153
 8034SOL     OW25000   5.397   6.606   5.507
 8034SOL    HW125001   5.429   6.664   5.582
 8034SOL    HW225002   5.297   6.605   5.506
 8035SOL     OW25003   5.836   6.165   5.817
 8035SOL    HW125004   5.814   6.067   5.817
 8035SOL    HW225005   5.839   6.198   5.912
 8036SOL     OW25006   2.205   3.873   1.869
 8036SOL    HW125007   2.205   3.877   1.969
 8036SOL    HW225008   2.247   3.956   1.833
 8037SOL     OW25009   2.245   2.910   0.873
 8037SOL    HW125010   2.182   2.849   0.826
 8037SOL    HW225011   2.253   2.996   0.821
 8038SOL     OW25012   6.942   1.941   3.483
 8038SOL    HW125013   6.991   1.918   3.398
 8038SOL    HW225014   6.954   2.038   3.503
 8039SOL     OW25015   2.313   0.247   2.881
 8039SOL    HW125016   2.236   0.306   2.904
 8039SOL    HW225017   2.280   0.169   2.827
 8040SOL     OW25018   0.516   5.359   1.193
 8040SOL    HW125019   0.463   5.423   1.139
 8040SOL    HW225020   0.590   5.408   1.239
 8041SOL     OW25021   3.865   0.998   1.356
 8041SOL    HW125022   3.896   1.079   1.405
 8041SOL    HW225023   3.805   1.025   1.281
 8042SOL     OW25024   3.503   2.888   2.256
 8042SOL    HW125025   3.499   2.816   2.325
 8042SOL    HW225026   3.593   2.886   2.211
 8043SOL     OW25027   2.711   0.424   0.817
 8043SOL    HW125028   2.687   0.331   0.845
 8043SOL    HW225029   2.811   0.433   0.812
 8044SOL     OW25030   3.091   3.057   1.453
 8044SOL    HW125031   3.074   3.155   1.441
 8044SOL    HW225032   3.069   3.031   1.547
 8045SOL     OW25033   6.201   1.729   2.886
 8045SOL    HW125034   6.192   1.788   2.967
 8045SOL    HW225035   6.147   1.646   2.900
 8046SOL     OW25036   5.436   4.432   5.165
 8046SOL    HW125037   5.521   4.390   5.133
 8046SOL    HW225038   5.363   4.364   5.165
 8047SOL     OW25039   3.511   5.890   4.544
 8047SOL    HW125040   3.602   5.885   4.502
 8047SOL    HW225041   3.505   5.824   4.619
 8048SOL     OW25042   6.415   0.399   5.493
 8048SOL    HW125043   6.401   0.320   5.433
 8048SOL    HW225044   6.389   0.483   5.445
 8049SOL     OW25045   0.696   6.854   1.251
 8049SOL    HW125046   0.676   6.900   1.337
 8049SOL    HW225047   0.795   6.845   1.240
 8050SOL     OW25048   1.690   3.661   0.863
 8050SOL    HW125049   1.716   3.702   0.776
 8050SOL    HW225050   1.771   3.654   0.922
 8051SOL     OW25051   4.457   1.128   2.875
 8051SOL    HW125052   4.406   1.175   2.804
 8051SOL    HW225053   4.409   1.138   2.963
 8052SOL     OW25054   3.293   1.718   2.354
 8052SOL    HW125055   3.209   1.664   2.355
 8052SOL    HW225056   3.271   1.815   2.348
 8053SOL     OW25057   3.869   3.728   2.845
 8053SOL    HW125058   3.940   3.668   2.882
 8053SOL    HW225059   3.825   3.778   2.920
 8054SOL     OW25060   4.704   6.318   4.387
 8054SOL    HW125061   4.680   6.397   4.331
 8054SOL    HW225062   4.743   6.246   4.330
 8055SOL     OW25063   1.250   0.128   6.115
 8055SOL    HW125064   1.164   0.085   6.141
 8055SOL    HW225065   1.309   0.061   6.071
 8056SOL     OW25066   4.552   1.527   2.942
 8056SOL    HW125067   4.578   1.622   2.926
 8056SOL    HW225068   4.629   1.479   2.984
 8057SOL     OW25069   3.112   0.283   3.180
 8057SOL    HW125070   3.130   0.270   3.278
 8057SOL    HW225071   3.182   0.235   3.127
 8058SOL     OW25072   2.493   0.254   2.281
 8058SOL    HW125073   2.549   0.283   2.358
 8058SOL    HW225074   2.396   0.261   2.306
 8059SOL     OW25075   3.208   2.109   4.837
 8059SOL    HW125076   3.301   2.085   4.807
 8059SOL    HW225077   3.213   2.163   4.920
 8060SOL     OW25078   6.899   0.977   4.594
 8060SOL    HW125079   6.831   0.960   4.522
 8060SOL    HW225080   6.978   0.917   4.580
 8061SOL     OW25081   6.405   5.438   2.725
 8061SOL    HW125082   6.381   5.460   2.820
 8061SOL    HW225083   6.330   5.463   2.665
 8062SOL     OW25084   1.478   3.883   4.651
 8062SOL    HW125085   1.500   3.847   4.560
 8062SOL    HW225086   1.441   3.810   4.708
 8063SOL     OW25087   2.881   3.376   6.681
 8063SOL    HW125088   2.955   3.314   6.654
 8063SOL    HW225089   2.898   3.409   6.773
 8064SOL     OW25090   0.288   4.065   0.137
 8064SOL    HW125091   0.340   3.988   0.176
 8064SOL    HW225092   0.347   4.116   0.074
 8065SOL     OW25093   4.655   6.743   4.375
 8065SOL    HW125094   4.732   6.715   4.433
 8065SOL    HW225095   4.591   6.798   4.429
 8066SOL     OW25096   1.766   1.507   0.649
 8066SOL    HW125097   1.730   1.566   0.722
 8066SOL    HW225098   1.800   1.564   0.574
 8067SOL     OW25099   4.266   2.977   1.610
 8067SOL    HW125100   4.338   3.022   1.663
 8067SOL    HW225101   4.308   2.926   1.535
 8068SOL     OW25102   0.508   4.539   4.733
 8068SOL    HW125103   0.508   4.591   4.648
 8068SOL    HW225104   0.580   4.573   4.794
 8069SOL     OW25105   1.507   6.099   0.753
 8069SOL    HW125106   1.539   6.116   0.659
 8069SOL    HW225107   1.539   6.172   0.813
 8070SOL     OW25108   3.708   6.088   1.848
 8070SOL    HW125109   3.613   6.082   1.877
 8070SOL    HW225110   3.751   6.168   1.890
 8071SOL     OW25111   3.764   6.477   5.446
 8071SOL    HW125112   3.685   6.432   5.403
 8071SOL    HW225113   3.792   6.425   5.527
 8072SOL     OW25114   4.325   1.561   0.570
 8072SOL    HW125115   4.409   1.589   0.617
 8072SOL    HW225116   4.293   1.474   0.609
 8073SOL     OW25117   4.568   6.823   6.310
 8073SOL    HW125118   4.645   6.761   6.326
 8073SOL    HW225119   4.513   6.789   6.234
 8074SOL     OW25120   3.503   3.723   0.332
 8074SOL    HW125121   3.541   3.752   0.420
 8074SOL    HW225122   3.403   3.717   0.340
 8075SOL     OW25123   6.822   1.105   2.319
 8075SOL    HW125124   6.807   1.030   2.384
 8075SOL    HW225125   6.918   1.104   2.289
 8076SOL     OW25126   5.435   2.557   5.273
 8076SOL    HW125127   5.398   2.621   5.207
 8076SOL    HW225128   5.531   2.539   5.252
 8077SOL     OW25129   1.303   0.235   1.542
 8077SOL    HW125130   1.336   0.263   1.452
 8077SOL    HW225131   1.381   0.229   1.605
 8078SOL     OW25132   0.095   2.474   0.683
 8078SOL    HW125133   0.123   2.569   0.672
 8078SOL    HW225134   7.020   2.466   0.667
 8079SOL     OW25135   6.587   2.070   3.176
 8079SOL    HW125136   6.561   2.138   3.107
 8079SOL    HW225137   6.541   1.984   3.157
 8080SOL     OW25138   2.207   3.916   0.188
 8080SOL    HW125139   2.238   3.844   0.250
 8080SOL    HW225140   2.202   4.003   0.237
 8081SOL     OW25141   5.801   0.917   5.260
 8081SOL    HW125142   5.760   0.969   5.336
 8081SOL    HW225143   5.763   0.950   5.174
 8082SOL     OW25144   6.166   2.200   3.372
 8082SOL    HW125145   6.072   2.166   3.370
 8082SOL    HW225146   6.184   2.253   3.289
 8083SOL     OW25147   5.049   3.257   2.746
 8083SOL    HW125148   5.129   3.252   2.686
 8083SOL    HW225149   5.022   3.164   2.773
 8084SOL     OW25150   6.598   6.676   1.507
 8084SOL    HW125151   6.596   6.578   1.487
 8084SOL    HW225152   6.603   6.690   1.606
 8085SOL     OW25153   5.472   0.516   0.799
 8085SOL    HW125154   5.494   0.508   0.702
 8085SOL    HW225155   5.499   0.432   0.847
 8086SOL     OW25156   4.071   0.142   4.658
 8086SOL    HW125157   4.018   0.121   4.576
 8086SOL    HW225158   4.014   0.127   4.739
 8087SOL     OW25159   2.965   2.356   1.121
 8087SOL    HW125160   3.043   2.402   1.165
 8087SOL    HW225161   2.965   2.377   1.023
 8088SOL     OW25162   5.705   0.918   2.277
 8088SOL    HW125163   5.651   1.001   2.260
 8088SOL    HW225164   5.741   0.883   2.191
 8089SOL     OW25165   5.088   2.757   0.512
 8089SOL    HW125166   5.131   2.836   0.557
 8089SOL    HW225167   5.131   2.743   0.423
 8090SOL     OW25168   5.238   1.829   6.574
 8090SOL    HW125169   5.242   1.842   6.475
 8090SOL    HW225170   5.327   1.799   6.608
 8091SOL     OW25171   3.293   4.188   0.017
 8091SOL    HW125172   3.290   4.097   0.059
 8091SOL    HW225173   3.267   4.180   6.945
 8092SOL     OW25174   1.276   1.019   5.131
 8092SOL    HW125175   1.194   1.076   5.121
 8092SOL    HW225176   1.301   0.980   5.042
 8093SOL     OW25177   5.738   5.543   1.758
 8093SOL    HW125178   5.689   5.626   1.731
 8093SOL    HW225179   5.770   5.496   1.675
 8094SOL     OW25180   1.325   4.133   6.596
 8094SOL    HW125181   1.395   4.121   6.525
 8094SOL    HW225182   1.286   4.044   6.620
 8095SOL     OW25183   5.469   3.259   4.231
 8095SOL    HW125184   5.504   3.219   4.146
 8095SOL    HW225185   5.413   3.191   4.279
 8096SOL     OW25186   3.113   5.657   1.833
 8096SOL    HW125187   3.038   5.652   1.898
 8096SOL    HW225188   3.124   5.569   1.787
 8097SOL     OW25189   5.184   0.785   3.443
 8097SOL    HW125190   5.119   0.759   3.372
 8097SOL    HW225191   5.275   0.798   3.403
 8098SOL     OW25192   2.737   6.231   4.259
 8098SOL    HW125193   2.645   6.207   4.289
 8098SOL    HW225194   2.765   6.168   4.186
 8099SOL     OW25195   5.288   6.552   4.891
 8099SOL    HW125196   5.362   6.485   4.897
 8099SOL    HW225197   5.200   6.508   4.907
 8100SOL     OW25198   6.994   6.865   0.299
 8100SOL    HW125199   6.948   6.793   0.248
 8100SOL    HW225200   6.961   6.954   0.267
 8101SOL     OW25201   1.470   6.942   4.332
 8101SOL    HW125202   1.470   6.847   4.303
 8101SOL    HW225203   1.399   6.956   4.401
 8102SOL     OW25204   0.181   5.162   6.003
 8102SOL    HW125205   0.248   5.227   5.968
 8102SOL    HW225206   0.225   5.075   6.021
 8103SOL     OW25207   3.903   1.537   2.113
 8103SOL    HW125208   3.959   1.615   2.141
 8103SOL    HW225209   3.919   1.517   2.016
 8104SOL     OW25210   3.168   6.694   5.631
 8104SOL    HW125211   3.211   6.630   5.694
 8104SOL    HW225212   3.068   6.684   5.635
 8105SOL     OW25213   2.353   2.287   3.751
 8105SOL    HW125214   2.391   2.195   3.762
 8105SOL    HW225215   2.426   2.351   3.725
 8106SOL     OW25216   1.257   4.176   3.710
 8106SOL    HW125217   1.185   4.197   3.777
 8106SOL    HW225218   1.312   4.100   3.743
 8107SOL     OW25219   2.012   6.181   5.841
 8107SOL    HW125220   1.981   6.088   5.820
 8107SOL    HW225221   2.094   6.176   5.898
 8108SOL     OW25222   0.278   3.810   4.496
 8108SOL    HW125223   0.319   3.726   4.461
 8108SOL    HW225224   0.234   3.791   4.584
 8109SOL     OW25225   1.972   4.582   5.300
 8109SOL    HW125226   1.984   4.483   5.303
 8109SOL    HW225227   1.939   4.615   5.389
 8110SOL     OW25228   2.103   6.654   0.502
 8110SOL    HW125229   2.137   6.713   0.575
 8110SOL    HW225230   2.177   6.633   0.439
 8111SOL     OW25231   2.907   5.806   4.701
 8111SOL    HW125232   2.912   5.743   4.779
 8111SOL    HW225233   2.987   5.793   4.643
 8112SOL     OW25234   2.751   0.290   5.662
 8112SOL    HW125235   2.849   0.284   5.676
 8112SOL    HW225236   2.732   0.345   5.581
 8113SOL     OW25237   3.713   2.309   0.068
 8113SOL    HW125238   3.687   2.238   0.135
 8113SOL    HW225239   3.801   2.348   0.094
 8114SOL     OW25240   2.143   2.973   2.558
 8114SOL    HW125241   2.189   2.899   2.509
 8114SOL    HW225242   2.123   3.047   2.493
 8115SOL     OW25243   3.538   1.286   1.528
 8115SOL    HW125244   3.628   1.326   1.545
 8115SOL    HW225245   3.483   1.292   1.611
 8116SOL     OW25246   5.857   6.992   5.247
 8116SOL    HW125247   5.796   0.003   5.318
 8116SOL    HW225248   5.818   7.012   5.157
 8117SOL     OW25249   1.232   1.821   4.695
 8117SOL    HW125250   1.221   1.723   4.677
 8117SOL    HW225251   1.150   1.856   4.740
 8118SOL     OW25252   1.207   4.093   5.410
 8118SOL    HW125253   1.306   4.086   5.422
 8118SOL    HW225254   1.170   4.003   5.387
 8119SOL     OW25255   0.567   5.854   3.309
 8119SOL    HW125256   0.477   5.869   3.268
 8119SOL    HW225257   0.571   5.762   3.347
 8120SOL     OW25258   4.071   4.594   0.601
 8120SOL    HW125259   4.127   4.677   0.601
 8120SOL    HW225260   4.067   4.557   0.694
 8121SOL     OW25261   0.114   0.074   2.818
 8121SOL    HW125262   0.205   0.098   2.852
 8121SOL    HW225263   0.045   0.130   2.863
 8122SOL     OW25264   0.217   6.002   1.679
 8122SOL    HW125265   0.139   5.977   1.622
 8122SOL    HW225266   0.281   6.057   1.626
 8123SOL     OW25267   1.233   6.587   6.452
 8123SOL    HW125268   1.175   6.513   6.420
 8123SOL    HW225269   1.196   6.624   6.537
 8124SOL     OW25270   1.648   5.355   1.588
 8124SOL    HW125271   1.550   5.340   1.601
 8124SOL    HW225272   1.696   5.268   1.591
 8125SOL     OW25273   6.074   4.270   2.722
 8125SOL    HW125274   6.150   4.214   2.691
 8125SOL    HW225275   6.001   4.269   2.653
 8126SOL     OW25276   5.521   4.300   2.720
 8126SOL    HW125277   5.592   4.316   2.788
 8126SOL    HW225278   5.442   4.357   2.740
 8127SOL     OW25279   2.177   4.988   0.420
 8127SOL    HW125280   2.114   4.911   0.408
 8127SOL    HW225281   2.147   5.064   0.361
 8128SOL     OW25282   3.433   2.921   5.950
 8128SOL    HW125283   3.501   2.849   5.962
 8128SOL    HW225284   3.341   2.881   5.953
 8129SOL     OW25285   5.872   0.960   6.820
 8129SOL    HW125286   5.924   0.904   6.756
 8129SOL    HW225287   5.803   1.013   6.770
 8130SOL     OW25288   0.904   5.273   6.734
 8130SOL    HW125289   0.983   5.254   6.676
 8130SOL    HW225290   0.847   5.344   6.693
 8131SOL     OW25291   3.339   0.557   0.337
 8131SOL    HW125292   3.243   0.576   0.358
 8131SOL    HW225293   3.366   0.607   0.254
 8132SOL     OW25294   5.772   5.028   4.294
 8132SOL    HW125295   5.788   5.113   4.245
 8132SOL    HW225296   5.815   4.952   4.245
 8133SOL     OW25297   2.793   5.374   3.524
 8133SOL    HW125298   2.812   5.317   3.604
 8133SOL    HW225299   2.717   5.436   3.545
 8134SOL     OW25300   2.135   2.583   4.061
 8134SOL    HW125301   2.214   2.632   4.026
 8134SOL    HW225302   2.165   2.517   4.130
 8135SOL     OW25303   3.707   5.357   2.195
 8135SOL    HW125304   3.766   5.276   2.201
 8135SOL    HW225305   3.637   5.352   2.266
 8136SOL     OW25306   3.798   5.613   2.500
 8136SOL    HW125307   3.807   5.629   2.599
 8136SOL    HW225308   3.888   5.614   2.458
 8137SOL     OW25309   2.181   3.901   4.774
 8137SOL    HW125310   2.089   3.938   4.762
 8137SOL    HW225311   2.222   3.941   4.856
 8138SOL     OW25312   5.595   1.745   2.381
 8138SOL    HW125313   5.620   1.654   2.413
 8138SOL    HW225314   5.504   1.742   2.340
 8139SOL     OW25315   1.414   3.022   3.382
 8139SOL    HW125316   1.489   2.984   3.328
 8139SOL    HW225317   1.431   3.118   3.401
 8140SOL     OW25318   5.268   6.993   6.952
 8140SOL    HW125319   5.293   6.967   6.859
 8140SOL    HW225320   5.191   0.033   6.950
 8141SOL     OW25321   4.723   1.434   6.103
 8141SOL    HW125322   4.781   1.381   6.165
 8141SOL    HW225323   4.774   1.512   6.068
 8142SOL     OW25324   1.901   6.083   0.069
 8142SOL    HW125325   1.950   6.118   0.149
 8142SOL    HW225326   1.966   6.036   0.009
 8143SOL     OW25327   5.253   4.602   0.635
 8143SOL    HW125328   5.244   4.546   0.553
 8143SOL    HW225329   5.162   4.621   0.673
 8144SOL     OW25330   0.108   5.156   5.691
 8144SOL    HW125331   0.124   5.238   5.635
 8144SOL    HW225332   0.102   5.183   5.788
 8145SOL     OW25333   5.984   5.951   7.021
 8145SOL    HW125334   5.907   5.955   0.061
 8145SOL    HW225335   6.060   6.006   0.034
 8146SOL     OW25336   5.795   0.322   4.588
 8146SOL    HW125337   5.882   0.272   4.587
 8146SOL    HW225338   5.776   0.353   4.682
 8147SOL     OW25339   0.823   0.854   6.012
 8147SOL    HW125340   0.770   0.902   6.082
 8147SOL    HW225341   0.916   0.839   6.046
 8148SOL     OW25342   4.059   4.621   6.878
 8148SOL    HW125343   3.982   4.559   6.880
 8148SOL    HW225344   4.128   4.588   6.814
 8149SOL     OW25345   1.172   6.712   4.287
 8149SOL    HW125346   1.180   6.682   4.191
 8149SOL    HW225347   1.256   6.689   4.336
 8150SOL     OW25348   1.295   3.184   0.367
 8150SOL    HW125349   1.226   3.154   0.302
 8150SOL    HW225350   1.385   3.185   0.322
 8151SOL     OW25351   6.432   4.376   4.066
 8151SOL    HW125352   6.399   4.469   4.053
 8151SOL    HW225353   6.510   4.376   4.129
 8152SOL     OW25354   4.455   2.050   3.404
 8152SOL    HW125355   4.514   2.106   3.346
 8152SOL    HW225356   4.491   2.048   3.497
 8153SOL     OW25357   0.689   1.674   3.937
 8153SOL    HW125358   0.594   1.642   3.937
 8153SOL    HW225359   0.722   1.682   4.031
 8154SOL     OW25360   2.400   1.784   3.444
 8154SOL    HW125361   2.348   1.791   3.530
 8154SOL    HW225362   2.497   1.801   3.463
 8155SOL     OW25363   1.534   4.511   1.866
 8155SOL    HW125364   1.607   4.579   1.868
 8155SOL    HW225365   1.459   4.543   1.808
 8156SOL     OW25366   6.120   5.097   1.942
 8156SOL    HW125367   6.093   5.191   1.918
 8156SOL    HW225368   6.220   5.092   1.949
 8157SOL     OW25369   6.994   3.003   6.597
 8157SOL    HW125370   6.910   2.967   6.556
 8157SOL    HW225371   0.048   2.948   6.565
 8158SOL     OW25372   5.543   4.786   6.095
 8158SOL    HW125373   5.569   4.876   6.131
 8158SOL    HW225374   5.557   4.784   5.996
 8159SOL     OW25375   3.476   5.791   5.789
 8159SOL    HW125376   3.432   5.723   5.731
 8159SOL    HW225377   3.429   5.795   5.877
 8160SOL     OW25378   5.006   1.221   3.508
 8160SOL    HW125379   5.007   1.159   3.429
 8160SOL    HW225380   5.099   1.249   3.530
 8161SOL     OW25381   6.019   3.364   0.680
 8161SOL    HW125382   6.118   3.362   0.696
 8161SOL    HW225383   5.982   3.271   0.687
 8162SOL     OW25384   0.384   4.981   6.714
 8162SOL    HW125385   0.373   5.077   6.741
 8162SOL    HW225386   0.297   4.945   6.682
 8163SOL     OW25387   4.504   4.544   5.394
 8163SOL    HW125388   4.483   4.558   5.491
 8163SOL    HW225389   4.570   4.470   5.384
 8164SOL     OW25390   6.038   1.177   0.327
 8164SOL    HW125391   6.124   1.220   0.355
 8164SOL    HW225392   5.975   1.175   0.404
 8165SOL     OW25393   6.450   2.169   6.145
 8165SOL    HW125394   6.512   2.246   6.162
 8165SOL    HW225395   6.421   2.129   6.232
 8166SOL     OW25396   1.804   2.310   4.522
 8166SOL    HW125397   1.829   2.280   4.430
 8166SOL    HW225398   1.713   2.274   4.545
 8167SOL     OW25399   6.467   1.765   4.030
 8167SOL    HW125400   6.376   1.803   4.047
 8167SOL    HW225401   6.458   1.675   3.986
 8168SOL     OW25402   2.579   0.641   1.546
 8168SOL    HW125403   2.601   0.614   1.452
 8168SOL    HW225404   2.500   0.588   1.578
 8169SOL     OW25405   5.123   2.564   0.701
 8169SOL    HW125406   5.130   2.628   0.625
 8169SOL    HW225407   5.205   2.506   0.704
 8170SOL     OW25408   6.349   4.189   2.303
 8170SOL    HW125409   6.343   4.102   2.353
 8170SOL    HW225410   6.419   4.181   2.232
 8171SOL     OW25411   1.724   1.183   6.968
 8171SOL    HW125412   1.823   1.169   6.957
 8171SOL    HW225413   1.682   1.100   7.005
 8172SOL     OW25414   0.806   2.557   1.836
 8172SOL    HW125415   0.854   2.549   1.923
 8172SOL    HW225416   0.812   2.469   1.787
 8173SOL     OW25417   5.467   2.214   1.956
 8173SOL    HW125418   5.482   2.115   1.950
 8173SOL    HW225419   5.388   2.232   2.015
 8174SOL     OW25420   2.167   5.777   2.658
 8174SOL    HW125421   2.093   5.723   2.698
 8174SOL    HW225422   2.137   5.872   2.649
 8175SOL     OW25423   0.467   2.725   4.428
 8175SOL    HW125424   0.461   2.667   4.509
 8175SOL    HW225425   0.378   2.727   4.382
 8176SOL     OW25426   1.778   4.710   0.936
 8176SOL    HW125427   1.694   4.743   0.893
 8176SOL    HW225428   1.796   4.616   0.906
 8177SOL     OW25429   3.605   1.486   2.697
 8177SOL    HW125430   3.691   1.531   2.673
 8177SOL    HW225431   3.554   1.465   2.614
 8178SOL     OW25432   2.055   6.550   1.262
 8178SOL    HW125433   2.142   6.598   1.268
 8178SOL    HW225434   2.027   6.544   1.166
 8179SOL     OW25435   5.206   0.725   3.848
 8179SOL    HW125436   5.130   0.689   3.903
 8179SOL    HW225437   5.180   0.815   3.812
 8180SOL     OW25438   5.415   6.775   0.005
 8180SOL    HW125439   5.407   6.716   6.949
 8180SOL    HW225440   5.371   6.862   7.011
 8181SOL     OW25441   1.076   1.144   1.471
 8181SOL    HW125442   1.156   1.118   1.525
 8181SOL    HW225443   1.104   1.204   1.396
 8182SOL     OW25444   3.340   3.643   4.986
 8182SOL    HW125445   3.425   3.592   4.975
 8182SOL    HW225446   3.340   3.722   4.924
 8183SOL     OW25447   6.231   0.563   4.827
 8183SOL    HW125448   6.287   0.493   4.872
 8183SOL    HW225449   6.207   0.533   4.735
 8184SOL     OW25450   1.058   6.993   6.870
 8184SOL    HW125451   1.146   6.945   6.869
 8184SOL    HW225452   1.018   6.987   6.961
 8185SOL     OW25453   0.905   0.289   0.456
 8185SOL    HW125454   0.948   0.323   0.539
 8185SOL    HW225455   0.812   0.257   0.477
 8186SOL     OW25456   1.176   4.876   6.434
 8186SOL    HW125457   1.084   4.843   6.409
 8186SOL    HW225458   1.235   4.798   6.455
 8187SOL     OW25459   1.813   1.380   5.041
 8187SOL    HW125460   1.739   1.421   4.987
 8187SOL    HW225461   1.899   1.425   5.019
 8188SOL     OW25462   3.556   2.124   3.683
 8188SOL    HW125463   3.485   2.102   3.616
 8188SOL    HW225464   3.518   2.113   3.775
 8189SOL     OW25465   4.666   4.505   3.738
 8189SOL    HW125466   4.598   4.491   3.665
 8189SOL    HW225467   4.652   4.595   3.779
 8190SOL     OW25468   5.673   3.433   2.815
 8190SOL    HW125469   5.640   3.350   2.859
 8190SOL    HW225470   5.701   3.413   2.721
 8191SOL     OW25471   4.314   5.006   1.853
 8191SOL    HW125472   4.383   5.074   1.880
 8191SOL    HW225473   4.347   4.915   1.874
 8192SOL     OW25474   1.837   4.933   3.541
 8192SOL    HW125475   1.845   4.917   3.443
 8192SOL    HW225476   1.773   5.009   3.557
 8193SOL     OW25477   6.711   5.178   5.112
 8193SOL    HW125478   6.624   5.144   5.075
 8193SOL    HW225479   6.714   5.161   5.211
 8194SOL     OW25480   4.532   6.673   1.656
 8194SOL    HW125481   4.449   6.675   1.599
 8194SOL    HW225482   4.552   6.765   1.690
 8195SOL     OW25483   6.012   0.098   3.525
 8195SOL    HW125484   5.993   0.085   3.623
 8195SOL    HW225485   6.049   0.014   3.487
 8196SOL     OW25486   4.913   1.133   0.125
 8196SOL    HW125487   4.960   1.127   0.213
 8196SOL    HW225488   4.847   1.208   0.128
 8197SOL     OW25489   4.907   1.666   1.641
 8197SOL    HW125490   4.881   1.690   1.734
 8197SOL    HW225491   4.843   1.597   1.606
 8198SOL     OW25492   2.452   0.054   1.567
 8198SOL    HW125493   2.492   7.015   1.633
 8198SOL    HW225494   2.472   0.023   1.475
 8199SOL     OW25495   4.986   2.860   6.085
 8199SOL    HW125496   4.961   2.904   5.999
 8199SOL    HW225497   4.918   2.791   6.108
 8200SOL     OW25498   5.664   3.941   0.884
 8200SOL    HW125499   5.626   4.034   0.882
 8200SOL    HW225500   5.730   3.931   0.810
 8201SOL     OW25501   0.144   0.608   5.269
 8201SOL    HW125502   0.235   0.610   5.228
 8201SOL    HW225503   0.146   0.654   5.358
 8202SOL     OW25504   0.241   6.399   2.138
 8202SOL    HW125505   0.251   6.400   2.039
 8202SOL    HW225506   0.325   6.430   2.181
 8203SOL     OW25507   1.969   3.075   0.608
 8203SOL    HW125508   1.965   2.976   0.597
 8203SOL    HW225509   1.971   3.098   0.706
 8204SOL     OW25510   4.630   3.411   0.885
 8204SOL    HW125511   4.554   3.356   0.851
 8204SOL    HW225512   4.716   3.364   0.868
 8205SOL     OW25513   0.714   2.738   0.604
 8205SOL    HW125514   0.809   2.711   0.586
 8205SOL    HW225515   0.678   2.789   0.526
 8206SOL     OW25516   4.100   1.425   0.242
 8206SOL    HW125517   4.075   1.517   0.211
 8206SOL    HW225518   4.195   1.425   0.273
 8207SOL     OW25519   3.391   2.977   4.290
 8207SOL    HW125520   3.345   2.930   4.365
 8207SOL    HW225521   3.459   3.041   4.326
 8208SOL     OW25522   1.096   1.140   0.751
 8208SOL    HW125523   1.190   1.105   0.758
 8208SOL    HW225524   1.075   1.161   0.656
 8209SOL     OW25525   6.380   0.918   5.243
 8209SOL    HW125526   6.283   0.938   5.258
 8209SOL    HW225527   6.432   0.945   5.324
 8210SOL     OW25528   2.078   2.763   0.490
 8210SOL    HW125529   2.169   2.726   0.470
 8210SOL    HW225530   2.047   2.819   0.412
 8211SOL     OW25531   3.226   3.701   1.118
 8211SOL    HW125532   3.243   3.703   1.217
 8211SOL    HW225533   3.177   3.784   1.091
 8212SOL     OW25534   1.809   2.553   2.942
 8212SOL    HW125535   1.770   2.560   2.850
 8212SOL    HW225536   1.842   2.460   2.957
 8213SOL     OW25537   0.480   5.139   1.573
 8213SOL    HW125538   0.550   5.195   1.618
 8213SOL    HW225539   0.518   5.049   1.554
 8214SOL     OW25540   5.440   4.395   3.754
 8214SOL    HW125541   5.387   4.319   3.716
 8214SOL    HW225542   5.378   4.465   3.789
 8215SOL     OW25543   3.368   5.004   4.846
 8215SOL    HW125544   3.461   5.001   4.881
 8215SOL    HW225545   3.312   4.935   4.892
 8216SOL     OW25546   5.069   4.751   3.892
 8216SOL    HW125547   4.989   4.766   3.834
 8216SOL    HW225548   5.082   4.829   3.952
 8217SOL     OW25549   1.634   5.538   0.772
 8217SOL    HW125550   1.603   5.446   0.796
 8217SOL    HW225551   1.640   5.547   0.673
 8218SOL     OW25552   0.933   2.112   6.685
 8218SOL    HW125553   0.934   2.208   6.657
 8218SOL    HW225554   0.850   2.093   6.737
 8219SOL     OW25555   4.541   2.070   0.114
 8219SOL    HW125556   4.451   2.076   0.156
 8219SOL    HW225557   4.582   1.982   0.137
 8220SOL     OW25558   3.752   3.361   2.820
 8220SOL    HW125559   3.751   3.282   2.881
 8220SOL    HW225560   3.836   3.361   2.766
 8221SOL     OW25561   4.749   6.079   4.213
 8221SOL    HW125562   4.654   6.104   4.191
 8221SOL    HW225563   4.749   6.017   4.291
 8222SOL     OW25564   5.259   1.950   2.364
 8222SOL    HW125565   5.164   1.969   2.388
 8222SOL    HW225566   5.314   2.032   2.376
 8223SOL     OW25567   0.528   4.608   5.630
 8223SOL    HW125568   0.453   4.578   5.571
 8223SOL    HW225569   0.508   4.583   5.725
 8224SOL     OW25570   1.341   2.573   3.246
 8224SOL    HW125571   1.263   2.515   3.270
 8224SOL    HW225572   1.308   2.658   3.205
 8225SOL     OW25573   4.888   1.001   6.891
 8225SOL    HW125574   4.872   1.059   6.971
 8225SOL    HW225575   4.953   0.929   6.914
 8226SOL     OW25576   5.249   0.567   1.493
 8226SOL    HW125577   5.297   0.562   1.580
 8226SOL    HW225578   5.282   0.494   1.432
 8227SOL     OW25579   6.769   2.644   3.942
 8227SOL    HW125580   6.755   2.676   3.849
 8227SOL    HW225581   6.683   2.610   3.979
 8228SOL     OW25582   0.472   2.610   5.189
 8228SOL    HW125583   0.420   2.620   5.274
 8228SOL    HW225584   0.569   2.594   5.211
 8229SOL     OW25585   3.096   5.473   0.181
 8229SOL    HW125586   3.084   5.518   0.269
 8229SOL    HW225587   3.066   5.534   0.108
 8230SOL     OW25588   5.103   0.445   5.439
 8230SOL    HW125589   5.029   0.413   5.497
 8230SOL    HW225590   5.069   0.458   5.345
 8231SOL     OW25591   4.802   5.802   1.748
 8231SOL    HW125592   4.781   5.814   1.651
 8231SOL    HW225593   4.852   5.882   1.782
 8232SOL     OW25594   4.350   1.483   0.322
 8232SOL    HW125595   4.335   1.518   0.414
 8232SOL    HW225596   4.369   1.559   0.259
 8233SOL     OW25597   0.570   5.671   6.123
 8233SOL    HW125598   0.532   5.762   6.109
 8233SOL    HW225599   0.495   5.604   6.126
 8234SOL     OW25600   3.028   2.679   0.370
 8234SOL    HW125601   3.106   2.694   0.310
 8234SOL    HW225602   2.943   2.696   0.321
 8235SOL     OW25603   2.824   3.796   0.814
 8235SOL    HW125604   2.796   3.740   0.891
 8235SOL    HW225605   2.790   3.755   0.729
 8236SOL     OW25606   6.926   3.742   0.014
 8236SOL    HW125607   6.927   3.787   6.949
 8236SOL    HW225608   6.954   3.807   0.085
 8237SOL     OW25609   4.882   5.666   5.118
 8237SOL    HW125610   4.892   5.760   5.150
 8237SOL    HW225611   4.972   5.625   5.106
 8238SOL     OW25612   1.511   3.992   0.050
 8238SOL    HW125613   1.534   4.041   6.989
 8238SOL    HW225614   1.431   4.035   0.092
 8239SOL     OW25615   6.156   2.094   5.629
 8239SOL    HW125616   6.056   2.090   5.638
 8239SOL    HW225617   6.180   2.113   5.534
 8240SOL     OW25618   3.514   3.758   2.542
 8240SOL    HW125619   3.468   3.846   2.533
 8240SOL    HW225620   3.454   3.695   2.592
 8241SOL     OW25621   3.003   6.518   0.998
 8241SOL    HW125622   3.097   6.546   0.980
 8241SOL    HW225623   2.997   6.473   1.087
 8242SOL     OW25624   0.757   4.426   5.685
 8242SOL    HW125625   0.847   4.460   5.660
 8242SOL    HW225626   0.687   4.485   5.647
 8243SOL     OW25627   0.789   3.024   5.886
 8243SOL    HW125628   0.737   3.064   5.811
 8243SOL    HW225629   0.749   2.935   5.910
 8244SOL     OW25630   0.478   0.087   4.010
 8244SOL    HW125631   0.461   0.159   3.943
 8244SOL    HW225632   0.575   0.089   4.036
 8245SOL     OW25633   4.611   1.603   2.278
 8245SOL    HW125634   4.548   1.527   2.263
 8245SOL    HW225635   4.678   1.578   2.348
 8246SOL     OW25636   6.604   4.209   5.736
 8246SOL    HW125637   6.620   4.307   5.726
 8246SOL    HW225638   6.550   4.192   5.818
 8247SOL     OW25639   0.799   1.136   1.410
 8247SOL    HW125640   0.797   1.116   1.312
 8247SOL    HW225641   0.885   1.180   1.434
 8248SOL     OW25642   6.126   4.535   3.586
 8248SOL    HW125643   6.167   4.444   3.582
 8248SOL    HW225644   6.183   4.600   3.537
 8249SOL     OW25645   1.860   4.196   4.410
 8249SOL    HW125646   1.822   4.104   4.403
 8249SOL    HW225647   1.960   4.191   4.407
 8250SOL     OW25648   3.709   4.086   3.070
 8250SOL    HW125649   3.777   4.139   3.019
 8250SOL    HW225650   3.747   3.997   3.095
 8251SOL     OW25651   5.428   2.003   5.081
 8251SOL    HW125652   5.404   1.957   5.167
 8251SOL    HW225653   5.517   2.048   5.091
 8252SOL     OW25654   3.160   3.687   6.356
 8252SOL    HW125655   3.150   3.682   6.256
 8252SOL    HW225656   3.076   3.657   6.400
 8253SOL     OW25657   3.781   2.835   5.186
 8253SOL    HW125658   3.684   2.834   5.164
 8253SOL    HW225659   3.816   2.928   5.179
 8254SOL     OW25660   4.391   4.841   4.886
 8254SOL    HW125661   4.391   4.931   4.842
 8254SOL    HW225662   4.389   4.770   4.816
 8255SOL     OW25663   4.108   6.054   4.235
 8255SOL    HW125664   4.052   6.102   4.167
 8255SOL    HW225665   4.080   6.082   4.327
 8256SOL     OW25666   6.361   0.369   3.240
 8256SOL    HW125667   6.283   0.339   3.294
 8256SOL    HW225668   6.445   0.356   3.293
 8257SOL     OW25669   6.237   4.597   3.160
 8257SOL    HW125670   6.265   4.605   3.256
 8257SOL    HW225671   6.240   4.687   3.117
 8258SOL     OW25672   4.600   1.574   0.686
 8258SOL    HW125673   4.692   1.535   0.684
 8258SOL    HW225674   4.579   1.606   0.778
 8259SOL     OW25675   4.429   1.348   3.487
 8259SOL    HW125676   4.341   1.339   3.442
 8259SOL    HW225677   4.462   1.442   3.479
 8260SOL     OW25678   2.404   6.820   1.777
 8260SOL    HW125679   2.444   6.731   1.801
 8260SOL    HW225680   2.353   6.856   1.855
 8261SOL     OW25681   5.428   0.958   1.439
 8261SOL    HW125682   5.329   0.977   1.434
 8261SOL    HW225683   5.471   1.019   1.504
 8262SOL     OW25684   0.940   2.125   1.559
 8262SOL    HW125685   0.894   2.166   1.480
 8262SOL    HW225686   0.924   2.026   1.558
 8263SOL     OW25687   0.190   1.997   0.974
 8263SOL    HW125688   0.094   1.983   1.000
 8263SOL    HW225689   0.245   1.922   1.009
 8264SOL     OW25690   1.034   5.558   2.136
 8264SOL    HW125691   0.950   5.553   2.189
 8264SOL    HW225692   1.094   5.482   2.161
 8265SOL     OW25693   1.627   6.987   1.243
 8265SOL    HW125694   1.546   6.929   1.228
 8265SOL    HW225695   1.647   0.014   1.160
 8266SOL     OW25696   1.983   6.887   2.704
 8266SOL    HW125697   1.970   6.790   2.686
 8266SOL    HW225698   2.030   6.930   2.626
 8267SOL     OW25699   2.133   3.596   1.170
 8267SOL    HW125700   2.176   3.528   1.229
 8267SOL    HW225701   2.130   3.684   1.218
 8268SOL     OW25702   2.352   6.640   6.285
 8268SOL    HW125703   2.318   6.686   6.367
 8268SOL    HW225704   2.275   6.620   6.224
 8269SOL     OW25705   5.605   1.390   1.197
 8269SOL    HW125706   5.542   1.373   1.272
 8269SOL    HW225707   5.585   1.479   1.156
 8270SOL     OW25708   2.601   6.734   4.647
 8270SOL    HW125709   2.610   6.643   4.689
 8270SOL    HW225710   2.657   6.737   4.564
 8271SOL     OW25711   6.688   0.726   2.818
 8271SOL    HW125712   6.699   0.663   2.895
 8271SOL    HW225713   6.654   0.675   2.739
 8272SOL     OW25714   4.895   0.862   1.290
 8272SOL    HW125715   4.828   0.814   1.234
 8272SOL    HW225716   4.946   0.796   1.345
 8273SOL     OW25717   1.946   6.557   0.860
 8273SOL    HW125718   1.849   6.556   0.887
 8273SOL    HW225719   1.955   6.516   0.769
 8274SOL     OW25720   4.774   4.655   3.123
 8274SOL    HW125721   4.744   4.648   3.027
 8274SOL    HW225722   4.855   4.598   3.137
 8275SOL     OW25723   4.426   1.671   6.618
 8275SOL    HW125724   4.382   1.749   6.574
 8275SOL    HW225725   4.358   1.618   6.669
 8276SOL     OW25726   0.961   2.033   3.888
 8276SOL    HW125727   0.922   2.005   3.801
 8276SOL    HW225728   0.925   2.123   3.914
 8277SOL     OW25729   0.075   0.696   6.566
 8277SOL    HW125730   0.043   0.788   6.544
 8277SOL    HW225731   0.018   0.628   6.520
 8278SOL     OW25732   2.362   2.045   6.879
 8278SOL    HW125733   2.374   2.003   6.970
 8278SOL    HW225734   2.332   1.975   6.814
 8279SOL     OW25735   0.846   6.584   4.630
 8279SOL    HW125736   0.938   6.563   4.597
 8279SOL    HW225737   0.779   6.555   4.561
 8280SOL     OW25738   2.852   3.368   6.978
 8280SOL    HW125739   2.764   3.321   6.980
 8280SOL    HW225740   2.842   3.459   7.016
 8281SOL     OW25741   0.988   5.573   1.447
 8281SOL    HW125742   1.067   5.532   1.401
 8281SOL    HW225743   0.976   5.529   1.536
 8282SOL     OW25744   5.466   3.203   6.394
 8282SOL    HW125745   5.427   3.288   6.359
 8282SOL    HW225746   5.447   3.129   6.330
 8283SOL     OW25747   1.332   4.466   6.251
 8283SOL    HW125748   1.308   4.530   6.179
 8283SOL    HW225749   1.430   4.471   6.269
 8284SOL     OW25750   0.564   3.802   1.681
 8284SOL    HW125751   0.527   3.804   1.774
 8284SOL    HW225752   0.528   3.880   1.629
 8285SOL     OW25753   3.892   3.072   5.153
 8285SOL    HW125754   3.924   3.051   5.061
 8285SOL    HW225755   3.957   3.037   5.220
 8286SOL     OW25756   5.577   2.879   6.353
 8286SOL    HW125757   5.490   2.923   6.332
 8286SOL    HW225758   5.585   2.794   6.303
 8287SOL     OW25759   1.397   5.826   4.847
 8287SOL    HW125760   1.387   5.726   4.851
 8287SOL    HW225761   1.312   5.866   4.812
 8288SOL     OW25762   2.818   2.357   3.131
 8288SOL    HW125763   2.752   2.344   3.057
 8288SOL    HW225764   2.881   2.431   3.106
 8289SOL     OW25765   0.423   7.021   1.120
 8289SOL    HW125766   0.369   6.985   1.196
 8289SOL    HW225767   0.500   0.050   1.156
 8290SOL     OW25768   6.435   1.374   6.943
 8290SOL    HW125769   6.426   1.418   0.008
 8290SOL    HW225770   6.514   1.313   6.943
 8291SOL     OW25771   5.363   6.721   6.760
 8291SOL    HW125772   5.400   6.735   6.669
 8291SOL    HW225773   5.263   6.711   6.754
 8292SOL     OW25774   2.581   6.524   0.194
 8292SOL    HW125775   2.591   6.424   0.199
 8292SOL    HW225776   2.662   6.563   0.150
 8293SOL     OW25777   3.764   6.531   0.249
 8293SOL    HW125778   3.813   6.451   0.215
 8293SOL    HW225779   3.686   6.550   0.190
 8294SOL     OW25780   5.448   3.597   5.441
 8294SOL    HW125781   5.545   3.587   5.416
 8294SOL    HW225782   5.427   3.694   5.456
 8295SOL     OW25783   5.603   4.719   1.751
 8295SOL    HW125784   5.537   4.713   1.677
 8295SOL    HW225785   5.621   4.627   1.787
 8296SOL     OW25786   1.642   6.953   5.893
 8296SOL    HW125787   1.720   7.015   5.899
 8296SOL    HW225788   1.668   6.863   5.928
 8297SOL     OW25789   6.185   2.390   3.168
 8297SOL    HW125790   6.143   2.371   3.079
 8297SOL    HW225791   6.226   2.481   3.166
 8298SOL     OW25792   6.118   1.571   1.269
 8298SOL    HW125793   6.075   1.483   1.246
 8298SOL    HW225794   6.093   1.639   1.201
 8299SOL     OW25795   0.034   2.251   2.140
 8299SOL    HW125796   0.083   2.336   2.161
 8299SOL    HW225797   6.960   2.267   2.146
 8300SOL     OW25798   0.774   5.520   5.583
 8300SOL    HW125799   0.794   5.539   5.486
 8300SOL    HW225800   0.783   5.421   5.599
 8301SOL     OW25801   4.148   1.479   1.438
 8301SOL    HW125802   4.116   1.574   1.443
 8301SOL    HW225803   4.243   1.478   1.407
 8302SOL     OW25804   6.133   5.875   5.987
 8302SOL    HW125805   6.120   5.781   6.018
 8302SOL    HW225806   6.050   5.927   6.005
 8303SOL     OW25807   6.868   0.410   4.297
 8303SOL    HW125808   6.956   0.434   4.338
 8303SOL    HW225809   6.831   0.329   4.342
 8304SOL     OW25810   1.537   3.645   6.696
 8304SOL    HW125811   1.547   3.707   6.617
 8304SOL    HW225812   1.514   3.698   6.777
 8305SOL     OW25813   3.609   5.104   4.237
 8305SOL    HW125814   3.603   5.169   4.312
 8305SOL    HW225815   3.679   5.035   4.258
 8306SOL     OW25816   0.250   3.305   4.972
 8306SOL    HW125817   0.229   3.226   5.030
 8306SOL    HW225818   0.303   3.274   4.893
 8307SOL     OW25819   4.124   5.291   1.872
 8307SOL    HW125820   4.047   5.340   1.912
 8307SOL    HW225821   4.209   5.337   1.896
 8308SOL     OW25822   4.571   6.320   1.471
 8308SOL    HW125823   4.655   6.331   1.419
 8308SOL    HW225824   4.582   6.360   1.562
 8309SOL     OW25825   5.871   5.437   3.286
 8309SOL    HW125826   5.831   5.360   3.336
 8309SOL    HW225827   5.815   5.519   3.302
 8310SOL     OW25828   1.099   4.412   0.880
 8310SOL    HW125829   1.044   4.473   0.938
 8310SOL    HW225830   1.127   4.332   0.933
 8311SOL     OW25831   0.247   1.392   5.688
 8311SOL    HW125832   0.338   1.390   5.646
 8311SOL    HW225833   0.217   1.298   5.704
 8312SOL     OW25834   4.600   6.038   1.445
 8312SOL    HW125835   4.558   6.003   1.361
 8312SOL    HW225836   4.571   6.133   1.459
 8313SOL     OW25837   4.176   1.534   2.524
 8313SOL    HW125838   4.190   1.526   2.623
 8313SOL    HW225839   4.238   1.603   2.488
 8314SOL     OW25840   5.130   6.444   0.926
 8314SOL    HW125841   5.209   6.430   0.865
 8314SOL    HW225842   5.090   6.534   0.907
 8315SOL     OW25843   4.135   3.076   0.736
 8315SOL    HW125844   4.161   3.131   0.816
 8315SOL    HW225845   4.085   3.134   0.671
 8316SOL     OW25846   0.709   3.158   1.431
 8316SOL    HW125847   0.712   3.115   1.341
 8316SOL    HW225848   0.632   3.121   1.483
 8317SOL     OW25849   2.157   3.119   2.320
 8317SOL    HW125850   2.200   3.029   2.316
 8317SOL    HW225851   2.143   3.154   2.228
 8318SOL     OW25852   4.813   1.815   4.988
 8318SOL    HW125853   4.897   1.831   4.935
 8318SOL    HW225854   4.734   1.825   4.927
 8319SOL     OW25855   2.837   2.372   5.715
 8319SOL    HW125856   2.816   2.444   5.782
 8319SOL    HW225857   2.892   2.411   5.642
 8320SOL     OW25858   3.637   4.968   1.134
 8320SOL    HW125859   3.556   4.959   1.076
 8320SOL    HW225860   3.631   5.053   1.186
 8321SOL     OW25861   0.295   1.008   6.310
 8321SOL    HW125862   0.355   0.945   6.261
 8321SOL    HW225863   0.200   0.980   6.296
 8322SOL     OW25864   6.765   0.284   0.286
 8322SOL    HW125865   6.807   0.374   0.298
 8322SOL    HW225866   6.723   0.255   0.372
 8323SOL     OW25867   0.026   0.062   2.569
 8323SOL    HW125868   0.066   0.058   2.660
 8323SOL    HW225869   0.008   6.993   2.537
 8324SOL     OW25870   6.612   0.293   2.582
 8324SOL    HW125871   6.696   0.261   2.539
 8324SOL    HW225872   6.535   0.283   2.518
 8325SOL     OW25873   3.588   3.076   4.450
 8325SOL    HW125874   3.564   3.080   4.547
 8325SOL    HW225875   3.682   3.043   4.441
 8326SOL     OW25876   4.395   3.207   5.344
 8326SOL    HW125877   4.384   3.304   5.366
 8326SOL    HW225878   4.305   3.165   5.328
 8327SOL     OW25879   4.842   1.987   6.061
 8327SOL    HW125880   4.746   1.970   6.043
 8327SOL    HW225881   4.895   1.974   5.977
 8328SOL     OW25882   2.450   4.033   6.028
 8328SOL    HW125883   2.462   3.969   5.952
 8328SOL    HW225884   2.354   4.036   6.055
 8329SOL     OW25885   0.366   3.353   5.726
 8329SOL    HW125886   0.346   3.368   5.629
 8329SOL    HW225887   0.297   3.292   5.765
 8330SOL     OW25888   1.751   0.424   0.201
 8330SOL    HW125889   1.745   0.440   0.299
 8330SOL    HW225890   1.678   0.474   0.154
 8331SOL     OW25891   3.207   6.919   0.995
 8331SOL    HW125892   3.300   6.955   1.000
 8331SOL    HW225893   3.161   6.957   0.914
 8332SOL     OW25894   4.559   4.900   2.917
 8332SOL    HW125895   4.489   4.919   2.849
 8332SOL    HW225896   4.518   4.899   3.008
 8333SOL     OW25897   0.327   6.085   0.094
 8333SOL    HW125898   0.279   6.172   0.085
 8333SOL    HW225899   0.419   6.102   0.130
 8334SOL     OW25900   5.781   1.401   4.085
 8334SOL    HW125901   5.839   1.335   4.039
 8334SOL    HW225902   5.699   1.355   4.119
 8335SOL     OW25903   6.295   5.565   5.692
 8335SOL    HW125904   6.364   5.564   5.764
 8335SOL    HW225905   6.261   5.658   5.679
 8336SOL     OW25906   0.011   0.779   1.885
 8336SOL    HW125907   0.035   0.698   1.831
 8336SOL    HW225908   6.962   0.829   1.838
 8337SOL     OW25909   0.796   6.751   3.650
 8337SOL    HW125910   0.814   6.670   3.594
 8337SOL    HW225911   0.882   6.801   3.665
 8338SOL     OW25912   2.173   4.680   1.871
 8338SOL    HW125913   2.265   4.718   1.877
 8338SOL    HW225914   2.176   4.583   1.896
 8339SOL     OW25915   5.727   1.436   1.667
 8339SOL    HW125916   5.760   1.459   1.576
 8339SOL    HW225917   5.766   1.499   1.734
 8340SOL     OW25918   5.044   3.989   0.957
 8340SOL    HW125919   5.007   4.007   0.866
 8340SOL    HW225920   5.107   3.912   0.952
 8341SOL     OW25921   2.390   6.243   0.216
 8341SOL    HW125922   2.352   6.235   0.308
 8341SOL    HW225923   2.488   6.223   0.218
 8342SOL     OW25924   3.573   6.759   1.656
 8342SOL    HW125925   3.634   6.761   1.576
 8342SOL    HW225926   3.498   6.823   1.642
 8343SOL     OW25927   1.431   4.758   6.211
 8343SOL    HW125928   1.479   4.835   6.169
 8343SOL    HW225929   1.497   4.700   6.259
 8344SOL     OW25930   4.741   6.616   5.697
 8344SOL    HW125931   4.714   6.712   5.688
 8344SOL    HW225932   4.820   6.598   5.639
 8345SOL     OW25933   5.369   1.750   3.407
 8345SOL    HW125934   5.296   1.687   3.436
 8345SOL    HW225935   5.345   1.790   3.318
 8346SOL     OW25936   2.370   4.737   0.186
 8346SOL    HW125937   2.273   4.763   0.190
 8346SOL    HW225938   2.379   4.646   0.145
 8347SOL     OW25939   3.085   6.680   4.834
 8347SOL    HW125940   3.157   6.749   4.843
 8347SOL    HW225941   3.000   6.715   4.872
 8348SOL     OW25942   1.699   0.207   1.409
 8348SOL    HW125943   1.669   0.282   1.349
 8348SOL    HW225944   1.682   0.120   1.363
 8349SOL     OW25945   6.043   4.374   0.589
 8349SOL    HW125946   5.953   4.364   0.632
 8349SOL    HW225947   6.079   4.284   0.565
 8350SOL     OW25948   4.993   0.805   4.662
 8350SOL    HW125949   5.020   0.789   4.567
 8350SOL    HW225950   5.041   0.740   4.722
 8351SOL     OW25951   3.654   4.955   4.930
 8351SOL    HW125952   3.734   4.898   4.948
 8351SOL    HW225953   3.662   4.996   4.840
 8352SOL     OW25954   6.805   0.150   1.881
 8352SOL    HW125955   6.891   0.137   1.834
 8352SOL    HW225956   6.803   0.095   1.965
 8353SOL     OW25957   5.420   3.768   2.249
 8353SOL    HW125958   5.488   3.833   2.284
 8353SOL    HW225959   5.461   3.714   2.175
 8354SOL     OW25960   3.513   1.159   6.703
 8354SOL    HW125961   3.538   1.204   6.788
 8354SOL    HW225962   3.588   1.100   6.673
 8355SOL     OW25963   2.957   0.878   6.771
 8355SOL    HW125964   3.009   0.960   6.796
 8355SOL    HW225965   2.883   0.904   6.708
 8356SOL     OW25966   0.894   6.600   0.523
 8356SOL    HW125967   0.805   6.637   0.496
 8356SOL    HW225968   0.920   6.638   0.612
 8357SOL     OW25969   3.868   5.549   5.890
 8357SOL    HW125970   3.846   5.640   5.926
 8357SOL    HW225971   3.926   5.559   5.809
 8358SOL     OW25972   2.165   2.883   5.456
 8358SOL    HW125973   2.107   2.831   5.518
 8358SOL    HW225974   2.160   2.844   5.364
 8359SOL     OW25975   3.781   5.886   4.475
 8359SOL    HW125976   3.793   5.879   4.376
 8359SOL    HW225977   3.863   5.851   4.521
 8360SOL     OW25978   3.504   6.933   2.492
 8360SOL    HW125979   3.498   6.883   2.579
 8360SOL    HW225980   3.505   6.868   2.416
 8361SOL     OW25981   1.654   1.077   1.903
 8361SOL    HW125982   1.721   1.114   1.966
 8361SOL    HW225983   1.680   0.984   1.875
 8362SOL     OW25984   2.595   2.410   0.329
 8362SOL    HW125985   2.524   2.469   0.291
 8362SOL    HW225986   2.601   2.326   0.276
 8363SOL     OW25987   1.028   2.562   0.257
 8363SOL    HW125988   1.100   2.498   0.281
 8363SOL    HW225989   0.942   2.512   0.244
 8364SOL     OW25990   0.471   3.642   2.884
 8364SOL    HW125991   0.485   3.547   2.856
 8364SOL    HW225992   0.458   3.700   2.803
 8365SOL     OW25993   1.460   4.083   1.656
 8365SOL    HW125994   1.518   4.018   1.705
 8365SOL    HW225995   1.411   4.035   1.583
 8366SOL     OW25996   4.213   6.068   2.563
 8366SOL    HW125997   4.186   6.100   2.472
 8366SOL    HW225998   4.215   5.968   2.563
 8367SOL     OW25999   4.336   5.947   4.322
 8367SOL    HW126000   4.335   5.917   4.417
 8367SOL    HW226001   4.245   5.978   4.296
 8368SOL     OW26002   3.112   6.348   6.102
 8368SOL    HW126003   3.123   6.261   6.053
 8368SOL    HW226004   3.034   6.397   6.064
 8369SOL     OW26005   1.794   1.464   6.489
 8369SOL    HW126006   1.724   1.429   6.552
 8369SOL    HW226007   1.754   1.534   6.430
 8370SOL     OW26008   2.820   2.572   6.211
 8370SOL    HW126009   2.746   2.573   6.143
 8370SOL    HW226010   2.785   2.533   6.296
 8371SOL     OW26011   1.529   3.972   0.565
 8371SOL    HW126012   1.464   3.918   0.511
 8371SOL    HW226013   1.483   4.052   0.602
 8372SOL     OW26014   0.891   6.374   2.703
 8372SOL    HW126015   0.817   6.397   2.641
 8372SOL    HW226016   0.952   6.453   2.713
 8373SOL     OW26017   0.802   6.866   5.022
 8373SOL    HW126018   0.850   6.839   4.939
 8373SOL    HW226019   0.704   6.875   5.003
 8374SOL     OW26020   7.007   1.123   6.663
 8374SOL    HW126021   6.952   1.142   6.581
 8374SOL    HW226022   0.078   1.105   6.635
 8375SOL     OW26023   3.399   5.747   6.089
 8375SOL    HW126024   3.415   5.650   6.067
 8375SOL    HW226025   3.485   5.789   6.117
 8376SOL     OW26026   2.679   0.520   4.585
 8376SOL    HW126027   2.590   0.481   4.610
 8376SOL    HW226028   2.739   0.519   4.665
 8377SOL     OW26029   6.119   5.683   1.538
 8377SOL    HW126030   6.209   5.714   1.509
 8377SOL    HW226031   6.056   5.761   1.542
 8378SOL     OW26032   5.002   4.485   3.163
 8378SOL    HW126033   5.033   4.459   3.254
 8378SOL    HW226034   5.081   4.503   3.104
 8379SOL     OW26035   6.860   2.873   1.255
 8379SOL    HW126036   6.893   2.881   1.161
 8379SOL    HW226037   6.862   2.963   1.298
 8380SOL     OW26038   6.245   0.763   2.023
 8380SOL    HW126039   6.286   0.736   2.111
 8380SOL    HW226040   6.205   0.682   1.980
 8381SOL     OW26041   0.795   5.221   4.686
 8381SOL    HW126042   0.767   5.194   4.593
 8381SOL    HW226043   0.892   5.199   4.699
 8382SOL     OW26044   1.543   1.645   2.209
 8382SOL    HW126045   1.613   1.581   2.179
 8382SOL    HW226046   1.552   1.731   2.158
 8383SOL     OW26047   2.629   1.967   6.703
 8383SOL    HW126048   2.546   1.929   6.660
 8383SOL    HW226049   2.625   2.067   6.699
 8384SOL     OW26050   0.028   7.003   0.798
 8384SOL    HW126051   0.127   7.004   0.811
 8384SOL    HW226052   0.003   6.928   0.736
 8385SOL     OW26053   6.058   2.271   1.847
 8385SOL    HW126054   6.071   2.366   1.818
 8385SOL    HW226055   6.142   2.239   1.893
 8386SOL     OW26056   0.948   4.111   2.445
 8386SOL    HW126057   0.956   4.117   2.544
 8386SOL    HW226058   1.027   4.062   2.408
 8387SOL     OW26059   1.330   1.352   1.186
 8387SOL    HW126060   1.356   1.344   1.283
 8387SOL    HW226061   1.330   1.262   1.143
 8388SOL     OW26062   2.241   6.029   1.901
 8388SOL    HW126063   2.163   6.085   1.874
 8388SOL    HW226064   2.218   5.932   1.887
 8389SOL     OW26065   5.183   3.618   2.192
 8389SOL    HW126066   5.260   3.682   2.182
 8389SOL    HW226067   5.164   3.575   2.104
 8390SOL     OW26068   3.583   1.679   6.135
 8390SOL    HW126069   3.665   1.736   6.122
 8390SOL    HW226070   3.601   1.609   6.203
 8391SOL     OW26071   5.970   6.948   0.876
 8391SOL    HW126072   6.024   6.874   0.916
 8391SOL    HW226073   5.947   6.925   0.782
 8392SOL     OW26074   6.299   3.513   3.568
 8392SOL    HW126075   6.377   3.575   3.554
 8392SOL    HW226076   6.329   3.418   3.555
 8393SOL     OW26077   5.564   0.342   2.775
 8393SOL    HW126078   5.511   0.299   2.702
 8393SOL    HW226079   5.647   0.289   2.792
 8394SOL     OW26080   6.012   3.481   1.698
 8394SOL    HW126081   5.923   3.524   1.712
 8394SOL    HW226082   6.079   3.550   1.671
 8395SOL     OW26083   2.384   0.359   5.558
 8395SOL    HW126084   2.455   0.428   5.571
 8395SOL    HW226085   2.294   0.403   5.561
 8396SOL     OW26086   4.246   4.701   3.895
 8396SOL    HW126087   4.232   4.686   3.993
 8396SOL    HW226088   4.337   4.739   3.879
 8397SOL     OW26089   0.448   1.500   3.866
 8397SOL    HW126090   0.473   1.425   3.927
 8397SOL    HW226091   0.353   1.487   3.835
 8398SOL     OW26092   4.699   1.645   6.762
 8398SOL    HW126093   4.778   1.586   6.779
 8398SOL    HW226094   4.646   1.607   6.686
 8399SOL     OW26095   6.831   6.178   6.772
 8399SOL    HW126096   6.738   6.164   6.805
 8399SOL    HW226097   6.828   6.229   6.686
 8400SOL     OW26098   1.618   2.679   4.391
 8400SOL    HW126099   1.593   2.715   4.481
 8400SOL    HW226100   1.588   2.744   4.321
 8401SOL     OW26101   2.019   0.367   5.407
 8401SOL    HW126102   2.057   0.441   5.462
 8401SOL    HW226103   2.085   0.291   5.403
 8402SOL     OW26104   4.833   0.797   6.455
 8402SOL    HW126105   4.866   0.703   6.456
 8402SOL    HW226106   4.910   0.860   6.458
 8403SOL     OW26107   0.249   4.694   4.099
 8403SOL    HW126108   0.258   4.643   4.013
 8403SOL    HW226109   0.160   4.674   4.141
 8404SOL     OW26110   3.024   1.073   5.960
 8404SOL    HW126111   2.943   1.041   5.910
 8404SOL    HW226112   3.098   1.006   5.949
 8405SOL     OW26113   3.886   1.782   6.043
 8405SOL    HW126114   3.943   1.702   6.030
 8405SOL    HW226115   3.896   1.843   5.965
 8406SOL     OW26116   4.931   0.463   0.404
 8406SOL    HW126117   4.887   0.553   0.405
 8406SOL    HW226118   4.943   0.431   0.499
 8407SOL     OW26119   4.443   5.904   3.341
 8407SOL    HW126120   4.410   5.965   3.269
 8407SOL    HW226121   4.410   5.937   3.430
 8408SOL     OW26122   5.529   6.486   0.475
 8408SOL    HW126123   5.602   6.460   0.411
 8408SOL    HW226124   5.507   6.583   0.462
 8409SOL     OW26125   4.564   2.452   2.089
 8409SOL    HW126126   4.660   2.468   2.112
 8409SOL    HW226127   4.542   2.496   2.002
 8410SOL     OW26128   6.321   1.472   1.720
 8410SOL    HW126129   6.407   1.479   1.771
 8410SOL    HW226130   6.258   1.411   1.769
 8411SOL     OW26131   0.361   6.316   1.669
 8411SOL    HW126132   0.382   6.391   1.606
 8411SOL    HW226133   0.400   6.231   1.634
 8412SOL     OW26134   3.720   3.034   0.869
 8412SOL    HW126135   3.637   3.087   0.886
 8412SOL    HW226136   3.800   3.089   0.893
 8413SOL     OW26137   4.151   5.800   6.398
 8413SOL    HW126138   4.151   5.895   6.430
 8413SOL    HW226139   4.138   5.798   6.299
 8414SOL     OW26140   2.176   1.562   2.806
 8414SOL    HW126141   2.145   1.566   2.710
 8414SOL    HW226142   2.103   1.524   2.862
 8415SOL     OW26143   3.094   0.023   3.920
 8415SOL    HW126144   3.096   0.060   3.828
 8415SOL    HW226145   3.141   6.958   3.922
 8416SOL     OW26146   5.740   1.806   4.851
 8416SOL    HW126147   5.640   1.802   4.853
 8416SOL    HW226148   5.778   1.728   4.900
 8417SOL     OW26149   2.050   3.144   5.431
 8417SOL    HW126150   2.036   3.128   5.333
 8417SOL    HW226151   2.077   3.058   5.474
 8418SOL     OW26152   0.886   5.592   2.429
 8418SOL    HW126153   0.870   5.568   2.525
 8418SOL    HW226154   0.945   5.673   2.424
 8419SOL     OW26155   5.969   0.964   3.285
 8419SOL    HW126156   5.908   1.043   3.290
 8419SOL    HW226157   6.041   0.981   3.218
 8420SOL     OW26158   3.420   6.904   1.936
 8420SOL    HW126159   3.364   6.890   1.854
 8420SOL    HW226160   3.452   6.815   1.970
 8421SOL     OW26161   3.050   6.440   6.690
 8421SOL    HW126162   3.025   6.374   6.620
 8421SOL    HW226163   3.095   6.393   6.766
 8422SOL     OW26164   4.887   2.598   2.309
 8422SOL    HW126165   4.831   2.522   2.341
 8422SOL    HW226166   4.828   2.673   2.281
 8423SOL     OW26167   4.671   4.359   5.731
 8423SOL    HW126168   4.726   4.294   5.784
 8423SOL    HW226169   4.713   4.449   5.735
 8424SOL     OW26170   1.997   0.722   3.778
 8424SOL    HW126171   2.081   0.733   3.831
 8424SOL    HW226172   2.009   0.763   3.687
 8425SOL     OW26173   3.506   3.852   3.752
 8425SOL    HW126174   3.504   3.952   3.754
 8425SOL    HW226175   3.419   3.818   3.716
 8426SOL     OW26176   3.397   3.217   2.446
 8426SOL    HW126177   3.388   3.305   2.399
 8426SOL    HW226178   3.335   3.151   2.405
 8427SOL     OW26179   2.896   3.585   3.255
 8427SOL    HW126180   2.901   3.498   3.205
 8427SOL    HW226181   2.958   3.651   3.213
 8428SOL     OW26182   0.145   0.166   1.096
 8428SOL    HW126183   0.173   0.198   1.186
 8428SOL    HW226184   0.217   0.109   1.057
 8429SOL     OW26185   2.299   5.920   6.041
 8429SOL    HW126186   2.371   5.987   6.055
 8429SOL    HW226187   2.221   5.943   6.098
 8430SOL     OW26188   4.095   4.859   4.923
 8430SOL    HW126189   4.186   4.861   4.963
 8430SOL    HW226190   4.026   4.861   4.995
 8431SOL     OW26191   2.998   4.000   6.645
 8431SOL    HW126192   2.912   3.957   6.615
 8431SOL    HW226193   3.064   3.997   6.570
 8432SOL     OW26194   6.578   5.178   6.352
 8432SOL    HW126195   6.561   5.138   6.442
 8432SOL    HW226196   6.668   5.222   6.352
 8433SOL     OW26197   4.394   2.386   0.880
 8433SOL    HW126198   4.435   2.475   0.860
 8433SOL    HW226199   4.409   2.362   0.976
 8434SOL     OW26200   2.064   5.333   4.977
 8434SOL    HW126201   2.107   5.280   4.904
 8434SOL    HW226202   2.083   5.290   5.065
 8435SOL     OW26203   5.497   0.748   2.852
 8435SOL    HW126204   5.540   0.787   2.771
 8435SOL    HW226205   5.554   0.674   2.888
 8436SOL     OW26206   2.774   6.345   3.728
 8436SOL    HW126207   2.675   6.339   3.740
 8436SOL    HW226208   2.795   6.420   3.665
 8437SOL     OW26209   2.036   3.370   2.369
 8437SOL    HW126210   2.088   3.290   2.339
 8437SOL    HW226211   1.976   3.345   2.445
 8438SOL     OW26212   1.768   3.954   2.903
 8438SOL    HW126213   1.706   4.029   2.928
 8438SOL    HW226214   1.843   3.990   2.847
 8439SOL     OW26215   6.231   5.367   3.958
 8439SOL    HW126216   6.270   5.308   3.887
 8439SOL    HW226217   6.249   5.327   4.048
 8440SOL     OW26218   2.254   1.824   3.674
 8440SOL    HW126219   2.176   1.873   3.715
 8440SOL    HW226220   2.261   1.733   3.714
 8441SOL     OW26221   5.683   5.636   5.502
 8441SOL    HW126222   5.653   5.569   5.433
 8441SOL    HW226223   5.728   5.713   5.457
 8442SOL     OW26224   3.579   0.995   5.104
 8442SOL    HW126225   3.639   1.048   5.044
 8442SOL    HW226226   3.553   0.910   5.059
 8443SOL     OW26227   1.702   4.883   3.997
 8443SOL    HW126228   1.756   4.944   3.938
 8443SOL    HW226229   1.631   4.839   3.942
 8444SOL     OW26230   4.319   6.691   3.304
 8444SOL    HW126231   4.268   6.683   3.390
 8444SOL    HW226232   4.343   6.599   3.271
 8445SOL     OW26233   2.424   0.472   6.771
 8445SOL    HW126234   2.378   0.453   6.684
 8445SOL    HW226235   2.400   0.564   6.802
 8446SOL     OW26236   0.057   6.149   4.932
 8446SOL    HW126237   0.045   6.050   4.930
 8446SOL    HW226238   0.030   6.184   5.022
 8447SOL     OW26239   4.355   1.719   2.452
 8447SOL    HW126240   4.308   1.806   2.439
 8447SOL    HW226241   4.436   1.716   2.394
 8448SOL     OW26242   4.814   6.081   3.685
 8448SOL    HW126243   4.731   6.028   3.699
 8448SOL    HW226244   4.830   6.139   3.765
 8449SOL     OW26245   1.457   3.270   3.539
 8449SOL    HW126246   1.436   3.221   3.623
 8449SOL    HW226247   1.553   3.257   3.515
 8450SOL     OW26248   0.497   1.024   0.057
 8450SOL    HW126249   0.438   0.950   0.025
 8450SOL    HW226250   0.536   0.998   0.146
 8451SOL     OW26251   3.737   1.101   1.110
 8451SOL    HW126252   3.774   1.194   1.109
 8451SOL    HW226253   3.756   1.056   1.023
 8452SOL     OW26254   5.328   1.997   4.584
 8452SOL    HW126255   5.289   1.978   4.674
 8452SOL    HW226256   5.415   1.949   4.575
 8453SOL     OW26257   0.484   5.498   0.053
 8453SOL    HW126258   0.502   5.593   0.078
 8453SOL    HW226259   0.499   5.485   6.980
 8454SOL     OW26260   0.557   4.294   0.284
 8454SOL    HW126261   0.573   4.392   0.285
 8454SOL    HW226262   0.529   4.266   0.192
 8455SOL     OW26263   0.781   0.500   2.722
 8455SOL    HW126264   0.742   0.456   2.803
 8455SOL    HW226265   0.876   0.470   2.710
 8456SOL     OW26266   5.149   0.457   3.586
 8456SOL    HW126267   5.105   0.398   3.654
 8456SOL    HW226268   5.243   0.477   3.615
 8457SOL     OW26269   6.416   6.784   4.544
 8457SOL    HW126270   6.327   6.749   4.574
 8457SOL    HW226271   6.481   6.780   4.620
 8458SOL     OW26272   0.646   0.212   0.501
 8458SOL    HW126273   0.634   0.281   0.573
 8458SOL    HW226274   0.579   0.139   0.514
 8459SOL     OW26275   1.686   5.723   3.047
 8459SOL    HW126276   1.599   5.751   3.087
 8459SOL    HW226277   1.753   5.796   3.060
 8460SOL     OW26278   4.294   3.916   5.326
 8460SOL    HW126279   4.363   3.844   5.314
 8460SOL    HW226280   4.339   4.004   5.338
 8461SOL     OW26281   0.082   3.005   4.875
 8461SOL    HW126282   7.007   3.015   4.883
 8461SOL    HW226283   0.126   3.048   4.954
 8462SOL     OW26284   3.109   1.410   1.409
 8462SOL    HW126285   3.022   1.442   1.372
 8462SOL    HW226286   3.153   1.483   1.461
 8463SOL     OW26287   6.197   6.951   1.897
 8463SOL    HW126288   6.209   0.021   1.865
 8463SOL    HW226289   6.109   6.916   1.865
 8464SOL     OW26290   5.726   3.205   4.445
 8464SOL    HW126291   5.694   3.215   4.351
 8464SOL    HW226292   5.745   3.109   4.464
 8465SOL     OW26293   1.406   1.980   0.314
 8465SOL    HW126294   1.329   2.039   0.294
 8465SOL    HW226295   1.470   2.028   0.375
 8466SOL     OW26296   1.244   5.602   3.393
 8466SOL    HW126297   1.323   5.617   3.452
 8466SOL    HW226298   1.182   5.680   3.399
 8467SOL     OW26299   2.507   5.853   1.162
 8467SOL    HW126300   2.466   5.828   1.074
 8467SOL    HW226301   2.501   5.775   1.224
 8468SOL     OW26302   3.835   2.451   0.475
 8468SOL    HW126303   3.832   2.546   0.447
 8468SOL    HW226304   3.774   2.436   0.553
 8469SOL     OW26305   3.103   2.998   0.048
 8469SOL    HW126306   3.135   2.966   0.136
 8469SOL    HW226307   3.179   3.000   7.007
 8470SOL     OW26308   1.860   2.478   1.039
 8470SOL    HW126309   1.827   2.510   1.128
 8470SOL    HW226310   1.959   2.463   1.044
 8471SOL     OW26311   2.951   0.620   4.046
 8471SOL    HW126312   2.878   0.644   3.982
 8471SOL    HW226313   3.039   0.622   3.998
 8472SOL     OW26314   0.588   6.889   4.250
 8472SOL    HW126315   0.594   6.808   4.191
 8472SOL    HW226316   0.648   6.960   4.216
 8473SOL     OW26317   0.059   6.018   0.483
 8473SOL    HW126318   0.080   5.920   0.487
 8473SOL    HW226319   0.006   6.037   0.400
 8474SOL     OW26320   3.067   2.924   1.721
 8474SOL    HW126321   3.107   2.916   1.813
 8474SOL    HW226322   3.036   2.834   1.690
 8475SOL     OW26323   5.603   1.573   2.762
 8475SOL    HW126324   5.533   1.628   2.807
 8475SOL    HW226325   5.559   1.507   2.701
 8476SOL     OW26326   5.756   6.968   2.017
 8476SOL    HW126327   5.834   6.906   2.022
 8476SOL    HW226328   5.689   6.943   2.087
 8477SOL     OW26329   2.935   6.588   1.344
 8477SOL    HW126330   2.991   6.642   1.281
 8477SOL    HW226331   2.887   6.517   1.292
 8478SOL     OW26332   1.839   0.867   5.567
 8478SOL    HW126333   1.820   0.931   5.492
 8478SOL    HW226334   1.829   0.774   5.533
 8479SOL     OW26335   6.244   1.325   0.475
 8479SOL    HW126336   6.299   1.408   0.482
 8479SOL    HW226337   6.278   1.257   0.540
 8480SOL     OW26338   3.560   0.354   1.057
 8480SOL    HW126339   3.487   0.352   0.989
 8480SOL    HW226340   3.649   0.360   1.010
 8481SOL     OW26341   3.842   1.493   4.633
 8481SOL    HW126342   3.877   1.507   4.725
 8481SOL    HW226343   3.781   1.569   4.608
 8482SOL     OW26344   1.736   0.359   2.130
 8482SOL    HW126345   1.653   0.403   2.164
 8482SOL    HW226346   1.716   0.309   2.046
 8483SOL     OW26347   3.336   5.787   2.400
 8483SOL    HW126348   3.372   5.697   2.423
 8483SOL    HW226349   3.398   5.857   2.435
 8484SOL     OW26350   0.476   4.546   3.828
 8484SOL    HW126351   0.516   4.549   3.920
 8484SOL    HW226352   0.532   4.486   3.770
 8485SOL     OW26353   1.984   3.981   0.047
 8485SOL    HW126354   2.058   3.954   0.109
 8485SOL    HW226355   1.931   4.055   0.089
 8486SOL     OW26356   5.273   1.025   2.407
 8486SOL    HW126357   5.324   1.067   2.332
 8486SOL    HW226358   5.257   0.928   2.387
 8487SOL     OW26359   5.158   0.006   1.730
 8487SOL    HW126360   5.227   0.077   1.716
 8487SOL    HW226361   5.102   0.029   1.810
 8488SOL     OW26362   5.283   4.710   4.127
 8488SOL    HW126363   5.186   4.693   4.145
 8488SOL    HW226364   5.308   4.669   4.039
 8489SOL     OW26365   5.977   4.725   1.432
 8489SOL    HW126366   5.952   4.723   1.336
 8489SOL    HW226367   5.937   4.806   1.475
 8490SOL     OW26368   4.258   5.310   3.001
 8490SOL    HW126369   4.163   5.330   3.023
 8490SOL    HW226370   4.315   5.328   3.082
 8491SOL     OW26371   2.484   0.523   2.097
 8491SOL    HW126372   2.551   0.539   2.025
 8491SOL    HW226373   2.507   0.439   2.146
 8492SOL     OW26374   5.364   3.169   5.385
 8492SOL    HW126375   5.401   3.080   5.359
 8492SOL    HW226376   5.264   3.165   5.382
 8493SOL     OW26377   4.168   2.151   0.025
 8493SOL    HW126378   4.171   2.054   0.049
 8493SOL    HW226379   4.250   2.196   0.060
 8494SOL     OW26380   2.562   5.793   6.834
 8494SOL    HW126381   2.628   5.851   6.787
 8494SOL    HW226382   2.557   5.704   6.789
 8495SOL     OW26383   6.707   3.030   0.455
 8495SOL    HW126384   6.658   3.001   0.374
 8495SOL    HW226385   6.757   3.115   0.436
 8496SOL     OW26386   0.641   2.049   3.320
 8496SOL    HW126387   0.676   1.973   3.375
 8496SOL    HW226388   0.580   2.105   3.376
 8497SOL     OW26389   5.189   5.301   4.833
 8497SOL    HW126390   5.143   5.306   4.744
 8497SOL    HW226391   5.170   5.212   4.875
 8498SOL     OW26392   0.313   0.219   1.326
 8498SOL    HW126393   0.272   0.310   1.334
 8498SOL    HW226394   0.377   0.205   1.402
 8499SOL     OW26395   3.188   5.086   6.816
 8499SOL    HW126396   3.105   5.032   6.825
 8499SOL    HW226397   3.220   5.114   6.907
 8500SOL     OW26398   2.258   0.096   5.663
 8500SOL    HW126399   2.188   0.157   5.701
 8500SOL    HW226400   2.220   0.004   5.652
 8501SOL     OW26401   1.990   3.456   6.501
 8501SOL    HW126402   1.963   3.471   6.406
 8501SOL    HW226403   1.911   3.468   6.561
 8502SOL     OW26404   0.469   6.171   1.438
 8502SOL    HW126405   0.427   6.135   1.355
 8502SOL    HW226406   0.547   6.229   1.414
 8503SOL     OW26407   1.459   4.881   3.383
 8503SOL    HW126408   1.490   4.832   3.465
 8503SOL    HW226409   1.525   4.953   3.361
 8504SOL     OW26410   1.902   6.021   3.711
 8504SOL    HW126411   1.841   6.099   3.704
 8504SOL    HW226412   1.989   6.050   3.752
 8505SOL     OW26413   5.603   4.079   3.732
 8505SOL    HW126414   5.563   4.010   3.672
 8505SOL    HW226415   5.687   4.043   3.772
 8506SOL     OW26416   1.089   6.444   0.441
 8506SOL    HW126417   1.015   6.511   0.451
 8506SOL    HW226418   1.169   6.489   0.402
 8507SOL     OW26419   2.377   1.029   5.886
 8507SOL    HW126420   2.321   0.949   5.864
 8507SOL    HW226421   2.446   1.004   5.954
 8508SOL     OW26422   6.609   2.403   5.217
 8508SOL    HW126423   6.532   2.406   5.154
 8508SOL    HW226424   6.694   2.393   5.166
 8509SOL     OW26425   5.918   0.973   4.254
 8509SOL    HW126426   5.969   0.915   4.190
 8509SOL    HW226427   5.820   0.955   4.245
 8510SOL     OW26428   6.077   5.648   3.054
 8510SOL    HW126429   6.075   5.621   3.151
 8510SOL    HW226430   6.136   5.728   3.043
 8511SOL     OW26431   6.451   4.608   0.510
 8511SOL    HW126432   6.433   4.569   0.419
 8511SOL    HW226433   6.522   4.555   0.556
 8512SOL     OW26434   4.146   2.557   0.112
 8512SOL    HW126435   4.126   2.641   0.162
 8512SOL    HW226436   4.202   2.578   0.032
 8513SOL     OW26437   5.217   3.680   0.258
 8513SOL    HW126438   5.236   3.645   0.350
 8513SOL    HW226439   5.180   3.773   0.264
 8514SOL     OW26440   3.099   1.635   3.982
 8514SOL    HW126441   3.144   1.695   4.048
 8514SOL    HW226442   3.005   1.617   4.012
 8515SOL     OW26443   0.645   1.340   6.989
 8515SOL    HW126444   0.588   1.340   6.907
 8515SOL    HW226445   0.739   1.316   6.965
 8516SOL     OW26446   5.851   2.649   2.430
 8516SOL    HW126447   5.872   2.708   2.507
 8516SOL    HW226448   5.895   2.684   2.347
 8517SOL     OW26449   2.373   2.749   5.728
 8517SOL    HW126450   2.431   2.817   5.683
 8517SOL    HW226451   2.313   2.706   5.660
 8518SOL     OW26452   4.828   4.241   6.226
 8518SOL    HW126453   4.791   4.164   6.175
 8518SOL    HW226454   4.885   4.206   6.301
 8519SOL     OW26455   1.351   4.577   0.780
 8519SOL    HW126456   1.314   4.658   0.735
 8519SOL    HW226457   1.276   4.520   0.813
 8520SOL     OW26458   3.986   3.810   5.025
 8520SOL    HW126459   3.923   3.825   5.101
 8520SOL    HW226460   4.056   3.743   5.053
 8521SOL     OW26461   1.730   6.335   5.486
 8521SOL    HW126462   1.815   6.356   5.535
 8521SOL    HW226463   1.665   6.295   5.550
 8522SOL     OW26464   1.225   0.587   1.091
 8522SOL    HW126465   1.297   0.613   1.156
 8522SOL    HW226466   1.148   0.650   1.100
 8523SOL     OW26467   2.717   6.823   6.284
 8523SOL    HW126468   2.743   6.733   6.250
 8523SOL    HW226469   2.625   6.847   6.251
 8524SOL     OW26470   1.269   4.710   4.839
 8524SOL    HW126471   1.178   4.730   4.801
 8524SOL    HW226472   1.265   4.625   4.891
 8525SOL     OW26473   6.107   4.850   0.678
 8525SOL    HW126474   6.097   4.767   0.623
 8525SOL    HW226475   6.087   4.930   0.621
 8526SOL     OW26476   3.116   6.788   1.212
 8526SOL    HW126477   3.128   6.832   1.301
 8526SOL    HW226478   3.144   6.851   1.139
 8527SOL     OW26479   3.173   0.778   0.012
 8527SOL    HW126480   3.132   0.687   0.018
 8527SOL    HW226481   3.215   0.790   6.947
 8528SOL     OW26482   4.772   1.651   1.019
 8528SOL    HW126483   4.841   1.723   1.005
 8528SOL    HW226484   4.681   1.692   1.020
 8529SOL     OW26485   1.122   6.199   6.680
 8529SOL    HW126486   1.048   6.263   6.659
 8529SOL    HW226487   1.194   6.207   6.612
 8530SOL     OW26488   3.011   3.826   4.007
 8530SOL    HW126489   3.064   3.908   3.988
 8530SOL    HW226490   2.960   3.800   3.925
 8531SOL     OW26491   6.998   5.706   3.624
 8531SOL    HW126492   0.011   5.789   3.582
 8531SOL    HW226493   0.038   5.670   3.691
 8532SOL     OW26494   3.741   6.539   3.926
 8532SOL    HW126495   3.686   6.464   3.964
 8532SOL    HW226496   3.681   6.606   3.882
 8533SOL     OW26497   0.717   5.972   6.876
 8533SOL    HW126498   0.702   6.053   6.932
 8533SOL    HW226499   0.629   5.939   6.842
 8534SOL     OW26500   4.552   2.578   4.080
 8534SOL    HW126501   4.494   2.504   4.046
 8534SOL    HW226502   4.582   2.635   4.003
 8535SOL     OW26503   5.388   1.044   4.378
 8535SOL    HW126504   5.352   1.085   4.294
 8535SOL    HW226505   5.435   1.113   4.432
 8536SOL     OW26506   0.781   1.697   5.051
 8536SOL    HW126507   0.834   1.680   4.968
 8536SOL    HW226508   0.769   1.612   5.101
 8537SOL     OW26509   6.196   1.250   3.395
 8537SOL    HW126510   6.147   1.205   3.320
 8537SOL    HW226511   6.268   1.189   3.429
 8538SOL     OW26512   1.791   1.351   0.205
 8538SOL    HW126513   1.730   1.381   0.132
 8538SOL    HW226514   1.758   1.263   0.242
 8539SOL     OW26515   6.036   2.268   2.331
 8539SOL    HW126516   6.007   2.227   2.245
 8539SOL    HW226517   6.057   2.196   2.397
 8540SOL     OW26518   4.975   6.993   6.711
 8540SOL    HW126519   5.032   6.911   6.704
 8540SOL    HW226520   4.977   0.002   6.805
 8541SOL     OW26521   2.804   1.957   3.832
 8541SOL    HW126522   2.736   1.905   3.781
 8541SOL    HW226523   2.895   1.922   3.809
 8542SOL     OW26524   3.446   5.286   6.569
 8542SOL    HW126525   3.489   5.199   6.593
 8542SOL    HW226526   3.405   5.327   6.650
 8543SOL     OW26527   1.961   2.168   0.749
 8543SOL    HW126528   1.951   2.123   0.661
 8543SOL    HW226529   1.996   2.261   0.735
 8544SOL     OW26530   5.070   2.915   4.782
 8544SOL    HW126531   5.037   3.007   4.804
 8544SOL    HW226532   5.106   2.914   4.689
 8545SOL     OW26533   4.963   6.634   6.179
 8545SOL    HW126534   4.980   6.727   6.145
 8545SOL    HW226535   4.983   6.631   6.277
 8546SOL     OW26536   5.957   1.965   3.499
 8546SOL    HW126537   6.042   2.005   3.534
 8546SOL    HW226538   5.917   1.906   3.569
 8547SOL     OW26539   1.641   5.521   5.414
 8547SOL    HW126540   1.565   5.557   5.468
 8547SOL    HW226541   1.652   5.574   5.331
 8548SOL     OW26542   5.805   1.661   5.618
 8548SOL    HW126543   5.765   1.703   5.700
 8548SOL    HW226544   5.903   1.648   5.632
 8549SOL     OW26545   6.597   4.021   3.662
 8549SOL    HW126546   6.681   3.973   3.689
 8549SOL    HW226547   6.560   4.070   3.740
 8550SOL     OW26548   1.534   4.941   6.815
 8550SOL    HW126549   1.499   4.852   6.846
 8550SOL    HW226550   1.547   4.940   6.716
 8551SOL     OW26551   3.399   4.202   6.578
 8551SOL    HW126552   3.355   4.289   6.601
 8551SOL    HW226553   3.472   4.183   6.643
 8552SOL     OW26554   3.174   5.602   3.338
 8552SOL    HW126555   3.094   5.543   3.321
 8552SOL    HW226556   3.196   5.653   3.255
 8553SOL     OW26557   5.305   6.099   0.098
 8553SOL    HW126558   5.235   6.120   0.029
 8553SOL    HW226559   5.392   6.140   0.071
 8554SOL     OW26560   0.261   4.266   0.345
 8554SOL    HW126561   0.237   4.196   0.278
 8554SOL    HW226562   0.302   4.345   0.298
 8555SOL     OW26563   0.821   0.276   3.556
 8555SOL    HW126564   0.891   0.218   3.514
 8555SOL    HW226565   0.823   0.367   3.515
 8556SOL     OW26566   0.348   0.488   3.179
 8556SOL    HW126567   0.272   0.509   3.119
 8556SOL    HW226568   0.313   0.461   3.269
 8557SOL     OW26569   6.834   6.711   1.825
 8557SOL    HW126570   6.906   6.704   1.756
 8557SOL    HW226571   6.771   6.634   1.815
 8558SOL     OW26572   2.284   5.545   2.544
 8558SOL    HW126573   2.217   5.520   2.474
 8558SOL    HW226574   2.249   5.622   2.598
 8559SOL     OW26575   1.021   0.980   2.054
 8559SOL    HW126576   0.922   0.982   2.042
 8559SOL    HW226577   1.043   0.963   2.150
 8560SOL     OW26578   0.192   1.109   0.231
 8560SOL    HW126579   0.121   1.178   0.247
 8560SOL    HW226580   0.159   1.043   0.164
 8561SOL     OW26581   4.492   6.185   2.577
 8561SOL    HW126582   4.447   6.260   2.528
 8561SOL    HW226583   4.423   6.124   2.614
 8562SOL     OW26584   4.220   6.722   4.489
 8562SOL    HW126585   4.276   6.673   4.556
 8562SOL    HW226586   4.253   6.702   4.397
 8563SOL     OW26587   2.981   3.220   0.142
 8563SOL    HW126588   3.023   3.151   0.083
 8563SOL    HW226589   2.940   3.291   0.085
 8564SOL     OW26590   1.138   0.499   3.605
 8564SOL    HW126591   1.134   0.428   3.676
 8564SOL    HW226592   1.045   0.531   3.585
 8565SOL     OW26593   3.706   0.071   0.941
 8565SOL    HW126594   3.789   0.100   0.988
 8565SOL    HW226595   3.706   0.107   0.848
 8566SOL     OW26596   1.323   2.283   3.102
 8566SOL    HW126597   1.404   2.262   3.156
 8566SOL    HW226598   1.344   2.272   3.004
 8567SOL     OW26599   5.878   1.649   1.409
 8567SOL    HW126600   5.969   1.632   1.371
 8567SOL    HW226601   5.812   1.657   1.335
 8568SOL     OW26602   4.706   1.864   0.251
 8568SOL    HW126603   4.804   1.858   0.266
 8568SOL    HW226604   4.663   1.910   0.330
 8569SOL     OW26605   4.467   0.583   4.803
 8569SOL    HW126606   4.562   0.563   4.781
 8569SOL    HW226607   4.447   0.550   4.895
 8570SOL     OW26608   1.243   4.288   6.017
 8570SOL    HW126609   1.315   4.247   6.074
 8570SOL    HW226610   1.237   4.386   6.037
 8571SOL     OW26611   6.950   4.412   4.863
 8571SOL    HW126612   7.007   4.349   4.811
 8571SOL    HW226613   6.958   4.504   4.824
 8572SOL     OW26614   2.026   5.214   5.549
 8572SOL    HW126615   2.022   5.303   5.505
 8572SOL    HW226616   2.121   5.182   5.552
 8573SOL     OW26617   4.263   6.085   6.794
 8573SOL    HW126618   4.173   6.123   6.775
 8573SOL    HW226619   4.264   5.987   6.771
 8574SOL     OW26620   0.622   4.778   6.078
 8574SOL    HW126621   0.718   4.755   6.091
 8574SOL    HW226622   0.615   4.861   6.024
 8575SOL     OW26623   3.378   2.940   6.944
 8575SOL    HW126624   3.468   2.918   6.982
 8575SOL    HW226625   3.344   2.861   6.893
 8576SOL     OW26626   0.946   6.818   2.311
 8576SOL    HW126627   0.996   6.752   2.255
 8576SOL    HW226628   0.861   6.843   2.264
 8577SOL     OW26629   6.266   5.598   3.396
 8577SOL    HW126630   6.317   5.557   3.471
 8577SOL    HW226631   6.328   5.656   3.342
 8578SOL     OW26632   4.440   0.064   4.077
 8578SOL    HW126633   4.485   7.016   4.129
 8578SOL    HW226634   4.349   0.032   4.048
 8579SOL     OW26635   1.174   4.947   3.374
 8579SOL    HW126636   1.262   4.900   3.377
 8579SOL    HW226637   1.182   5.031   3.321
 8580SOL     OW26638   1.544   6.339   1.976
 8580SOL    HW126639   1.507   6.411   1.917
 8580SOL    HW226640   1.618   6.292   1.928
 8581SOL     OW26641   3.335   1.899   0.958
 8581SOL    HW126642   3.238   1.878   0.949
 8581SOL    HW226643   3.373   1.850   1.036
 8582SOL     OW26644   4.726   4.776   2.157
 8582SOL    HW126645   4.791   4.791   2.083
 8582SOL    HW226646   4.735   4.682   2.191
 8583SOL     OW26647   6.652   0.533   6.177
 8583SOL    HW126648   6.556   0.558   6.194
 8583SOL    HW226649   6.695   0.603   6.119
 8584SOL     OW26650   6.892   4.540   0.617
 8584SOL    HW126651   6.929   4.581   0.699
 8584SOL    HW226652   6.966   4.500   0.563
 8585SOL     OW26653   0.346   0.734   0.549
 8585SOL    HW126654   0.248   0.741   0.569
 8585SOL    HW226655   0.383   0.825   0.533
 8586SOL     OW26656   3.669   5.939   2.967
 8586SOL    HW126657   3.591   5.981   2.922
 8586SOL    HW226658   3.639   5.859   3.019
 8587SOL     OW26659   0.904   1.944   2.845
 8587SOL    HW126660   0.818   1.907   2.878
 8587SOL    HW226661   0.919   1.915   2.751
 8588SOL     OW26662   3.739   2.117   0.437
 8588SOL    HW126663   3.682   2.199   0.429
 8588SOL    HW226664   3.803   2.112   0.360
 8589SOL     OW26665   3.630   0.778   4.664
 8589SOL    HW126666   3.544   0.731   4.681
 8589SOL    HW226667   3.626   0.826   4.577
 8590SOL     OW26668   6.713   5.416   4.324
 8590SOL    HW126669   6.635   5.354   4.327
 8590SOL    HW226670   6.723   5.461   4.413
 8591SOL     OW26671   1.171   3.799   6.293
 8591SOL    HW126672   1.205   3.819   6.202
 8591SOL    HW226673   1.075   3.828   6.300
 8592SOL     OW26674   6.825   4.159   0.365
 8592SOL    HW126675   6.867   4.104   0.437
 8592SOL    HW226676   6.744   4.205   0.401
 8593SOL     OW26677   1.572   6.781   2.532
 8593SOL    HW126678   1.563   6.879   2.549
 8593SOL    HW226679   1.573   6.731   2.619
 8594SOL     OW26680   3.352   4.066   4.205
 8594SOL    HW126681   3.352   3.971   4.236
 8594SOL    HW226682   3.262   4.106   4.220
 8595SOL     OW26683   2.045   2.062   2.512
 8595SOL    HW126684   2.053   2.149   2.464
 8595SOL    HW226685   1.968   2.067   2.576
 8596SOL     OW26686   5.355   5.020   1.852
 8596SOL    HW126687   5.389   5.039   1.760
 8596SOL    HW226688   5.431   5.021   1.916
 8597SOL     OW26689   3.090   1.769   0.950
 8597SOL    HW126690   3.036   1.792   1.030
 8597SOL    HW226691   3.105   1.670   0.946
 8598SOL     OW26692   6.339   4.824   1.055
 8598SOL    HW126693   6.288   4.762   0.995
 8598SOL    HW226694   6.363   4.777   1.140
 8599SOL     OW26695   0.813   2.842   3.576
 8599SOL    HW126696   0.864   2.843   3.662
 8599SOL    HW226697   0.876   2.821   3.501
 8600SOL     OW26698   6.505   4.750   6.534
 8600SOL    HW126699   6.547   4.759   6.444
 8600SOL    HW226700   6.571   4.710   6.598
 8601SOL     OW26701   0.334   1.390   4.342
 8601SOL    HW126702   0.298   1.297   4.355
 8601SOL    HW226703   0.273   1.441   4.281
 8602SOL     OW26704   2.824   5.880   2.654
 8602SOL    HW126705   2.859   5.962   2.698
 8602SOL    HW226706   2.810   5.809   2.723
 8603SOL     OW26707   3.930   3.692   0.394
 8603SOL    HW126708   3.924   3.778   0.445
 8603SOL    HW226709   3.987   3.627   0.445
 8604SOL     OW26710   5.760   3.031   3.603
 8604SOL    HW126711   5.768   2.939   3.642
 8604SOL    HW226712   5.775   3.099   3.675
 8605SOL     OW26713   3.260   5.458   4.071
 8605SOL    HW126714   3.297   5.439   3.981
 8605SOL    HW226715   3.320   5.522   4.119
 8606SOL     OW26716   3.020   4.617   6.235
 8606SOL    HW126717   3.006   4.612   6.136
 8606SOL    HW226718   2.937   4.586   6.281
 8607SOL     OW26719   3.680   5.389   1.753
 8607SOL    HW126720   3.664   5.470   1.810
 8607SOL    HW226721   3.612   5.319   1.774
 8608SOL     OW26722   4.234   4.705   2.741
 8608SOL    HW126723   4.316   4.674   2.694
 8608SOL    HW226724   4.237   4.804   2.753
 8609SOL     OW26725   3.690   0.300   4.991
 8609SOL    HW126726   3.696   0.279   5.089
 8609SOL    HW226727   3.668   0.397   4.979
 8610SOL     OW26728   1.222   6.916   3.360
 8610SOL    HW126729   1.223   6.835   3.301
 8610SOL    HW226730   1.308   6.922   3.410
 8611SOL     OW26731   1.251   2.232   4.627
 8611SOL    HW126732   1.204   2.187   4.551
 8611SOL    HW226733   1.234   2.331   4.623
 8612SOL     OW26734   3.094   3.211   6.612
 8612SOL    HW126735   3.055   3.194   6.521
 8612SOL    HW226736   3.135   3.127   6.646
 8613SOL     OW26737   1.699   1.684   1.278
 8613SOL    HW126738   1.793   1.708   1.298
 8613SOL    HW226739   1.666   1.736   1.200
 8614SOL     OW26740   0.662   3.756   3.042
 8614SOL    HW126741   0.724   3.688   3.079
 8614SOL    HW226742   0.590   3.711   2.989
 8615SOL     OW26743   4.241   1.863   5.514
 8615SOL    HW126744   4.309   1.853   5.586
 8615SOL    HW226745   4.150   1.842   5.550
 8616SOL     OW26746   0.958   4.856   0.291
 8616SOL    HW126747   0.881   4.851   0.355
 8616SOL    HW226748   1.035   4.803   0.328
 8617SOL     OW26749   6.435   1.929   0.530
 8617SOL    HW126750   6.525   1.892   0.506
 8617SOL    HW226751   6.379   1.856   0.569
 8618SOL     OW26752   4.759   6.621   2.650
 8618SOL    HW126753   4.743   6.718   2.668
 8618SOL    HW226754   4.705   6.592   2.571
 8619SOL     OW26755   4.276   4.955   7.006
 8619SOL    HW126756   4.232   5.030   0.031
 8619SOL    HW226757   4.225   4.870   7.023
 8620SOL     OW26758   5.773   6.533   2.880
 8620SOL    HW126759   5.740   6.438   2.874
 8620SOL    HW226760   5.859   6.542   2.830
 8621SOL     OW26761   6.253   1.115   4.031
 8621SOL    HW126762   6.350   1.090   4.023
 8621SOL    HW226763   6.245   1.210   4.059
 8622SOL     OW26764   4.529   4.772   0.311
 8622SOL    HW126765   4.555   4.684   0.271
 8622SOL    HW226766   4.432   4.788   0.296
 8623SOL     OW26767   0.863   3.916   2.894
 8623SOL    HW126768   0.782   3.879   2.940
 8623SOL    HW226769   0.935   3.847   2.894
 8624SOL     OW26770   1.347   4.203   3.444
 8624SOL    HW126771   1.262   4.174   3.399
 8624SOL    HW226772   1.334   4.200   3.543
 8625SOL     OW26773   4.460   0.830   4.918
 8625SOL    HW126774   4.529   0.842   4.989
 8625SOL    HW226775   4.471   0.740   4.875
 8626SOL     OW26776   3.366   3.673   3.995
 8626SOL    HW126777   3.316   3.669   4.081
 8626SOL    HW226778   3.301   3.671   3.919
 8627SOL     OW26779   1.385   0.939   1.428
 8627SOL    HW126780   1.436   0.868   1.475
 8627SOL    HW226781   1.368   1.015   1.490
 8628SOL     OW26782   6.736   0.689   7.011
 8628SOL    HW126783   6.807   0.674   0.054
 8628SOL    HW226784   6.777   0.717   6.924
 8629SOL     OW26785   1.107   5.278   4.107
 8629SOL    HW126786   1.176   5.317   4.046
 8629SOL    HW226787   1.053   5.211   4.056
 8630SOL     OW26788   5.681   3.560   4.006
 8630SOL    HW126789   5.606   3.550   3.941
 8630SOL    HW226790   5.690   3.657   4.031
 8631SOL     OW26791   4.072   5.509   5.646
 8631SOL    HW126792   4.100   5.549   5.559
 8631SOL    HW226793   4.153   5.491   5.703
 8632SOL     OW26794   3.947   0.104   3.678
 8632SOL    HW126795   3.962   0.104   3.579
 8632SOL    HW226796   3.850   0.116   3.697
 8633SOL     OW26797   5.593   1.066   3.658
 8633SOL    HW126798   5.589   1.084   3.756
 8633SOL    HW226799   5.616   1.150   3.610
 8634SOL     OW26800   6.420   4.084   1.661
 8634SOL    HW126801   6.409   4.098   1.563
 8634SOL    HW226802   6.335   4.050   1.700
 8635SOL     OW26803   6.070   3.729   6.039
 8635SOL    HW126804   6.078   3.791   5.961
 8635SOL    HW226805   5.977   3.693   6.044
 8636SOL     OW26806   5.941   5.417   0.337
 8636SOL    HW126807   5.922   5.484   0.266
 8636SOL    HW226808   6.030   5.437   0.379
 8637SOL     OW26809   1.826   0.831   0.385
 8637SOL    HW126810   1.852   0.735   0.393
 8637SOL    HW226811   1.761   0.854   0.457
 8638SOL     OW26812   1.993   4.354   6.896
 8638SOL    HW126813   1.991   4.302   6.810
 8638SOL    HW226814   2.069   4.320   6.952
 8639SOL     OW26815   5.077   2.939   2.317
 8639SOL    HW126816   5.097   2.947   2.415
 8639SOL    HW226817   5.114   2.853   2.282
 8640SOL     OW26818   4.422   3.903   0.822
 8640SOL    HW126819   4.491   3.831   0.819
 8640SOL    HW226820   4.382   3.908   0.913
 8641SOL     OW26821   0.157   4.147   3.156
 8641SOL    HW126822   0.170   4.050   3.137
 8641SOL    HW226823   0.244   4.196   3.144
 8642SOL     OW26824   5.147   0.488   2.254
 8642SOL    HW126825   5.079   0.484   2.182
 8642SOL    HW226826   5.117   0.432   2.332
 8643SOL     OW26827   4.243   0.348   6.729
 8643SOL    HW126828   4.341   0.333   6.726
 8643SOL    HW226829   4.223   0.444   6.708
 8644SOL     OW26830   5.732   2.312   5.227
 8644SOL    HW126831   5.675   2.325   5.308
 8644SOL    HW226832   5.700   2.371   5.153
 8645SOL     OW26833   6.357   4.193   0.638
 8645SOL    HW126834   6.440   4.209   0.584
 8645SOL    HW226835   6.278   4.189   0.577
 8646SOL     OW26836   4.854   1.185   0.725
 8646SOL    HW126837   4.769   1.156   0.768
 8646SOL    HW226838   4.836   1.260   0.662
 8647SOL     OW26839   3.678   4.926   0.247
 8647SOL    HW126840   3.606   4.938   0.315
 8647SOL    HW226841   3.677   5.003   0.183
 8648SOL     OW26842   5.718   0.615   3.990
 8648SOL    HW126843   5.722   0.674   4.071
 8648SOL    HW226844   5.708   0.672   3.908
 8649SOL     OW26845   6.363   3.755   5.746
 8649SOL    HW126846   6.267   3.771   5.726
 8649SOL    HW226847   6.408   3.713   5.668
 8650SOL     OW26848   1.760   5.006   4.272
 8650SOL    HW126849   1.754   4.941   4.348
 8650SOL    HW226850   1.747   4.957   4.186
 8651SOL     OW26851   3.923   1.274   0.384
 8651SOL    HW126852   3.995   1.324   0.336
 8651SOL    HW226853   3.835   1.293   0.341
 8652SOL     OW26854   1.815   4.051   3.573
 8652SOL    HW126855   1.825   4.138   3.621
 8652SOL    HW226856   1.815   4.067   3.474
 8653SOL     OW26857   6.786   2.183   6.024
 8653SOL    HW126858   6.756   2.090   6.004
 8653SOL    HW226859   6.775   2.202   6.121
 8654SOL     OW26860   6.986   6.302   2.817
 8654SOL    HW126861   0.005   6.384   2.777
 8654SOL    HW226862   6.964   6.238   2.744
 8655SOL     OW26863   6.162   7.001   3.866
 8655SOL    HW126864   6.186   0.030   3.947
 8655SOL    HW226865   6.076   0.012   3.829
 8656SOL     OW26866   6.090   0.923   1.358
 8656SOL    HW126867   6.148   1.002   1.378
 8656SOL    HW226868   6.127   0.873   1.279
 8657SOL     OW26869   4.871   5.138   6.176
 8657SOL    HW126870   4.926   5.100   6.102
 8657SOL    HW226871   4.776   5.147   6.146
 8658SOL     OW26872   5.108   4.869   0.040
 8658SOL    HW126873   5.109   4.778   0.083
 8658SOL    HW226874   5.105   4.939   0.111
 8659SOL     OW26875   4.435   0.567   3.426
 8659SOL    HW126876   4.410   0.632   3.354
 8659SOL    HW226877   4.534   0.556   3.428
 8660SOL     OW26878   6.138   4.104   6.886
 8660SOL    HW126879   6.137   4.151   6.798
 8660SOL    HW226880   6.049   4.113   6.930
 8661SOL     OW26881   5.662   3.808   1.849
 8661SOL    HW126882   5.643   3.727   1.904
 8661SOL    HW226883   5.761   3.822   1.843
 8662SOL     OW26884   5.853   6.635   1.419
 8662SOL    HW126885   5.946   6.616   1.451
 8662SOL    HW226886   5.795   6.556   1.438
 8663SOL     OW26887   2.271   5.357   0.776
 8663SOL    HW126888   2.346   5.420   0.797
 8663SOL    HW226889   2.307   5.263   0.776
 8664SOL     OW26890   4.482   5.283   6.765
 8664SOL    HW126891   4.488   5.292   6.865
 8664SOL    HW226892   4.541   5.351   6.722
 8665SOL     OW26893   4.821   5.550   5.461
 8665SOL    HW126894   4.806   5.648   5.457
 8665SOL    HW226895   4.895   5.524   5.400
 8666SOL     OW26896   4.658   1.858   5.219
 8666SOL    HW126897   4.704   1.841   5.132
 8666SOL    HW226898   4.616   1.949   5.216
 8667SOL     OW26899   5.062   1.597   3.243
 8667SOL    HW126900   4.963   1.583   3.255
 8667SOL    HW226901   5.110   1.561   3.322
 8668SOL     OW26902   5.482   2.302   4.126
 8668SOL    HW126903   5.477   2.384   4.184
 8668SOL    HW226904   5.421   2.232   4.163
 8669SOL     OW26905   3.657   0.550   6.219
 8669SOL    HW126906   3.694   0.534   6.128
 8669SOL    HW226907   3.558   0.536   6.219
 8670SOL     OW26908   3.524   5.372   4.738
 8670SOL    HW126909   3.472   5.414   4.663
 8670SOL    HW226910   3.460   5.341   4.809
 8671SOL     OW26911   5.822   0.273   3.925
 8671SOL    HW126912   5.872   0.358   3.908
 8671SOL    HW226913   5.730   0.294   3.958
 8672SOL     OW26914   2.840   5.471   4.403
 8672SOL    HW126915   2.807   5.382   4.374
 8672SOL    HW226916   2.764   5.536   4.405
 8673SOL     OW26917   0.708   2.095   6.836
 8673SOL    HW126918   0.681   2.000   6.850
 8673SOL    HW226919   0.721   2.140   6.924
 8674SOL     OW26920   0.101   6.612   2.429
 8674SOL    HW126921   0.145   6.540   2.483
 8674SOL    HW226922   0.007   6.624   2.461
 8675SOL     OW26923   2.766   1.873   4.375
 8675SOL    HW126924   2.752   1.882   4.276
 8675SOL    HW226925   2.864   1.875   4.395
 8676SOL     OW26926   3.034   0.774   2.958
 8676SOL    HW126927   3.020   0.709   2.883
 8676SOL    HW226928   2.976   0.748   3.035
 8677SOL     OW26929   2.446   5.947   6.363
 8677SOL    HW126930   2.491   5.861   6.386
 8677SOL    HW226931   2.349   5.943   6.385
 8678SOL     OW26932   0.841   0.434   0.228
 8678SOL    HW126933   0.873   0.378   0.152
 8678SOL    HW226934   0.874   0.396   0.315
 8679SOL     OW26935   5.613   1.894   4.592
 8679SOL    HW126936   5.659   1.817   4.636
 8679SOL    HW226937   5.631   1.977   4.644
 8680SOL     OW26938   1.704   3.856   1.126
 8680SOL    HW126939   1.728   3.903   1.040
 8680SOL    HW226940   1.748   3.903   1.203
 8681SOL     OW26941   4.949   4.605   6.950
 8681SOL    HW126942   4.926   4.509   6.931
 8681SOL    HW226943   4.883   4.642   7.015
 8682SOL     OW26944   3.277   6.618   3.203
 8682SOL    HW126945   3.294   6.644   3.298
 8682SOL    HW226946   3.332   6.538   3.180
 8683SOL     OW26947   1.404   3.006   1.521
 8683SOL    HW126948   1.345   3.024   1.599
 8683SOL    HW226949   1.477   3.074   1.518
 8684SOL     OW26950   6.746   2.673   4.855
 8684SOL    HW126951   6.766   2.590   4.907
 8684SOL    HW226952   6.766   2.657   4.758
 8685SOL     OW26953   1.549   2.243   5.919
 8685SOL    HW126954   1.539   2.333   5.876
 8685SOL    HW226955   1.497   2.240   6.004
 8686SOL     OW26956   6.788   2.286   2.189
 8686SOL    HW126957   6.803   2.299   2.287
 8686SOL    HW226958   6.751   2.195   2.172
 8687SOL     OW26959   3.650   6.394   2.770
 8687SOL    HW126960   3.746   6.366   2.777
 8687SOL    HW226961   3.591   6.314   2.780
 8688SOL     OW26962   2.514   6.567   0.968
 8688SOL    HW126963   2.537   6.553   0.871
 8688SOL    HW226964   2.436   6.509   0.991
 8689SOL     OW26965   3.951   5.724   0.014
 8689SOL    HW126966   3.914   5.636   7.010
 8689SOL    HW226967   4.006   5.712   0.097
 8690SOL     OW26968   1.289   1.946   4.231
 8690SOL    HW126969   1.318   2.016   4.165
 8690SOL    HW226970   1.213   1.893   4.193
 8691SOL     OW26971   4.458   2.703   6.423
 8691SOL    HW126972   4.486   2.789   6.465
 8691SOL    HW226973   4.378   2.667   6.470
 8692SOL     OW26974   3.196   2.077   3.282
 8692SOL    HW126975   3.265   2.086   3.210
 8692SOL    HW226976   3.108   2.110   3.247
 8693SOL     OW26977   5.284   2.112   1.060
 8693SOL    HW126978   5.280   2.209   1.083
 8693SOL    HW226979   5.363   2.070   1.104
 8694SOL     OW26980   4.959   0.573   6.518
 8694SOL    HW126981   5.002   0.497   6.469
 8694SOL    HW226982   4.930   0.541   6.609
 8695SOL     OW26983   4.616   2.872   6.141
 8695SOL    HW126984   4.522   2.857   6.173
 8695SOL    HW226985   4.678   2.875   6.219
 8696SOL     OW26986   3.590   5.658   1.047
 8696SOL    HW126987   3.687   5.679   1.058
 8696SOL    HW226988   3.561   5.683   0.955
 8697SOL     OW26989   6.440   3.662   0.068
 8697SOL    HW126990   6.360   3.603   0.077
 8697SOL    HW226991   6.520   3.608   0.043
 8698SOL     OW26992   5.245   5.638   4.132
 8698SOL    HW126993   5.311   5.680   4.070
 8698SOL    HW226994   5.174   5.593   4.079
 8699SOL     OW26995   1.191   2.612   5.430
 8699SOL    HW126996   1.163   2.688   5.371
 8699SOL    HW226997   1.191   2.527   5.377
 8700SOL     OW26998   2.195   0.632   4.746
 8700SOL    HW126999   2.273   0.659   4.802
 8700SOL    HW227000   2.146   0.558   4.790
 8701SOL     OW27001   0.609   1.091   5.868
 8701SOL    HW127002   0.677   1.148   5.914
 8701SOL    HW227003   0.540   1.061   5.934
 8702SOL     OW27004   5.283   4.230   6.974
 8702SOL    HW127005   5.242   4.308   6.926
 8702SOL    HW227006   5.334   4.263   0.029
 8703SOL     OW27007   3.209   5.717   1.540
 8703SOL    HW127008   3.152   5.679   1.613
 8703SOL    HW227009   3.174   5.806   1.512
 8704SOL     OW27010   6.325   3.917   2.424
 8704SOL    HW127011   6.284   3.864   2.349
 8704SOL    HW227012   6.309   3.870   2.511
 8705SOL     OW27013   4.721   0.503   6.673
 8705SOL    HW127014   4.663   0.578   6.704
 8705SOL    HW227015   4.693   0.475   6.582
 8706SOL     OW27016   4.866   2.005   6.644
 8706SOL    HW127017   4.855   2.089   6.591
 8706SOL    HW227018   4.791   1.997   6.709
 8707SOL     OW27019   4.318   2.865   0.082
 8707SOL    HW127020   4.271   2.854   0.170
 8707SOL    HW227021   4.320   2.778   0.033
 8708SOL     OW27022   3.630   0.813   2.377
 8708SOL    HW127023   3.576   0.818   2.293
 8708SOL    HW227024   3.569   0.805   2.456
 8709SOL     OW27025   6.834   4.650   6.938
 8709SOL    HW127026   6.830   4.702   7.023
 8709SOL    HW227027   6.928   4.650   6.904
 8710SOL     OW27028   1.557   2.861   3.014
 8710SOL    HW127029   1.462   2.875   2.985
 8710SOL    HW227030   1.619   2.897   2.944
 8711SOL     OW27031   0.403   6.776   2.747
 8711SOL    HW127032   0.478   6.803   2.808
 8711SOL    HW227033   0.348   6.857   2.724
 8712SOL     OW27034   3.421   2.050   3.460
 8712SOL    HW127035   3.444   1.952   3.465
 8712SOL    HW227036   3.344   2.062   3.397
 8713SOL     OW27037   0.053   3.980   3.603
 8713SOL    HW127038   0.040   3.928   3.519
 8713SOL    HW227039   0.038   4.077   3.585
 8714SOL     OW27040   0.887   0.756   5.766
 8714SOL    HW127041   0.979   0.784   5.740
 8714SOL    HW227042   0.863   0.797   5.854
 8715SOL     OW27043   5.874   0.782   1.025
 8715SOL    HW127044   5.808   0.733   1.083
 8715SOL    HW227045   5.866   0.880   1.041
 8716SOL     OW27046   0.906   1.660   1.181
 8716SOL    HW127047   0.880   1.586   1.119
 8716SOL    HW227048   0.979   1.629   1.241
 8717SOL     OW27049   4.053   3.652   2.323
 8717SOL    HW127050   4.007   3.737   2.347
 8717SOL    HW227051   4.122   3.630   2.392
 8718SOL     OW27052   0.390   2.806   5.034
 8718SOL    HW127053   0.427   2.727   5.082
 8718SOL    HW227054   0.295   2.820   5.061
 8719SOL     OW27055   1.508   0.943   5.389
 8719SOL    HW127056   1.414   0.916   5.368
 8719SOL    HW227057   1.559   0.951   5.303
 8720SOL     OW27058   6.508   4.760   5.070
 8720SOL    HW127059   6.443   4.685   5.085
 8720SOL    HW227060   6.552   4.748   4.981
 8721SOL     OW27061   6.237   2.460   4.429
 8721SOL    HW127062   6.212   2.391   4.497
 8721SOL    HW227063   6.249   2.417   4.340
 8722SOL     OW27064   3.538   1.016   0.762
 8722SOL    HW127065   3.525   1.070   0.845
 8722SOL    HW227066   3.452   0.971   0.737
 8723SOL     OW27067   5.991   5.632   1.182
 8723SOL    HW127068   5.917   5.609   1.245
 8723SOL    HW227069   5.957   5.696   1.113
 8724SOL     OW27070   6.146   0.205   5.553
 8724SOL    HW127071   6.194   0.293   5.564
 8724SOL    HW227072   6.059   0.221   5.506
 8725SOL     OW27073   1.753   0.802   6.838
 8725SOL    HW127074   1.849   0.781   6.815
 8725SOL    HW227075   1.707   0.718   6.866
 8726SOL     OW27076   5.852   0.231   1.384
 8726SOL    HW127077   5.808   0.147   1.354
 8726SOL    HW227078   5.950   0.226   1.366
 8727SOL     OW27079   6.462   6.255   2.139
 8727SOL    HW127080   6.450   6.353   2.123
 8727SOL    HW227081   6.392   6.224   2.204
 8728SOL     OW27082   3.457   0.301   5.214
 8728SOL    HW127083   3.416   0.381   5.170
 8728SOL    HW227084   3.556   0.309   5.212
 8729SOL     OW27085   4.409   5.334   2.770
 8729SOL    HW127086   4.393   5.261   2.704
 8729SOL    HW227087   4.337   5.333   2.839
 8730SOL     OW27088   0.268   5.466   2.600
 8730SOL    HW127089   0.231   5.428   2.515
 8730SOL    HW227090   0.366   5.445   2.606
 8731SOL     OW27091   1.812   2.068   3.416
 8731SOL    HW127092   1.769   1.978   3.404
 8731SOL    HW227093   1.743   2.140   3.408
 8732SOL     OW27094   5.276   4.355   1.675
 8732SOL    HW127095   5.210   4.390   1.608
 8732SOL    HW227096   5.274   4.413   1.756
 8733SOL     OW27097   1.077   6.001   2.980
 8733SOL    HW127098   1.093   5.908   2.945
 8733SOL    HW227099   0.981   6.012   3.002
 8734SOL     OW27100   1.026   5.014   1.712
 8734SOL    HW127101   1.039   5.055   1.803
 8734SOL    HW227102   1.109   5.026   1.658
 8735SOL     OW27103   1.016   1.890   6.506
 8735SOL    HW127104   1.043   1.912   6.600
 8735SOL    HW227105   0.920   1.916   6.491
 8736SOL     OW27106   0.792   6.673   0.130
 8736SOL    HW127107   0.794   6.737   0.206
 8736SOL    HW227108   0.763   6.720   0.046
 8737SOL     OW27109   4.187   6.580   6.109
 8737SOL    HW127110   4.190   6.649   6.037
 8737SOL    HW227111   4.109   6.519   6.095
 8738SOL     OW27112   1.369   3.679   4.800
 8738SOL    HW127113   1.388   3.635   4.888
 8738SOL    HW227114   1.299   3.626   4.751
 8739SOL     OW27115   7.003   4.293   6.128
 8739SOL    HW127116   6.914   4.270   6.090
 8739SOL    HW227117   0.026   4.209   6.155
 8740SOL     OW27118   3.917   0.804   5.668
 8740SOL    HW127119   3.851   0.808   5.744
 8740SOL    HW227120   3.870   0.781   5.584
 8741SOL     OW27121   1.767   1.897   1.831
 8741SOL    HW127122   1.669   1.916   1.822
 8741SOL    HW227123   1.804   1.868   1.743
 8742SOL     OW27124   4.834   5.873   1.472
 8742SOL    HW127125   4.758   5.938   1.470
 8742SOL    HW227126   4.812   5.796   1.411
 8743SOL     OW27127   1.938   5.696   2.475
 8743SOL    HW127128   1.908   5.627   2.541
 8743SOL    HW227129   1.873   5.700   2.399
 8744SOL     OW27130   4.124   2.636   6.245
 8744SOL    HW127131   4.181   2.718   6.241
 8744SOL    HW227132   4.109   2.610   6.340
 8745SOL     OW27133   5.848   1.869   5.312
 8745SOL    HW127134   5.941   1.846   5.285
 8745SOL    HW227135   5.824   1.820   5.395
 8746SOL     OW27136   4.119   4.426   5.658
 8746SOL    HW127137   4.176   4.387   5.586
 8746SOL    HW227138   4.034   4.462   5.618
 8747SOL     OW27139   1.040   2.808   3.447
 8747SOL    HW127140   1.017   2.819   3.351
 8747SOL    HW227141   1.135   2.778   3.456
 8748SOL     OW27142   0.591   0.549   0.175
 8748SOL    HW127143   0.681   0.506   0.183
 8748SOL    HW227144   0.531   0.490   0.122
 8749SOL     OW27145   2.974   0.693   4.335
 8749SOL    HW127146   3.052   0.630   4.331
 8749SOL    HW227147   2.934   0.702   4.243
 8750SOL     OW27148   2.327   2.585   5.304
 8750SOL    HW127149   2.391   2.655   5.273
 8750SOL    HW227150   2.254   2.574   5.238
 8751SOL     OW27151   0.087   0.399   1.817
 8751SOL    HW127152   0.106   0.381   1.720
 8751SOL    HW227153   7.016   0.427   1.828
 8752SOL     OW27154   2.430   4.510   0.020
 8752SOL    HW127155   2.527   4.518   7.018
 8752SOL    HW227156   2.415   4.421   0.064
 8753SOL     OW27157   4.867   1.407   4.564
 8753SOL    HW127158   4.919   1.488   4.537
 8753SOL    HW227159   4.849   1.411   4.663
 8754SOL     OW27160   0.487   2.017   5.837
 8754SOL    HW127161   0.525   1.940   5.888
 8754SOL    HW227162   0.427   2.071   5.896
 8755SOL     OW27163   2.718   1.415   6.723
 8755SOL    HW127164   2.704   1.512   6.704
 8755SOL    HW227165   2.669   1.359   6.655
 8756SOL     OW27166   2.148   3.082   3.722
 8756SOL    HW127167   2.161   2.999   3.667
 8756SOL    HW227168   2.149   3.058   3.819
 8757SOL     OW27169   5.535   6.372   5.752
 8757SOL    HW127170   5.570   6.364   5.846
 8757SOL    HW227171   5.435   6.369   5.754
 8758SOL     OW27172   5.518   6.364   2.002
 8758SOL    HW127173   5.455   6.354   1.925
 8758SOL    HW227174   5.497   6.295   2.071
 8759SOL     OW27175   4.566   1.152   6.152
 8759SOL    HW127176   4.642   1.089   6.168
 8759SOL    HW227177   4.526   1.134   6.062
 8760SOL     OW27178   1.873   1.730   4.352
 8760SOL    HW127179   1.910   1.644   4.388
 8760SOL    HW227180   1.948   1.793   4.333
 8761SOL     OW27181   5.238   0.563   0.513
 8761SOL    HW127182   5.149   0.545   0.555
 8761SOL    HW227183   5.300   0.487   0.533
 8762SOL     OW27184   1.474   3.493   2.736
 8762SOL    HW127185   1.507   3.402   2.713
 8762SOL    HW227186   1.384   3.508   2.694
 8763SOL     OW27187   6.533   6.078   5.282
 8763SOL    HW127188   6.458   6.063   5.218
 8763SOL    HW227189   6.616   6.035   5.247
 8764SOL     OW27190   5.473   2.028   3.729
 8764SOL    HW127191   5.386   1.979   3.740
 8764SOL    HW227192   5.469   2.114   3.780
 8765SOL     OW27193   5.564   6.771   4.816
 8765SOL    HW127194   5.482   6.819   4.785
 8765SOL    HW227195   5.632   6.772   4.743
 8766SOL     OW27196   2.995   4.823   3.744
 8766SOL    HW127197   2.943   4.785   3.820
 8766SOL    HW227198   2.982   4.923   3.741
 8767SOL     OW27199   4.761   0.853   2.677
 8767SOL    HW127200   4.796   0.769   2.635
 8767SOL    HW227201   4.770   0.847   2.776
 8768SOL     OW27202   2.164   3.183   0.302
 8768SOL    HW127203   2.068   3.163   0.323
 8768SOL    HW227204   2.170   3.263   0.244
 8769SOL     OW27205   0.252   0.002   5.195
 8769SOL    HW127206   0.241   0.039   5.103
 8769SOL    HW227207   0.285   0.075   5.256
 8770SOL     OW27208   4.751   4.113   1.938
 8770SOL    HW127209   4.671   4.169   1.962
 8770SOL    HW227210   4.763   4.041   2.007
 8771SOL     OW27211   1.871   1.760   6.806
 8771SOL    HW127212   1.783   1.715   6.824
 8771SOL    HW227213   1.864   1.816   6.724
 8772SOL     OW27214   6.552   1.204   6.658
 8772SOL    HW127215   6.461   1.213   6.700
 8772SOL    HW227216   6.610   1.150   6.719
 8773SOL     OW27217   3.992   1.914   3.460
 8773SOL    HW127218   4.026   1.831   3.503
 8773SOL    HW227219   3.926   1.891   3.388
 8774SOL     OW27220   1.266   1.521   0.795
 8774SOL    HW127221   1.299   1.597   0.740
 8774SOL    HW227222   1.333   1.500   0.867
 8775SOL     OW27223   5.620   6.861   3.422
 8775SOL    HW127224   5.569   6.783   3.387
 8775SOL    HW227225   5.559   6.921   3.472
 8776SOL     OW27226   3.457   3.291   4.815
 8776SOL    HW127227   3.418   3.272   4.905
 8776SOL    HW227228   3.485   3.386   4.810
 8777SOL     OW27229   6.592   4.720   1.528
 8777SOL    HW127230   6.556   4.632   1.494
 8777SOL    HW227231   6.588   4.722   1.627
 8778SOL     OW27232   0.261   2.010   3.428
 8778SOL    HW127233   0.212   1.930   3.395
 8778SOL    HW227234   0.308   2.055   3.352
 8779SOL     OW27235   1.740   4.168   2.112
 8779SOL    HW127236   1.780   4.223   2.039
 8779SOL    HW227237   1.689   4.227   2.175
 8780SOL     OW27238   1.649   5.993   4.086
 8780SOL    HW127239   1.554   5.963   4.096
 8780SOL    HW227240   1.709   5.926   4.129
 8781SOL     OW27241   0.475   1.344   3.215
 8781SOL    HW127242   0.414   1.419   3.240
 8781SOL    HW227243   0.568   1.366   3.243
 8782SOL     OW27244   5.107   1.232   2.573
 8782SOL    HW127245   5.016   1.231   2.533
 8782SOL    HW227246   5.163   1.162   2.528
 8783SOL     OW27247   6.157   3.883   3.734
 8783SOL    HW127248   6.060   3.877   3.760
 8783SOL    HW227249   6.183   3.979   3.722
 8784SOL     OW27250   5.373   4.905   5.399
 8784SOL    HW127251   5.304   4.934   5.332
 8784SOL    HW227252   5.387   4.806   5.390
 8785SOL     OW27253   5.548   3.945   6.658
 8785SOL    HW127254   5.530   4.030   6.707
 8785SOL    HW227255   5.501   3.946   6.570
 8786SOL     OW27256   1.543   6.428   6.682
 8786SOL    HW127257   1.451   6.436   6.643
 8786SOL    HW227258   1.581   6.338   6.659
 8787SOL     OW27259   1.688   3.311   2.054
 8787SOL    HW127260   1.744   3.228   2.050
 8787SOL    HW227261   1.747   3.392   2.054
 8788SOL     OW27262   6.781   1.982   5.126
 8788SOL    HW127263   6.775   1.884   5.148
 8788SOL    HW227264   6.767   1.995   5.028
 8789SOL     OW27265   6.961   0.517   6.384
 8789SOL    HW127266   6.960   0.424   6.422
 8789SOL    HW227267   6.867   0.545   6.364
 8790SOL     OW27268   6.842   1.768   6.844
 8790SOL    HW127269   6.942   1.756   6.849
 8790SOL    HW227270   6.798   1.697   6.898
 8791SOL     OW27271   5.315   0.062   5.618
 8791SOL    HW127272   5.362   0.052   5.531
 8791SOL    HW227273   5.375   0.109   5.683
 8792SOL     OW27274   4.384   0.005   3.601
 8792SOL    HW127275   4.367   0.035   3.507
 8792SOL    HW227276   4.383   0.084   3.662
 8793SOL     OW27277   2.516   5.977   4.099
 8793SOL    HW127278   2.590   5.918   4.066
 8793SOL    HW227279   2.468   5.932   4.175
 8794SOL     OW27280   3.068   6.950   2.894
 8794SOL    HW127281   3.079   6.906   2.805
 8794SOL    HW227282   3.150   7.004   2.915
 8795SOL     OW27283   1.600   6.553   5.397
 8795SOL    HW127284   1.654   6.474   5.426
 8795SOL    HW227285   1.504   6.539   5.423
 8796SOL     OW27286   4.098   1.565   5.617
 8796SOL    HW127287   4.092   1.648   5.672
 8796SOL    HW227288   4.152   1.584   5.535
 8797SOL     OW27289   1.749   6.719   5.998
 8797SOL    HW127290   1.756   6.669   5.912
 8797SOL    HW227291   1.747   6.654   6.074
 8798SOL     OW27292   5.719   3.544   5.213
 8798SOL    HW127293   5.655   3.467   5.211
 8798SOL    HW227294   5.696   3.608   5.140
 8799SOL     OW27295   2.481   4.484   3.356
 8799SOL    HW127296   2.436   4.508   3.270
 8799SOL    HW227297   2.553   4.550   3.376
 8800SOL     OW27298   4.260   3.977   5.649
 8800SOL    HW127299   4.189   3.985   5.580
 8800SOL    HW227300   4.266   3.883   5.681
 8801SOL     OW27301   2.175   1.320   4.328
 8801SOL    HW127302   2.234   1.299   4.406
 8801SOL    HW227303   2.214   1.281   4.245
 8802SOL     OW27304   1.515   6.628   2.322
 8802SOL    HW127305   1.485   6.680   2.242
 8802SOL    HW227306   1.544   6.691   2.394
 8803SOL     OW27307   2.222   5.303   6.504
 8803SOL    HW127308   2.172   5.306   6.417
 8803SOL    HW227309   2.283   5.382   6.510
 8804SOL     OW27310   3.944   0.805   1.730
 8804SOL    HW127311   3.957   0.712   1.696
 8804SOL    HW227312   4.026   0.834   1.779
 8805SOL     OW27313   1.215   0.189   3.370
 8805SOL    HW127314   1.258   0.098   3.379
 8805SOL    HW227315   1.268   0.255   3.424
 8806SOL     OW27316   1.341   5.413   0.577
 8806SOL    HW127317   1.308   5.487   0.518
 8806SOL    HW227318   1.433   5.387   0.550
 8807SOL     OW27319   6.362   6.044   6.020
 8807SOL    HW127320   6.265   6.021   6.028
 8807SOL    HW227321   6.410   5.969   5.974
 8808SOL     OW27322   5.437   1.298   0.743
 8808SOL    HW127323   5.439   1.230   0.670
 8808SOL    HW227324   5.344   1.309   0.777
 8809SOL     OW27325   5.377   3.415   1.578
 8809SOL    HW127326   5.343   3.486   1.516
 8809SOL    HW227327   5.329   3.329   1.560
 8810SOL     OW27328   5.522   1.617   4.187
 8810SOL    HW127329   5.599   1.629   4.249
 8810SOL    HW227330   5.486   1.706   4.159
 8811SOL     OW27331   2.260   1.713   4.007
 8811SOL    HW127332   2.338   1.775   4.014
 8811SOL    HW227333   2.270   1.639   4.074
 8812SOL     OW27334   0.768   0.807   0.570
 8812SOL    HW127335   0.713   0.766   0.498
 8812SOL    HW227336   0.826   0.878   0.531
 8813SOL     OW27337   0.750   5.836   1.186
 8813SOL    HW127338   0.813   5.761   1.167
 8813SOL    HW227339   0.657   5.807   1.166
 8814SOL     OW27340   0.307   0.684   6.382
 8814SOL    HW127341   0.380   0.634   6.428
 8814SOL    HW227342   0.226   0.687   6.442
 8815SOL     OW27343   6.908   5.435   1.538
 8815SOL    HW127344   6.849   5.510   1.508
 8815SOL    HW227345   6.968   5.408   1.463
 8816SOL     OW27346   1.218   6.294   0.889
 8816SOL    HW127347   1.204   6.268   0.793
 8816SOL    HW227348   1.278   6.373   0.894
 8817SOL     OW27349   1.143   6.263   5.143
 8817SOL    HW127350   1.177   6.356   5.127
 8817SOL    HW227351   1.192   6.222   5.219
 8818SOL     OW27352   0.176   3.973   3.846
 8818SOL    HW127353   0.144   3.974   3.751
 8818SOL    HW227354   0.144   4.055   3.893
 8819SOL     OW27355   4.356   6.352   4.395
 8819SOL    HW127356   4.408   6.270   4.420
 8819SOL    HW227357   4.420   6.428   4.381
 8820SOL     OW27358   1.605   2.775   4.662
 8820SOL    HW127359   1.574   2.869   4.677
 8820SOL    HW227360   1.578   2.718   4.740
 8821SOL     OW27361   1.991   0.256   6.210
 8821SOL    HW127362   2.061   0.212   6.266
 8821SOL    HW227363   1.981   0.351   6.239
 8822SOL     OW27364   0.688   0.347   2.923
 8822SOL    HW127365   0.609   0.316   2.871
 8822SOL    HW227366   0.657   0.396   3.004
 8823SOL     OW27367   2.093   0.062   0.664
 8823SOL    HW127368   2.132   0.153   0.648
 8823SOL    HW227369   1.999   0.071   0.697
 8824SOL     OW27370   2.653   3.945   1.006
 8824SOL    HW127371   2.669   3.981   0.913
 8824SOL    HW227372   2.557   3.917   1.014
 8825SOL     OW27373   1.928   1.010   2.012
 8825SOL    HW127374   2.023   0.981   2.024
 8825SOL    HW227375   1.867   0.948   2.062
 8826SOL     OW27376   5.895   2.293   0.388
 8826SOL    HW127377   5.948   2.214   0.417
 8826SOL    HW227378   5.799   2.279   0.412
 8827SOL     OW27379   2.653   1.498   3.406
 8827SOL    HW127380   2.720   1.564   3.438
 8827SOL    HW227381   2.647   1.501   3.307
 8828SOL     OW27382   3.331   5.950   3.957
 8828SOL    HW127383   3.399   5.976   3.888
 8828SOL    HW227384   3.298   6.032   4.004
 8829SOL     OW27385   0.267   3.049   6.834
 8829SOL    HW127386   0.294   3.049   6.737
 8829SOL    HW227387   0.252   3.143   6.864
 8830SOL     OW27388   0.383   1.268   0.119
 8830SOL    HW127389   0.451   1.222   0.062
 8830SOL    HW227390   0.326   1.200   0.164
 8831SOL     OW27391   5.820   0.755   2.978
 8831SOL    HW127392   5.842   0.717   3.068
 8831SOL    HW227393   5.753   0.695   2.933
 8832SOL     OW27394   0.605   6.847   2.221
 8832SOL    HW127395   0.639   6.753   2.218
 8832SOL    HW227396   0.545   6.858   2.300
 8833SOL     OW27397   2.329   5.844   4.565
 8833SOL    HW127398   2.429   5.836   4.565
 8833SOL    HW227399   2.289   5.752   4.571
 8834SOL     OW27400   5.842   3.376   4.620
 8834SOL    HW127401   5.868   3.333   4.707
 8834SOL    HW227402   5.783   3.314   4.569
 8835SOL     OW27403   6.632   7.008   5.563
 8835SOL    HW127404   6.718   0.001   5.611
 8835SOL    HW227405   6.559   0.038   5.604
 8836SOL     OW27406   3.942   0.794   0.563
 8836SOL    HW127407   3.873   0.754   0.623
 8836SOL    HW227408   4.003   0.721   0.529
 8837SOL     OW27409   0.759   0.828   1.763
 8837SOL    HW127410   0.771   0.907   1.823
 8837SOL    HW227411   0.736   0.748   1.817
 8838SOL     OW27412   2.559   4.936   3.375
 8838SOL    HW127413   2.550   4.957   3.278
 8838SOL    HW227414   2.580   5.019   3.426
 8839SOL     OW27415   6.325   6.081   3.416
 8839SOL    HW127416   6.246   6.098   3.357
 8839SOL    HW227417   6.296   6.081   3.511
 8840SOL     OW27418   5.714   2.078   2.164
 8840SOL    HW127419   5.658   2.012   2.114
 8840SOL    HW227420   5.807   2.041   2.174
 8841SOL     OW27421   1.017   1.794   5.456
 8841SOL    HW127422   0.986   1.872   5.402
 8841SOL    HW227423   0.937   1.743   5.490
 8842SOL     OW27424   2.857   2.653   1.265
 8842SOL    HW127425   2.938   2.712   1.258
 8842SOL    HW227426   2.880   2.572   1.318
 8843SOL     OW27427   1.372   3.227   5.086
 8843SOL    HW127428   1.398   3.300   5.149
 8843SOL    HW227429   1.428   3.233   5.004
 8844SOL     OW27430   5.625   1.257   6.226
 8844SOL    HW127431   5.562   1.254   6.149
 8844SOL    HW227432   5.582   1.213   6.305
 8845SOL     OW27433   4.460   3.969   6.995
 8845SOL    HW127434   4.396   3.929   6.930
 8845SOL    HW227435   4.410   4.023   0.039
 8846SOL     OW27436   1.870   5.061   3.873
 8846SOL    HW127437   1.936   5.033   3.804
 8846SOL    HW227438   1.900   5.148   3.913
 8847SOL     OW27439   2.622   0.649   3.173
 8847SOL    HW127440   2.533   0.657   3.128
 8847SOL    HW227441   2.609   0.637   3.271
 8848SOL     OW27442   2.265   0.807   1.777
 8848SOL    HW127443   2.348   0.850   1.742
 8848SOL    HW227444   2.185   0.856   1.744
 8849SOL     OW27445   1.338   6.110   2.425
 8849SOL    HW127446   1.304   6.018   2.403
 8849SOL    HW227447   1.396   6.142   2.350
 8850SOL     OW27448   2.927   1.992   6.673
 8850SOL    HW127449   2.913   1.986   6.772
 8850SOL    HW227450   2.845   2.031   6.630
 8851SOL     OW27451   1.813   4.765   2.376
 8851SOL    HW127452   1.724   4.796   2.410
 8851SOL    HW227453   1.833   4.675   2.415
 8852SOL     OW27454   1.515   1.712   5.362
 8852SOL    HW127455   1.431   1.663   5.341
 8852SOL    HW227456   1.494   1.792   5.418
 8853SOL     OW27457   3.186   0.624   1.545
 8853SOL    HW127458   3.170   0.604   1.641
 8853SOL    HW227459   3.113   0.682   1.510
 8854SOL     OW27460   1.662   2.975   4.946
 8854SOL    HW127461   1.624   3.000   4.857
 8854SOL    HW227462   1.760   2.959   4.937
 8855SOL     OW27463   6.143   5.334   1.669
 8855SOL    HW127464   6.077   5.401   1.634
 8855SOL    HW227465   6.134   5.248   1.618
 8856SOL     OW27466   0.004   5.538   6.091
 8856SOL    HW127467   6.934   5.572   6.085
 8856SOL    HW227468   0.033   5.537   6.187
 8857SOL     OW27469   6.375   1.387   5.089
 8857SOL    HW127470   6.435   1.389   5.009
 8857SOL    HW227471   6.318   1.469   5.090
 8858SOL     OW27472   6.132   5.039   5.656
 8858SOL    HW127473   6.212   5.070   5.707
 8858SOL    HW227474   6.100   4.952   5.694
 8859SOL     OW27475   0.769   0.874   3.694
 8859SOL    HW127476   0.722   0.864   3.782
 8859SOL    HW227477   0.724   0.945   3.640
 8860SOL     OW27478   6.880   2.405   1.344
 8860SOL    HW127479   6.917   2.498   1.348
 8860SOL    HW227480   6.924   2.349   1.414
 8861SOL     OW27481   4.415   1.501   1.388
 8861SOL    HW127482   4.487   1.438   1.358
 8861SOL    HW227483   4.387   1.558   1.311
 8862SOL     OW27484   4.640   5.582   5.233
 8862SOL    HW127485   4.605   5.521   5.305
 8862SOL    HW227486   4.733   5.556   5.209
 8863SOL     OW27487   2.190   4.545   3.436
 8863SOL    HW127488   2.267   4.551   3.372
 8863SOL    HW227489   2.195   4.621   3.500
 8864SOL     OW27490   4.985   2.769   6.616
 8864SOL    HW127491   4.901   2.724   6.585
 8864SOL    HW227492   4.962   2.836   6.687
 8865SOL     OW27493   2.942   1.572   6.369
 8865SOL    HW127494   2.843   1.583   6.364
 8865SOL    HW227495   2.970   1.557   6.464
 8866SOL     OW27496   5.848   6.216   2.384
 8866SOL    HW127497   5.860   6.126   2.341
 8866SOL    HW227498   5.930   6.241   2.434
 8867SOL     OW27499   6.449   3.388   2.429
 8867SOL    HW127500   6.366   3.413   2.380
 8867SOL    HW227501   6.524   3.448   2.401
 8868SOL     OW27502   0.102   3.590   3.012
 8868SOL    HW127503   0.196   3.624   3.016
 8868SOL    HW227504   0.058   3.625   2.929
 8869SOL     OW27505   3.576   5.818   4.084
 8869SOL    HW127506   3.539   5.734   4.124
 8869SOL    HW227507   3.500   5.877   4.054
 8870SOL     OW27508   1.926   6.974   1.667
 8870SOL    HW127509   1.884   0.041   1.674
 8870SOL    HW227510   1.995   6.975   1.596
 8871SOL     OW27511   1.317   0.609   2.799
 8871SOL    HW127512   1.335   0.573   2.890
 8871SOL    HW227513   1.268   0.696   2.807
 8872SOL     OW27514   0.506   4.548   5.893
 8872SOL    HW127515   0.544   4.465   5.933
 8872SOL    HW227516   0.528   4.627   5.951
 8873SOL     OW27517   1.649   0.197   1.921
 8873SOL    HW127518   1.646   0.203   1.821
 8873SOL    HW227519   1.665   0.102   1.948
 8874SOL     OW27520   1.850   5.272   0.622
 8874SOL    HW127521   1.898   5.327   0.691
 8874SOL    HW227522   1.916   5.238   0.555
 8875SOL     OW27523   0.072   2.938   3.417
 8875SOL    HW127524   0.089   2.856   3.471
 8875SOL    HW227525   0.130   3.012   3.450
 8876SOL     OW27526   3.461   0.361   5.868
 8876SOL    HW127527   3.386   0.419   5.837
 8876SOL    HW227528   3.433   0.313   5.952
 8877SOL     OW27529   1.447   3.917   1.179
 8877SOL    HW127530   1.545   3.903   1.162
 8877SOL    HW227531   1.412   3.842   1.235
 8878SOL     OW27532   3.938   4.828   0.841
 8878SOL    HW127533   3.893   4.752   0.795
 8878SOL    HW227534   3.881   4.910   0.832
 8879SOL     OW27535   6.558   4.592   2.785
 8879SOL    HW127536   6.612   4.657   2.838
 8879SOL    HW227537   6.498   4.540   2.846
 8880SOL     OW27538   4.905   6.623   3.436
 8880SOL    HW127539   4.973   6.629   3.509
 8880SOL    HW227540   4.845   6.703   3.440
 8881SOL     OW27541   3.955   5.139   3.796
 8881SOL    HW127542   3.890   5.167   3.866
 8881SOL    HW227543   4.040   5.109   3.840
 8882SOL     OW27544   3.682   0.776   0.721
 8882SOL    HW127545   3.658   0.866   0.759
 8882SOL    HW227546   3.625   0.757   0.642
 8883SOL     OW27547   6.992   6.818   5.334
 8883SOL    HW127548   6.995   6.914   5.362
 8883SOL    HW227549   6.918   6.771   5.382
 8884SOL     OW27550   5.585   3.673   4.556
 8884SOL    HW127551   5.565   3.606   4.627
 8884SOL    HW227552   5.592   3.627   4.468
 8885SOL     OW27553   5.653   5.421   0.409
 8885SOL    HW127554   5.603   5.355   0.465
 8885SOL    HW227555   5.751   5.402   0.415
 8886SOL     OW27556   2.871   5.634   0.014
 8886SOL    HW127557   2.829   5.604   6.952
 8886SOL    HW227558   2.800   5.658   0.080
 8887SOL     OW27559   4.606   1.087   0.850
 8887SOL    HW127560   4.581   1.165   0.907
 8887SOL    HW227561   4.529   1.022   0.848
 8888SOL     OW27562   1.780   1.699   3.675
 8888SOL    HW127563   1.738   1.652   3.598
 8888SOL    HW227564   1.877   1.673   3.680
 8889SOL     OW27565   6.594   6.796   6.718
 8889SOL    HW127566   6.561   6.742   6.641
 8889SOL    HW227567   6.620   6.887   6.687
 8890SOL     OW27568   0.231   0.042   0.203
 8890SOL    HW127569   0.241   0.089   0.290
 8890SOL    HW227570   0.180   6.981   0.217
 8891SOL     OW27571   5.886   4.629   6.425
 8891SOL    HW127572   5.907   4.567   6.500
 8891SOL    HW227573   5.838   4.579   6.353
 8892SOL     OW27574   3.265   4.888   3.694
 8892SOL    HW127575   3.197   4.961   3.691
 8892SOL    HW227576   3.240   4.822   3.765
 8893SOL     OW27577   1.121   5.307   4.401
 8893SOL    HW127578   1.136   5.335   4.306
 8893SOL    HW227579   1.084   5.214   4.402
 8894SOL     OW27580   4.414   2.693   0.347
 8894SOL    HW127581   4.430   2.782   0.389
 8894SOL    HW227582   4.383   2.628   0.416
 8895SOL     OW27583   0.880   3.208   0.812
 8895SOL    HW127584   0.945   3.165   0.749
 8895SOL    HW227585   0.862   3.146   0.888
 8896SOL     OW27586   0.369   2.529   4.161
 8896SOL    HW127587   0.310   2.508   4.240
 8896SOL    HW227588   0.464   2.533   4.192
 8897SOL     OW27589   1.680   3.845   3.672
 8897SOL    HW127590   1.584   3.840   3.645
 8897SOL    HW227591   1.722   3.925   3.629
 8898SOL     OW27592   5.167   3.673   2.807
 8898SOL    HW127593   5.255   3.625   2.803
 8898SOL    HW227594   5.099   3.622   2.755
 8899SOL     OW27595   0.396   4.075   6.149
 8899SOL    HW127596   0.361   4.148   6.208
 8899SOL    HW227597   0.495   4.070   6.156
 8900SOL     OW27598   5.527   2.197   3.495
 8900SOL    HW127599   5.621   2.187   3.463
 8900SOL    HW227600   5.506   2.124   3.561
 8901SOL     OW27601   0.696   2.596   3.498
 8901SOL    HW127602   0.734   2.687   3.515
 8901SOL    HW227603   0.750   2.527   3.546
 8902SOL     OW27604   1.054   4.274   7.003
 8902SOL    HW127605   1.002   4.313   6.926
 8902SOL    HW227606   1.012   4.303   0.065
 8903SOL     OW27607   1.517   0.959   4.607
 8903SOL    HW127608   1.598   0.958   4.664
 8903SOL    HW227609   1.502   1.051   4.571
 8904SOL     OW27610   0.822   1.119   2.529
 8904SOL    HW127611   0.759   1.064   2.583
 8904SOL    HW227612   0.798   1.216   2.538
 8905SOL     OW27613   1.466   3.604   2.186
 8905SOL    HW127614   1.531   3.643   2.252
 8905SOL    HW227615   1.482   3.644   2.096
 8906SOL     OW27616   0.221   0.465   0.645
 8906SOL    HW127617   0.268   0.534   0.590
 8906SOL    HW227618   0.286   0.424   0.710
 8907SOL     OW27619   3.304   2.678   5.275
 8907SOL    HW127620   3.276   2.583   5.260
 8907SOL    HW227621   3.255   2.738   5.211
 8908SOL     OW27622   1.400   5.745   0.379
 8908SOL    HW127623   1.392   5.750   0.478
 8908SOL    HW227624   1.312   5.766   0.337
 8909SOL     OW27625   2.281   1.744   6.457
 8909SOL    HW127626   2.319   1.713   6.370
 8909SOL    HW227627   2.198   1.693   6.478
 8910SOL     OW27628   1.048   3.009   4.849
 8910SOL    HW127629   1.022   3.083   4.910
 8910SOL    HW227630   1.036   2.921   4.895
 8911SOL     OW27631   5.316   1.860   3.908
 8911SOL    HW127632   5.388   1.888   3.972
 8911SOL    HW227633   5.227   1.885   3.945
 8912SOL     OW27634   4.054   3.753   5.342
 8912SOL    HW127635   3.969   3.793   5.307
 8912SOL    HW227636   4.130   3.815   5.321
 8913SOL     OW27637   4.923   5.458   0.168
 8913SOL    HW127638   5.020   5.464   0.193
 8913SOL    HW227639   4.905   5.369   0.125
 8914SOL     OW27640   5.132   6.270   4.894
 8914SOL    HW127641   5.048   6.216   4.899
 8914SOL    HW227642   5.197   6.236   4.961
 8915SOL     OW27643   0.647   1.216   3.907
 8915SOL    HW127644   0.665   1.119   3.925
 8915SOL    HW227645   0.590   1.253   3.981
 8916SOL     OW27646   5.719   1.411   6.589
 8916SOL    HW127647   5.633   1.453   6.559
 8916SOL    HW227648   5.710   1.381   6.683
 8917SOL     OW27649   5.906   2.044   0.561
 8917SOL    HW127650   5.819   1.994   0.561
 8917SOL    HW227651   5.974   1.992   0.509
 8918SOL     OW27652   1.758   5.116   1.569
 8918SOL    HW127653   1.855   5.100   1.592
 8918SOL    HW227654   1.732   5.057   1.493
 8919SOL     OW27655   5.616   4.232   6.416
 8919SOL    HW127656   5.532   4.216   6.467
 8919SOL    HW227657   5.615   4.323   6.375
 8920SOL     OW27658   0.247   1.059   6.648
 8920SOL    HW127659   0.256   0.964   6.676
 8920SOL    HW227660   0.319   1.081   6.582
 8921SOL     OW27661   1.341   3.202   1.062
 8921SOL    HW127662   1.413   3.194   0.993
 8921SOL    HW227663   1.358   3.136   1.135
 8922SOL     OW27664   4.025   0.088   3.417
 8922SOL    HW127665   4.031   7.018   3.382
 8922SOL    HW227666   3.982   0.146   3.348
 8923SOL     OW27667   1.783   2.151   5.734
 8923SOL    HW127668   1.719   2.205   5.787
 8923SOL    HW227669   1.734   2.102   5.662
 8924SOL     OW27670   5.418   4.869   4.714
 8924SOL    HW127671   5.434   4.941   4.646
 8924SOL    HW227672   5.489   4.799   4.707
 8925SOL     OW27673   1.248   1.150   2.764
 8925SOL    HW127674   1.188   1.135   2.686
 8925SOL    HW227675   1.222   1.235   2.810
 8926SOL     OW27676   6.784   3.712   5.624
 8926SOL    HW127677   6.836   3.746   5.545
 8926SOL    HW227678   6.769   3.786   5.689
 8927SOL     OW27679   6.580   1.988   5.540
 8927SOL    HW127680   6.633   1.919   5.491
 8927SOL    HW227681   6.568   1.959   5.635
 8928SOL     OW27682   2.533   0.126   5.407
 8928SOL    HW127683   2.491   0.144   5.496
 8928SOL    HW227684   2.464   0.086   5.346
 8929SOL     OW27685   6.393   2.409   5.029
 8929SOL    HW127686   6.301   2.446   5.041
 8929SOL    HW227687   6.451   2.477   4.985
 8930SOL     OW27688   1.100   4.149   3.319
 8930SOL    HW127689   1.079   4.056   3.347
 8930SOL    HW227690   1.154   4.147   3.235
 8931SOL     OW27691   3.464   3.130   1.799
 8931SOL    HW127692   3.481   3.084   1.886
 8931SOL    HW227693   3.374   3.174   1.802
 8932SOL     OW27694   0.561   2.412   3.192
 8932SOL    HW127695   0.617   2.482   3.236
 8932SOL    HW227696   0.529   2.445   3.104
 8933SOL     OW27697   3.493   2.556   6.153
 8933SOL    HW127698   3.576   2.590   6.110
 8933SOL    HW227699   3.463   2.620   6.224
 8934SOL     OW27700   3.599   5.306   4.004
 8934SOL    HW127701   3.582   5.274   4.097
 8934SOL    HW227702   3.630   5.229   3.948
 8935SOL     OW27703   6.933   5.334   0.934
 8935SOL    HW127704   6.957   5.239   0.917
 8935SOL    HW227705   6.833   5.344   0.938
 8936SOL     OW27706   1.991   3.866   0.397
 8936SOL    HW127707   1.896   3.897   0.385
 8936SOL    HW227708   2.043   3.884   0.313
 8937SOL     OW27709   0.175   6.750   5.197
 8937SOL    HW127710   0.092   6.769   5.249
 8937SOL    HW227711   0.214   6.837   5.165
 8938SOL     OW27712   6.557   5.088   1.759
 8938SOL    HW127713   6.483   5.044   1.809
 8938SOL    HW227714   6.640   5.087   1.815
 8939SOL     OW27715   4.911   2.158   4.864
 8939SOL    HW127716   4.814   2.134   4.853
 8939SOL    HW227717   4.922   2.217   4.944
 8940SOL     OW27718   6.575   0.658   3.803
 8940SOL    HW127719   6.642   0.586   3.818
 8940SOL    HW227720   6.500   0.623   3.748
 8941SOL     OW27721   5.512   2.292   5.432
 8941SOL    HW127722   5.528   2.370   5.492
 8941SOL    HW227723   5.456   2.321   5.354
 8942SOL     OW27724   0.207   2.889   5.381
 8942SOL    HW127725   0.204   2.803   5.331
 8942SOL    HW227726   0.120   2.904   5.427
 8943SOL     OW27727   5.243   4.052   0.728
 8943SOL    HW127728   5.264   3.983   0.798
 8943SOL    HW227729   5.329   4.087   0.690
 8944SOL     OW27730   5.385   5.488   6.677
 8944SOL    HW127731   5.319   5.416   6.697
 8944SOL    HW227732   5.365   5.528   6.588
 8945SOL     OW27733   2.729   0.337   5.120
 8945SOL    HW127734   2.629   0.328   5.123
 8945SOL    HW227735   2.771   0.249   5.142
 8946SOL     OW27736   3.182   1.719   5.033
 8946SOL    HW127737   3.126   1.719   4.951
 8946SOL    HW227738   3.156   1.795   5.092
 8947SOL     OW27739   3.306   3.670   5.623
 8947SOL    HW127740   3.311   3.637   5.529
 8947SOL    HW227741   3.221   3.638   5.665
 8948SOL     OW27742   5.305   4.875   3.433
 8948SOL    HW127743   5.328   4.972   3.426
 8948SOL    HW227744   5.217   4.865   3.480
 8949SOL     OW27745   1.955   7.014   6.895
 8949SOL    HW127746   2.002   6.929   6.917
 8949SOL    HW227747   2.009   0.067   6.928
 8950SOL     OW27748   4.868   3.075   5.457
 8950SOL    HW127749   4.910   2.999   5.506
 8950SOL    HW227750   4.800   3.041   5.393
 8951SOL     OW27751   1.503   2.907   5.558
 8951SOL    HW127752   1.504   2.826   5.499
 8951SOL    HW227753   1.597   2.941   5.570
 8952SOL     OW27754   1.151   1.334   2.945
 8952SOL    HW127755   1.164   1.387   3.029
 8952SOL    HW227756   1.184   1.387   2.867
 8953SOL     OW27757   1.860   3.355   0.013
 8953SOL    HW127758   1.785   3.417   7.015
 8953SOL    HW227759   1.934   3.405   0.057
 8954SOL     OW27760   0.492   6.180   6.380
 8954SOL    HW127761   0.419   6.241   6.349
 8954SOL    HW227762   0.518   6.119   6.304
 8955SOL     OW27763   0.095   4.289   3.631
 8955SOL    HW127764   0.047   4.373   3.651
 8955SOL    HW227765   0.111   4.282   3.532
 8956SOL     OW27766   0.440   0.817   6.153
 8956SOL    HW127767   0.447   0.762   6.070
 8956SOL    HW227768   0.413   0.759   6.230
 8957SOL     OW27769   2.663   4.705   1.821
 8957SOL    HW127770   2.731   4.655   1.875
 8957SOL    HW227771   2.696   4.713   1.727
 8958SOL     OW27772   0.753   0.133   4.105
 8958SOL    HW127773   0.773   0.206   4.170
 8958SOL    HW227774   0.832   0.073   4.096
 8959SOL     OW27775   0.973   5.046   0.859
 8959SOL    HW127776   1.025   5.125   0.825
 8959SOL    HW227777   0.897   5.079   0.915
 8960SOL     OW27778   4.315   5.673   2.745
 8960SOL    HW127779   4.347   5.691   2.838
 8960SOL    HW227780   4.379   5.612   2.699
 8961SOL     OW27781   1.466   1.480   4.480
 8961SOL    HW127782   1.549   1.535   4.487
 8961SOL    HW227783   1.437   1.476   4.384
 8962SOL     OW27784   5.623   6.865   2.667
 8962SOL    HW127785   5.556   6.938   2.682
 8962SOL    HW227786   5.657   6.833   2.756
 8963SOL     OW27787   5.384   6.833   4.427
 8963SOL    HW127788   5.374   6.762   4.497
 8963SOL    HW227789   5.297   6.879   4.412
 8964SOL     OW27790   5.305   5.334   2.199
 8964SOL    HW127791   5.350   5.418   2.228
 8964SOL    HW227792   5.210   5.334   2.230
 8965SOL     OW27793   1.570   5.694   1.012
 8965SOL    HW127794   1.571   5.637   0.930
 8965SOL    HW227795   1.613   5.782   0.992
 8966SOL     OW27796   1.553   2.947   6.273
 8966SOL    HW127797   1.588   2.854   6.279
 8966SOL    HW227798   1.514   2.962   6.182
 8967SOL     OW27799   3.816   6.851   1.781
 8967SOL    HW127800   3.723   6.816   1.770
 8967SOL    HW227801   3.830   6.929   1.719
 8968SOL     OW27802   5.241   5.952   1.855
 8968SOL    HW127803   5.327   5.925   1.897
 8968SOL    HW227804   5.241   6.051   1.839
 8969SOL     OW27805   6.182   0.818   3.373
 8969SOL    HW127806   6.094   0.853   3.343
 8969SOL    HW227807   6.210   0.865   3.457
 8970SOL     OW27808   3.366   2.297   1.381
 8970SOL    HW127809   3.408   2.385   1.404
 8970SOL    HW227810   3.333   2.253   1.464
 8971SOL     OW27811   3.461   6.398   2.401
 8971SOL    HW127812   3.363   6.412   2.389
 8971SOL    HW227813   3.506   6.402   2.312
 8972SOL     OW27814   4.866   6.277   6.799
 8972SOL    HW127815   4.825   6.186   6.811
 8972SOL    HW227816   4.897   6.287   6.704
 8973SOL     OW27817   1.391   4.606   1.579
 8973SOL    HW127818   1.401   4.516   1.537
 8973SOL    HW227819   1.295   4.620   1.606
 8974SOL     OW27820   1.213   4.395   6.480
 8974SOL    HW127821   1.247   4.309   6.518
 8974SOL    HW227822   1.260   4.413   6.393
 8975SOL     OW27823   2.609   0.282   0.426
 8975SOL    HW127824   2.601   0.380   0.443
 8975SOL    HW227825   2.553   0.257   0.347
 8976SOL     OW27826   1.568   5.579   5.147
 8976SOL    HW127827   1.494   5.608   5.208
 8976SOL    HW227828   1.540   5.594   5.052
 8977SOL     OW27829   6.314   1.319   6.027
 8977SOL    HW127830   6.298   1.329   6.125
 8977SOL    HW227831   6.377   1.243   6.011
 8978SOL     OW27832   6.116   6.194   0.119
 8978SOL    HW127833   6.153   6.286   0.110
 8978SOL    HW227834   6.101   6.174   0.216
 8979SOL     OW27835   1.788   3.893   5.037
 8979SOL    HW127836   1.747   3.965   4.982
 8979SOL    HW227837   1.883   3.916   5.058
 8980SOL     OW27838   3.002   3.909   5.449
 8980SOL    HW127839   2.950   3.884   5.367
 8980SOL    HW227840   3.095   3.936   5.422
 8981SOL     OW27841   3.658   1.666   5.435
 8981SOL    HW127842   3.711   1.590   5.472
 8981SOL    HW227843   3.656   1.659   5.335
 8982SOL     OW27844   2.037   3.452   0.219
 8982SOL    HW127845   2.134   3.442   0.197
 8982SOL    HW227846   2.025   3.519   0.291
 8983SOL     OW27847   3.417   6.293   6.805
 8983SOL    HW127848   3.374   6.316   6.718
 8983SOL    HW227849   3.442   6.196   6.805
 8984SOL     OW27850   2.148   6.396   3.061
 8984SOL    HW127851   2.143   6.474   2.999
 8984SOL    HW227852   2.125   6.312   3.012
 8985SOL     OW27853   2.947   2.120   0.420
 8985SOL    HW127854   3.016   2.190   0.402
 8985SOL    HW227855   2.865   2.163   0.459
 8986SOL     OW27856   3.396   4.942   2.807
 8986SOL    HW127857   3.371   5.003   2.882
 8986SOL    HW227858   3.493   4.919   2.815
 8987SOL     OW27859   4.676   6.265   3.199
 8987SOL    HW127860   4.696   6.359   3.171
 8987SOL    HW227861   4.703   6.252   3.294
 8988SOL     OW27862   0.536   6.187   3.625
 8988SOL    HW127863   0.466   6.167   3.556
 8988SOL    HW227864   0.578   6.101   3.655
 8989SOL     OW27865   4.457   3.086   6.346
 8989SOL    HW127866   4.423   3.173   6.311
 8989SOL    HW227867   4.546   3.066   6.305
 8990SOL     OW27868   0.440   5.032   3.681
 8990SOL    HW127869   0.365   5.030   3.747
 8990SOL    HW227870   0.449   4.942   3.638
 8991SOL     OW27871   1.523   3.291   4.534
 8991SOL    HW127872   1.600   3.351   4.556
 8991SOL    HW227873   1.482   3.258   4.619
 8992SOL     OW27874   4.852   1.337   0.502
 8992SOL    HW127875   4.906   1.370   0.424
 8992SOL    HW227876   4.755   1.358   0.485
 8993SOL     OW27877   4.079   3.070   6.520
 8993SOL    HW127878   3.998   3.047   6.573
 8993SOL    HW227879   4.060   3.153   6.466
 8994SOL     OW27880   1.615   4.663   4.651
 8994SOL    HW127881   1.574   4.587   4.600
 8994SOL    HW227882   1.607   4.646   4.749
 8995SOL     OW27883   6.043   1.751   1.030
 8995SOL    HW127884   6.034   1.848   1.011
 8995SOL    HW227885   6.127   1.716   0.988
 8996SOL     OW27886   5.282   4.168   5.829
 8996SOL    HW127887   5.243   4.157   5.921
 8996SOL    HW227888   5.347   4.244   5.829
 8997SOL     OW27889   4.545   0.784   6.073
 8997SOL    HW127890   4.521   0.793   6.169
 8997SOL    HW227891   4.486   0.715   6.030
 8998SOL     OW27892   5.854   3.524   3.632
 8998SOL    HW127893   5.914   3.591   3.590
 8998SOL    HW227894   5.899   3.435   3.634
 8999SOL     OW27895   5.116   0.052   6.324
 8999SOL    HW127896   5.035   0.111   6.318
 8999SOL    HW227897   5.178   0.087   6.395
 9000SOL     OW27898   1.518   3.300   1.804
 9000SOL    HW127899   1.537   3.245   1.885
 9000SOL    HW227900   1.438   3.263   1.756
 9001SOL     OW27901   0.081   5.154   1.897
 9001SOL    HW127902   0.003   5.106   1.939
 9001SOL    HW227903   0.126   5.211   1.966
 9002SOL     OW27904   1.336   4.973   5.055
 9002SOL    HW127905   1.239   4.951   5.042
 9002SOL    HW227906   1.387   4.948   4.973
 9003SOL     OW27907   4.916   3.021   1.157
 9003SOL    HW127908   4.875   3.103   1.196
 9003SOL    HW227909   5.014   3.019   1.177
 9004SOL     OW27910   4.442   4.861   1.021
 9004SOL    HW127911   4.350   4.825   1.004
 9004SOL    HW227912   4.442   4.914   1.106
 9005SOL     OW27913   5.654   1.447   5.750
 9005SOL    HW127914   5.688   1.355   5.768
 9005SOL    HW227915   5.728   1.502   5.711
 9006SOL     OW27916   2.347   6.389   1.056
 9006SOL    HW127917   2.372   6.364   1.150
 9006SOL    HW227918   2.283   6.321   1.020
 9007SOL     OW27919   2.721   1.111   2.053
 9007SOL    HW127920   2.712   1.131   1.955
 9007SOL    HW227921   2.638   1.142   2.100
 9008SOL     OW27922   0.411   4.924   3.012
 9008SOL    HW127923   0.421   5.003   3.072
 9008SOL    HW227924   0.502   4.889   2.989
 9009SOL     OW27925   3.354   5.433   1.532
 9009SOL    HW127926   3.443   5.465   1.498
 9009SOL    HW227927   3.369   5.372   1.610
 9010SOL     OW27928   2.434   6.455   4.292
 9010SOL    HW127929   2.445   6.526   4.224
 9010SOL    HW227930   2.421   6.496   4.382
 9011SOL     OW27931   3.707   0.880   1.578
 9011SOL    HW127932   3.776   0.836   1.636
 9011SOL    HW227933   3.750   0.914   1.495
 9012SOL     OW27934   2.293   5.633   0.197
 9012SOL    HW127935   2.208   5.686   0.195
 9012SOL    HW227936   2.364   5.686   0.244
 9013SOL     OW27937   0.850   0.445   4.799
 9013SOL    HW127938   0.850   0.518   4.867
 9013SOL    HW227939   0.874   0.358   4.843
 9014SOL     OW27940   6.090   2.868   1.356
 9014SOL    HW127941   6.143   2.901   1.277
 9014SOL    HW227942   6.134   2.786   1.393
 9015SOL     OW27943   4.673   2.502   1.448
 9015SOL    HW127944   4.676   2.595   1.484
 9015SOL    HW227945   4.582   2.464   1.461
 9016SOL     OW27946   5.687   4.930   6.660
 9016SOL    HW127947   5.713   4.983   6.580
 9016SOL    HW227948   5.595   4.956   6.689
 9017SOL     OW27949   4.114   0.982   4.297
 9017SOL    HW127950   4.112   0.997   4.199
 9017SOL    HW227951   4.186   1.038   4.338
 9018SOL     OW27952   3.476   3.722   6.455
 9018SOL    HW127953   3.479   3.782   6.375
 9018SOL    HW227954   3.383   3.718   6.491
 9019SOL     OW27955   0.971   4.092   2.718
 9019SOL    HW127956   0.934   4.018   2.774
 9019SOL    HW227957   1.070   4.085   2.715
 9020SOL     OW27958   6.910   4.342   0.948
 9020SOL    HW127959   6.920   4.438   0.973
 9020SOL    HW227960   6.968   4.321   0.869
 9021SOL     OW27961   6.798   1.020   3.628
 9021SOL    HW127962   6.852   1.059   3.553
 9021SOL    HW227963   6.727   1.084   3.655
 9022SOL     OW27964   3.703   1.312   0.206
 9022SOL    HW127965   3.671   1.402   0.176
 9022SOL    HW227966   3.636   1.243   0.180
 9023SOL     OW27967   4.281   3.570   1.584
 9023SOL    HW127968   4.292   3.505   1.660
 9023SOL    HW227969   4.328   3.655   1.606
 9024SOL     OW27970   0.972   4.663   5.047
 9024SOL    HW127971   0.958   4.570   5.012
 9024SOL    HW227972   0.926   4.673   5.135
 9025SOL     OW27973   6.474   5.973   0.855
 9025SOL    HW127974   6.546   5.904   0.852
 9025SOL    HW227975   6.470   6.014   0.946
 9026SOL     OW27976   3.226   2.039   0.560
 9026SOL    HW127977   3.157   1.967   0.567
 9026SOL    HW227978   3.205   2.099   0.482
 9027SOL     OW27979   0.856   3.618   3.531
 9027SOL    HW127980   0.923   3.544   3.533
 9027SOL    HW227981   0.903   3.706   3.523
 9028SOL     OW27982   4.044   2.804   5.304
 9028SOL    HW127983   4.104   2.733   5.268
 9028SOL    HW227984   3.954   2.797   5.260
 9029SOL     OW27985   4.370   0.224   4.866
 9029SOL    HW127986   4.289   0.281   4.883
 9029SOL    HW227987   4.378   0.156   4.939
 9030SOL     OW27988   2.016   2.591   4.370
 9030SOL    HW127989   1.981   2.513   4.319
 9030SOL    HW227990   2.021   2.671   4.310
 9031SOL     OW27991   4.342   0.052   4.588
 9031SOL    HW127992   4.262   0.096   4.629
 9031SOL    HW227993   4.416   0.118   4.579
 9032SOL     OW27994   4.673   3.828   1.039
 9032SOL    HW127995   4.717   3.815   0.950
 9032SOL    HW227996   4.688   3.922   1.070
 9033SOL     OW27997   0.660   4.478   2.653
 9033SOL    HW127998   0.576   4.474   2.707
 9033SOL    HW227999   0.664   4.400   2.592
 9034SOL     OW28000   3.481   6.159   4.549
 9034SOL    HW128001   3.397   6.194   4.590
 9034SOL    HW228002   3.480   6.059   4.551
 9035SOL     OW28003   1.803   5.617   6.842
 9035SOL    HW128004   1.832   5.712   6.827
 9035SOL    HW228005   1.730   5.614   6.910
 9036SOL     OW28006   1.592   4.036   5.673
 9036SOL    HW128007   1.681   4.072   5.702
 9036SOL    HW228008   1.527   4.041   5.748
 9037SOL     OW28009   1.216   3.078   4.313
 9037SOL    HW128010   1.203   2.979   4.323
 9037SOL    HW228011   1.311   3.097   4.287
 9038SOL     OW28012   4.437   3.330   0.272
 9038SOL    HW128013   4.369   3.266   0.236
 9038SOL    HW228014   4.466   3.392   0.199
 9039SOL     OW28015   2.982   4.722   0.048
 9039SOL    HW128016   2.996   4.631   0.010
 9039SOL    HW228017   2.919   4.717   0.126
 9040SOL     OW28018   2.817   2.118   2.178
 9040SOL    HW128019   2.844   2.204   2.135
 9040SOL    HW228020   2.899   2.065   2.199
 9041SOL     OW28021   1.015   2.300   1.196
 9041SOL    HW128022   0.982   2.292   1.102
 9041SOL    HW228023   0.943   2.270   1.259
 9042SOL     OW28024   3.757   6.623   4.990
 9042SOL    HW128025   3.751   6.527   5.018
 9042SOL    HW228026   3.819   6.631   4.912
 9043SOL     OW28027   2.033   1.383   6.096
 9043SOL    HW128028   2.127   1.394   6.129
 9043SOL    HW228029   1.985   1.316   6.153
 9044SOL     OW28030   0.715   1.023   6.893
 9044SOL    HW128031   0.707   1.099   6.828
 9044SOL    HW228032   0.627   1.009   6.938
 9045SOL     OW28033   4.062   0.491   3.027
 9045SOL    HW128034   4.093   0.397   3.015
 9045SOL    HW228035   4.102   0.529   3.110
 9046SOL     OW28036   3.963   3.825   2.545
 9046SOL    HW128037   3.966   3.725   2.556
 9046SOL    HW228038   3.914   3.865   2.622
 9047SOL     OW28039   1.204   4.043   4.989
 9047SOL    HW128040   1.242   4.101   5.061
 9047SOL    HW228041   1.182   3.953   5.026
 9048SOL     OW28042   6.292   2.747   6.388
 9048SOL    HW128043   6.227   2.734   6.463
 9048SOL    HW228044   6.352   2.825   6.409
 9049SOL     OW28045   3.645   6.243   5.328
 9049SOL    HW128046   3.720   6.177   5.321
 9049SOL    HW228047   3.570   6.202   5.380
 9050SOL     OW28048   0.497   3.795   1.201
 9050SOL    HW128049   0.479   3.777   1.105
 9050SOL    HW228050   0.412   3.817   1.248
 9051SOL     OW28051   2.378   0.433   1.558
 9051SOL    HW128052   2.343   0.372   1.630
 9051SOL    HW228053   2.372   0.387   1.470
 9052SOL     OW28054   2.145   3.322   4.080
 9052SOL    HW128055   2.189   3.274   4.155
 9052SOL    HW228056   2.048   3.335   4.101
 9053SOL     OW28057   2.190   1.260   0.843
 9053SOL    HW128058   2.130   1.333   0.876
 9053SOL    HW228059   2.281   1.297   0.826
 9054SOL     OW28060   2.412   5.596   4.181
 9054SOL    HW128061   2.354   5.523   4.217
 9054SOL    HW228062   2.373   5.685   4.205
 9055SOL     OW28063   6.296   4.070   4.668
 9055SOL    HW128064   6.383   4.026   4.644
 9055SOL    HW228065   6.311   4.167   4.683
 9056SOL     OW28066   6.875   1.845   2.446
 9056SOL    HW128067   6.962   1.807   2.412
 9056SOL    HW228068   6.866   1.824   2.543
 9057SOL     OW28069   4.623   2.218   4.442
 9057SOL    HW128070   4.565   2.291   4.405
 9057SOL    HW228071   4.683   2.256   4.512
 9058SOL     OW28072   1.266   0.774   0.142
 9058SOL    HW128073   1.297   0.863   0.176
 9058SOL    HW228074   1.212   0.729   0.212
 9059SOL     OW28075   1.080   2.605   2.747
 9059SOL    HW128076   1.042   2.518   2.780
 9059SOL    HW228077   1.072   2.609   2.648
 9060SOL     OW28078   5.956   3.081   4.657
 9060SOL    HW128079   5.917   3.127   4.736
 9060SOL    HW228080   5.928   3.129   4.573
 9061SOL     OW28081   3.851   5.333   2.507
 9061SOL    HW128082   3.840   5.429   2.480
 9061SOL    HW228083   3.762   5.287   2.507
 9062SOL     OW28084   1.366   5.348   1.583
 9062SOL    HW128085   1.377   5.446   1.570
 9062SOL    HW228086   1.348   5.304   1.495
 9063SOL     OW28087   2.619   1.083   3.649
 9063SOL    HW128088   2.652   1.129   3.567
 9063SOL    HW228089   2.592   1.151   3.717
 9064SOL     OW28090   6.491   3.586   6.693
 9064SOL    HW128091   6.529   3.675   6.720
 9064SOL    HW228092   6.404   3.573   6.741
 9065SOL     OW28093   4.138   0.082   0.424
 9065SOL    HW128094   4.058   0.027   0.400
 9065SOL    HW228095   4.109   0.173   0.452
 9066SOL     OW28096   5.878   0.401   0.400
 9066SOL    HW128097   5.816   0.395   0.322
 9066SOL    HW228098   5.927   0.314   0.411
 9067SOL     OW28099   1.795   0.328   3.244
 9067SOL    HW128100   1.891   0.330   3.272
 9067SOL    HW228101   1.741   0.384   3.307
 9068SOL     OW28102   1.035   6.128   4.891
 9068SOL    HW128103   1.082   6.160   4.973
 9068SOL    HW228104   0.937   6.142   4.901
 9069SOL     OW28105   1.372   3.095   6.422
 9069SOL    HW128106   1.420   3.122   6.505
 9069SOL    HW228107   1.435   3.046   6.361
 9070SOL     OW28108   1.917   3.890   4.684
 9070SOL    HW128109   1.969   3.874   4.600
 9070SOL    HW228110   1.860   3.810   4.703
 9071SOL     OW28111   6.366   6.577   0.834
 9071SOL    HW128112   6.401   6.493   0.875
 9071SOL    HW228113   6.430   6.652   0.854
 9072SOL     OW28114   6.893   3.602   0.352
 9072SOL    HW128115   6.910   3.533   0.423
 9072SOL    HW228116   6.902   3.693   0.391
 9073SOL     OW28117   2.126   0.592   1.612
 9073SOL    HW128118   2.162   0.683   1.632
 9073SOL    HW228119   2.198   0.534   1.576
 9074SOL     OW28120   1.496   0.040   2.515
 9074SOL    HW128121   1.416   7.011   2.487
 9074SOL    HW228122   1.468   0.133   2.538
 9075SOL     OW28123   6.620   0.418   2.120
 9075SOL    HW128124   6.697   0.361   2.148
 9075SOL    HW228125   6.653   0.493   2.063
 9076SOL     OW28126   0.066   1.237   6.135
 9076SOL    HW128127   0.119   1.248   6.219
 9076SOL    HW228128   0.067   1.141   6.108
 9077SOL     OW28129   4.131   6.931   2.537
 9077SOL    HW128130   4.080   6.970   2.461
 9077SOL    HW228131   4.220   6.899   2.504
 9078SOL     OW28132   3.797   3.320   4.838
 9078SOL    HW128133   3.799   3.376   4.921
 9078SOL    HW228134   3.784   3.379   4.759
 9079SOL     OW28135   3.468   6.796   4.171
 9079SOL    HW128136   3.418   6.862   4.227
 9079SOL    HW228137   3.488   6.836   4.082
 9080SOL     OW28138   5.339   2.755   6.974
 9080SOL    HW128139   5.278   2.810   6.917
 9080SOL    HW228140   5.414   2.813   7.006
 9081SOL     OW28141   5.158   6.139   2.956
 9081SOL    HW128142   5.209   6.076   2.897
 9081SOL    HW228143   5.223   6.197   3.005
 9082SOL     OW28144   2.267   0.402   3.425
 9082SOL    HW128145   2.253   0.313   3.468
 9082SOL    HW228146   2.365   0.416   3.407
 9083SOL     OW28147   4.886   4.582   5.259
 9083SOL    HW128148   4.862   4.653   5.325
 9083SOL    HW228149   4.983   4.589   5.236
 9084SOL     OW28150   3.057   3.777   3.154
 9084SOL    HW128151   3.009   3.761   3.068
 9084SOL    HW228152   3.104   3.866   3.150
 9085SOL     OW28153   2.415   1.556   0.919
 9085SOL    HW128154   2.347   1.535   0.989
 9085SOL    HW228155   2.441   1.472   0.872
 9086SOL     OW28156   0.818   3.720   0.736
 9086SOL    HW128157   0.808   3.749   0.831
 9086SOL    HW228158   0.819   3.800   0.676
 9087SOL     OW28159   4.928   3.277   2.437
 9087SOL    HW128160   4.894   3.212   2.368
 9087SOL    HW228161   4.925   3.234   2.527
 9088SOL     OW28162   6.674   0.510   6.651
 9088SOL    HW128163   6.716   0.430   6.695
 9088SOL    HW228164   6.587   0.531   6.697
 9089SOL     OW28165   4.863   6.848   5.890
 9089SOL    HW128166   4.933   6.830   5.821
 9089SOL    HW228167   4.905   6.851   5.981
 9090SOL     OW28168   5.488   0.374   4.907
 9090SOL    HW128169   5.542   0.451   4.943
 9090SOL    HW228170   5.404   0.408   4.866
 9091SOL     OW28171   3.446   3.904   6.922
 9091SOL    HW128172   3.515   3.833   6.915
 9091SOL    HW228173   3.480   3.989   6.880
 9092SOL     OW28174   0.121   1.942   6.610
 9092SOL    HW128175   0.044   1.992   6.649
 9092SOL    HW228176   0.089   1.857   6.569
 9093SOL     OW28177   1.416   6.848   5.370
 9093SOL    HW128178   1.323   6.819   5.392
 9093SOL    HW228179   1.418   6.948   5.361
 9094SOL     OW28180   0.463   3.100   1.531
 9094SOL    HW128181   0.500   3.045   1.606
 9094SOL    HW228182   0.402   3.171   1.568
 9095SOL     OW28183   5.444   5.717   5.618
 9095SOL    HW128184   5.529   5.713   5.565
 9095SOL    HW228185   5.402   5.807   5.606
 9096SOL     OW28186   6.440   4.933   2.810
 9096SOL    HW128187   6.405   4.984   2.889
 9096SOL    HW228188   6.521   4.882   2.835
 9097SOL     OW28189   0.598   2.690   5.762
 9097SOL    HW128190   0.543   2.763   5.721
 9097SOL    HW228191   0.638   2.723   5.848
 9098SOL     OW28192   1.892   2.548   4.602
 9098SOL    HW128193   1.927   2.573   4.512
 9098SOL    HW228194   1.840   2.463   4.595
 9099SOL     OW28195   2.234   3.548   6.147
 9099SOL    HW128196   2.302   3.544   6.074
 9099SOL    HW228197   2.265   3.494   6.225
 9100SOL     OW28198   1.583   4.327   2.305
 9100SOL    HW128199   1.621   4.391   2.371
 9100SOL    HW228200   1.535   4.378   2.233
 9101SOL     OW28201   2.459   1.210   2.111
 9101SOL    HW128202   2.436   1.214   2.209
 9101SOL    HW228203   2.415   1.130   2.070
 9102SOL     OW28204   4.411   6.429   2.984
 9102SOL    HW128205   4.487   6.452   2.922
 9102SOL    HW228206   4.324   6.443   2.936
 9103SOL     OW28207   6.455   1.711   6.911
 9103SOL    HW128208   6.479   1.661   6.995
 9103SOL    HW228209   6.484   1.657   6.832
 9104SOL     OW28210   0.134   0.953   0.033
 9104SOL    HW128211   0.112   0.872   0.088
 9104SOL    HW228212   0.174   0.925   6.970
 9105SOL     OW28213   1.871   0.111   5.983
 9105SOL    HW128214   1.949   0.065   5.939
 9105SOL    HW228215   1.905   0.179   6.048
 9106SOL     OW28216   0.626   4.762   6.600
 9106SOL    HW128217   0.527   4.757   6.590
 9106SOL    HW228218   0.670   4.714   6.524
 9107SOL     OW28219   2.566   1.000   6.363
 9107SOL    HW128220   2.643   1.056   6.335
 9107SOL    HW228221   2.599   0.919   6.413
 9108SOL     OW28222   5.446   5.298   5.696
 9108SOL    HW128223   5.349   5.321   5.686
 9108SOL    HW228224   5.494   5.321   5.612
 9109SOL     OW28225   5.386   2.427   2.237
 9109SOL    HW128226   5.463   2.390   2.288
 9109SOL    HW228227   5.383   2.526   2.246
 9110SOL     OW28228   1.800   5.700   5.019
 9110SOL    HW128229   1.709   5.660   5.022
 9110SOL    HW228230   1.806   5.776   5.083
 9111SOL     OW28231   4.569   2.539   5.309
 9111SOL    HW128232   4.548   2.468   5.242
 9111SOL    HW228233   4.489   2.597   5.323
 9112SOL     OW28234   2.253   5.243   2.406
 9112SOL    HW128235   2.206   5.317   2.358
 9112SOL    HW228236   2.189   5.200   2.470
 9113SOL     OW28237   4.801   2.134   3.375
 9113SOL    HW128238   4.870   2.067   3.346
 9113SOL    HW228239   4.765   2.108   3.464
 9114SOL     OW28240   1.157   6.328   4.760
 9114SOL    HW128241   1.108   6.254   4.806
 9114SOL    HW228242   1.242   6.346   4.808
 9115SOL     OW28243   5.625   4.694   3.758
 9115SOL    HW128244   5.526   4.708   3.756
 9115SOL    HW228245   5.646   4.603   3.723
 9116SOL     OW28246   0.562   6.890   3.724
 9116SOL    HW128247   0.617   6.833   3.663
 9116SOL    HW228248   0.554   6.981   3.685
 9117SOL     OW28249   3.941   0.864   6.964
 9117SOL    HW128250   4.013   0.809   7.005
 9117SOL    HW228251   3.957   0.961   6.984
 9118SOL     OW28252   5.556   4.412   0.313
 9118SOL    HW128253   5.655   4.431   0.313
 9118SOL    HW228254   5.524   4.406   0.407
 9119SOL     OW28255   3.548   6.561   0.868
 9119SOL    HW128256   3.554   6.463   0.886
 9119SOL    HW228257   3.604   6.583   0.789
 9120SOL     OW28258   6.048   2.597   5.842
 9120SOL    HW128259   6.000   2.527   5.789
 9120SOL    HW228260   6.101   2.655   5.780
 9121SOL     OW28261   3.175   0.126   5.562
 9121SOL    HW128262   3.192   0.027   5.561
 9121SOL    HW228263   3.251   0.173   5.517
 9122SOL     OW28264   2.426   4.483   1.914
 9122SOL    HW128265   2.440   4.471   2.012
 9122SOL    HW228266   2.340   4.440   1.886
 9123SOL     OW28267   1.094   0.959   3.533
 9123SOL    HW128268   1.159   0.892   3.570
 9123SOL    HW228269   1.066   1.021   3.606
 9124SOL     OW28270   3.142   5.413   1.672
 9124SOL    HW128271   3.170   5.343   1.738
 9124SOL    HW228272   3.209   5.419   1.598
 9125SOL     OW28273   4.199   6.474   0.436
 9125SOL    HW128274   4.230   6.407   0.369
 9125SOL    HW228275   4.163   6.427   0.516
 9126SOL     OW28276   3.977   5.096   0.438
 9126SOL    HW128277   3.966   5.008   0.391
 9126SOL    HW228278   3.898   5.113   0.497
 9127SOL     OW28279   0.188   3.830   5.212
 9127SOL    HW128280   0.280   3.867   5.195
 9127SOL    HW228281   0.120   3.902   5.199
 9128SOL     OW28282   5.694   3.399   4.965
 9128SOL    HW128283   5.617   3.374   5.025
 9128SOL    HW228284   5.749   3.469   5.010
 9129SOL     OW28285   1.617   1.671   0.884
 9129SOL    HW128286   1.561   1.752   0.870
 9129SOL    HW228287   1.565   1.603   0.936
 9130SOL     OW28288   2.789   4.231   5.430
 9130SOL    HW128289   2.715   4.196   5.373
 9130SOL    HW228290   2.876   4.221   5.382
 9131SOL     OW28291   6.122   2.710   0.954
 9131SOL    HW128292   6.049   2.692   1.019
 9131SOL    HW228293   6.114   2.805   0.921
 9132SOL     OW28294   0.653   3.652   3.724
 9132SOL    HW128295   0.745   3.626   3.695
 9132SOL    HW228296   0.586   3.615   3.661
 9133SOL     OW28297   4.861   0.586   0.851
 9133SOL    HW128298   4.824   0.679   0.849
 9133SOL    HW228299   4.800   0.527   0.902
 9134SOL     OW28300   4.614   5.265   0.856
 9134SOL    HW128301   4.683   5.319   0.806
 9134SOL    HW228302   4.660   5.208   0.924
 9135SOL     OW28303   0.685   6.106   2.342
 9135SOL    HW128304   0.757   6.173   2.361
 9135SOL    HW228305   0.598   6.154   2.330
 9136SOL     OW28306   6.536   4.706   6.240
 9136SOL    HW128307   6.602   4.644   6.197
 9136SOL    HW228308   6.449   4.702   6.191
 9137SOL     OW28309   4.587   6.235   6.963
 9137SOL    HW128310   4.621   6.155   6.913
 9137SOL    HW228311   4.633   6.239   0.028
 9138SOL     OW28312   3.005   3.464   1.043
 9138SOL    HW128313   2.955   3.536   0.994
 9138SOL    HW228314   3.100   3.462   1.011
 9139SOL     OW28315   0.085   0.644   1.225
 9139SOL    HW128316   0.160   0.605   1.278
 9139SOL    HW228317   0.001   0.645   1.280
 9140SOL     OW28318   0.708   4.242   2.481
 9140SOL    HW128319   0.630   4.190   2.516
 9140SOL    HW228320   0.783   4.179   2.458
 9141SOL     OW28321   6.792   5.640   6.012
 9141SOL    HW128322   6.784   5.724   6.065
 9141SOL    HW228323   6.822   5.662   5.919
 9142SOL     OW28324   1.010   3.911   3.416
 9142SOL    HW128325   1.033   3.889   3.511
 9142SOL    HW228326   0.916   3.944   3.411
 9143SOL     OW28327   6.808   3.381   2.204
 9143SOL    HW128328   6.889   3.324   2.190
 9143SOL    HW228329   6.737   3.327   2.249
 9144SOL     OW28330   2.686   4.478   5.341
 9144SOL    HW128331   2.764   4.525   5.300
 9144SOL    HW228332   2.714   4.386   5.369
 9145SOL     OW28333   1.447   6.568   5.903
 9145SOL    HW128334   1.450   6.665   5.925
 9145SOL    HW228335   1.382   6.553   5.828
 9146SOL     OW28336   6.063   3.242   2.773
 9146SOL    HW128337   6.100   3.157   2.811
 9146SOL    HW228338   6.060   3.312   2.845
 9147SOL     OW28339   4.746   0.119   4.335
 9147SOL    HW128340   4.709   0.086   4.422
 9147SOL    HW228341   4.695   0.078   4.260
 9148SOL     OW28342   6.476   6.771   1.834
 9148SOL    HW128343   6.547   6.718   1.881
 9148SOL    HW228344   6.425   6.825   1.900
 9149SOL     OW28345   6.928   3.462   1.076
 9149SOL    HW128346   6.927   3.560   1.091
 9149SOL    HW228347   6.859   3.418   1.134
 9150SOL     OW28348   2.839   3.004   0.620
 9150SOL    HW128349   2.760   2.968   0.571
 9150SOL    HW228350   2.904   3.045   0.556
 9151SOL     OW28351   1.831   3.122   3.687
 9151SOL    HW128352   1.876   3.190   3.745
 9151SOL    HW228353   1.812   3.162   3.597
 9152SOL     OW28354   2.062   4.270   3.835
 9152SOL    HW128355   1.998   4.308   3.768
 9152SOL    HW228356   2.037   4.302   3.926
 9153SOL     OW28357   6.822   3.369   6.926
 9153SOL    HW128358   6.822   3.468   6.917
 9153SOL    HW228359   6.756   3.329   6.862
 9154SOL     OW28360   5.869   4.775   3.186
 9154SOL    HW128361   5.866   4.768   3.286
 9154SOL    HW228362   5.943   4.837   3.160
 9155SOL     OW28363   0.801   6.076   2.955
 9155SOL    HW128364   0.710   6.044   2.982
 9155SOL    HW228365   0.796   6.173   2.932
 9156SOL     OW28366   6.593   3.824   6.838
 9156SOL    HW128367   6.676   3.880   6.831
 9156SOL    HW228368   6.564   3.818   6.933
 9157SOL     OW28369   2.144   5.088   6.080
 9157SOL    HW128370   2.204   5.009   6.076
 9157SOL    HW228371   2.075   5.073   6.151
 9158SOL     OW28372   6.766   3.279   4.572
 9158SOL    HW128373   6.698   3.292   4.644
 9158SOL    HW228374   6.722   3.288   4.482
 9159SOL     OW28375   3.833   1.227   3.486
 9159SOL    HW128376   3.773   1.149   3.471
 9159SOL    HW228377   3.800   1.281   3.564
 9160SOL     OW28378   0.030   4.417   0.457
 9160SOL    HW128379   0.063   4.323   0.456
 9160SOL    HW228380   0.040   4.457   0.366
 9161SOL     OW28381   6.140   4.130   1.384
 9161SOL    HW128382   6.174   4.224   1.386
 9161SOL    HW228383   6.198   4.074   1.326
 9162SOL     OW28384   4.630   1.896   1.829
 9162SOL    HW128385   4.620   1.922   1.732
 9162SOL    HW228386   4.620   1.797   1.837
 9163SOL     OW28387   1.625   2.608   3.173
 9163SOL    HW128388   1.635   2.616   3.074
 9163SOL    HW228389   1.527   2.608   3.196
 9164SOL     OW28390   2.253   0.851   6.549
 9164SOL    HW128391   2.186   0.909   6.504
 9164SOL    HW228392   2.266   0.767   6.496
 9165SOL     OW28393   5.341   1.895   5.861
 9165SOL    HW128394   5.325   1.954   5.941
 9165SOL    HW228395   5.436   1.905   5.831
 9166SOL     OW28396   5.213   5.391   1.690
 9166SOL    HW128397   5.309   5.395   1.665
 9166SOL    HW228398   5.204   5.360   1.785
 9167SOL     OW28399   1.980   0.917   4.660
 9167SOL    HW128400   1.998   0.914   4.759
 9167SOL    HW228401   1.984   0.824   4.623
 9168SOL     OW28402   6.464   5.846   4.662
 9168SOL    HW128403   6.464   5.774   4.593
 9168SOL    HW228404   6.390   5.910   4.643
 9169SOL     OW28405   6.247   6.304   0.771
 9169SOL    HW128406   6.166   6.362   0.775
 9169SOL    HW228407   6.297   6.309   0.858
 9170SOL     OW28408   1.449   1.266   5.226
 9170SOL    HW128409   1.507   1.198   5.181
 9170SOL    HW228410   1.378   1.220   5.280
 9171SOL     OW28411   3.346   4.752   0.709
 9171SOL    HW128412   3.323   4.681   0.776
 9171SOL    HW228413   3.262   4.798   0.680
 9172SOL     OW28414   4.833   1.365   4.312
 9172SOL    HW128415   4.848   1.378   4.410
 9172SOL    HW228416   4.784   1.279   4.297
 9173SOL     OW28417   5.582   3.147   4.008
 9173SOL    HW128418   5.666   3.190   3.975
 9173SOL    HW228419   5.520   3.130   3.932
 9174SOL     OW28420   6.800   4.574   0.312
 9174SOL    HW128421   6.880   4.562   0.253
 9174SOL    HW228422   6.810   4.517   0.394
 9175SOL     OW28423   1.741   6.635   6.710
 9175SOL    HW128424   1.672   6.571   6.675
 9175SOL    HW228425   1.724   6.652   6.807
 9176SOL     OW28426   1.990   1.546   2.263
 9176SOL    HW128427   2.085   1.545   2.296
 9176SOL    HW228428   1.937   1.612   2.317
 9177SOL     OW28429   0.862   3.845   3.849
 9177SOL    HW128430   0.789   3.794   3.802
 9177SOL    HW228431   0.940   3.854   3.788
 9178SOL     OW28432   1.696   6.512   0.343
 9178SOL    HW128433   1.735   6.462   0.266
 9178SOL    HW228434   1.644   6.590   0.309
 9179SOL     OW28435   4.093   5.684   5.405
 9179SOL    HW128436   4.011   5.684   5.349
 9179SOL    HW228437   4.173   5.665   5.348
 9180SOL     OW28438   0.303   0.930   4.245
 9180SOL    HW128439   0.397   0.964   4.238
 9180SOL    HW228440   0.240   1.007   4.255
 9181SOL     OW28441   3.950   1.896   4.047
 9181SOL    HW128442   3.981   1.850   3.964
 9181SOL    HW228443   3.995   1.857   4.127
 9182SOL     OW28444   2.003   1.245   2.645
 9182SOL    HW128445   2.085   1.226   2.592
 9182SOL    HW228446   1.958   1.327   2.609
 9183SOL     OW28447   6.433   2.745   5.855
 9183SOL    HW128448   6.364   2.818   5.859
 9183SOL    HW228449   6.510   2.770   5.914
 9184SOL     OW28450   3.521   3.180   0.974
 9184SOL    HW128451   3.459   3.217   0.904
 9184SOL    HW228452   3.495   3.216   1.064
 9185SOL     OW28453   1.197   0.359   6.562
 9185SOL    HW128454   1.187   0.453   6.594
 9185SOL    HW228455   1.290   0.328   6.580
 9186SOL     OW28456   5.751   1.076   6.585
 9186SOL    HW128457   5.663   1.106   6.550
 9186SOL    HW228458   5.819   1.148   6.571
 9187SOL     OW28459   4.711   1.886   0.710
 9187SOL    HW128460   4.612   1.901   0.700
 9187SOL    HW228461   4.739   1.808   0.655
 9188SOL     OW28462   1.131   0.664   1.413
 9188SOL    HW128463   1.113   0.640   1.509
 9188SOL    HW228464   1.078   0.744   1.388
 9189SOL     OW28465   4.206   1.403   4.211
 9189SOL    HW128466   4.166   1.366   4.294
 9189SOL    HW228467   4.163   1.361   4.131
 9190SOL     OW28468   6.134   3.282   5.481
 9190SOL    HW128469   6.131   3.381   5.497
 9190SOL    HW228470   6.195   3.239   5.548
 9191SOL     OW28471   5.736   6.098   0.627
 9191SOL    HW128472   5.824   6.145   0.622
 9191SOL    HW228473   5.662   6.162   0.605
 9192SOL     OW28474   6.270   4.466   4.793
 9192SOL    HW128475   6.284   4.565   4.795
 9192SOL    HW228476   6.357   4.420   4.777
 9193SOL     OW28477   3.299   3.272   3.702
 9193SOL    HW128478   3.219   3.221   3.670
 9193SOL    HW228479   3.370   3.208   3.732
 9194SOL     OW28480   3.038   5.477   2.686
 9194SOL    HW128481   2.956   5.484   2.742
 9194SOL    HW228482   3.044   5.557   2.625
 9195SOL     OW28483   6.712   3.295   2.673
 9195SOL    HW128484   6.673   3.274   2.584
 9195SOL    HW228485   6.643   3.341   2.730
 9196SOL     OW28486   4.761   0.214   3.554
 9196SOL    HW128487   4.732   0.124   3.524
 9196SOL    HW228488   4.817   0.206   3.636
 9197SOL     OW28489   3.811   3.390   6.262
 9197SOL    HW128490   3.785   3.439   6.179
 9197SOL    HW228491   3.891   3.434   6.303
 9198SOL     OW28492   5.641   2.558   5.068
 9198SOL    HW128493   5.597   2.644   5.041
 9198SOL    HW228494   5.731   2.551   5.025
 9199SOL     OW28495   1.446   3.786   6.910
 9199SOL    HW128496   1.481   3.706   6.959
 9199SOL    HW228497   1.453   3.866   6.969
 9200SOL     OW28498   6.291   0.807   0.220
 9200SOL    HW128499   6.343   0.730   0.258
 9200SOL    HW228500   6.254   0.781   0.131
 9201SOL     OW28501   1.222   3.921   2.962
 9201SOL    HW128502   1.202   4.012   2.998
 9201SOL    HW228503   1.309   3.922   2.914
 9202SOL     OW28504   2.934   5.035   4.387
 9202SOL    HW128505   2.927   4.987   4.300
 9202SOL    HW228506   2.989   4.981   4.451
 9203SOL     OW28507   5.298   0.571   5.742
 9203SOL    HW128508   5.352   0.645   5.781
 9203SOL    HW228509   5.350   0.528   5.668
 9204SOL     OW28510   4.637   4.288   2.240
 9204SOL    HW128511   4.681   4.198   2.246
 9204SOL    HW228512   4.608   4.304   2.145
 9205SOL     OW28513   5.359   2.933   2.430
 9205SOL    HW128514   5.394   2.961   2.519
 9205SOL    HW228515   5.260   2.919   2.435
 9206SOL     OW28516   0.736   0.035   3.289
 9206SOL    HW128517   0.831   0.008   3.305
 9206SOL    HW228518   0.685   0.034   3.375
 9207SOL     OW28519   4.165   6.842   0.510
 9207SOL    HW128520   4.155   6.942   0.507
 9207SOL    HW228521   4.084   6.799   0.469
 9208SOL     OW28522   5.160   4.106   1.836
 9208SOL    HW128523   5.152   4.125   1.738
 9208SOL    HW228524   5.144   4.190   1.888
 9209SOL     OW28525   4.412   1.240   2.486
 9209SOL    HW128526   4.442   1.145   2.490
 9209SOL    HW228527   4.322   1.249   2.530
 9210SOL     OW28528   1.449   0.286   1.087
 9210SOL    HW128529   1.424   0.324   0.998
 9210SOL    HW228530   1.508   0.206   1.074
 9211SOL     OW28531   5.235   1.051   6.834
 9211SOL    HW128532   5.218   1.105   6.916
 9211SOL    HW228533   5.205   0.957   6.850
 9212SOL     OW28534   5.637   3.680   4.969
 9212SOL    HW128535   5.643   3.780   4.961
 9212SOL    HW228536   5.584   3.644   4.892
 9213SOL     OW28537   6.028   6.747   2.942
 9213SOL    HW128538   6.114   6.741   2.993
 9213SOL    HW228539   6.006   6.843   2.925
 9214SOL     OW28540   2.170   2.219   4.939
 9214SOL    HW128541   2.221   2.211   5.025
 9214SOL    HW228542   2.145   2.127   4.907
 9215SOL     OW28543   0.840   3.350   2.946
 9215SOL    HW128544   0.801   3.278   2.889
 9215SOL    HW228545   0.922   3.387   2.901
 9216SOL     OW28546   2.393   5.605   4.912
 9216SOL    HW128547   2.427   5.664   4.839
 9216SOL    HW228548   2.293   5.601   4.908
 9217SOL     OW28549   4.549   0.842   6.409
 9217SOL    HW128550   4.631   0.810   6.457
 9217SOL    HW228551   4.514   0.924   6.455
 9218SOL     OW28552   5.633   5.459   6.321
 9218SOL    HW128553   5.717   5.469   6.267
 9218SOL    HW228554   5.655   5.420   6.411
 9219SOL     OW28555   3.636   2.831   5.610
 9219SOL    HW128556   3.732   2.843   5.587
 9219SOL    HW228557   3.593   2.920   5.626
 9220SOL     OW28558   1.434   6.312   3.479
 9220SOL    HW128559   1.440   6.329   3.577
 9220SOL    HW228560   1.509   6.358   3.432
 9221SOL     OW28561   2.277   0.924   0.269
 9221SOL    HW128562   2.269   0.882   0.359
 9221SOL    HW228563   2.189   0.918   0.221
 9222SOL     OW28564   1.482   3.678   3.370
 9222SOL    HW128565   1.413   3.669   3.298
 9222SOL    HW228566   1.570   3.701   3.328
 9223SOL     OW28567   0.744   3.819   4.733
 9223SOL    HW128568   0.794   3.880   4.794
 9223SOL    HW228569   0.652   3.856   4.716
 9224SOL     OW28570   1.750   4.378   4.263
 9224SOL    HW128571   1.806   4.313   4.314
 9224SOL    HW228572   1.779   4.471   4.285
 9225SOL     OW28573   4.895   6.576   6.865
 9225SOL    HW128574   4.799   6.603   6.855
 9225SOL    HW228575   4.910   6.491   6.815
 9226SOL     OW28576   0.845   1.015   1.141
 9226SOL    HW128577   0.909   0.942   1.164
 9226SOL    HW228578   0.840   1.023   1.041
 9227SOL     OW28579   2.464   5.698   0.585
 9227SOL    HW128580   2.543   5.753   0.613
 9227SOL    HW228581   2.474   5.605   0.622
 9228SOL     OW28582   2.966   2.993   5.632
 9228SOL    HW128583   2.960   2.907   5.682
 9228SOL    HW228584   2.885   3.049   5.652
 9229SOL     OW28585   0.408   4.784   0.058
 9229SOL    HW128586   0.396   4.873   0.102
 9229SOL    HW228587   0.483   4.789   7.017
 9230SOL     OW28588   4.813   1.441   4.847
 9230SOL    HW128589   4.735   1.489   4.806
 9230SOL    HW228590   4.784   1.399   4.933
 9231SOL     OW28591   6.804   5.642   3.961
 9231SOL    HW128592   6.737   5.584   4.009
 9231SOL    HW228593   6.801   5.622   3.863
 9232SOL     OW28594   1.593   5.165   1.826
 9232SOL    HW128595   1.641   5.129   1.905
 9232SOL    HW228596   1.633   5.127   1.742
 9233SOL     OW28597   0.611   6.700   0.510
 9233SOL    HW128598   0.528   6.647   0.524
 9233SOL    HW228599   0.616   6.729   0.414
 9234SOL     OW28600   2.091   4.327   0.159
 9234SOL    HW128601   2.118   4.307   0.253
 9234SOL    HW228602   2.019   4.397   0.159
 9235SOL     OW28603   2.223   2.124   4.036
 9235SOL    HW128604   2.221   2.153   3.940
 9235SOL    HW228605   2.164   2.044   4.048
 9236SOL     OW28606   2.502   3.675   6.594
 9236SOL    HW128607   2.448   3.753   6.627
 9236SOL    HW228608   2.596   3.682   6.628
 9237SOL     OW28609   6.076   4.925   3.095
 9237SOL    HW128610   6.111   5.005   3.142
 9237SOL    HW228611   6.042   4.951   3.004
 9238SOL     OW28612   1.895   2.751   5.509
 9238SOL    HW128613   1.839   2.749   5.592
 9238SOL    HW228614   1.854   2.814   5.443
 9239SOL     OW28615   0.647   4.683   6.867
 9239SOL    HW128616   0.661   4.718   6.774
 9239SOL    HW228617   0.708   4.732   6.930
 9240SOL     OW28618   4.718   2.334   2.759
 9240SOL    HW128619   4.737   2.354   2.855
 9240SOL    HW228620   4.800   2.350   2.705
 9241SOL     OW28621   5.672   0.090   1.049
 9241SOL    HW128622   5.748   0.039   1.088
 9241SOL    HW228623   5.585   0.050   1.079
 9242SOL     OW28624   1.529   2.558   0.573
 9242SOL    HW128625   1.621   2.568   0.535
 9242SOL    HW228626   1.488   2.474   0.539
 9243SOL     OW28627   1.006   0.531   6.902
 9243SOL    HW128628   0.976   0.443   6.941
 9243SOL    HW228629   0.970   0.606   6.958
 9244SOL     OW28630   4.041   6.316   5.143
 9244SOL    HW128631   3.956   6.355   5.108
 9244SOL    HW228632   4.077   6.373   5.216
 9245SOL     OW28633   0.892   4.222   2.940
 9245SOL    HW128634   0.919   4.179   2.854
 9245SOL    HW228635   0.829   4.297   2.922
 9246SOL     OW28636   6.351   0.679   5.425
 9246SOL    HW128637   6.313   0.694   5.334
 9246SOL    HW228638   6.449   0.695   5.423
 9247SOL     OW28639   3.581   6.221   3.301
 9247SOL    HW128640   3.611   6.198   3.394
 9247SOL    HW228641   3.481   6.228   3.299
 9248SOL     OW28642   2.366   1.281   5.939
 9248SOL    HW128643   2.359   1.333   5.853
 9248SOL    HW228644   2.369   1.183   5.918
 9249SOL     OW28645   3.801   5.277   1.499
 9249SOL    HW128646   3.859   5.315   1.427
 9249SOL    HW228647   3.763   5.352   1.554
 9250SOL     OW28648   0.294   2.810   3.912
 9250SOL    HW128649   0.213   2.752   3.924
 9250SOL    HW228650   0.376   2.756   3.931
 9251SOL     OW28651   3.299   2.672   1.150
 9251SOL    HW128652   3.358   2.753   1.147
 9251SOL    HW228653   3.316   2.616   1.069
 9252SOL     OW28654   5.210   1.525   6.250
 9252SOL    HW128655   5.292   1.496   6.299
 9252SOL    HW228656   5.195   1.622   6.264
 9253SOL     OW28657   0.887   5.340   5.143
 9253SOL    HW128658   0.928   5.249   5.140
 9253SOL    HW228659   0.876   5.375   5.050
 9254SOL     OW28660   6.904   5.126   3.012
 9254SOL    HW128661   6.933   5.031   3.028
 9254SOL    HW228662   6.847   5.157   3.088
 9255SOL     OW28663   6.557   4.269   0.454
 9255SOL    HW128664   6.588   4.327   0.529
 9255SOL    HW228665   6.511   4.326   0.386
 9256SOL     OW28666   1.860   6.313   1.566
 9256SOL    HW128667   1.891   6.407   1.582
 9256SOL    HW228668   1.803   6.311   1.484
 9257SOL     OW28669   6.444   5.938   4.151
 9257SOL    HW128670   6.435   5.952   4.053
 9257SOL    HW228671   6.431   5.841   4.173
 9258SOL     OW28672   3.447   4.679   1.107
 9258SOL    HW128673   3.390   4.646   1.182
 9258SOL    HW228674   3.426   4.775   1.089
 9259SOL     OW28675   2.009   1.625   6.537
 9259SOL    HW128676   1.960   1.713   6.542
 9259SOL    HW228677   1.944   1.552   6.517
 9260SOL     OW28678   6.087   3.782   5.116
 9260SOL    HW128679   6.049   3.873   5.129
 9260SOL    HW228680   6.075   3.754   5.021
 9261SOL     OW28681   3.715   2.511   1.725
 9261SOL    HW128682   3.642   2.504   1.657
 9261SOL    HW228683   3.714   2.431   1.785
 9262SOL     OW28684   5.728   5.595   3.977
 9262SOL    HW128685   5.709   5.634   4.067
 9262SOL    HW228686   5.823   5.614   3.952
 9263SOL     OW28687   1.762   3.657   3.843
 9263SOL    HW128688   1.743   3.737   3.786
 9263SOL    HW228689   1.741   3.574   3.791
 9264SOL     OW28690   4.650   3.908   0.145
 9264SOL    HW128691   4.592   3.905   0.063
 9264SOL    HW228692   4.675   4.003   0.164
 9265SOL     OW28693   5.226   1.953   0.531
 9265SOL    HW128694   5.230   1.914   0.439
 9265SOL    HW228695   5.191   1.885   0.595
 9266SOL     OW28696   0.424   4.153   1.004
 9266SOL    HW128697   0.431   4.221   0.930
 9266SOL    HW228698   0.462   4.191   1.088
 9267SOL     OW28699   0.083   0.813   4.610
 9267SOL    HW128700   0.067   0.772   4.699
 9267SOL    HW228701   0.070   0.745   4.538
 9268SOL     OW28702   0.764   6.586   2.202
 9268SOL    HW128703   0.824   6.535   2.141
 9268SOL    HW228704   0.797   6.578   2.296
 9269SOL     OW28705   4.223   0.687   0.867
 9269SOL    HW128706   4.265   0.669   0.955
 9269SOL    HW228707   4.127   0.711   0.880
 9270SOL     OW28708   1.352   0.734   5.944
 9270SOL    HW128709   1.413   0.657   5.959
 9270SOL    HW228710   1.392   0.817   5.983
 9271SOL     OW28711   1.615   0.140   4.891
 9271SOL    HW128712   1.578   0.074   4.825
 9271SOL    HW228713   1.713   0.122   4.905
 9272SOL     OW28714   6.563   6.937   6.145
 9272SOL    HW128715   6.603   6.985   6.067
 9272SOL    HW228716   6.465   6.923   6.129
 9273SOL     OW28717   4.565   4.773   4.548
 9273SOL    HW128718   4.637   4.784   4.480
 9273SOL    HW228719   4.602   4.727   4.629
 9274SOL     OW28720   1.240   2.782   6.919
 9274SOL    HW128721   1.179   2.742   6.987
 9274SOL    HW228722   1.246   2.881   6.933
 9275SOL     OW28723   0.305   0.201   0.424
 9275SOL    HW128724   0.254   0.283   0.397
 9275SOL    HW228725   0.340   0.212   0.517
 9276SOL     OW28726   3.099   5.065   0.385
 9276SOL    HW128727   3.115   5.162   0.404
 9276SOL    HW228728   3.001   5.049   0.372
 9277SOL     OW28729   5.066   5.804   1.965
 9277SOL    HW128730   5.114   5.872   1.909
 9277SOL    HW228731   4.992   5.763   1.911
 9278SOL     OW28732   0.563   0.783   4.832
 9278SOL    HW128733   0.606   0.845   4.766
 9278SOL    HW228734   0.544   0.695   4.788
 9279SOL     OW28735   4.513   6.293   1.086
 9279SOL    HW128736   4.449   6.226   1.123
 9279SOL    HW228737   4.519   6.371   1.148
 9280SOL     OW28738   1.711   0.401   2.992
 9280SOL    HW128739   1.723   0.352   3.077
 9280SOL    HW228740   1.656   0.483   3.008
 9281SOL     OW28741   2.796   5.384   0.199
 9281SOL    HW128742   2.877   5.432   0.165
 9281SOL    HW228743   2.769   5.314   0.132
 9282SOL     OW28744   3.340   6.552   4.667
 9282SOL    HW128745   3.383   6.534   4.756
 9282SOL    HW228746   3.261   6.612   4.680
 9283SOL     OW28747   4.497   6.312   6.670
 9283SOL    HW128748   4.587   6.340   6.702
 9283SOL    HW228749   4.439   6.289   6.748
 9284SOL     OW28750   3.339   3.871   4.841
 9284SOL    HW128751   3.275   3.905   4.772
 9284SOL    HW228752   3.395   3.947   4.874
 9285SOL     OW28753   6.941   4.179   2.484
 9285SOL    HW128754   6.993   4.097   2.507
 9285SOL    HW228755   6.957   4.249   2.555
 9286SOL     OW28756   5.023   5.833   1.126
 9286SOL    HW128757   5.029   5.840   1.226
 9286SOL    HW228758   4.955   5.764   1.102
 9287SOL     OW28759   3.373   5.165   6.088
 9287SOL    HW128760   3.361   5.166   6.188
 9287SOL    HW228761   3.375   5.259   6.054
 9288SOL     OW28762   4.152   2.312   2.883
 9288SOL    HW128763   4.088   2.237   2.900
 9288SOL    HW228764   4.133   2.352   2.793
 9289SOL     OW28765   4.754   6.032   6.854
 9289SOL    HW128766   4.771   5.963   6.784
 9289SOL    HW228767   4.751   5.989   6.944
 9290SOL     OW28768   5.006   0.147   4.189
 9290SOL    HW128769   5.004   0.225   4.126
 9290SOL    HW228770   4.925   0.149   4.247
 9291SOL     OW28771   1.217   4.633   5.774
 9291SOL    HW128772   1.207   4.622   5.873
 9291SOL    HW228773   1.270   4.557   5.737
 9292SOL     OW28774   1.854   1.869   6.538
 9292SOL    HW128775   1.882   1.899   6.446
 9292SOL    HW228776   1.755   1.873   6.546
 9293SOL     OW28777   5.572   2.811   5.035
 9293SOL    HW128778   5.648   2.868   5.003
 9293SOL    HW228779   5.488   2.840   4.990
 9294SOL     OW28780   4.598   0.935   6.948
 9294SOL    HW128781   4.681   0.953   6.896
 9294SOL    HW228782   4.585   0.837   6.959
 9295SOL     OW28783   0.780   1.646   5.515
 9295SOL    HW128784   0.730   1.729   5.492
 9295SOL    HW228785   0.737   1.601   5.593
 9296SOL     OW28786   1.305   4.790   0.341
 9296SOL    HW128787   1.296   4.691   0.332
 9296SOL    HW228788   1.344   4.828   0.257
 9297SOL     OW28789   5.893   6.005   2.813
 9297SOL    HW128790   5.871   6.100   2.790
 9297SOL    HW228791   5.828   5.972   2.882
 9298SOL     OW28792   1.331   6.077   5.967
 9298SOL    HW128793   1.368   6.012   6.033
 9298SOL    HW228794   1.280   6.027   5.896
 9299SOL     OW28795   2.253   2.474   4.854
 9299SOL    HW128796   2.210   2.400   4.906
 9299SOL    HW228797   2.237   2.459   4.757
 9300SOL     OW28798   1.371   5.678   6.067
 9300SOL    HW128799   1.316   5.737   6.008
 9300SOL    HW228800   1.362   5.583   6.036
 9301SOL     OW28801   0.206   3.925   4.927
 9301SOL    HW128802   0.293   3.875   4.927
 9301SOL    HW228803   0.140   3.875   4.983
 9302SOL     OW28804   1.724   3.657   5.120
 9302SOL    HW128805   1.740   3.755   5.109
 9302SOL    HW228806   1.808   3.612   5.149
 9303SOL     OW28807   2.237   4.587   0.656
 9303SOL    HW128808   2.302   4.550   0.722
 9303SOL    HW228809   2.198   4.672   0.691
 9304SOL     OW28810   4.771   5.390   0.416
 9304SOL    HW128811   4.735   5.299   0.398
 9304SOL    HW228812   4.791   5.436   0.330
 9305SOL     OW28813   2.188   1.815   1.430
 9305SOL    HW128814   2.259   1.846   1.366
 9305SOL    HW228815   2.205   1.855   1.520
 9306SOL     OW28816   6.778   5.390   4.876
 9306SOL    HW128817   6.779   5.329   4.955
 9306SOL    HW228818   6.788   5.485   4.907
 9307SOL     OW28819   2.493   3.039   1.648
 9307SOL    HW128820   2.438   2.971   1.601
 9307SOL    HW228821   2.589   3.029   1.623
 9308SOL     OW28822   1.979   3.612   1.981
 9308SOL    HW128823   2.005   3.706   2.005
 9308SOL    HW228824   2.056   3.551   1.997
 9309SOL     OW28825   5.114   5.541   5.959
 9309SOL    HW128826   5.178   5.611   5.928
 9309SOL    HW228827   5.020   5.571   5.939
 9310SOL     OW28828   5.645   5.966   6.802
 9310SOL    HW128829   5.560   5.931   6.763
 9310SOL    HW228830   5.707   5.890   6.820
 9311SOL     OW28831   4.511   3.511   1.428
 9311SOL    HW128832   4.547   3.597   1.392
 9311SOL    HW228833   4.427   3.529   1.480
 9312SOL     OW28834   0.358   2.489   2.081
 9312SOL    HW128835   0.424   2.414   2.076
 9312SOL    HW228836   0.288   2.466   2.149
 9313SOL     OW28837   0.439   6.370   2.573
 9313SOL    HW128838   0.399   6.350   2.662
 9313SOL    HW228839   0.480   6.461   2.574
 9314SOL     OW28840   4.860   3.176   0.049
 9314SOL    HW128841   4.948   3.175   0.002
 9314SOL    HW228842   4.871   3.143   0.143
 9315SOL     OW28843   5.700   0.841   6.182
 9315SOL    HW128844   5.610   0.844   6.226
 9315SOL    HW228845   5.771   0.859   6.251
 9316SOL     OW28846   4.358   0.856   5.309
 9316SOL    HW128847   4.360   0.857   5.409
 9316SOL    HW228848   4.439   0.809   5.275
 9317SOL     OW28849   3.941   6.142   3.559
 9317SOL    HW128850   3.852   6.096   3.553
 9317SOL    HW228851   3.981   6.149   3.468
 9318SOL     OW28852   4.889   6.353   1.258
 9318SOL    HW128853   4.891   6.402   1.345
 9318SOL    HW228854   4.857   6.415   1.186
 9319SOL     OW28855   2.380   4.034   0.025
 9319SOL    HW128856   2.348   3.977   0.101
 9319SOL    HW228857   2.475   4.061   0.042
 9320SOL     OW28858   6.441   6.345   6.654
 9320SOL    HW128859   6.434   6.374   6.750
 9320SOL    HW228860   6.522   6.288   6.643
 9321SOL     OW28861   0.497   3.915   4.654
 9321SOL    HW128862   0.508   3.996   4.597
 9321SOL    HW228863   0.426   3.856   4.615
 9322SOL     OW28864   5.816   3.681   5.719
 9322SOL    HW128865   5.777   3.598   5.760
 9322SOL    HW228866   5.802   3.678   5.620
 9323SOL     OW28867   1.176   2.798   4.473
 9323SOL    HW128868   1.197   2.806   4.571
 9323SOL    HW228869   1.093   2.849   4.452
 9324SOL     OW28870   0.512   4.298   1.513
 9324SOL    HW128871   0.446   4.368   1.538
 9324SOL    HW228872   0.598   4.341   1.487
 9325SOL     OW28873   0.925   4.887   2.710
 9325SOL    HW128874   0.898   4.965   2.654
 9325SOL    HW228875   0.969   4.919   2.794
 9326SOL     OW28876   4.184   4.559   0.861
 9326SOL    HW128877   4.102   4.522   0.904
 9326SOL    HW228878   4.191   4.657   0.879
 9327SOL     OW28879   4.196   6.925   4.035
 9327SOL    HW128880   4.206   6.895   3.940
 9327SOL    HW228881   4.134   6.864   4.083
 9328SOL     OW28882   2.885   6.498   4.667
 9328SOL    HW128883   2.930   6.465   4.750
 9328SOL    HW228884   2.946   6.560   4.618
 9329SOL     OW28885   0.148   5.507   6.608
 9329SOL    HW128886   0.191   5.540   6.693
 9329SOL    HW228887   0.143   5.407   6.611
 9330SOL     OW28888   5.981   5.439   6.659
 9330SOL    HW128889   5.920   5.517   6.671
 9330SOL    HW228890   5.984   5.386   6.744
 9331SOL     OW28891   1.463   2.999   4.740
 9331SOL    HW128892   1.386   2.946   4.705
 9331SOL    HW228893   1.431   3.090   4.767
 9332SOL     OW28894   4.675   5.445   1.133
 9332SOL    HW128895   4.717   5.373   1.188
 9332SOL    HW228896   4.724   5.453   1.046
 9333SOL     OW28897   3.718   4.682   0.948
 9333SOL    HW128898   3.653   4.675   1.023
 9333SOL    HW228899   3.801   4.728   0.979
 9334SOL     OW28900   5.729   6.277   5.582
 9334SOL    HW128901   5.645   6.325   5.610
 9334SOL    HW228902   5.785   6.260   5.663
 9335SOL     OW28903   1.765   3.001   1.417
 9335SOL    HW128904   1.814   3.087   1.434
 9335SOL    HW228905   1.821   2.924   1.447
 9336SOL     OW28906   6.659   0.043   5.198
 9336SOL    HW128907   6.705   0.082   5.278
 9336SOL    HW228908   6.723   7.012   5.146
 9337SOL     OW28909   2.538   0.729   6.627
 9337SOL    HW128910   2.592   0.656   6.670
 9337SOL    HW228911   2.477   0.689   6.559
 9338SOL     OW28912   5.697   6.803   6.958
 9338SOL    HW128913   5.754   6.780   0.012
 9338SOL    HW228914   5.601   6.800   6.984
 9339SOL     OW28915   6.571   4.156   5.459
 9339SOL    HW128916   6.653   4.211   5.445
 9339SOL    HW228917   6.537   4.169   5.552
 9340SOL     OW28918   4.243   5.832   2.218
 9340SOL    HW128919   4.258   5.897   2.144
 9340SOL    HW228920   4.310   5.847   2.290
 9341SOL     OW28921   5.291   3.640   6.976
 9341SOL    HW128922   5.370   3.667   6.920
 9341SOL    HW228923   5.313   3.650   0.048
 9342SOL     OW28924   2.825   0.344   4.199
 9342SOL    HW128925   2.895   0.370   4.133
 9342SOL    HW228926   2.767   0.422   4.219
 9343SOL     OW28927   4.912   4.428   1.533
 9343SOL    HW128928   4.968   4.476   1.465
 9343SOL    HW228929   4.885   4.339   1.496
 9344SOL     OW28930   5.746   5.827   4.698
 9344SOL    HW128931   5.836   5.792   4.726
 9344SOL    HW228932   5.707   5.767   4.628
 9345SOL     OW28933   0.379   6.522   1.509
 9345SOL    HW128934   0.416   6.592   1.448
 9345SOL    HW228935   0.311   6.467   1.461
 9346SOL     OW28936   5.672   6.438   1.456
 9346SOL    HW128937   5.684   6.341   1.433
 9346SOL    HW228938   5.575   6.460   1.459
 9347SOL     OW28939   3.660   5.381   0.992
 9347SOL    HW128940   3.644   5.475   1.022
 9347SOL    HW228941   3.662   5.377   0.892
 9348SOL     OW28942   1.970   5.871   1.556
 9348SOL    HW128943   1.975   5.889   1.458
 9348SOL    HW228944   1.950   5.774   1.571
 9349SOL     OW28945   6.315   5.466   1.806
 9349SOL    HW128946   6.283   5.560   1.817
 9349SOL    HW228947   6.251   5.415   1.748
 9350SOL     OW28948   0.016   0.911   5.261
 9350SOL    HW128949   0.030   0.918   5.162
 9350SOL    HW228950   6.942   0.903   5.280
 9351SOL     OW28951   3.349   1.756   6.452
 9351SOL    HW128952   3.253   1.735   6.474
 9351SOL    HW228953   3.408   1.685   6.489
 9352SOL     OW28954   3.441   1.900   6.726
 9352SOL    HW128955   3.409   1.927   6.817
 9352SOL    HW228956   3.366   1.906   6.661
 9353SOL     OW28957   1.448   3.533   0.911
 9353SOL    HW128958   1.525   3.596   0.899
 9353SOL    HW228959   1.439   3.510   1.008
 9354SOL     OW28960   5.002   1.644   1.359
 9354SOL    HW128961   4.981   1.659   1.455
 9354SOL    HW228962   4.999   1.731   1.310
 9355SOL     OW28963   6.490   6.692   3.566
 9355SOL    HW128964   6.533   6.782   3.552
 9355SOL    HW228965   6.526   6.627   3.499
 9356SOL     OW28966   4.263   4.673   2.394
 9356SOL    HW128967   4.189   4.727   2.434
 9356SOL    HW228968   4.247   4.662   2.296
 9357SOL     OW28969   2.988   2.702   0.914
 9357SOL    HW128970   3.033   2.622   0.874
 9357SOL    HW228971   3.016   2.712   1.009
 9358SOL     OW28972   6.518   4.524   2.090
 9358SOL    HW128973   6.550   4.458   2.158
 9358SOL    HW228974   6.422   4.545   2.107
 9359SOL     OW28975   6.759   3.977   5.726
 9359SOL    HW128976   6.681   4.037   5.708
 9359SOL    HW228977   6.771   3.966   5.825
 9360SOL     OW28978   2.349   1.131   6.364
 9360SOL    HW128979   2.415   1.056   6.375
 9360SOL    HW228980   2.285   1.109   6.291
 9361SOL     OW28981   2.848   6.060   2.203
 9361SOL    HW128982   2.839   6.066   2.104
 9361SOL    HW228983   2.854   5.964   2.230
 9362SOL     OW28984   2.212   1.172   2.496
 9362SOL    HW128985   2.268   1.244   2.454
 9362SOL    HW228986   2.172   1.115   2.424
 9363SOL     OW28987   3.211   6.179   2.964
 9363SOL    HW128988   3.158   6.255   2.928
 9363SOL    HW228989   3.151   6.117   3.014
 9364SOL     OW28990   4.619   3.238   6.897
 9364SOL    HW128991   4.693   3.236   6.965
 9364SOL    HW228992   4.553   3.167   6.919
 9365SOL     OW28993   2.243   2.050   5.153
 9365SOL    HW128994   2.149   2.019   5.143
 9365SOL    HW228995   2.251   2.109   5.233
 9366SOL     OW28996   3.067   1.869   0.350
 9366SOL    HW128997   3.118   1.826   0.424
 9366SOL    HW228998   3.017   1.948   0.386
 9367SOL     OW28999   6.701   5.432   3.003
 9367SOL    HW129000   6.795   5.414   3.031
 9367SOL    HW229001   6.670   5.360   2.941
 9368SOL     OW29002   3.130   2.161   1.619
 9368SOL    HW129003   3.174   2.075   1.645
 9368SOL    HW229004   3.073   2.145   1.538
 9369SOL     OW29005   0.414   2.074   5.249
 9369SOL    HW129006   0.396   2.067   5.347
 9369SOL    HW229007   0.340   2.031   5.198
 9370SOL     OW29008   6.485   0.644   2.589
 9370SOL    HW129009   6.406   0.629   2.649
 9370SOL    HW229010   6.454   0.688   2.504
 9371SOL     OW29011   0.577   6.278   0.620
 9371SOL    HW129012   0.549   6.343   0.690
 9371SOL    HW229013   0.549   6.186   0.646
 9372SOL     OW29014   5.953   6.707   3.621
 9372SOL    HW129015   5.917   6.696   3.528
 9372SOL    HW229016   6.049   6.734   3.617
 9373SOL     OW29017   4.266   1.802   3.084
 9373SOL    HW129018   4.330   1.726   3.067
 9373SOL    HW229019   4.276   1.870   3.011
 9374SOL     OW29020   5.427   2.385   0.742
 9374SOL    HW129021   5.477   2.370   0.827
 9374SOL    HW229022   5.490   2.383   0.665
 9375SOL     OW29023   0.410   1.125   2.949
 9375SOL    HW129024   0.440   1.029   2.946
 9375SOL    HW229025   0.324   1.131   2.998
 9376SOL     OW29026   2.964   4.160   0.566
 9376SOL    HW129027   3.031   4.166   0.640
 9376SOL    HW229028   2.944   4.065   0.546
 9377SOL     OW29029   6.416   5.827   3.882
 9377SOL    HW129030   6.417   5.731   3.908
 9377SOL    HW229031   6.323   5.862   3.885
 9378SOL     OW29032   1.915   0.285   0.037
 9378SOL    HW129033   1.842   0.333   0.087
 9378SOL    HW229034   1.966   0.352   7.006
 9379SOL     OW29035   4.852   4.946   3.907
 9379SOL    HW129036   4.924   4.966   3.973
 9379SOL    HW229037   4.879   4.977   3.816
 9380SOL     OW29038   6.099   6.912   5.931
 9380SOL    HW129039   6.054   6.916   5.842
 9380SOL    HW229040   6.198   6.924   5.920
 9381SOL     OW29041   2.630   2.215   5.689
 9381SOL    HW129042   2.617   2.160   5.771
 9381SOL    HW229043   2.717   2.264   5.695
 9382SOL     OW29044   3.894   1.175   2.680
 9382SOL    HW129045   3.830   1.119   2.627
 9382SOL    HW229046   3.857   1.267   2.689
 9383SOL     OW29047   3.753   6.230   4.404
 9383SOL    HW129048   3.672   6.201   4.454
 9383SOL    HW229049   3.765   6.329   4.414
 9384SOL     OW29050   5.190   6.356   2.540
 9384SOL    HW129051   5.116   6.323   2.598
 9384SOL    HW229052   5.238   6.278   2.500
 9385SOL     OW29053   4.032   1.051   3.581
 9385SOL    HW129054   3.963   1.122   3.600
 9385SOL    HW229055   3.987   0.970   3.544
 9386SOL     OW29056   3.306   6.257   5.805
 9386SOL    HW129057   3.378   6.194   5.778
 9386SOL    HW229058   3.229   6.250   5.741
 9387SOL     OW29059   3.128   6.614   1.579
 9387SOL    HW129060   3.216   6.570   1.596
 9387SOL    HW229061   3.083   6.571   1.501
 9388SOL     OW29062   0.300   0.175   3.016
 9388SOL    HW129063   0.265   0.262   3.051
 9388SOL    HW229064   0.391   0.158   3.054
 9389SOL     OW29065   2.256   0.749   5.822
 9389SOL    HW129066   2.206   0.755   5.736
 9389SOL    HW229067   2.345   0.707   5.806
 9390SOL     OW29068   3.381   5.234   2.641
 9390SOL    HW129069   3.369   5.141   2.606
 9390SOL    HW229070   3.438   5.232   2.723
 9391SOL     OW29071   1.267   1.886   5.625
 9391SOL    HW129072   1.261   1.981   5.656
 9391SOL    HW229073   1.193   1.868   5.560
 9392SOL     OW29074   1.783   6.856   4.864
 9392SOL    HW129075   1.819   6.883   4.775
 9392SOL    HW229076   1.738   6.767   4.857
 9393SOL     OW29077   3.802   2.146   5.432
 9393SOL    HW129078   3.858   2.155   5.514
 9393SOL    HW229079   3.708   2.175   5.452
 9394SOL     OW29080   6.421   2.666   2.799
 9394SOL    HW129081   6.407   2.572   2.769
 9394SOL    HW229082   6.337   2.718   2.787
 9395SOL     OW29083   2.722   3.292   0.499
 9395SOL    HW129084   2.674   3.286   0.587
 9395SOL    HW229085   2.747   3.201   0.469
 9396SOL     OW29086   6.049   6.964   5.645
 9396SOL    HW129087   6.090   0.021   5.603
 9396SOL    HW229088   6.100   6.883   5.616
 9397SOL     OW29089   2.059   0.607   0.131
 9397SOL    HW129090   2.101   0.549   0.201
 9397SOL    HW229091   2.075   0.567   0.041
 9398SOL     OW29092   2.559   1.426   0.342
 9398SOL    HW129093   2.488   1.443   0.410
 9398SOL    HW229094   2.629   1.497   0.347
 9399SOL     OW29095   6.575   1.574   5.988
 9399SOL    HW129096   6.618   1.513   6.055
 9399SOL    HW229097   6.510   1.634   6.034
 9400SOL     OW29098   5.092   3.325   1.351
 9400SOL    HW129099   5.142   3.411   1.357
 9400SOL    HW229100   5.146   3.251   1.391
 9401SOL     OW29101   2.974   6.246   3.931
 9401SOL    HW129102   2.907   6.280   3.866
 9401SOL    HW229103   2.934   6.171   3.985
 9402SOL     OW29104   2.787   5.197   6.765
 9402SOL    HW129105   2.797   5.144   6.681
 9402SOL    HW229106   2.877   5.230   6.794
 9403SOL     OW29107   5.600   1.289   3.521
 9403SOL    HW129108   5.594   1.290   3.421
 9403SOL    HW229109   5.605   1.383   3.555
 9404SOL     OW29110   0.778   5.050   6.960
 9404SOL    HW129111   0.714   5.059   0.012
 9404SOL    HW229112   0.732   5.073   6.875
 9405SOL     OW29113   6.182   6.745   1.680
 9405SOL    HW129114   6.249   6.759   1.754
 9405SOL    HW229115   6.149   6.833   1.648
 9406SOL     OW29116   0.242   2.318   5.335
 9406SOL    HW129117   0.298   2.276   5.264
 9406SOL    HW229118   0.196   2.247   5.389
 9407SOL     OW29119   3.330   6.238   3.700
 9407SOL    HW129120   3.366   6.155   3.742
 9407SOL    HW229121   3.237   6.221   3.667
 9408SOL     OW29122   3.558   1.563   0.126
 9408SOL    HW129123   3.652   1.594   0.110
 9408SOL    HW229124   3.513   1.547   0.038
 9409SOL     OW29125   5.474   3.856   3.609
 9409SOL    HW129126   5.397   3.833   3.669
 9409SOL    HW229127   5.438   3.885   3.520
 9410SOL     OW29128   4.134   6.170   2.318
 9410SOL    HW129129   4.040   6.139   2.328
 9410SOL    HW229130   4.162   6.163   2.222
 9411SOL     OW29131   4.483   5.641   0.856
 9411SOL    HW129132   4.462   5.716   0.793
 9411SOL    HW229133   4.567   5.662   0.906
 9412SOL     OW29134   0.604   2.815   1.128
 9412SOL    HW129135   0.603   2.795   1.030
 9412SOL    HW229136   0.617   2.914   1.142
 9413SOL     OW29137   4.780   5.863   5.352
 9413SOL    HW129138   4.691   5.880   5.308
 9413SOL    HW229139   4.766   5.853   5.451
 9414SOL     OW29140   3.176   1.828   2.610
 9414SOL    HW129141   3.130   1.916   2.594
 9414SOL    HW229142   3.238   1.809   2.533
 9415SOL     OW29143   1.749   6.205   2.316
 9415SOL    HW129144   1.750   6.283   2.378
 9415SOL    HW229145   1.655   6.181   2.294
 9416SOL     OW29146   1.283   1.747   1.755
 9416SOL    HW129147   1.280   1.679   1.828
 9416SOL    HW229148   1.299   1.701   1.668
 9417SOL     OW29149   2.609   5.918   5.413
 9417SOL    HW129150   2.668   5.837   5.418
 9417SOL    HW229151   2.577   5.929   5.319
 9418SOL     OW29152   2.037   5.578   1.584
 9418SOL    HW129153   2.124   5.615   1.616
 9418SOL    HW229154   2.046   5.480   1.570
 9419SOL     OW29155   2.826   6.382   5.036
 9419SOL    HW129156   2.768   6.319   4.984
 9419SOL    HW229157   2.779   6.469   5.046
 9420SOL     OW29158   6.429   1.325   4.736
 9420SOL    HW129159   6.361   1.256   4.712
 9420SOL    HW229160   6.516   1.280   4.758
 9421SOL     OW29161   1.470   4.614   5.297
 9421SOL    HW129162   1.512   4.537   5.249
 9421SOL    HW229163   1.507   4.699   5.261
 9422SOL     OW29164   5.702   0.188   2.273
 9422SOL    HW129165   5.796   0.185   2.239
 9422SOL    HW229166   5.689   0.268   2.332
 9423SOL     OW29167   4.200   1.166   3.403
 9423SOL    HW129168   4.167   1.260   3.400
 9423SOL    HW229169   4.141   1.112   3.462
 9424SOL     OW29170   4.484   0.525   5.755
 9424SOL    HW129171   4.521   0.615   5.730
 9424SOL    HW229172   4.405   0.505   5.698
 9425SOL     OW29173   0.689   3.822   5.384
 9425SOL    HW129174   0.632   3.781   5.312
 9425SOL    HW229175   0.649   3.801   5.474
 9426SOL     OW29176   3.013   0.938   0.149
 9426SOL    HW129177   3.087   0.899   0.094
 9426SOL    HW229178   2.968   1.010   0.096
 9427SOL     OW29179   2.758   5.180   5.161
 9427SOL    HW129180   2.728   5.123   5.084
 9427SOL    HW229181   2.762   5.125   5.244
 9428SOL     OW29182   6.032   7.001   2.870
 9428SOL    HW129183   6.045   7.011   2.771
 9428SOL    HW229184   6.058   0.062   2.915
 9429SOL     OW29185   1.204   4.364   1.999
 9429SOL    HW129186   1.107   4.384   1.989
 9429SOL    HW229187   1.240   4.331   1.911
 9430SOL     OW29188   6.765   6.778   2.272
 9430SOL    HW129189   6.839   6.738   2.217
 9430SOL    HW229190   6.727   6.857   2.224
 9431SOL     OW29191   6.183   3.804   6.594
 9431SOL    HW129192   6.114   3.875   6.580
 9431SOL    HW229193   6.206   3.799   6.692
 9432SOL     OW29194   6.018   0.532   3.347
 9432SOL    HW129195   6.036   0.434   3.355
 9432SOL    HW229196   6.037   0.577   3.435
 9433SOL     OW29197   3.277   4.954   5.331
 9433SOL    HW129198   3.264   4.979   5.236
 9433SOL    HW229199   3.214   4.879   5.355
 9434SOL     OW29200   5.644   4.073   2.629
 9434SOL    HW129201   5.649   4.016   2.711
 9434SOL    HW229202   5.607   4.163   2.653
 9435SOL     OW29203   1.972   1.498   4.425
 9435SOL    HW129204   1.892   1.447   4.457
 9435SOL    HW229205   2.033   1.436   4.375
 9436SOL     OW29206   1.919   3.898   0.660
 9436SOL    HW129207   1.833   3.856   0.630
 9436SOL    HW229208   1.979   3.908   0.581
 9437SOL     OW29209   1.207   5.489   3.173
 9437SOL    HW129210   1.111   5.473   3.152
 9437SOL    HW229211   1.215   5.535   3.262
 9438SOL     OW29212   0.438   6.255   2.325
 9438SOL    HW129213   0.450   6.330   2.261
 9438SOL    HW229214   0.441   6.290   2.419
 9439SOL     OW29215   6.869   3.674   1.834
 9439SOL    HW129216   6.858   3.678   1.734
 9439SOL    HW229217   6.924   3.752   1.865
 9440SOL     OW29218   4.973   6.469   4.727
 9440SOL    HW129219   5.051   6.406   4.724
 9440SOL    HW229220   4.912   6.443   4.802
 9441SOL     OW29221   1.636   5.305   5.082
 9441SOL    HW129222   1.642   5.397   5.120
 9441SOL    HW229223   1.541   5.273   5.085
 9442SOL     OW29224   6.898   2.023   6.747
 9442SOL    HW129225   6.883   2.069   6.834
 9442SOL    HW229226   6.885   1.924   6.759
 9443SOL     OW29227   2.067   4.797   1.244
 9443SOL    HW129228   2.002   4.723   1.263
 9443SOL    HW229229   2.024   4.863   1.183
 9444SOL     OW29230   0.800   2.907   6.946
 9444SOL    HW129231   0.713   2.860   6.932
 9444SOL    HW229232   0.835   2.885   0.013
 9445SOL     OW29233   4.922   3.670   2.240
 9445SOL    HW129234   5.021   3.666   2.247
 9445SOL    HW229235   4.895   3.755   2.195
 9446SOL     OW29236   6.485   5.916   2.576
 9446SOL    HW129237   6.498   5.873   2.486
 9446SOL    HW229238   6.574   5.941   2.614
 9447SOL     OW29239   5.157   3.711   1.826
 9447SOL    HW129240   5.063   3.729   1.854
 9447SOL    HW229241   5.182   3.617   1.849
 9448SOL     OW29242   5.595   6.099   6.102
 9448SOL    HW129243   5.554   6.008   6.114
 9448SOL    HW229244   5.621   6.136   6.192
 9449SOL     OW29245   6.315   5.554   5.004
 9449SOL    HW129246   6.408   5.524   5.027
 9449SOL    HW229247   6.263   5.571   5.088
 9450SOL     OW29248   2.165   4.826   4.449
 9450SOL    HW129249   2.255   4.831   4.490
 9450SOL    HW229250   2.167   4.764   4.370
 9451SOL     OW29251   5.126   5.580   6.329
 9451SOL    HW129252   5.225   5.589   6.321
 9451SOL    HW229253   5.094   5.510   6.266
 9452SOL     OW29254   2.382   3.500   0.912
 9452SOL    HW129255   2.298   3.547   0.938
 9452SOL    HW229256   2.445   3.496   0.990
 9453SOL     OW29257   2.156   4.868   3.171
 9453SOL    HW129258   2.205   4.788   3.205
 9453SOL    HW229259   2.213   4.949   3.184
 9454SOL     OW29260   1.465   4.188   6.144
 9454SOL    HW129261   1.462   4.144   6.233
 9454SOL    HW229262   1.559   4.208   6.119
 9455SOL     OW29263   3.682   1.818   2.853
 9455SOL    HW129264   3.776   1.785   2.867
 9455SOL    HW229265   3.645   1.776   2.770
 9456SOL     OW29266   0.890   4.065   0.894
 9456SOL    HW129267   0.828   3.999   0.934
 9456SOL    HW229268   0.966   4.018   0.849
 9457SOL     OW29269   2.158   3.430   6.745
 9457SOL    HW129270   2.120   3.422   6.653
 9457SOL    HW229271   2.123   3.513   6.789
 9458SOL     OW29272   6.975   4.783   5.802
 9458SOL    HW129273   6.939   4.861   5.752
 9458SOL    HW229274   0.026   4.742   5.750
 9459SOL     OW29275   6.220   5.307   2.131
 9459SOL    HW129276   6.187   5.292   2.225
 9459SOL    HW229277   6.143   5.332   2.073
 9460SOL     OW29278   0.522   2.830   4.807
 9460SOL    HW129279   0.562   2.741   4.784
 9460SOL    HW229280   0.482   2.826   4.898
 9461SOL     OW29281   0.820   1.121   3.243
 9461SOL    HW129282   0.836   1.203   3.298
 9461SOL    HW229283   0.872   1.128   3.158
 9462SOL     OW29284   1.849   3.174   2.944
 9462SOL    HW129285   1.882   3.253   2.892
 9462SOL    HW229286   1.902   3.165   3.029
 9463SOL     OW29287   6.900   1.090   0.783
 9463SOL    HW129288   6.900   1.175   0.835
 9463SOL    HW229289   6.994   1.063   0.761
 9464SOL     OW29290   5.857   6.505   6.381
 9464SOL    HW129291   5.896   6.427   6.430
 9464SOL    HW229292   5.783   6.544   6.435
 9465SOL     OW29293   6.752   0.887   3.138
 9465SOL    HW129294   6.753   0.904   3.039
 9465SOL    HW229295   6.657   0.888   3.170
 9466SOL     OW29296   2.735   3.133   5.609
 9466SOL    HW129297   2.723   3.139   5.510
 9466SOL    HW229298   2.714   3.221   5.651
 9467SOL     OW29299   1.850   2.498   1.864
 9467SOL    HW129300   1.769   2.493   1.805
 9467SOL    HW229301   1.838   2.437   1.942
 9468SOL     OW29302   6.364   3.119   6.094
 9468SOL    HW129303   6.428   3.157   6.027
 9468SOL    HW229304   6.309   3.047   6.051
 9469SOL     OW29305   6.553   5.636   1.714
 9469SOL    HW129306   6.473   5.592   1.754
 9469SOL    HW229307   6.585   5.708   1.774
 9470SOL     OW29308   4.816   3.234   6.698
 9470SOL    HW129309   4.732   3.255   6.749
 9470SOL    HW229310   4.886   3.302   6.719
 9471SOL     OW29311   6.685   2.662   5.458
 9471SOL    HW129312   6.621   2.732   5.489
 9471SOL    HW229313   6.703   2.674   5.360
 9472SOL     OW29314   6.335   4.438   4.421
 9472SOL    HW129315   6.396   4.392   4.485
 9472SOL    HW229316   6.385   4.512   4.375
 9473SOL     OW29317   3.421   6.357   6.039
 9473SOL    HW129318   3.375   6.382   6.124
 9473SOL    HW229319   3.353   6.323   5.973
 9474SOL     OW29320   5.694   4.157   1.819
 9474SOL    HW129321   5.597   4.144   1.796
 9474SOL    HW229322   5.715   4.105   1.902
 9475SOL     OW29323   3.275   3.322   0.970
 9475SOL    HW129324   3.310   3.289   1.058
 9475SOL    HW229325   3.211   3.256   0.933
 9476SOL     OW29326   3.829   3.359   5.099
 9476SOL    HW129327   3.831   3.264   5.130
 9476SOL    HW229328   3.918   3.400   5.113
 9477SOL     OW29329   1.409   2.506   1.004
 9477SOL    HW129330   1.481   2.437   1.004
 9477SOL    HW229331   1.337   2.479   1.068
 9478SOL     OW29332   5.045   4.174   5.350
 9478SOL    HW129333   4.980   4.098   5.360
 9478SOL    HW229334   5.011   4.253   5.401
 9479SOL     OW29335   5.886   5.406   6.192
 9479SOL    HW129336   5.917   5.345   6.119
 9479SOL    HW229337   5.943   5.488   6.193
 9480SOL     OW29338   4.421   4.241   6.602
 9480SOL    HW129339   4.442   4.175   6.531
 9480SOL    HW229340   4.349   4.303   6.571
 9481SOL     OW29341   6.866   3.889   1.622
 9481SOL    HW129342   6.858   3.988   1.637
 9481SOL    HW229343   6.962   3.862   1.629
 9482SOL     OW29344   5.588   0.609   3.274
 9482SOL    HW129345   5.674   0.658   3.262
 9482SOL    HW229346   5.515   0.674   3.296
 9483SOL     OW29347   1.611   1.906   1.122
 9483SOL    HW129348   1.552   1.827   1.105
 9483SOL    HW229349   1.583   1.981   1.062
 9484SOL     OW29350   5.962   1.169   3.677
 9484SOL    HW129351   6.061   1.173   3.668
 9484SOL    HW229352   5.931   1.075   3.666
 9485SOL     OW29353   1.617   0.526   1.732
 9485SOL    HW129354   1.584   0.523   1.827
 9485SOL    HW229355   1.717   0.533   1.732
 9486SOL     OW29356   2.238   5.825   0.576
 9486SOL    HW129357   2.319   5.768   0.560
 9486SOL    HW229358   2.156   5.772   0.557
 9487SOL     OW29359   3.758   4.109   3.619
 9487SOL    HW129360   3.764   4.093   3.520
 9487SOL    HW229361   3.801   4.196   3.641
 9488SOL     OW29362   1.983   5.920   1.291
 9488SOL    HW129363   2.046   5.955   1.221
 9488SOL    HW229364   1.889   5.940   1.265
 9489SOL     OW29365   4.081   4.418   1.147
 9489SOL    HW129366   4.068   4.337   1.204
 9489SOL    HW229367   4.011   4.420   1.075
 9490SOL     OW29368   5.196   0.521   0.867
 9490SOL    HW129369   5.292   0.528   0.842
 9490SOL    HW229370   5.140   0.531   0.785
 9491SOL     OW29371   6.508   4.950   4.285
 9491SOL    HW129372   6.548   4.899   4.209
 9491SOL    HW229373   6.511   4.895   4.368
 9492SOL     OW29374   3.295   3.798   2.148
 9492SOL    HW129375   3.325   3.716   2.099
 9492SOL    HW229376   3.279   3.872   2.083
 9493SOL     OW29377   4.817   5.408   3.571
 9493SOL    HW129378   4.721   5.381   3.573
 9493SOL    HW229379   4.837   5.455   3.485
 9494SOL     OW29380   4.707   3.416   0.156
 9494SOL    HW129381   4.756   3.348   0.101
 9494SOL    HW229382   4.696   3.381   0.249
 9495SOL     OW29383   6.119   2.368   3.589
 9495SOL    HW129384   6.091   2.309   3.664
 9495SOL    HW229385   6.130   2.313   3.506
 9496SOL     OW29386   5.325   3.895   6.205
 9496SOL    HW129387   5.249   3.848   6.160
 9496SOL    HW229388   5.301   3.914   6.300
 9497SOL     OW29389   5.033   4.679   0.768
 9497SOL    HW129390   4.963   4.658   0.836
 9497SOL    HW229391   4.992   4.731   0.693
 9498SOL     OW29392   4.025   6.531   5.353
 9498SOL    HW129393   4.092   6.530   5.427
 9498SOL    HW229394   3.933   6.539   5.391
 9499SOL     OW29395   2.386   4.335   5.780
 9499SOL    HW129396   2.372   4.247   5.734
 9499SOL    HW229397   2.312   4.397   5.756
 9500SOL     OW29398   4.603   6.148   1.772
 9500SOL    HW129399   4.621   6.071   1.711
 9500SOL    HW229400   4.525   6.201   1.737
 9501SOL     OW29401   3.542   1.766   4.617
 9501SOL    HW129402   3.603   1.790   4.693
 9501SOL    HW229403   3.595   1.722   4.544
 9502SOL     OW29404   6.669   2.283   4.779
 9502SOL    HW129405   6.724   2.279   4.695
 9502SOL    HW229406   6.599   2.354   4.769
 9503SOL     OW29407   0.452   1.056   1.872
 9503SOL    HW129408   0.529   1.082   1.930
 9503SOL    HW229409   0.450   1.113   1.790
 9504SOL     OW29410   6.952   2.635   1.020
 9504SOL    HW129411   6.986   2.541   1.031
 9504SOL    HW229412   6.867   2.633   0.966
 9505SOL     OW29413   6.390   3.671   3.062
 9505SOL    HW129414   6.401   3.582   3.017
 9505SOL    HW229415   6.298   3.706   3.043
 9506SOL     OW29416   0.191   3.177   0.249
 9506SOL    HW129417   0.174   3.265   0.204
 9506SOL    HW229418   0.132   3.107   0.209
 9507SOL     OW29419   1.850   1.193   4.260
 9507SOL    HW129420   1.934   1.225   4.216
 9507SOL    HW229421   1.773   1.206   4.197
 9508SOL     OW29422   5.555   1.965   0.389
 9508SOL    HW129423   5.460   1.975   0.359
 9508SOL    HW229424   5.557   1.950   0.488
 9509SOL     OW29425   1.311   6.499   5.417
 9509SOL    HW129426   1.297   6.489   5.319
 9509SOL    HW229427   1.286   6.414   5.463
 9510SOL     OW29428   6.601   4.199   2.114
 9510SOL    HW129429   6.665   4.124   2.123
 9510SOL    HW229430   6.585   4.218   2.017
 9511SOL     OW29431   0.792   2.425   0.185
 9511SOL    HW129432   0.755   2.333   0.175
 9511SOL    HW229433   0.778   2.475   0.100
 9512SOL     OW29434   0.020   1.908   3.851
 9512SOL    HW129435   7.020   2.002   3.874
 9512SOL    HW229436   6.966   1.864   3.806
 9513SOL     OW29437   2.100   4.285   4.685
 9513SOL    HW129438   2.067   4.358   4.625
 9513SOL    HW229439   2.184   4.245   4.647
 9514SOL     OW29440   1.912   3.848   6.400
 9514SOL    HW129441   1.923   3.840   6.499
 9514SOL    HW229442   1.842   3.783   6.369
 9515SOL     OW29443   1.256   6.153   6.915
 9515SOL    HW129444   1.200   6.174   6.835
 9515SOL    HW229445   1.301   6.236   6.947
 9516SOL     OW29446   4.888   3.551   4.358
 9516SOL    HW129447   4.924   3.617   4.425
 9516SOL    HW229448   4.850   3.472   4.406
 9517SOL     OW29449   1.026   5.232   1.498
 9517SOL    HW129450   0.962   5.157   1.512
 9517SOL    HW229451   1.060   5.230   1.404
 9518SOL     OW29452   1.225   2.846   5.583
 9518SOL    HW129453   1.320   2.876   5.595
 9518SOL    HW229454   1.223   2.748   5.565
 9519SOL     OW29455   2.919   3.374   2.808
 9519SOL    HW129456   2.958   3.284   2.828
 9519SOL    HW229457   2.889   3.377   2.712
 9520SOL     OW29458   6.809   0.814   4.792
 9520SOL    HW129459   6.844   0.868   4.715
 9520SOL    HW229460   6.759   0.735   4.756
 9521SOL     OW29461   3.140   5.951   1.919
 9521SOL    HW129462   3.129   5.926   2.015
 9521SOL    HW229463   3.120   5.871   1.862
 9522SOL     OW29464   4.134   5.064   2.135
 9522SOL    HW129465   4.207   5.074   2.202
 9522SOL    HW229466   4.046   5.054   2.183
 9523SOL     OW29467   2.177   5.201   4.744
 9523SOL    HW129468   2.253   5.143   4.775
 9523SOL    HW229469   2.189   5.223   4.648
 9524SOL     OW29470   1.037   3.880   1.667
 9524SOL    HW129471   1.117   3.825   1.693
 9524SOL    HW229472   1.008   3.856   1.575
 9525SOL     OW29473   1.949   2.350   6.014
 9525SOL    HW129474   1.858   2.358   5.974
 9525SOL    HW229475   1.941   2.335   6.113
 9526SOL     OW29476   5.519   5.254   0.566
 9526SOL    HW129477   5.515   5.162   0.526
 9526SOL    HW229478   5.426   5.284   0.589
 9527SOL     OW29479   2.835   6.885   3.945
 9527SOL    HW129480   2.903   6.846   4.008
 9527SOL    HW229481   2.834   6.984   3.956
 9528SOL     OW29482   5.881   1.019   1.159
 9528SOL    HW129483   5.933   0.974   1.232
 9528SOL    HW229484   5.802   1.066   1.199
 9529SOL     OW29485   5.870   3.340   1.017
 9529SOL    HW129486   5.879   3.439   1.015
 9529SOL    HW229487   5.871   3.308   1.112
 9530SOL     OW29488   1.638   5.766   4.651
 9530SOL    HW129489   1.592   5.709   4.584
 9530SOL    HW229490   1.608   5.861   4.641
 9531SOL     OW29491   4.528   4.477   3.219
 9531SOL    HW129492   4.450   4.467   3.158
 9531SOL    HW229493   4.605   4.516   3.169
 9532SOL     OW29494   6.305   4.824   1.679
 9532SOL    HW129495   6.382   4.783   1.729
 9532SOL    HW229496   6.339   4.891   1.614
 9533SOL     OW29497   1.164   5.600   4.448
 9533SOL    HW129498   1.161   5.585   4.547
 9533SOL    HW229499   1.089   5.661   4.422
 9534SOL     OW29500   5.977   4.657   4.770
 9534SOL    HW129501   5.908   4.591   4.740
 9534SOL    HW229502   6.014   4.627   4.858
 9535SOL     OW29503   1.950   1.647   5.749
 9535SOL    HW129504   1.914   1.555   5.736
 9535SOL    HW229505   2.039   1.656   5.704
 9536SOL     OW29506   3.345   2.912   4.873
 9536SOL    HW129507   3.337   2.839   4.805
 9536SOL    HW229508   3.417   2.975   4.846
 9537SOL     OW29509   2.490   1.846   4.059
 9537SOL    HW129510   2.495   1.822   4.156
 9537SOL    HW229511   2.520   1.941   4.047
 9538SOL     OW29512   3.843   1.134   4.353
 9538SOL    HW129513   3.790   1.203   4.304
 9538SOL    HW229514   3.883   1.069   4.288
 9539SOL     OW29515   3.283   2.940   3.754
 9539SOL    HW129516   3.210   3.009   3.761
 9539SOL    HW229517   3.370   2.980   3.782
 9540SOL     OW29518   4.851   5.253   4.265
 9540SOL    HW129519   4.754   5.261   4.241
 9540SOL    HW229520   4.865   5.170   4.320
 9541SOL     OW29521   0.988   1.047   5.641
 9541SOL    HW129522   0.933   1.119   5.599
 9541SOL    HW229523   0.954   0.957   5.612
 9542SOL     OW29524   5.776   4.720   4.205
 9542SOL    HW129525   5.844   4.713   4.131
 9542SOL    HW229526   5.819   4.698   4.292
 9543SOL     OW29527   3.351   0.234   6.102
 9543SOL    HW129528   3.325   0.241   6.198
 9543SOL    HW229529   3.383   0.141   6.082
 9544SOL     OW29530   4.867   4.041   3.869
 9544SOL    HW129531   4.819   4.129   3.867
 9544SOL    HW229532   4.864   4.000   3.778
 9545SOL     OW29533   0.806   5.002   2.060
 9545SOL    HW129534   0.838   4.930   1.999
 9545SOL    HW229535   0.706   5.002   2.064
 9546SOL     OW29536   3.111   1.995   6.117
 9546SOL    HW129537   3.187   1.985   6.182
 9546SOL    HW229538   3.147   2.000   6.024
 9547SOL     OW29539   3.430   5.523   4.550
 9547SOL    HW129540   3.350   5.502   4.494
 9547SOL    HW229541   3.427   5.619   4.578
 9548SOL     OW29542   0.975   5.382   5.384
 9548SOL    HW129543   0.934   5.320   5.452
 9548SOL    HW229544   0.955   5.348   5.292
 9549SOL     OW29545   3.879   0.644   2.530
 9549SOL    HW129546   3.843   0.723   2.479
 9549SOL    HW229547   3.861   0.656   2.627
 9550SOL     OW29548   6.276   2.529   1.081
 9550SOL    HW129549   6.345   2.600   1.067
 9550SOL    HW229550   6.209   2.533   1.007
 9551SOL     OW29551   5.777   3.111   6.120
 9551SOL    HW129552   5.807   3.092   6.027
 9551SOL    HW229553   5.821   3.047   6.184
 9552SOL     OW29554   2.180   0.756   6.238
 9552SOL    HW129555   2.176   0.852   6.207
 9552SOL    HW229556   2.256   0.710   6.191
 9553SOL     OW29557   5.168   1.667   0.526
 9553SOL    HW129558   5.181   1.667   0.625
 9553SOL    HW229559   5.209   1.585   0.487
 9554SOL     OW29560   2.077   6.453   3.918
 9554SOL    HW129561   2.132   6.387   3.970
 9554SOL    HW229562   2.135   6.526   3.884
 9555SOL     OW29563   6.752   1.555   3.882
 9555SOL    HW129564   6.765   1.527   3.786
 9555SOL    HW229565   6.783   1.649   3.894
 9556SOL     OW29566   1.492   4.865   1.569
 9556SOL    HW129567   1.473   4.768   1.584
 9556SOL    HW229568   1.573   4.875   1.512
 9557SOL     OW29569   4.821   6.877   1.911
 9557SOL    HW129570   4.902   6.933   1.928
 9557SOL    HW229571   4.794   6.887   1.815
 9558SOL     OW29572   5.594   6.441   5.350
 9558SOL    HW129573   5.664   6.382   5.389
 9558SOL    HW229574   5.547   6.491   5.423
 9559SOL     OW29575   1.672   3.538   0.017
 9559SOL    HW129576   1.731   3.614   7.014
 9559SOL    HW229577   1.638   3.554   0.110
 9560SOL     OW29578   2.893   1.191   2.706
 9560SOL    HW129579   2.838   1.119   2.663
 9560SOL    HW229580   2.962   1.223   2.642
 9561SOL     OW29581   0.456   0.701   1.624
 9561SOL    HW129582   0.507   0.696   1.539
 9561SOL    HW229583   0.364   0.664   1.611
 9562SOL     OW29584   3.060   6.226   4.496
 9562SOL    HW129585   3.121   6.215   4.574
 9562SOL    HW229586   2.965   6.228   4.527
 9563SOL     OW29587   0.236   6.392   0.503
 9563SOL    HW129588   0.296   6.467   0.531
 9563SOL    HW229589   0.280   6.305   0.524
 9564SOL     OW29590   1.990   1.254   1.330
 9564SOL    HW129591   1.919   1.318   1.301
 9564SOL    HW229592   2.007   1.188   1.257
 9565SOL     OW29593   2.926   1.276   4.186
 9565SOL    HW129594   2.878   1.189   4.197
 9565SOL    HW229595   2.951   1.311   4.276
 9566SOL     OW29596   2.298   6.397   0.620
 9566SOL    HW129597   2.331   6.312   0.661
 9566SOL    HW229598   2.259   6.455   0.691
 9567SOL     OW29599   5.843   4.417   0.314
 9567SOL    HW129600   5.827   4.318   0.323
 9567SOL    HW229601   5.902   4.434   0.236
 9568SOL     OW29602   4.289   1.332   0.703
 9568SOL    HW129603   4.300   1.295   0.611
 9568SOL    HW229604   4.255   1.260   0.764
 9569SOL     OW29605   7.006   0.766   2.240
 9569SOL    HW129606   0.067   0.735   2.198
 9569SOL    HW229607   6.998   0.727   2.332
 9570SOL     OW29608   0.938   2.591   0.895
 9570SOL    HW129609   0.945   2.648   0.976
 9570SOL    HW229610   0.866   2.626   0.835
 9571SOL     OW29611   2.151   2.559   6.027
 9571SOL    HW129612   2.151   2.582   6.124
 9571SOL    HW229613   2.085   2.487   6.009
 9572SOL     OW29614   2.515   4.568   2.662
 9572SOL    HW129615   2.477   4.661   2.665
 9572SOL    HW229616   2.606   4.571   2.620
 9573SOL     OW29617   6.506   1.271   5.617
 9573SOL    HW129618   6.442   1.304   5.687
 9573SOL    HW229619   6.480   1.309   5.528
 9574SOL     OW29620   3.467   2.943   1.989
 9574SOL    HW129621   3.531   2.872   1.960
 9574SOL    HW229622   3.480   2.962   2.087
 9575SOL     OW29623   6.379   0.469   2.227
 9575SOL    HW129624   6.325   0.397   2.183
 9575SOL    HW229625   6.475   0.458   2.202
 9576SOL     OW29626   1.743   2.020   0.137
 9576SOL    HW129627   1.673   1.952   0.117
 9576SOL    HW229628   1.808   1.983   0.203
 9577SOL     OW29629   0.192   5.637   6.855
 9577SOL    HW129630   0.140   5.650   6.940
 9577SOL    HW229631   0.179   5.717   6.796
 9578SOL     OW29632   1.228   2.311   2.789
 9578SOL    HW129633   1.167   2.302   2.711
 9578SOL    HW229634   1.180   2.356   2.864
 9579SOL     OW29635   6.264   6.093   2.526
 9579SOL    HW129636   6.311   6.005   2.537
 9579SOL    HW229637   6.322   6.166   2.562
 9580SOL     OW29638   5.008   3.719   1.037
 9580SOL    HW129639   5.024   3.717   1.136
 9580SOL    HW229640   4.968   3.806   1.011
 9581SOL     OW29641   0.599   0.418   6.252
 9581SOL    HW129642   0.664   0.355   6.297
 9581SOL    HW229643   0.648   0.474   6.186
 9582SOL     OW29644   3.750   5.509   4.688
 9582SOL    HW129645   3.662   5.462   4.693
 9582SOL    HW229646   3.807   5.480   4.765
 9583SOL     OW29647   3.247   4.587   1.266
 9583SOL    HW129648   3.259   4.543   1.356
 9583SOL    HW229649   3.150   4.593   1.245
 9584SOL     OW29650   1.378   5.122   5.889
 9584SOL    HW129651   1.447   5.088   5.953
 9584SOL    HW229652   1.366   5.057   5.814
 9585SOL     OW29653   5.432   6.640   2.210
 9585SOL    HW129654   5.405   6.736   2.210
 9585SOL    HW229655   5.363   6.585   2.258
 9586SOL     OW29656   4.372   5.107   2.264
 9586SOL    HW129657   4.391   5.053   2.183
 9586SOL    HW229658   4.458   5.142   2.302
 9587SOL     OW29659   1.320   6.459   2.720
 9587SOL    HW129660   1.348   6.451   2.815
 9587SOL    HW229661   1.290   6.369   2.686
 9588SOL     OW29662   6.172   6.043   0.810
 9588SOL    HW129663   6.186   6.140   0.790
 9588SOL    HW229664   6.252   5.991   0.782
 9589SOL     OW29665   1.697   4.069   6.732
 9589SOL    HW129666   1.615   4.116   6.766
 9589SOL    HW229667   1.706   4.085   6.634
 9590SOL     OW29668   6.360   2.300   1.741
 9590SOL    HW129669   6.356   2.209   1.701
 9590SOL    HW229670   6.300   2.361   1.689
 9591SOL     OW29671   3.912   5.913   6.262
 9591SOL    HW129672   3.986   5.970   6.298
 9591SOL    HW229673   3.897   5.836   6.324
 9592SOL     OW29674   3.259   5.335   0.820
 9592SOL    HW129675   3.180   5.275   0.836
 9592SOL    HW229676   3.288   5.377   0.905
 9593SOL     OW29677   1.014   2.052   5.245
 9593SOL    HW129678   1.037   2.132   5.191
 9593SOL    HW229679   1.077   1.977   5.223
 9594SOL     OW29680   2.792   6.236   4.558
 9594SOL    HW129681   2.781   6.217   4.461
 9594SOL    HW229682   2.804   6.335   4.571
 9595SOL     OW29683   0.505   2.853   3.630
 9595SOL    HW129684   0.604   2.845   3.619
 9595SOL    HW229685   0.484   2.883   3.723
 9596SOL     OW29686   0.885   5.345   0.485
 9596SOL    HW129687   0.809   5.379   0.541
 9596SOL    HW229688   0.917   5.258   0.522
 9597SOL     OW29689   0.141   4.303   1.153
 9597SOL    HW129690   0.183   4.235   1.093
 9597SOL    HW229691   0.043   4.283   1.163
 9598SOL     OW29692   2.123   4.037   3.328
 9598SOL    HW129693   2.027   4.060   3.312
 9598SOL    HW229694   2.131   3.938   3.343
 9599SOL     OW29695   3.158   0.093   4.195
 9599SOL    HW129696   3.248   0.058   4.221
 9599SOL    HW229697   3.140   0.073   4.099
 9600SOL     OW29698   2.844   0.239   0.314
 9600SOL    HW129699   2.807   0.178   0.245
 9600SOL    HW229700   2.772   0.263   0.380
 9601SOL     OW29701   5.422   4.221   0.181
 9601SOL    HW129702   5.473   4.294   0.225
 9601SOL    HW229703   5.483   4.167   0.123
 9602SOL     OW29704   4.858   3.787   5.551
 9602SOL    HW129705   4.823   3.871   5.510
 9602SOL    HW229706   4.808   3.709   5.514
 9603SOL     OW29707   5.475   0.011   6.531
 9603SOL    HW129708   5.499   0.012   6.628
 9603SOL    HW229709   5.412   0.086   6.511
 9604SOL     OW29710   5.169   6.796   1.596
 9604SOL    HW129711   5.085   6.780   1.544
 9604SOL    HW229712   5.169   6.889   1.631
 9605SOL     OW29713   0.900   5.492   2.684
 9605SOL    HW129714   0.889   5.395   2.660
 9605SOL    HW229715   0.825   5.521   2.743
 9606SOL     OW29716   1.426   6.892   6.263
 9606SOL    HW129717   1.458   6.823   6.327
 9606SOL    HW229718   1.486   6.972   6.268
 9607SOL     OW29719   2.762   1.208   0.446
 9607SOL    HW129720   2.787   1.295   0.403
 9607SOL    HW229721   2.670   1.181   0.416
 9608SOL     OW29722   0.290   4.911   2.107
 9608SOL    HW129723   0.285   4.925   2.008
 9608SOL    HW229724   0.237   4.829   2.132
 9609SOL     OW29725   3.949   3.041   0.253
 9609SOL    HW129726   3.972   3.066   0.159
 9609SOL    HW229727   3.850   3.027   0.261
 9610SOL     OW29728   1.685   4.807   3.128
 9610SOL    HW129729   1.602   4.806   3.071
 9610SOL    HW229730   1.703   4.714   3.161
 9611SOL     OW29731   1.240   6.269   0.204
 9611SOL    HW129732   1.264   6.241   0.111
 9611SOL    HW229733   1.143   6.249   0.220
 9612SOL     OW29734   0.559   3.018   1.767
 9612SOL    HW129735   0.636   2.960   1.741
 9612SOL    HW229736   0.521   2.986   1.854
 9613SOL     OW29737   5.463   6.765   3.662
 9613SOL    HW129738   5.388   6.752   3.727
 9613SOL    HW229739   5.481   6.678   3.615
 9614SOL     OW29740   3.767   1.918   2.091
 9614SOL    HW129741   3.833   1.888   2.022
 9614SOL    HW229742   3.741   2.013   2.072
 9615SOL     OW29743   2.493   1.297   1.184
 9615SOL    HW129744   2.540   1.290   1.272
 9615SOL    HW229745   2.420   1.364   1.191
 9616SOL     OW29746   3.898   3.900   1.152
 9616SOL    HW129747   3.953   3.827   1.111
 9616SOL    HW229748   3.881   3.878   1.248
 9617SOL     OW29749   1.981   2.857   3.613
 9617SOL    HW129750   1.890   2.824   3.586
 9617SOL    HW229751   1.972   2.944   3.661
 9618SOL     OW29752   2.754   0.080   0.988
 9618SOL    HW129753   2.778   7.018   0.945
 9618SOL    HW229754   2.667   0.113   0.953
 9619SOL     OW29755   2.040   0.246   5.744
 9619SOL    HW129756   1.996   0.293   5.667
 9619SOL    HW229757   2.027   0.300   5.827
 9620SOL     OW29758   4.362   0.131   5.130
 9620SOL    HW129759   4.331   0.042   5.161
 9620SOL    HW229760   4.388   0.187   5.208
 9621SOL     OW29761   1.899   3.175   1.824
 9621SOL    HW129762   1.828   3.216   1.767
 9621SOL    HW229763   1.868   3.173   1.919
 9622SOL     OW29764   6.225   1.755   0.629
 9622SOL    HW129765   6.168   1.678   0.659
 9622SOL    HW229766   6.166   1.828   0.595
 9623SOL     OW29767   2.721   3.538   5.789
 9623SOL    HW129768   2.812   3.568   5.817
 9623SOL    HW229769   2.664   3.618   5.770
 9624SOL     OW29770   5.978   3.862   2.792
 9624SOL    HW129771   5.905   3.803   2.757
 9624SOL    HW229772   6.000   3.932   2.724
 9625SOL     OW29773   5.312   5.225   6.976
 9625SOL    HW129774   5.217   5.210   7.001
 9625SOL    HW229775   5.360   5.137   6.974
 9626SOL     OW29776   4.448   5.254   0.523
 9626SOL    HW129777   4.374   5.226   0.462
 9626SOL    HW229778   4.452   5.354   0.526
 9627SOL     OW29779   0.833   6.438   6.492
 9627SOL    HW129780   0.831   6.338   6.488
 9627SOL    HW229781   0.849   6.468   6.586
 9628SOL     OW29782   5.455   4.630   1.007
 9628SOL    HW129783   5.545   4.655   0.973
 9628SOL    HW229784   5.464   4.554   1.072
 9629SOL     OW29785   1.982   0.415   1.171
 9629SOL    HW129786   2.049   0.423   1.097
 9629SOL    HW229787   1.905   0.477   1.153
 9630SOL     OW29788   6.180   6.719   4.650
 9630SOL    HW129789   6.133   6.667   4.578
 9630SOL    HW229790   6.117   6.733   4.727
 9631SOL     OW29791   6.761   6.228   6.454
 9631SOL    HW129792   6.699   6.150   6.458
 9631SOL    HW229793   6.784   6.248   6.359
 9632SOL     OW29794   1.545   6.678   2.779
 9632SOL    HW129795   1.640   6.674   2.808
 9632SOL    HW229796   1.488   6.630   2.846
 9633SOL     OW29797   5.422   5.013   6.669
 9633SOL    HW129798   5.365   4.931   6.671
 9633SOL    HW229799   5.435   5.042   6.574
 9634SOL     OW29800   1.324   6.388   3.953
 9634SOL    HW129801   1.363   6.300   3.925
 9634SOL    HW229802   1.366   6.416   4.040
 9635SOL     OW29803   1.899   6.449   5.058
 9635SOL    HW129804   1.942   6.367   5.096
 9635SOL    HW229805   1.800   6.443   5.072
 9636SOL     OW29806   3.851   1.483   5.544
 9636SOL    HW129807   3.796   1.508   5.624
 9636SOL    HW229808   3.948   1.492   5.566
 9637SOL     OW29809   2.424   2.480   6.638
 9637SOL    HW129810   2.375   2.495   6.723
 9637SOL    HW229811   2.394   2.548   6.570
 9638SOL     OW29812   0.196   3.418   6.222
 9638SOL    HW129813   0.278   3.467   6.192
 9638SOL    HW229814   0.154   3.467   6.299
 9639SOL     OW29815   4.086   1.746   2.160
 9639SOL    HW129816   4.175   1.701   2.162
 9639SOL    HW229817   4.081   1.809   2.083
 9640SOL     OW29818   2.146   3.063   3.987
 9640SOL    HW129819   2.145   3.159   4.015
 9640SOL    HW229820   2.056   3.023   4.002
 9641SOL     OW29821   4.539   0.196   0.392
 9641SOL    HW129822   4.561   0.114   0.339
 9641SOL    HW229823   4.451   0.233   0.362
 9642SOL     OW29824   2.786   6.852   4.841
 9642SOL    HW129825   2.842   6.923   4.797
 9642SOL    HW229826   2.715   6.822   4.778
 9643SOL     OW29827   5.625   4.202   3.423
 9643SOL    HW129828   5.663   4.194   3.515
 9643SOL    HW229829   5.545   4.143   3.415
 9644SOL     OW29830   1.110   3.513   6.343
 9644SOL    HW129831   1.108   3.569   6.260
 9644SOL    HW229832   1.067   3.563   6.418
 9645SOL     OW29833   2.384   5.067   4.856
 9645SOL    HW129834   2.416   5.114   4.938
 9645SOL    HW229835   2.398   4.969   4.866
 9646SOL     OW29836   3.640   4.944   2.936
 9646SOL    HW129837   3.732   4.907   2.924
 9646SOL    HW229838   3.593   4.893   3.008
 9647SOL     OW29839   6.305   4.362   0.844
 9647SOL    HW129840   6.216   4.332   0.878
 9647SOL    HW229841   6.335   4.303   0.769
 9648SOL     OW29842   4.139   1.196   1.232
 9648SOL    HW129843   4.166   1.288   1.206
 9648SOL    HW229844   4.049   1.199   1.278
 9649SOL     OW29845   2.689   6.854   0.355
 9649SOL    HW129846   2.594   6.841   0.382
 9649SOL    HW229847   2.748   6.848   0.436
 9650SOL     OW29848   6.989   5.219   2.589
 9650SOL    HW129849   6.930   5.176   2.657
 9650SOL    HW229850   0.049   5.167   2.579
 9651SOL     OW29851   6.963   1.876   5.837
 9651SOL    HW129852   6.955   1.778   5.853
 9651SOL    HW229853   6.879   1.910   5.796
 9652SOL     OW29854   0.952   4.812   1.550
 9652SOL    HW129855   0.991   4.823   1.459
 9652SOL    HW229856   0.983   4.887   1.609
 9653SOL     OW29857   4.240   4.785   5.332
 9653SOL    HW129858   4.166   4.851   5.321
 9653SOL    HW229859   4.248   4.759   5.429
 9654SOL     OW29860   3.003   2.231   1.383
 9654SOL    HW129861   2.991   2.328   1.401
 9654SOL    HW229862   2.995   2.213   1.285
 9655SOL     OW29863   6.712   1.827   6.220
 9655SOL    HW129864   6.674   1.851   6.131
 9655SOL    HW229865   6.670   1.885   6.291
 9656SOL     OW29866   2.347   0.614   3.062
 9656SOL    HW129867   2.302   0.525   3.070
 9656SOL    HW229868   2.339   0.647   2.968
 9657SOL     OW29869   5.180   0.813   4.168
 9657SOL    HW129870   5.279   0.800   4.177
 9657SOL    HW229871   5.158   0.909   4.182
 9658SOL     OW29872   0.313   1.870   2.537
 9658SOL    HW129873   0.405   1.869   2.497
 9658SOL    HW229874   0.255   1.932   2.484
 9659SOL     OW29875   0.095   3.798   0.429
 9659SOL    HW129876   0.095   3.846   0.517
 9659SOL    HW229877   0.062   3.860   0.358
 9660SOL     OW29878   0.517   6.166   1.111
 9660SOL    HW129879   0.430   6.128   1.142
 9660SOL    HW229880   0.512   6.266   1.112
 9661SOL     OW29881   4.605   6.375   0.848
 9661SOL    HW129882   4.690   6.328   0.872
 9661SOL    HW229883   4.535   6.352   0.917
 9662SOL     OW29884   6.302   2.845   4.864
 9662SOL    HW129885   6.283   2.823   4.768
 9662SOL    HW229886   6.310   2.944   4.874
 9663SOL     OW29887   1.674   5.409   3.740
 9663SOL    HW129888   1.745   5.410   3.810
 9663SOL    HW229889   1.664   5.500   3.702
 9664SOL     OW29890   4.434   6.598   2.673
 9664SOL    HW129891   4.487   6.582   2.590
 9664SOL    HW229892   4.460   6.531   2.742
 9665SOL     OW29893   5.820   4.863   5.487
 9665SOL    HW129894   5.851   4.906   5.572
 9665SOL    HW229895   5.726   4.831   5.498
 9666SOL     OW29896   5.862   4.109   1.426
 9666SOL    HW129897   5.809   4.182   1.468
 9666SOL    HW229898   5.959   4.133   1.428
 9667SOL     OW29899   4.130   3.436   3.895
 9667SOL    HW129900   4.162   3.513   3.950
 9667SOL    HW229901   4.035   3.415   3.919
 9668SOL     OW29902   6.929   1.360   5.430
 9668SOL    HW129903   6.885   1.305   5.359
 9668SOL    HW229904   6.996   1.421   5.389
 9669SOL     OW29905   0.438   0.787   0.958
 9669SOL    HW129906   0.355   0.800   1.012
 9669SOL    HW229907   0.453   0.867   0.901
 9670SOL     OW29908   4.334   4.577   6.044
 9670SOL    HW129909   4.409   4.555   5.981
 9670SOL    HW229910   4.278   4.650   6.005
 9671SOL     OW29911   6.702   5.405   5.928
 9671SOL    HW129912   6.725   5.483   5.987
 9671SOL    HW229913   6.650   5.338   5.981
 9672SOL     OW29914   1.265   6.501   5.120
 9672SOL    HW129915   1.192   6.570   5.121
 9672SOL    HW229916   1.334   6.527   5.052
 9673SOL     OW29917   3.792   4.839   6.842
 9673SOL    HW129918   3.743   4.798   6.766
 9673SOL    HW229919   3.889   4.848   6.818
 9674SOL     OW29920   2.942   5.943   1.709
 9674SOL    HW129921   2.923   5.991   1.795
 9674SOL    HW229922   2.864   5.952   1.648
 9675SOL     OW29923   5.807   0.857   2.027
 9675SOL    HW129924   5.777   0.942   1.982
 9675SOL    HW229925   5.808   0.783   1.960
 9676SOL     OW29926   1.482   3.463   5.667
 9676SOL    HW129927   1.444   3.544   5.622
 9676SOL    HW229928   1.574   3.484   5.702
 9677SOL     OW29929   2.560   4.277   5.997
 9677SOL    HW129930   2.509   4.311   5.918
 9677SOL    HW229931   2.535   4.182   6.014
 9678SOL     OW29932   4.142   3.336   2.933
 9678SOL    HW129933   4.232   3.317   2.894
 9678SOL    HW229934   4.074   3.338   2.860
 9679SOL     OW29935   1.113   2.968   2.280
 9679SOL    HW129936   1.163   3.038   2.331
 9679SOL    HW229937   1.031   3.009   2.239
 9680SOL     OW29938   5.795   6.456   3.664
 9680SOL    HW129939   5.822   6.513   3.586
 9680SOL    HW229940   5.860   6.381   3.675
 9681SOL     OW29941   2.163   0.679   1.348
 9681SOL    HW129942   2.257   0.670   1.316
 9681SOL    HW229943   2.128   0.590   1.377
 9682SOL     OW29944   4.759   5.097   2.936
 9682SOL    HW129945   4.815   5.059   3.008
 9682SOL    HW229946   4.689   5.031   2.909
 9683SOL     OW29947   4.067   5.364   0.399
 9683SOL    HW129948   4.162   5.369   0.371
 9683SOL    HW229949   4.035   5.269   0.389
 9684SOL     OW29950   0.104   3.723   4.684
 9684SOL    HW129951   0.052   3.793   4.732
 9684SOL    HW229952   0.119   3.645   4.744
 9685SOL     OW29953   2.636   2.909   1.388
 9685SOL    HW129954   2.698   2.835   1.363
 9685SOL    HW229955   2.548   2.871   1.418
 9686SOL     OW29956   0.084   1.508   1.296
 9686SOL    HW129957   7.024   1.562   1.296
 9686SOL    HW229958   0.144   1.540   1.369
 9687SOL     OW29959   2.257   0.855   3.187
 9687SOL    HW129960   2.161   0.882   3.196
 9687SOL    HW229961   2.263   0.757   3.171
 9688SOL     OW29962   0.010   2.432   3.059
 9688SOL    HW129963   0.071   2.510   3.068
 9688SOL    HW229964   0.016   2.396   2.966
 9689SOL     OW29965   2.034   6.754   6.935
 9689SOL    HW129966   2.062   6.725   6.844
 9689SOL    HW229967   2.115   6.769   6.992
 9690SOL     OW29968   5.903   4.958   0.023
 9690SOL    HW129969   5.999   4.951   0.051
 9690SOL    HW229970   5.849   4.892   0.075
 9691SOL     OW29971   2.009   4.862   2.014
 9691SOL    HW129972   2.075   4.805   1.964
 9691SOL    HW229973   2.028   4.959   1.995
 9692SOL     OW29974   2.693   5.149   2.112
 9692SOL    HW129975   2.777   5.105   2.080
 9692SOL    HW229976   2.709   5.247   2.125
 9693SOL     OW29977   6.801   5.367   2.007
 9693SOL    HW129978   6.880   5.428   2.006
 9693SOL    HW229979   6.751   5.376   1.921
 9694SOL     OW29980   2.004   2.137   0.060
 9694SOL    HW129981   1.906   2.122   0.068
 9694SOL    HW229982   2.050   2.050   0.044
 9695SOL     OW29983   5.851   4.686   0.410
 9695SOL    HW129984   5.835   4.588   0.393
 9695SOL    HW229985   5.938   4.713   0.368
 9696SOL     OW29986   3.902   2.636   1.593
 9696SOL    HW129987   3.836   2.601   1.659
 9696SOL    HW229988   3.960   2.704   1.638
 9697SOL     OW29989   0.818   4.815   0.052
 9697SOL    HW129990   0.802   4.905   0.010
 9697SOL    HW229991   0.885   4.824   0.126
 9698SOL     OW29992   5.700   0.800   4.826
 9698SOL    HW129993   5.774   0.789   4.760
 9698SOL    HW229994   5.689   0.716   4.879
 9699SOL     OW29995   1.011   3.919   5.888
 9699SOL    HW129996   1.013   4.019   5.892
 9699SOL    HW229997   0.951   3.885   5.961
 9700SOL     OW29998   3.694   4.959   5.516
 9700SOL    HW129999   3.680   4.970   5.417
 9700SOL    HW230000   3.694   4.862   5.539
 9701SOL     OW30001   3.806   5.815   5.373
 9701SOL    HW130002   3.855   5.903   5.367
 9701SOL    HW230003   3.760   5.809   5.461
 9702SOL     OW30004   5.259   1.130   0.558
 9702SOL    HW130005   5.245   1.035   0.585
 9702SOL    HW230006   5.199   1.152   0.482
 9703SOL     OW30007   2.872   5.946   4.419
 9703SOL    HW130008   2.914   5.968   4.507
 9703SOL    HW230009   2.943   5.936   4.350
 9704SOL     OW30010   3.300   0.033   2.978
 9704SOL    HW130011   3.367   0.099   2.943
 9704SOL    HW230012   3.341   6.965   2.978
 9705SOL     OW30013   4.261   5.139   0.326
 9705SOL    HW130014   4.172   5.094   0.331
 9705SOL    HW230015   4.291   5.141   0.230
 9706SOL     OW30016   6.552   2.433   0.810
 9706SOL    HW130017   6.512   2.393   0.892
 9706SOL    HW230018   6.562   2.362   0.740
 9707SOL     OW30019   0.799   4.016   2.209
 9707SOL    HW130020   0.836   3.946   2.148
 9707SOL    HW230021   0.858   4.024   2.290
 9708SOL     OW30022   1.680   2.677   3.879
 9708SOL    HW130023   1.690   2.627   3.965
 9708SOL    HW230024   1.602   2.739   3.885
 9709SOL     OW30025   1.144   6.379   3.652
 9709SOL    HW130026   1.216   6.351   3.716
 9709SOL    HW230027   1.105   6.298   3.609
 9710SOL     OW30028   0.382   0.773   3.042
 9710SOL    HW130029   0.455   0.707   3.023
 9710SOL    HW230030   0.385   0.799   3.138
 9711SOL     OW30031   1.427   2.955   6.035
 9711SOL    HW130032   1.349   2.892   6.039
 9711SOL    HW230033   1.413   3.021   5.961
 9712SOL     OW30034   5.544   2.434   4.739
 9712SOL    HW130035   5.485   2.357   4.764
 9712SOL    HW230036   5.614   2.446   4.810
 9713SOL     OW30037   0.342   4.534   3.061
 9713SOL    HW130038   0.382   4.547   2.970
 9713SOL    HW230039   0.373   4.446   3.098
 9714SOL     OW30040   2.232   1.383   1.196
 9714SOL    HW130041   2.248   1.415   1.289
 9714SOL    HW230042   2.186   1.294   1.199
 9715SOL     OW30043   6.004   5.778   4.797
 9715SOL    HW130044   5.978   5.711   4.867
 9715SOL    HW230045   6.082   5.743   4.745
 9716SOL     OW30046   3.737   1.949   6.591
 9716SOL    HW130047   3.743   1.892   6.509
 9716SOL    HW230048   3.643   1.946   6.626
 9717SOL     OW30049   5.314   5.735   4.414
 9717SOL    HW130050   5.302   5.711   4.317
 9717SOL    HW230051   5.313   5.652   4.469
 9718SOL     OW30052   4.093   2.580   1.398
 9718SOL    HW130053   4.041   2.586   1.484
 9718SOL    HW230054   4.087   2.667   1.349
 9719SOL     OW30055   0.873   2.176   0.529
 9719SOL    HW130056   0.958   2.228   0.541
 9719SOL    HW230057   0.802   2.238   0.497
 9720SOL     OW30058   0.415   6.174   2.039
 9720SOL    HW130059   0.432   6.077   2.025
 9720SOL    HW230060   0.414   6.194   2.138
 9721SOL     OW30061   0.756   3.206   2.081
 9721SOL    HW130062   0.780   3.276   2.014
 9721SOL    HW230063   0.678   3.153   2.048
 9722SOL     OW30064   0.257   0.665   3.684
 9722SOL    HW130065   0.323   0.638   3.753
 9722SOL    HW230066   0.261   0.765   3.671
 9723SOL     OW30067   0.658   6.572   3.046
 9723SOL    HW130068   0.633   6.651   2.991
 9723SOL    HW230069   0.722   6.600   3.118
 9724SOL     OW30070   2.935   2.664   1.708
 9724SOL    HW130071   2.847   2.709   1.725
 9724SOL    HW230072   2.945   2.586   1.770
 9725SOL     OW30073   4.230   3.524   6.475
 9725SOL    HW130074   4.289   3.544   6.397
 9725SOL    HW230075   4.137   3.556   6.456
 9726SOL     OW30076   5.586   6.981   4.582
 9726SOL    HW130077   5.545   0.047   4.580
 9726SOL    HW230078   5.536   6.920   4.520
 9727SOL     OW30079   1.306   3.891   5.618
 9727SOL    HW130080   1.341   3.984   5.617
 9727SOL    HW230081   1.297   3.860   5.713
 9728SOL     OW30082   1.729   6.472   6.356
 9728SOL    HW130083   1.770   6.405   6.294
 9728SOL    HW230084   1.779   6.558   6.351
 9729SOL     OW30085   1.258   4.415   2.989
 9729SOL    HW130086   1.197   4.486   3.025
 9729SOL    HW230087   1.239   4.402   2.892
 9730SOL     OW30088   6.936   3.426   2.612
 9730SOL    HW130089   6.960   3.354   2.547
 9730SOL    HW230090   6.859   3.397   2.668
 9731SOL     OW30091   4.190   5.084   0.634
 9731SOL    HW130092   4.220   4.989   0.637
 9731SOL    HW230093   4.130   5.098   0.555
 9732SOL     OW30094   6.920   6.090   2.612
 9732SOL    HW130095   6.993   6.022   2.609
 9732SOL    HW230096   6.857   6.067   2.685
 9733SOL     OW30097   5.789   5.098   4.556
 9733SOL    HW130098   5.754   5.092   4.463
 9733SOL    HW230099   5.765   5.014   4.606
 9734SOL     OW30100   5.928   1.646   4.097
 9734SOL    HW130101   5.971   1.679   4.180
 9734SOL    HW230102   5.922   1.546   4.099
 9735SOL     OW30103   1.884   5.138   3.052
 9735SOL    HW130104   1.944   5.069   3.013
 9735SOL    HW230105   1.843   5.192   2.979
 9736SOL     OW30106   5.514   0.897   0.024
 9736SOL    HW130107   5.610   0.913   0.049
 9736SOL    HW230108   5.504   0.903   6.949
 9737SOL     OW30109   4.208   2.245   4.614
 9737SOL    HW130110   4.158   2.184   4.675
 9737SOL    HW230111   4.156   2.329   4.600
 9738SOL     OW30112   1.277   0.701   3.301
 9738SOL    HW130113   1.243   0.717   3.394
 9738SOL    HW230114   1.300   0.789   3.259
 9739SOL     OW30115   6.857   4.740   1.697
 9739SOL    HW130116   6.862   4.762   1.794
 9739SOL    HW230117   6.913   4.804   1.644
 9740SOL     OW30118   5.757   3.690   2.752
 9740SOL    HW130119   5.728   3.713   2.659
 9740SOL    HW230120   5.747   3.591   2.766
 9741SOL     OW30121   4.575   1.495   2.654
 9741SOL    HW130122   4.583   1.475   2.751
 9741SOL    HW230123   4.535   1.417   2.606
 9742SOL     OW30124   5.110   0.533   3.035
 9742SOL    HW130125   5.131   0.459   3.098
 9742SOL    HW230126   5.192   0.558   2.983
 9743SOL     OW30127   1.722   2.864   5.978
 9743SOL    HW130128   1.715   2.802   6.056
 9743SOL    HW230129   1.693   2.956   6.007
 9744SOL     OW30130   1.404   0.789   2.249
 9744SOL    HW130131   1.430   0.880   2.216
 9744SOL    HW230132   1.394   0.791   2.348
 9745SOL     OW30133   0.718   2.329   4.865
 9745SOL    HW130134   0.695   2.388   4.788
 9745SOL    HW230135   0.634   2.303   4.912
 9746SOL     OW30136   5.396   1.064   5.690
 9746SOL    HW130137   5.340   1.143   5.666
 9746SOL    HW230138   5.384   1.044   5.788
 9747SOL     OW30139   1.544   1.085   1.259
 9747SOL    HW130140   1.628   1.048   1.299
 9747SOL    HW230141   1.467   1.026   1.283
 9748SOL     OW30142   1.343   6.121   4.617
 9748SOL    HW130143   1.344   6.128   4.517
 9748SOL    HW230144   1.253   6.087   4.646
 9749SOL     OW30145   1.231   3.103   5.299
 9749SOL    HW130146   1.277   3.132   5.215
 9749SOL    HW230147   1.276   3.146   5.378
 9750SOL     OW30148   5.363   4.746   3.706
 9750SOL    HW130149   5.307   4.827   3.688
 9750SOL    HW230150   5.304   4.670   3.732
 9751SOL     OW30151   1.642   2.318   0.989
 9751SOL    HW130152   1.722   2.377   1.003
 9751SOL    HW230153   1.673   2.224   0.973
 9752SOL     OW30154   4.365   0.412   6.224
 9752SOL    HW130155   4.425   0.486   6.193
 9752SOL    HW230156   4.308   0.381   6.148
 9753SOL     OW30157   6.566   6.226   4.812
 9753SOL    HW130158   6.555   6.289   4.735
 9753SOL    HW230159   6.646   6.168   4.797
 9754SOL     OW30160   1.331   1.463   6.920
 9754SOL    HW130161   1.309   1.372   6.885
 9754SOL    HW230162   1.292   1.532   6.859
 9755SOL     OW30163   4.122   3.416   4.865
 9755SOL    HW130164   4.154   3.407   4.770
 9755SOL    HW230165   4.061   3.340   4.887
 9756SOL     OW30166   6.019   2.970   6.936
 9756SOL    HW130167   5.936   2.918   6.953
 9756SOL    HW230168   6.099   2.915   6.960
 9757SOL     OW30169   5.121   3.247   3.363
 9757SOL    HW130170   5.120   3.288   3.455
 9757SOL    HW230171   5.039   3.274   3.314
 9758SOL     OW30172   2.122   7.009   5.912
 9758SOL    HW130173   2.167   0.073   5.897
 9758SOL    HW230174   2.128   6.954   5.829
 9759SOL     OW30175   1.661   6.391   1.376
 9759SOL    HW130176   1.685   6.396   1.279
 9759SOL    HW230177   1.627   6.479   1.407
 9760SOL     OW30178   5.225   4.546   4.647
 9760SOL    HW130179   5.184   4.502   4.727
 9760SOL    HW230180   5.213   4.645   4.653
 9761SOL     OW30181   5.872   4.880   1.664
 9761SOL    HW130182   5.948   4.878   1.729
 9761SOL    HW230183   5.787   4.858   1.710
 9762SOL     OW30184   1.998   1.918   4.797
 9762SOL    HW130185   2.089   1.898   4.834
 9762SOL    HW230186   1.956   1.833   4.764
 9763SOL     OW30187   4.413   1.175   1.567
 9763SOL    HW130188   4.483   1.221   1.622
 9763SOL    HW230189   4.345   1.133   1.627
 9764SOL     OW30190   1.479   2.670   3.503
 9764SOL    HW130191   1.427   2.632   3.427
 9764SOL    HW230192   1.424   2.740   3.550
 9765SOL     OW30193   6.856   2.091   5.375
 9765SOL    HW130194   6.768   2.085   5.420
 9765SOL    HW230195   6.854   2.037   5.290
 9766SOL     OW30196   3.394   0.923   3.482
 9766SOL    HW130197   3.486   0.929   3.443
 9766SOL    HW230198   3.327   0.932   3.409
 9767SOL     OW30199   5.186   1.199   5.351
 9767SOL    HW130200   5.206   1.107   5.315
 9767SOL    HW230201   5.090   1.220   5.336
 9768SOL     OW30202   4.576   2.164   2.603
 9768SOL    HW130203   4.493   2.211   2.571
 9768SOL    HW230204   4.626   2.225   2.666
 9769SOL     OW30205   1.269   2.398   1.225
 9769SOL    HW130206   1.297   2.436   1.313
 9769SOL    HW230207   1.170   2.389   1.223
 9770SOL     OW30208   5.815   5.314   5.668
 9770SOL    HW130209   5.737   5.370   5.694
 9770SOL    HW230210   5.897   5.370   5.665
 9771SOL     OW30211   4.418   4.613   0.688
 9771SOL    HW130212   4.319   4.619   0.692
 9771SOL    HW230213   4.454   4.591   0.779
 9772SOL     OW30214   0.210   6.689   1.819
 9772SOL    HW130215   0.160   6.719   1.738
 9772SOL    HW230216   0.307   6.676   1.795
 9773SOL     OW30217   5.394   5.602   3.739
 9773SOL    HW130218   5.312   5.628   3.790
 9773SOL    HW230219   5.367   5.576   3.646
 9774SOL     OW30220   5.916   5.434   3.751
 9774SOL    HW130221   5.824   5.410   3.718
 9774SOL    HW230222   5.929   5.533   3.744
 9775SOL     OW30223   2.016   2.755   4.740
 9775SOL    HW130224   1.980   2.669   4.703
 9775SOL    HW230225   1.983   2.832   4.686
 9776SOL     OW30226   6.921   5.856   4.275
 9776SOL    HW130227   6.868   5.926   4.226
 9776SOL    HW230228   6.951   5.786   4.210
 9777SOL     OW30229   5.966   4.469   5.876
 9777SOL    HW130230   6.034   4.425   5.817
 9777SOL    HW230231   6.011   4.505   5.957
 9778SOL     OW30232   4.552   6.742   3.110
 9778SOL    HW130233   4.481   6.731   3.179
 9778SOL    HW230234   4.533   6.824   3.056
 9779SOL     OW30235   2.606   1.445   4.841
 9779SOL    HW130236   2.694   1.418   4.800
 9779SOL    HW230237   2.619   1.525   4.899
 9780SOL     OW30238   2.341   3.251   0.483
 9780SOL    HW130239   2.322   3.216   0.575
 9780SOL    HW230240   2.261   3.236   0.425
 9781SOL     OW30241   1.904   4.614   4.658
 9781SOL    HW130242   1.949   4.549   4.597
 9781SOL    HW230243   1.805   4.610   4.645
 9782SOL     OW30244   6.749   0.286   1.485
 9782SOL    HW130245   6.678   0.260   1.550
 9782SOL    HW230246   6.707   0.328   1.404
 9783SOL     OW30247   5.857   1.574   1.946
 9783SOL    HW130248   5.839   1.666   1.911
 9783SOL    HW230249   5.773   1.534   1.980
 9784SOL     OW30250   4.307   1.195   3.077
 9784SOL    HW130251   4.225   1.202   3.020
 9784SOL    HW230252   4.281   1.164   3.169
 9785SOL     OW30253   0.096   2.679   2.747
 9785SOL    HW130254   0.008   2.660   2.792
 9785SOL    HW230255   0.135   2.763   2.785
 9786SOL     OW30256   2.327   5.264   5.987
 9786SOL    HW130257   2.259   5.208   6.035
 9786SOL    HW230258   2.281   5.322   5.920
 9787SOL     OW30259   4.960   4.087   1.626
 9787SOL    HW130260   4.887   4.073   1.560
 9787SOL    HW230261   4.956   4.180   1.662
 9788SOL     OW30262   0.275   0.170   4.198
 9788SOL    HW130263   0.316   0.145   4.110
 9788SOL    HW230264   0.339   0.224   4.251
 9789SOL     OW30265   2.304   5.556   5.615
 9789SOL    HW130266   2.388   5.610   5.613
 9789SOL    HW230267   2.327   5.460   5.629
 9790SOL     OW30268   5.461   1.894   4.159
 9790SOL    HW130269   5.394   1.944   4.214
 9790SOL    HW230270   5.553   1.926   4.182
 9791SOL     OW30271   1.870   1.094   0.936
 9791SOL    HW130272   1.884   1.052   1.025
 9791SOL    HW230273   1.936   1.057   0.871
 9792SOL     OW30274   4.628   4.672   1.209
 9792SOL    HW130275   4.607   4.734   1.285
 9792SOL    HW230276   4.718   4.693   1.172
 9793SOL     OW30277   5.806   6.238   2.714
 9793SOL    HW130278   5.889   6.276   2.675
 9793SOL    HW230279   5.764   6.174   2.649
 9794SOL     OW30280   5.344   2.965   5.833
 9794SOL    HW130281   5.250   2.933   5.848
 9794SOL    HW230282   5.382   3.001   5.918
 9795SOL     OW30283   1.301   3.473   4.390
 9795SOL    HW130284   1.301   3.496   4.293
 9795SOL    HW230285   1.376   3.411   4.409
 9796SOL     OW30286   3.019   5.208   0.866
 9796SOL    HW130287   2.966   5.231   0.783
 9796SOL    HW230288   3.056   5.116   0.857
 9797SOL     OW30289   4.185   3.844   6.572
 9797SOL    HW130290   4.283   3.865   6.572
 9797SOL    HW230291   4.164   3.786   6.494
 9798SOL     OW30292   3.076   0.448   1.278
 9798SOL    HW130293   3.033   0.488   1.359
 9798SOL    HW230294   3.073   0.348   1.284
 9799SOL     OW30295   3.228   2.947   2.427
 9799SOL    HW130296   3.254   2.913   2.336
 9799SOL    HW230297   3.264   2.885   2.497
 9800SOL     OW30298   4.233   5.677   6.634
 9800SOL    HW130299   4.195   5.717   6.551
 9800SOL    HW230300   4.218   5.739   6.711
 9801SOL     OW30301   4.344   5.815   0.076
 9801SOL    HW130302   4.419   5.757   0.045
 9801SOL    HW230303   4.378   5.909   0.089
 9802SOL     OW30304   0.771   3.392   1.103
 9802SOL    HW130305   0.719   3.307   1.114
 9802SOL    HW230306   0.770   3.419   1.007
 9803SOL     OW30307   6.458   0.185   6.915
 9803SOL    HW130308   6.542   0.231   6.944
 9803SOL    HW230309   6.426   0.124   6.987
 9804SOL     OW30310   0.286   5.440   4.101
 9804SOL    HW130311   0.195   5.416   4.067
 9804SOL    HW230312   0.326   5.361   4.147
 9805SOL     OW30313   1.256   5.252   6.927
 9805SOL    HW130314   1.266   5.351   6.919
 9805SOL    HW230315   1.268   5.209   6.838
 9806SOL     OW30316   0.164   2.715   1.637
 9806SOL    HW130317   0.177   2.703   1.736
 9806SOL    HW230318   0.073   2.755   1.621
 9807SOL     OW30319   4.286   1.900   0.126
 9807SOL    HW130320   4.365   1.842   0.108
 9807SOL    HW230321   4.277   1.915   0.224
 9808SOL     OW30322   6.572   1.662   4.896
 9808SOL    HW130323   6.613   1.610   4.821
 9808SOL    HW230324   6.601   1.624   4.983
 9809SOL     OW30325   0.560   1.490   4.474
 9809SOL    HW130326   0.481   1.456   4.424
 9809SOL    HW230327   0.536   1.500   4.571
 9810SOL     OW30328   2.897   1.749   3.238
 9810SOL    HW130329   2.901   1.689   3.158
 9810SOL    HW230330   2.837   1.827   3.219
 9811SOL     OW30331   6.617   6.223   2.778
 9811SOL    HW130332   6.662   6.302   2.820
 9811SOL    HW230333   6.569   6.251   2.695
 9812SOL     OW30334   4.850   2.278   5.954
 9812SOL    HW130335   4.757   2.244   5.942
 9812SOL    HW230336   4.915   2.213   5.914
 9813SOL     OW30337   6.677   5.363   0.146
 9813SOL    HW130338   6.635   5.316   0.068
 9813SOL    HW230339   6.734   5.298   0.197
 9814SOL     OW30340   6.661   6.686   6.102
 9814SOL    HW130341   6.605   6.765   6.126
 9814SOL    HW230342   6.680   6.685   6.004
 9815SOL     OW30343   6.342   3.742   1.406
 9815SOL    HW130344   6.398   3.720   1.486
 9815SOL    HW230345   6.346   3.668   1.340
 9816SOL     OW30346   6.691   0.311   0.031
 9816SOL    HW130347   6.722   0.297   0.126
 9816SOL    HW230348   6.618   0.379   0.030
 9817SOL     OW30349   3.406   5.868   1.142
 9817SOL    HW130350   3.464   5.807   1.087
 9817SOL    HW230351   3.355   5.813   1.208
 9818SOL     OW30352   1.367   0.397   3.487
 9818SOL    HW130353   1.441   0.426   3.548
 9818SOL    HW230354   1.289   0.458   3.497
 9819SOL     OW30355   6.252   4.026   4.937
 9819SOL    HW130356   6.169   4.027   4.993
 9819SOL    HW230357   6.226   4.021   4.840
 9820SOL     OW30358   3.074   2.216   6.479
 9820SOL    HW130359   3.170   2.199   6.458
 9820SOL    HW230360   3.040   2.289   6.420
 9821SOL     OW30361   4.868   2.383   1.623
 9821SOL    HW130362   4.805   2.434   1.564
 9821SOL    HW230363   4.903   2.444   1.694
 9822SOL     OW30364   4.155   5.839   4.853
 9822SOL    HW130365   4.204   5.884   4.927
 9822SOL    HW230366   4.059   5.825   4.880
 9823SOL     OW30367   1.965   0.818   2.943
 9823SOL    HW130368   1.898   0.769   2.889
 9823SOL    HW230369   2.005   0.757   3.011
 9824SOL     OW30370   1.284   6.244   5.624
 9824SOL    HW130371   1.263   6.326   5.677
 9824SOL    HW230372   1.217   6.173   5.644
 9825SOL     OW30373   5.095   6.422   6.086
 9825SOL    HW130374   5.042   6.499   6.122
 9825SOL    HW230375   5.155   6.454   6.012
 9826SOL     OW30376   2.955   6.455   5.521
 9826SOL    HW130377   2.979   6.466   5.425
 9826SOL    HW230378   2.856   6.444   5.531
 9827SOL     OW30379   1.717   5.389   2.105
 9827SOL    HW130380   1.726   5.402   2.006
 9827SOL    HW230381   1.719   5.291   2.126
 9828SOL     OW30382   3.675   1.925   5.215
 9828SOL    HW130383   3.607   1.853   5.201
 9828SOL    HW230384   3.683   1.944   5.313
 9829SOL     OW30385   4.301   5.512   6.070
 9829SOL    HW130386   4.252   5.575   6.011
 9829SOL    HW230387   4.236   5.455   6.121
 9830SOL     OW30388   5.558   1.859   2.829
 9830SOL    HW130389   5.561   1.877   2.730
 9830SOL    HW230390   5.651   1.848   2.863
 9831SOL     OW30391   0.596   4.125   2.037
 9831SOL    HW130392   0.691   4.147   2.061
 9831SOL    HW230393   0.543   4.112   2.121
 9832SOL     OW30394   4.758   4.264   4.374
 9832SOL    HW130395   4.751   4.239   4.277
 9832SOL    HW230396   4.770   4.182   4.429
 9833SOL     OW30397   3.626   3.856   4.282
 9833SOL    HW130398   3.566   3.842   4.361
 9833SOL    HW230399   3.686   3.934   4.299
 9834SOL     OW30400   2.567   5.492   5.286
 9834SOL    HW130401   2.567   5.399   5.322
 9834SOL    HW230402   2.617   5.552   5.348
 9835SOL     OW30403   3.707   4.190   4.880
 9835SOL    HW130404   3.792   4.140   4.862
 9835SOL    HW230405   3.729   4.285   4.904
 9836SOL     OW30406   0.719   3.453   5.562
 9836SOL    HW130407   0.734   3.409   5.474
 9836SOL    HW230408   0.706   3.551   5.549
 9837SOL     OW30409   4.983   2.131   1.674
 9837SOL    HW130410   4.956   2.218   1.632
 9837SOL    HW230411   4.983   2.059   1.605
 9838SOL     OW30412   0.773   6.449   1.679
 9838SOL    HW130413   0.853   6.449   1.738
 9838SOL    HW230414   0.761   6.540   1.639
 9839SOL     OW30415   4.307   0.739   2.534
 9839SOL    HW130416   4.335   0.801   2.460
 9839SOL    HW230417   4.222   0.693   2.507
 9840SOL     OW30418   5.922   1.598   6.635
 9840SOL    HW130419   5.842   1.538   6.629
 9840SOL    HW230420   5.965   1.604   6.544
 9841SOL     OW30421   7.003   6.230   3.529
 9841SOL    HW130422   7.020   6.165   3.603
 9841SOL    HW230423   0.016   6.320   3.554
 9842SOL     OW30424   2.611   2.302   6.743
 9842SOL    HW130425   2.539   2.347   6.691
 9842SOL    HW230426   2.596   2.316   6.841
 9843SOL     OW30427   0.075   6.636   0.865
 9843SOL    HW130428   0.105   6.551   0.907
 9843SOL    HW230429   0.046   6.618   0.771
 9844SOL     OW30430   4.649   6.909   4.167
 9844SOL    HW130431   4.654   6.845   4.243
 9844SOL    HW230432   4.715   6.883   4.097
 9845SOL     OW30433   1.734   3.308   1.662
 9845SOL    HW130434   1.728   3.360   1.577
 9845SOL    HW230435   1.648   3.314   1.712
 9846SOL     OW30436   5.146   1.289   1.376
 9846SOL    HW130437   5.163   1.193   1.400
 9846SOL    HW230438   5.058   1.317   1.413
 9847SOL     OW30439   4.090   4.110   0.606
 9847SOL    HW130440   4.067   4.075   0.696
 9847SOL    HW230441   4.153   4.187   0.614
 9848SOL     OW30442   3.810   3.850   5.266
 9848SOL    HW130443   3.816   3.925   5.333
 9848SOL    HW230444   3.724   3.801   5.280
 9849SOL     OW30445   0.624   1.905   5.418
 9849SOL    HW130446   0.638   1.935   5.324
 9849SOL    HW230447   0.650   1.978   5.481
 9850SOL     OW30448   0.607   0.501   4.681
 9850SOL    HW130449   0.551   0.425   4.649
 9850SOL    HW230450   0.680   0.465   4.740
 9851SOL     OW30451   3.782   4.922   4.542
 9851SOL    HW130452   3.779   4.904   4.443
 9851SOL    HW230453   3.853   4.866   4.584
 9852SOL     OW30454   2.083   1.875   6.937
 9852SOL    HW130455   2.007   1.827   6.894
 9852SOL    HW230456   2.156   1.890   6.870
 9853SOL     OW30457   6.935   4.369   3.937
 9853SOL    HW130458   6.864   4.302   3.915
 9853SOL    HW230459   7.020   4.322   3.958
 9854SOL     OW30460   1.070   5.402   6.144
 9854SOL    HW130461   1.049   5.346   6.225
 9854SOL    HW230462   0.996   5.467   6.129
 9855SOL     OW30463   1.946   3.890   1.637
 9855SOL    HW130464   1.946   3.901   1.736
 9855SOL    HW230465   1.971   3.796   1.613
 9856SOL     OW30466   5.866   3.980   3.065
 9856SOL    HW130467   5.880   3.957   2.969
 9856SOL    HW230468   5.870   3.896   3.120
 9857SOL     OW30469   4.120   1.648   4.083
 9857SOL    HW130470   4.190   1.687   4.024
 9857SOL    HW230471   4.157   1.569   4.133
 9858SOL     OW30472   6.444   6.312   2.578
 9858SOL    HW130473   6.501   6.334   2.499
 9858SOL    HW230474   6.395   6.395   2.607
 9859SOL     OW30475   0.205   6.020   4.120
 9859SOL    HW130476   0.169   5.927   4.118
 9859SOL    HW230477   0.131   6.083   4.144
 9860SOL     OW30478   1.736   3.248   5.047
 9860SOL    HW130479   1.682   3.170   5.016
 9860SOL    HW230480   1.692   3.288   5.128
 9861SOL     OW30481   3.713   1.354   4.224
 9861SOL    HW130482   3.756   1.400   4.147
 9861SOL    HW230483   3.630   1.307   4.193
 9862SOL     OW30484   1.194   5.614   0.759
 9862SOL    HW130485   1.209   5.526   0.804
 9862SOL    HW230486   1.279   5.644   0.716
 9863SOL     OW30487   4.179   6.228   0.714
 9863SOL    HW130488   4.093   6.279   0.715
 9863SOL    HW230489   4.178   6.159   0.786
 9864SOL     OW30490   2.813   5.918   5.096
 9864SOL    HW130491   2.797   6.016   5.084
 9864SOL    HW230492   2.729   5.868   5.077
 9865SOL     OW30493   0.636   6.175   5.682
 9865SOL    HW130494   0.716   6.229   5.656
 9865SOL    HW230495   0.665   6.088   5.721
 9866SOL     OW30496   6.285   5.289   4.243
 9866SOL    HW130497   6.243   5.199   4.256
 9866SOL    HW230498   6.363   5.299   4.305
 9867SOL     OW30499   4.663   2.214   1.676
 9867SOL    HW130500   4.588   2.232   1.611
 9867SOL    HW230501   4.740   2.274   1.656
 9868SOL     OW30502   1.574   4.489   3.579
 9868SOL    HW130503   1.521   4.474   3.496
 9868SOL    HW230504   1.581   4.588   3.596
 9869SOL     OW30505   0.030   2.377   0.954
 9869SOL    HW130506   0.111   2.365   1.013
 9869SOL    HW230507   0.055   2.359   0.859
 9870SOL     OW30508   3.174   1.351   2.239
 9870SOL    HW130509   3.108   1.366   2.166
 9870SOL    HW230510   3.186   1.253   2.253
 9871SOL     OW30511   0.040   3.969   4.526
 9871SOL    HW130512   0.091   4.037   4.578
 9871SOL    HW230513   0.102   3.894   4.501
 9872SOL     OW30514   1.628   5.005   5.502
 9872SOL    HW130515   1.583   4.967   5.421
 9872SOL    HW230516   1.722   5.031   5.479
 9873SOL     OW30517   2.018   1.418   5.513
 9873SOL    HW130518   1.979   1.350   5.575
 9873SOL    HW230519   1.955   1.431   5.436
 9874SOL     OW30520   0.252   2.904   4.686
 9874SOL    HW130521   0.208   2.943   4.767
 9874SOL    HW230522   0.336   2.857   4.714
 9875SOL     OW30523   6.969   5.718   0.754
 9875SOL    HW130524   6.985   5.768   0.669
 9875SOL    HW230525   6.984   5.620   0.739
 9876SOL     OW30526   2.375   6.766   3.604
 9876SOL    HW130527   2.399   6.857   3.569
 9876SOL    HW230528   2.420   6.696   3.549
 9877SOL     OW30529   0.543   5.474   5.337
 9877SOL    HW130530   0.535   5.400   5.270
 9877SOL    HW230531   0.629   5.524   5.321
 9878SOL     OW30532   2.275   2.969   0.146
 9878SOL    HW130533   2.260   3.059   0.186
 9878SOL    HW230534   2.191   2.936   0.104
 9879SOL     OW30535   0.417   4.995   6.223
 9879SOL    HW130536   0.318   5.002   6.227
 9879SOL    HW230537   0.444   4.900   6.239
 9880SOL     OW30538   2.811   1.710   0.568
 9880SOL    HW130539   2.741   1.779   0.547
 9880SOL    HW230540   2.806   1.686   0.665
 9881SOL     OW30541   5.550   0.235   4.663
 9881SOL    HW130542   5.626   0.275   4.611
 9881SOL    HW230543   5.548   0.275   4.755
 9882SOL     OW30544   4.139   3.421   4.591
 9882SOL    HW130545   4.117   3.335   4.546
 9882SOL    HW230546   4.124   3.497   4.527
 9883SOL     OW30547   2.264   0.042   1.239
 9883SOL    HW130548   2.244   0.023   1.335
 9883SOL    HW230549   2.360   0.022   1.220
 9884SOL     OW30550   2.119   3.792   6.167
 9884SOL    HW130551   2.081   3.806   6.258
 9884SOL    HW230552   2.180   3.713   6.168
 9885SOL     OW30553   6.124   3.487   4.403
 9885SOL    HW130554   6.102   3.584   4.396
 9885SOL    HW230555   6.202   3.475   4.464
 9886SOL     OW30556   4.714   6.145   0.960
 9886SOL    HW130557   4.646   6.174   1.028
 9886SOL    HW230558   4.799   6.195   0.975
 9887SOL     OW30559   3.740   0.212   0.280
 9887SOL    HW130560   3.659   0.204   0.337
 9887SOL    HW230561   3.813   0.154   0.317
 9888SOL     OW30562   5.948   5.066   2.413
 9888SOL    HW130563   6.030   5.083   2.358
 9888SOL    HW230564   5.886   5.007   2.361
 9889SOL     OW30565   6.952   5.323   3.640
 9889SOL    HW130566   6.922   5.255   3.708
 9889SOL    HW230567   0.004   5.376   3.677
 9890SOL     OW30568   6.778   4.059   1.918
 9890SOL    HW130569   6.829   4.141   1.945
 9890SOL    HW230570   6.739   4.072   1.828
 9891SOL     OW30571   5.711   4.684   0.917
 9891SOL    HW130572   5.765   4.693   0.834
 9891SOL    HW230573   5.769   4.653   0.992
 9892SOL     OW30574   2.168   5.452   4.282
 9892SOL    HW130575   2.190   5.366   4.328
 9892SOL    HW230576   2.074   5.478   4.304
 9893SOL     OW30577   5.620   4.959   3.256
 9893SOL    HW130578   5.602   4.913   3.343
 9893SOL    HW230579   5.698   4.915   3.211
 9894SOL     OW30580   3.864   2.923   6.026
 9894SOL    HW130581   3.913   2.899   5.942
 9894SOL    HW230582   3.895   3.012   6.059
 9895SOL     OW30583   5.093   2.616   6.822
 9895SOL    HW130584   5.176   2.639   6.872
 9895SOL    HW230585   5.077   2.683   6.749
 9896SOL     OW30586   4.247   4.326   0.672
 9896SOL    HW130587   4.343   4.330   0.644
 9896SOL    HW230588   4.225   4.407   0.728
 9897SOL     OW30589   5.942   2.065   2.845
 9897SOL    HW130590   5.975   2.131   2.913
 9897SOL    HW230591   5.858   2.022   2.879
 9898SOL     OW30592   1.250   5.498   5.756
 9898SOL    HW130593   1.272   5.468   5.849
 9898SOL    HW230594   1.224   5.419   5.701
 9899SOL     OW30595   5.176   5.058   2.429
 9899SOL    HW130596   5.231   5.006   2.364
 9899SOL    HW230597   5.101   5.002   2.462
 9900SOL     OW30598   1.142   2.559   4.180
 9900SOL    HW130599   1.089   2.640   4.205
 9900SOL    HW230600   1.229   2.559   4.231
 9901SOL     OW30601   2.837   3.068   5.925
 9901SOL    HW130602   2.842   2.969   5.932
 9901SOL    HW230603   2.926   3.103   5.894
 9902SOL     OW30604   4.232   3.143   0.262
 9902SOL    HW130605   4.274   3.121   0.350
 9902SOL    HW230606   4.136   3.117   0.264
 9903SOL     OW30607   4.437   2.273   1.819
 9903SOL    HW130608   4.531   2.241   1.807
 9903SOL    HW230609   4.437   2.362   1.864
 9904SOL     OW30610   6.403   1.681   1.178
 9904SOL    HW130611   6.367   1.649   1.265
 9904SOL    HW230612   6.403   1.606   1.112
 9905SOL     OW30613   1.193   0.371   5.967
 9905SOL    HW130614   1.256   0.370   5.889
 9905SOL    HW230615   1.204   0.287   6.020
 9906SOL     OW30616   2.688   3.296   6.533
 9906SOL    HW130617   2.598   3.331   6.556
 9906SOL    HW230618   2.752   3.316   6.607
 9907SOL     OW30619   2.759   6.228   2.383
 9907SOL    HW130620   2.767   6.174   2.299
 9907SOL    HW230621   2.843   6.216   2.437
 9908SOL     OW30622   1.390   3.714   6.147
 9908SOL    HW130623   1.310   3.660   6.122
 9908SOL    HW230624   1.438   3.743   6.064
 9909SOL     OW30625   3.092   1.006   2.776
 9909SOL    HW130626   3.016   1.066   2.798
 9909SOL    HW230627   3.085   0.921   2.828
 9910SOL     OW30628   6.601   3.787   0.431
 9910SOL    HW130629   6.683   3.785   0.489
 9910SOL    HW230630   6.527   3.736   0.476
 9911SOL     OW30631   3.309   4.914   3.412
 9911SOL    HW130632   3.300   4.900   3.510
 9911SOL    HW230633   3.223   4.890   3.367
 9912SOL     OW30634   5.027   0.283   1.297
 9912SOL    HW130635   5.049   0.345   1.372
 9912SOL    HW230636   5.026   0.334   1.211
 9913SOL     OW30637   4.890   2.359   3.014
 9913SOL    HW130638   4.939   2.291   3.069
 9913SOL    HW230639   4.955   2.419   2.968
 9914SOL     OW30640   1.135   0.425   4.932
 9914SOL    HW130641   1.145   0.506   4.990
 9914SOL    HW230642   1.084   0.355   4.982
 9915SOL     OW30643   5.180   3.185   3.812
 9915SOL    HW130644   5.157   3.272   3.856
 9915SOL    HW230645   5.198   3.116   3.883
 9916SOL     OW30646   2.438   2.660   2.484
 9916SOL    HW130647   2.442   2.632   2.580
 9916SOL    HW230648   2.433   2.579   2.426
 9917SOL     OW30649   2.937   3.820   5.846
 9917SOL    HW130650   2.976   3.904   5.809
 9917SOL    HW230651   2.945   3.746   5.779
 9918SOL     OW30652   2.140   1.665   5.545
 9918SOL    HW130653   2.087   1.580   5.539
 9918SOL    HW230654   2.237   1.645   5.532
 9919SOL     OW30655   0.480   5.534   3.096
 9919SOL    HW130656   0.448   5.629   3.095
 9919SOL    HW230657   0.524   5.515   3.184
 9920SOL     OW30658   4.246   6.402   1.406
 9920SOL    HW130659   4.199   6.461   1.472
 9920SOL    HW230660   4.343   6.427   1.402
 9921SOL     OW30661   6.067   0.477   3.064
 9921SOL    HW130662   6.115   0.551   3.110
 9921SOL    HW230663   5.981   0.459   3.111
 9922SOL     OW30664   4.263   4.820   0.561
 9922SOL    HW130665   4.250   4.766   0.478
 9922SOL    HW230666   4.355   4.858   0.563
 9923SOL     OW30667   6.474   2.122   5.864
 9923SOL    HW130668   6.405   2.059   5.830
 9923SOL    HW230669   6.460   2.138   5.962
 9924SOL     OW30670   6.631   0.996   2.792
 9924SOL    HW130671   6.580   1.009   2.877
 9924SOL    HW230672   6.672   0.904   2.790
 9925SOL     OW30673   2.699   2.800   5.430
 9925SOL    HW130674   2.629   2.843   5.487
 9925SOL    HW230675   2.655   2.736   5.367
 9926SOL     OW30676   1.129   1.185   0.418
 9926SOL    HW130677   1.185   1.261   0.451
 9926SOL    HW230678   1.092   1.207   0.328
 9927SOL     OW30679   0.449   1.763   2.197
 9927SOL    HW130680   0.354   1.761   2.168
 9927SOL    HW230681   0.486   1.670   2.198
 9928SOL     OW30682   0.171   3.929   2.286
 9928SOL    HW130683   0.101   3.890   2.345
 9928SOL    HW230684   0.218   4.003   2.335
 9929SOL     OW30685   2.485   4.040   0.437
 9929SOL    HW130686   2.582   4.016   0.438
 9929SOL    HW230687   2.474   4.135   0.408
 9930SOL     OW30688   0.115   6.441   6.418
 9930SOL    HW130689   0.202   6.468   6.376
 9930SOL    HW230690   0.088   6.352   6.383
 9931SOL     OW30691   1.607   6.115   6.031
 9931SOL    HW130692   1.661   6.036   6.001
 9931SOL    HW230693   1.510   6.098   6.013
 9932SOL     OW30694   1.208   1.739   0.230
 9932SOL    HW130695   1.202   1.781   0.321
 9932SOL    HW230696   1.157   1.796   0.164
 9933SOL     OW30697   2.006   1.549   3.602
 9933SOL    HW130698   2.082   1.586   3.656
 9933SOL    HW230699   1.952   1.486   3.658
 9934SOL     OW30700   4.269   1.212   5.956
 9934SOL    HW130701   4.346   1.159   5.921
 9934SOL    HW230702   4.276   1.307   5.925
 9935SOL     OW30703   2.926   2.082   0.810
 9935SOL    HW130704   3.020   2.085   0.844
 9935SOL    HW230705   2.868   2.037   0.877
 9936SOL     OW30706   5.896   5.907   5.649
 9936SOL    HW130707   5.850   5.946   5.569
 9936SOL    HW230708   5.830   5.897   5.723
 9937SOL     OW30709   0.579   6.842   3.230
 9937SOL    HW130710   0.648   6.913   3.246
 9937SOL    HW230711   0.608   6.758   3.275
 9938SOL     OW30712   6.778   1.101   4.059
 9938SOL    HW130713   6.830   1.026   4.100
 9938SOL    HW230714   6.736   1.156   4.130
 9939SOL     OW30715   2.492   4.423   1.415
 9939SOL    HW130716   2.450   4.333   1.404
 9939SOL    HW230717   2.475   4.456   1.508
 9940SOL     OW30718   0.610   0.516   3.124
 9940SOL    HW130719   0.660   0.560   3.198
 9940SOL    HW230720   0.512   0.514   3.147
 9941SOL     OW30721   5.009   5.055   6.437
 9941SOL    HW130722   4.965   5.103   6.361
 9941SOL    HW230723   5.063   5.119   6.491
 9942SOL     OW30724   4.914   5.112   3.586
 9942SOL    HW130725   4.833   5.096   3.529
 9942SOL    HW230726   4.921   5.210   3.606
 9943SOL     OW30727   2.377   4.336   6.756
 9943SOL    HW130728   2.311   4.297   6.692
 9943SOL    HW230729   2.354   4.305   6.849
 9944SOL     OW30730   1.289   4.796   0.636
 9944SOL    HW130731   1.238   4.882   0.637
 9944SOL    HW230732   1.353   4.797   0.559
 9945SOL     OW30733   5.401   3.558   6.597
 9945SOL    HW130734   5.483   3.555   6.540
 9945SOL    HW230735   5.320   3.541   6.541
 9946SOL     OW30736   5.419   1.432   2.570
 9946SOL    HW130737   5.343   1.450   2.633
 9946SOL    HW230738   5.385   1.433   2.476
 9947SOL     OW30739   1.492   1.642   3.822
 9947SOL    HW130740   1.441   1.713   3.773
 9947SOL    HW230741   1.510   1.673   3.915
 9948SOL     OW30742   6.230   0.087   4.119
 9948SOL    HW130743   6.166   0.089   4.195
 9948SOL    HW230744   6.323   0.099   4.153
 9949SOL     OW30745   6.290   4.807   4.441
 9949SOL    HW130746   6.239   4.787   4.358
 9949SOL    HW230747   6.326   4.722   4.480
 9950SOL     OW30748   6.234   4.667   5.365
 9950SOL    HW130749   6.162   4.736   5.366
 9950SOL    HW230750   6.214   4.597   5.434
 9951SOL     OW30751   0.502   2.273   1.982
 9951SOL    HW130752   0.517   2.176   1.999
 9951SOL    HW230753   0.579   2.326   2.018
 9952SOL     OW30754   0.851   4.307   1.909
 9952SOL    HW130755   0.874   4.216   1.875
 9952SOL    HW230756   0.867   4.312   2.008
 9953SOL     OW30757   5.849   2.247   3.427
 9953SOL    HW130758   5.862   2.148   3.424
 9953SOL    HW230759   5.832   2.281   3.334
 9954SOL     OW30760   2.960   2.153   5.900
 9954SOL    HW130761   2.912   2.232   5.861
 9954SOL    HW230762   2.898   2.104   5.962
 9955SOL     OW30763   5.791   3.225   0.364
 9955SOL    HW130764   5.727   3.151   0.347
 9955SOL    HW230765   5.863   3.194   0.427
 9956SOL     OW30766   2.141   3.803   3.479
 9956SOL    HW130767   2.097   3.839   3.561
 9956SOL    HW230768   2.143   3.703   3.483
 9957SOL     OW30769   5.412   6.774   1.125
 9957SOL    HW130770   5.379   6.769   1.219
 9957SOL    HW230771   5.511   6.789   1.125
 9958SOL     OW30772   4.736   4.702   0.067
 9958SOL    HW130773   4.713   4.632   0.134
 9958SOL    HW230774   4.748   4.790   0.112
 9959SOL     OW30775   4.494   4.377   0.573
 9959SOL    HW130776   4.462   4.467   0.603
 9959SOL    HW230777   4.590   4.366   0.600
 9960SOL     OW30778   6.909   0.086   6.729
 9960SOL    HW130779   6.819   0.088   6.685
 9960SOL    HW230780   6.968   0.022   6.680
 9961SOL     OW30781   2.576   5.042   1.805
 9961SOL    HW130782   2.615   4.951   1.824
 9961SOL    HW230783   2.650   5.107   1.790
 9962SOL     OW30784   3.222   6.228   1.994
 9962SOL    HW130785   3.197   6.234   2.090
 9962SOL    HW230786   3.205   6.136   1.960
 9963SOL     OW30787   1.531   1.466   6.246
 9963SOL    HW130788   1.572   1.557   6.245
 9963SOL    HW230789   1.433   1.473   6.265
 9964SOL     OW30790   4.591   3.882   5.543
 9964SOL    HW130791   4.532   3.959   5.567
 9964SOL    HW230792   4.589   3.814   5.617
 9965SOL     OW30793   3.007   5.394   4.665
 9965SOL    HW130794   2.967   5.321   4.720
 9965SOL    HW230795   2.969   5.391   4.572
 9966SOL     OW30796   3.692   4.890   2.554
 9966SOL    HW130797   3.694   4.973   2.610
 9966SOL    HW230798   3.749   4.819   2.596
 9967SOL     OW30799   6.412   6.952   3.149
 9967SOL    HW130800   6.438   0.004   3.090
 9967SOL    HW230801   6.444   6.866   3.109
 9968SOL     OW30802   4.006   6.449   1.063
 9968SOL    HW130803   4.029   6.372   1.122
 9968SOL    HW230804   4.087   6.477   1.012
 9969SOL     OW30805   1.555   5.162   3.320
 9969SOL    HW130806   1.633   5.171   3.382
 9969SOL    HW230807   1.473   5.196   3.365
 9970SOL     OW30808   6.442   3.998   1.367
 9970SOL    HW130809   6.397   3.909   1.375
 9970SOL    HW230810   6.536   3.984   1.335
 9971SOL     OW30811   0.910   4.270   2.162
 9971SOL    HW130812   0.864   4.351   2.198
 9971SOL    HW230813   0.862   4.188   2.192
 9972SOL     OW30814   3.557   4.091   0.124
 9972SOL    HW130815   3.525   4.081   0.218
 9972SOL    HW230816   3.482   4.123   0.066
 9973SOL     OW30817   3.466   1.773   3.397
 9973SOL    HW130818   3.373   1.748   3.371
 9973SOL    HW230819   3.522   1.690   3.404
 9974SOL     OW30820   0.678   2.656   3.234
 9974SOL    HW130821   0.701   2.628   3.327
 9974SOL    HW230822   0.622   2.738   3.236
 9975SOL     OW30823   1.102   5.051   6.739
 9975SOL    HW130824   1.139   5.070   6.648
 9975SOL    HW230825   1.140   4.965   6.773
 9976SOL     OW30826   2.933   4.587   6.564
 9976SOL    HW130827   3.010   4.524   6.565
 9976SOL    HW230828   2.852   4.542   6.526
 9977SOL     OW30829   4.965   6.029   4.607
 9977SOL    HW130830   4.918   6.004   4.692
 9977SOL    HW230831   5.058   5.994   4.609
 9978SOL     OW30832   0.729   2.775   6.009
 9978SOL    HW130833   0.781   2.691   6.024
 9978SOL    HW230834   0.659   2.783   6.079
 9979SOL     OW30835   4.683   3.160   5.251
 9979SOL    HW130836   4.592   3.199   5.242
 9979SOL    HW230837   4.752   3.227   5.225
 9980SOL     OW30838   1.045   0.636   0.298
 9980SOL    HW130839   0.973   0.606   0.235
 9980SOL    HW230840   1.092   0.556   0.335
 9981SOL     OW30841   0.321   2.436   1.721
 9981SOL    HW130842   0.405   2.489   1.728
 9981SOL    HW230843   0.247   2.487   1.765
 9982SOL     OW30844   1.966   2.007   5.130
 9982SOL    HW130845   1.928   1.987   5.220
 9982SOL    HW230846   1.917   2.083   5.088
 9983SOL     OW30847   0.023   3.198   2.172
 9983SOL    HW130848   7.011   3.138   2.100
 9983SOL    HW230849   0.063   3.279   2.130
 9984SOL     OW30850   0.030   5.907   0.947
 9984SOL    HW130851   0.030   5.992   0.894
 9984SOL    HW230852   7.017   5.833   0.892
 9985SOL     OW30853   4.359   5.412   0.757
 9985SOL    HW130854   4.423   5.482   0.789
 9985SOL    HW230855   4.279   5.456   0.717
 9986SOL     OW30856   4.994   4.213   0.096
 9986SOL    HW130857   5.008   4.275   0.019
 9986SOL    HW230858   5.063   4.231   0.166
 9987SOL     OW30859   5.581   2.917   1.701
 9987SOL    HW130860   5.559   2.851   1.774
 9987SOL    HW230861   5.557   3.009   1.732
 9988SOL     OW30862   5.332   6.120   4.712
 9988SOL    HW130863   5.247   6.168   4.731
 9988SOL    HW230864   5.402   6.187   4.685
 9989SOL     OW30865   6.568   5.548   2.160
 9989SOL    HW130866   6.637   5.493   2.208
 9989SOL    HW230867   6.519   5.490   2.096
 9990SOL     OW30868   0.292   0.034   3.468
 9990SOL    HW130869   0.332   6.971   3.437
 9990SOL    HW230870   0.245   0.020   3.555
 9991SOL     OW30871   1.408   4.274   4.398
 9991SOL    HW130872   1.483   4.264   4.333
 9991SOL    HW230873   1.378   4.369   4.400
 9992SOL     OW30874   3.403   4.241   1.119
 9992SOL    HW130875   3.406   4.210   1.024
 9992SOL    HW230876   3.308   4.246   1.149
 9993SOL     OW30877   3.796   6.842   4.298
 9993SOL    HW130878   3.715   6.898   4.281
 9993SOL    HW230879   3.824   6.853   4.394
 9994SOL     OW30880   0.015   4.644   4.242
 9994SOL    HW130881   0.089   4.662   4.307
 9994SOL    HW230882   6.958   4.614   4.291
 9995SOL     OW30883   2.796   0.609   5.064
 9995SOL    HW130884   2.775   0.519   5.103
 9995SOL    HW230885   2.778   0.680   5.131
 9996SOL     OW30886   1.948   4.242   0.984
 9996SOL    HW130887   1.999   4.197   1.057
 9996SOL    HW230888   1.985   4.214   0.895
 9997SOL     OW30889   6.460   2.303   4.241
 9997SOL    HW130890   6.415   2.252   4.169
 9997SOL    HW230891   6.488   2.240   4.314
 9998SOL     OW30892   4.877   3.919   2.611
 9998SOL    HW130893   4.858   3.908   2.708
 9998SOL    HW230894   4.873   3.830   2.566
 9999SOL     OW30895   6.987   6.777   4.083
 9999SOL    HW130896   0.017   6.700   4.051
 9999SOL    HW230897   7.006   6.857   4.026
10000SOL     OW30898   4.863   2.052   1.890
10000SOL    HW130899   4.779   2.004   1.868
10000SOL    HW230900   4.910   2.077   1.805
10001SOL     OW30901   3.230   6.246   2.553
10001SOL    HW130902   3.290   6.258   2.474
10001SOL    HW230903   3.220   6.148   2.573
10002SOL     OW30904   2.546   0.952   1.400
10002SOL    HW130905   2.502   1.006   1.328
10002SOL    HW230906   2.632   0.913   1.365
10003SOL     OW30907   1.834   1.346   3.385
10003SOL    HW130908   1.833   1.355   3.485
10003SOL    HW230909   1.924   1.371   3.350
10004SOL     OW30910   5.607   4.320   4.769
10004SOL    HW130911   5.587   4.360   4.858
10004SOL    HW230912   5.662   4.237   4.781
10005SOL     OW30913   2.318   5.880   3.259
10005SOL    HW130914   2.244   5.927   3.306
10005SOL    HW230915   2.286   5.790   3.230
10006SOL     OW30916   5.297   0.930   5.312
10006SOL    HW130917   5.255   0.854   5.362
10006SOL    HW230918   5.349   0.895   5.234
10007SOL     OW30919   1.014   4.440   4.662
10007SOL    HW130920   0.949   4.459   4.588
10007SOL    HW230921   1.104   4.473   4.635
10008SOL     OW30922   3.896   1.944   4.649
10008SOL    HW130923   3.950   1.894   4.582
10008SOL    HW230924   3.850   2.021   4.604
10009SOL     OW30925   1.631   4.296   1.703
10009SOL    HW130926   1.572   4.262   1.630
10009SOL    HW230927   1.576   4.349   1.768
10010SOL     OW30928   2.465   5.010   6.973
10010SOL    HW130929   2.531   4.938   6.950
10010SOL    HW230930   2.391   5.009   6.906
10011SOL     OW30931   0.648   3.646   6.930
10011SOL    HW130932   0.662   3.626   6.833
10011SOL    HW230933   0.594   3.574   6.972
10012SOL     OW30934   4.889   0.778   2.058
10012SOL    HW130935   4.823   0.808   2.128
10012SOL    HW230936   4.930   0.692   2.087
10013SOL     OW30937   1.042   5.679   4.933
10013SOL    HW130938   1.109   5.610   4.906
10013SOL    HW230939   1.056   5.762   4.879
10014SOL     OW30940   0.517   6.617   3.555
10014SOL    HW130941   0.548   6.563   3.477
10014SOL    HW230942   0.464   6.695   3.522
10015SOL     OW30943   3.808   5.479   6.343
10015SOL    HW130944   3.860   5.418   6.284
10015SOL    HW230945   3.713   5.449   6.347
10016SOL     OW30946   1.875   0.215   3.729
10016SOL    HW130947   1.935   0.294   3.744
10016SOL    HW230948   1.788   0.245   3.691
10017SOL     OW30949   2.891   1.898   3.494
10017SOL    HW130950   2.907   1.852   3.407
10017SOL    HW230951   2.962   1.967   3.509
10018SOL     OW30952   6.491   3.718   6.000
10018SOL    HW130953   6.458   3.777   6.074
10018SOL    HW230954   6.448   3.747   5.914
10019SOL     OW30955   0.820   1.478   2.850
10019SOL    HW130956   0.900   1.437   2.807
10019SOL    HW230957   0.846   1.518   2.938
10020SOL     OW30958   6.759   0.893   2.095
10020SOL    HW130959   6.845   0.843   2.100
10020SOL    HW230960   6.727   0.916   2.187
10021SOL     OW30961   1.407   3.671   1.345
10021SOL    HW130962   1.379   3.585   1.303
10021SOL    HW230963   1.481   3.654   1.410
10022SOL     OW30964   2.599   6.600   0.694
10022SOL    HW130965   2.507   6.582   0.660
10022SOL    HW230966   2.666   6.558   0.632
10023SOL     OW30967   2.679   6.656   5.807
10023SOL    HW130968   2.657   6.560   5.793
10023SOL    HW230969   2.732   6.690   5.729
10024SOL     OW30970   1.376   4.884   2.906
10024SOL    HW130971   1.404   4.971   2.946
10024SOL    HW230972   1.425   4.869   2.820
10025SOL     OW30973   1.646   3.876   1.736
10025SOL    HW130974   1.739   3.902   1.761
10025SOL    HW230975   1.646   3.785   1.696
10026SOL     OW30976   5.174   1.479   2.668
10026SOL    HW130977   5.115   1.403   2.641
10026SOL    HW230978   5.142   1.563   2.625
10027SOL     OW30979   1.575   2.437   5.479
10027SOL    HW130980   1.590   2.357   5.422
10027SOL    HW230981   1.538   2.512   5.423
10028SOL     OW30982   3.264   0.348   2.348
10028SOL    HW130983   3.232   0.344   2.253
10028SOL    HW230984   3.318   0.266   2.368
10029SOL     OW30985   0.156   3.035   4.477
10029SOL    HW130986   0.111   3.118   4.508
10029SOL    HW230987   0.217   3.001   4.548
10030SOL     OW30988   2.677   6.627   5.144
10030SOL    HW130989   2.629   6.701   5.096
10030SOL    HW230990   2.612   6.553   5.163
10031SOL     OW30991   3.702   5.113   4.706
10031SOL    HW130992   3.638   5.181   4.670
10031SOL    HW230993   3.736   5.056   4.631
10032SOL     OW30994   3.103   5.983   5.355
10032SOL    HW130995   3.039   5.906   5.344
10032SOL    HW230996   3.131   5.991   5.450
10033SOL     OW30997   4.757   1.497   3.729
10033SOL    HW130998   4.796   1.476   3.639
10033SOL    HW230999   4.705   1.418   3.761
10034SOL     OW31000   1.992   0.687   3.198
10034SOL    HW131001   1.898   0.654   3.196
10034SOL    HW231002   2.034   0.662   3.286
10035SOL     OW31003   6.165   3.555   0.367
10035SOL    HW131004   6.193   3.529   0.274
10035SOL    HW231005   6.078   3.512   0.389
10036SOL     OW31006   6.748   1.003   6.696
10036SOL    HW131007   6.836   1.048   6.715
10036SOL    HW231008   6.724   0.945   6.773
10037SOL     OW31009   6.477   0.257   5.938
10037SOL    HW131010   6.553   0.246   6.001
10037SOL    HW231011   6.391   0.240   5.986
10038SOL     OW31012   4.316   0.351   0.074
10038SOL    HW131013   4.260   0.426   0.108
10038SOL    HW231014   4.288   0.266   0.119
10039SOL     OW31015   4.950   5.071   4.708
10039SOL    HW131016   4.866   5.022   4.731
10039SOL    HW231017   5.015   5.064   4.783
10040SOL     OW31018   4.053   0.023   0.800
10040SOL    HW131019   4.036   0.093   0.730
10040SOL    HW231020   4.149   7.018   0.796
10041SOL     OW31021   6.585   4.498   5.744
10041SOL    HW131022   6.664   4.541   5.788
10041SOL    HW231023   6.502   4.546   5.771
10042SOL     OW31024   0.494   1.342   5.543
10042SOL    HW131025   0.511   1.244   5.532
10042SOL    HW231026   0.494   1.387   5.454
10043SOL     OW31027   1.070   0.833   2.692
10043SOL    HW131028   1.096   0.924   2.658
10043SOL    HW231029   0.971   0.821   2.685
10044SOL     OW31030   2.319   1.657   4.942
10044SOL    HW131031   2.298   1.584   4.876
10044SOL    HW231032   2.418   1.660   4.956
10045SOL     OW31033   4.978   0.196   4.552
10045SOL    HW131034   4.940   0.275   4.600
10045SOL    HW231035   4.904   0.135   4.525
10046SOL     OW31036   0.206   1.725   2.081
10046SOL    HW131037   0.211   1.639   2.031
10046SOL    HW231038   0.161   1.794   2.024
10047SOL     OW31039   6.165   2.531   5.200
10047SOL    HW131040   6.231   2.560   5.269
10047SOL    HW231041   6.145   2.433   5.211
10048SOL     OW31042   3.212   1.207   1.611
10048SOL    HW131043   3.238   1.297   1.576
10048SOL    HW231044   3.180   1.150   1.535
10049SOL     OW31045   1.518   0.521   0.084
10049SOL    HW131046   1.443   0.498   0.022
10049SOL    HW231047   1.497   0.606   0.132
10050SOL     OW31048   5.428   3.107   4.733
10050SOL    HW131049   5.342   3.156   4.721
10050SOL    HW231050   5.410   3.017   4.774
10051SOL     OW31051   6.505   2.873   4.588
10051SOL    HW131052   6.599   2.903   4.569
10051SOL    HW231053   6.446   2.954   4.596
10052SOL     OW31054   1.912   3.199   1.485
10052SOL    HW131055   2.012   3.196   1.486
10052SOL    HW231056   1.878   3.230   1.574
10053SOL     OW31057   3.743   4.917   3.325
10053SOL    HW131058   3.741   4.913   3.425
10053SOL    HW231059   3.805   4.990   3.296
10054SOL     OW31060   4.467   5.684   6.483
10054SOL    HW131061   4.392   5.690   6.549
10054SOL    HW231062   4.436   5.717   6.394
10055SOL     OW31063   6.475   2.458   4.719
10055SOL    HW131064   6.484   2.501   4.629
10055SOL    HW231065   6.383   2.420   4.729
10056SOL     OW31066   6.180   5.270   0.862
10056SOL    HW131067   6.167   5.190   0.921
10056SOL    HW231068   6.249   5.250   0.793
10057SOL     OW31069   4.248   1.874   4.520
10057SOL    HW131070   4.293   1.962   4.538
10057SOL    HW231071   4.178   1.886   4.450
10058SOL     OW31072   6.661   5.086   3.975
10058SOL    HW131073   6.661   4.993   4.012
10058SOL    HW231074   6.585   5.097   3.912
10059SOL     OW31075   5.397   6.747   0.844
10059SOL    HW131076   5.489   6.735   0.806
10059SOL    HW231077   5.404   6.762   0.942
10060SOL     OW31078   2.653   2.207   1.903
10060SOL    HW131079   2.742   2.247   1.926
10060SOL    HW231080   2.601   2.190   1.987
10061SOL     OW31081   5.548   1.102   3.923
10061SOL    HW131082   5.624   1.139   3.976
10061SOL    HW231083   5.478   1.173   3.912
10062SOL     OW31084   6.097   6.608   4.410
10062SOL    HW131085   6.114   6.511   4.394
10062SOL    HW231086   6.008   6.633   4.371
10063SOL     OW31087   1.561   2.148   3.213
10063SOL    HW131088   1.566   2.196   3.300
10063SOL    HW231089   1.538   2.052   3.229
10064SOL     OW31090   5.825   5.370   5.153
10064SOL    HW131091   5.874   5.323   5.227
10064SOL    HW231092   5.772   5.302   5.102
10065SOL     OW31093   1.320   0.422   2.082
10065SOL    HW131094   1.391   0.399   2.148
10065SOL    HW231095   1.362   0.461   2.000
10066SOL     OW31096   1.077   0.711   4.053
10066SOL    HW131097   1.093   0.612   4.049
10066SOL    HW231098   1.038   0.742   3.966
10067SOL     OW31099   5.917   4.585   4.406
10067SOL    HW131100   5.873   4.575   4.496
10067SOL    HW231101   5.936   4.495   4.368
10068SOL     OW31102   5.086   2.778   4.301
10068SOL    HW131103   5.143   2.696   4.296
10068SOL    HW231104   4.998   2.755   4.343
10069SOL     OW31105   2.153   6.922   3.565
10069SOL    HW131106   2.109   6.947   3.652
10069SOL    HW231107   2.233   6.865   3.583
10070SOL     OW31108   0.525   6.356   4.788
10070SOL    HW131109   0.441   6.328   4.834
10070SOL    HW231110   0.534   6.307   4.701
10071SOL     OW31111   4.474   5.139   4.097
10071SOL    HW131112   4.432   5.175   4.180
10071SOL    HW231113   4.535   5.064   4.120
10072SOL     OW31114   0.124   6.489   3.843
10072SOL    HW131115   0.172   6.461   3.760
10072SOL    HW231116   0.050   6.552   3.819
10073SOL     OW31117   6.046   4.341   4.707
10073SOL    HW131118   6.048   4.340   4.607
10073SOL    HW231119   6.127   4.387   4.742
10074SOL     OW31120   1.127   0.045   5.755
10074SOL    HW131121   1.193   0.120   5.762
10074SOL    HW231122   1.175   6.984   5.733
10075SOL     OW31123   1.141   2.451   3.006
10075SOL    HW131124   1.068   2.465   3.073
10075SOL    HW231125   1.212   2.393   3.045
10076SOL     OW31126   5.283   0.197   4.667
10076SOL    HW131127   5.263   0.206   4.570
10076SOL    HW231128   5.383   0.193   4.681
10077SOL     OW31129   3.846   2.532   6.591
10077SOL    HW131130   3.778   2.593   6.551
10077SOL    HW231131   3.854   2.449   6.537
10078SOL     OW31132   6.305   6.457   4.661
10078SOL    HW131133   6.404   6.452   4.675
10078SOL    HW231134   6.271   6.542   4.701
10079SOL     OW31135   1.871   3.080   2.085
10079SOL    HW131136   1.885   2.982   2.099
10079SOL    HW231137   1.959   3.127   2.087
10080SOL     OW31138   3.179   2.146   6.746
10080SOL    HW131139   3.179   2.238   6.707
10080SOL    HW231140   3.113   2.089   6.696
10081SOL     OW31141   0.650   6.946   6.534
10081SOL    HW131142   0.687   0.010   6.565
10081SOL    HW231143   0.551   6.947   6.544
10082SOL     OW31144   6.837   2.520   2.400
10082SOL    HW131145   6.749   2.536   2.444
10082SOL    HW231146   6.870   2.606   2.359
10083SOL     OW31147   4.821   1.046   3.654
10083SOL    HW131148   4.751   1.107   3.691
10083SOL    HW231149   4.899   1.100   3.623
10084SOL     OW31150   3.205   0.466   5.794
10084SOL    HW131151   3.239   0.531   5.726
10084SOL    HW231152   3.130   0.413   5.754
10085SOL     OW31153   0.690   4.792   3.254
10085SOL    HW131154   0.772   4.832   3.214
10085SOL    HW231155   0.694   4.692   3.246
10086SOL     OW31156   5.636   5.264   2.486
10086SOL    HW131157   5.563   5.228   2.545
10086SOL    HW231158   5.724   5.249   2.530
10087SOL     OW31159   1.134   1.229   4.376
10087SOL    HW131160   1.213   1.168   4.373
10087SOL    HW231161   1.052   1.177   4.398
10088SOL     OW31162   0.140   6.592   5.546
10088SOL    HW131163   0.216   6.538   5.510
10088SOL    HW231164   0.101   6.648   5.473
10089SOL     OW31165   2.460   1.444   3.675
10089SOL    HW131166   2.491   1.449   3.580
10089SOL    HW231167   2.536   1.467   3.735
10090SOL     OW31168   0.718   4.401   1.122
10090SOL    HW131169   0.674   4.337   1.185
10090SOL    HW231170   0.703   4.495   1.153
10091SOL     OW31171   1.134   3.350   4.824
10091SOL    HW131172   1.075   3.427   4.802
10091SOL    HW231173   1.080   3.277   4.866
10092SOL     OW31174   1.504   4.056   5.134
10092SOL    HW131175   1.512   3.967   5.180
10092SOL    HW231176   1.520   4.129   5.200
10093SOL     OW31177   0.545   5.276   5.130
10093SOL    HW131178   0.582   5.290   5.038
10093SOL    HW231179   0.461   5.222   5.124
10094SOL     OW31180   2.468   6.946   2.709
10094SOL    HW131181   2.524   6.989   2.638
10094SOL    HW231182   2.523   6.927   2.789
10095SOL     OW31183   6.019   1.431   4.832
10095SOL    HW131184   5.991   1.419   4.927
10095SOL    HW231185   5.947   1.397   4.771
10096SOL     OW31186   6.820   5.109   2.771
10096SOL    HW131187   6.845   5.116   2.868
10096SOL    HW231188   6.721   5.092   2.764
10097SOL     OW31189   0.970   1.231   0.188
10097SOL    HW131190   0.893   1.293   0.203
10097SOL    HW231191   1.017   1.256   0.103
10098SOL     OW31192   1.913   6.458   6.062
10098SOL    HW131193   1.861   6.413   5.989
10098SOL    HW231194   1.979   6.394   6.100
10099SOL     OW31195   0.559   4.413   6.342
10099SOL    HW131196   0.493   4.394   6.270
10099SOL    HW231197   0.519   4.475   6.409
10100SOL     OW31198   5.032   6.871   5.244
10100SOL    HW131199   5.039   6.969   5.262
10100SOL    HW231200   5.073   6.851   5.155
10101SOL     OW31201   6.333   4.468   1.844
10101SOL    HW131202   6.371   4.381   1.878
10101SOL    HW231203   6.263   4.449   1.774
10102SOL     OW31204   2.526   0.899   3.453
10102SOL    HW131205   2.544   0.954   3.372
10102SOL    HW231206   2.557   0.949   3.534
10103SOL     OW31207   3.271   0.983   4.915
10103SOL    HW131208   3.297   1.066   4.866
10103SOL    HW231209   3.296   0.993   5.012
10104SOL     OW31210   0.418   4.279   5.134
10104SOL    HW131211   0.493   4.335   5.098
10104SOL    HW231212   0.440   4.250   5.227
10105SOL     OW31213   1.026   1.143   6.132
10105SOL    HW131214   0.975   1.177   6.052
10105SOL    HW231215   1.008   1.046   6.144
10106SOL     OW31216   5.625   4.455   1.244
10106SOL    HW131217   5.616   4.530   1.309
10106SOL    HW231218   5.713   4.410   1.257
10107SOL     OW31219   6.388   1.728   6.099
10107SOL    HW131220   6.316   1.796   6.084
10107SOL    HW231221   6.363   1.669   6.175
10108SOL     OW31222   6.577   6.207   6.885
10108SOL    HW131223   6.580   6.302   6.915
10108SOL    HW231224   6.525   6.153   6.951
10109SOL     OW31225   4.200   6.439   2.801
10109SOL    HW131226   4.226   6.475   2.712
10109SOL    HW231227   4.100   6.442   2.810
10110SOL     OW31228   4.268   6.491   5.545
10110SOL    HW131229   4.244   6.585   5.569
10110SOL    HW231230   4.363   6.473   5.572
10111SOL     OW31231   6.853   3.508   3.139
10111SOL    HW131232   6.936   3.528   3.087
10111SOL    HW231233   6.877   3.456   3.221
10112SOL     OW31234   6.057   4.048   5.124
10112SOL    HW131235   6.073   4.082   5.217
10112SOL    HW231236   6.004   4.116   5.073
10113SOL     OW31237   4.030   1.363   7.006
10113SOL    HW131238   3.963   1.388   0.052
10113SOL    HW231239   4.018   1.423   6.927
10114SOL     OW31240   5.495   0.781   1.043
10114SOL    HW131241   5.426   0.723   1.086
10114SOL    HW231242   5.523   0.852   1.108
10115SOL     OW31243   2.715   2.016   3.275
10115SOL    HW131244   2.763   2.058   3.199
10115SOL    HW231245   2.732   2.070   3.358
10116SOL     OW31246   0.658   6.546   1.004
10116SOL    HW131247   0.613   6.632   0.982
10116SOL    HW231248   0.696   6.551   1.096
10117SOL     OW31249   6.561   0.458   4.397
10117SOL    HW131250   6.606   0.437   4.310
10117SOL    HW231251   6.628   0.487   4.464
10118SOL     OW31252   6.880   4.850   2.721
10118SOL    HW131253   6.891   4.941   2.758
10118SOL    HW231254   6.917   4.847   2.628
10119SOL     OW31255   1.969   6.746   4.561
10119SOL    HW131256   2.038   6.768   4.492
10119SOL    HW231257   1.904   6.680   4.523
10120SOL     OW31258   0.768   3.191   3.956
10120SOL    HW131259   0.795   3.278   3.999
10120SOL    HW231260   0.669   3.192   3.940
10121SOL     OW31261   6.458   5.019   5.053
10121SOL    HW131262   6.379   5.016   4.992
10121SOL    HW231263   6.492   4.926   5.068
10122SOL     OW31264   6.001   2.724   0.139
10122SOL    HW131265   5.973   2.780   0.217
10122SOL    HW231266   6.040   2.638   0.173
10123SOL     OW31267   6.486   6.272   0.365
10123SOL    HW131268   6.524   6.250   0.455
10123SOL    HW231269   6.499   6.194   0.304
10124SOL     OW31270   1.972   4.137   6.734
10124SOL    HW131271   1.874   4.114   6.731
10124SOL    HW231272   2.022   4.062   6.775
10125SOL     OW31273   1.969   0.626   2.540
10125SOL    HW131274   2.053   0.577   2.562
10125SOL    HW231275   1.988   0.698   2.474
10126SOL     OW31276   6.580   5.695   6.252
10126SOL    HW131277   6.601   5.649   6.338
10126SOL    HW231278   6.527   5.634   6.194
10127SOL     OW31279   2.710   5.563   5.935
10127SOL    HW131280   2.704   5.503   5.855
10127SOL    HW231281   2.743   5.510   6.013
10128SOL     OW31282   0.807   1.533   1.432
10128SOL    HW131283   0.904   1.525   1.456
10128SOL    HW231284   0.796   1.605   1.365
10129SOL     OW31285   4.768   2.884   4.080
10129SOL    HW131286   4.707   2.849   4.009
10129SOL    HW231287   4.759   2.828   4.162
10130SOL     OW31288   2.235   4.749   2.760
10130SOL    HW131289   2.242   4.812   2.683
10130SOL    HW231290   2.295   4.780   2.835
10131SOL     OW31291   0.703   1.775   3.182
10131SOL    HW131292   0.672   1.808   3.092
10131SOL    HW231293   0.675   1.840   3.253
10132SOL     OW31294   3.050   5.987   3.125
10132SOL    HW131295   3.017   6.049   3.196
10132SOL    HW231296   2.972   5.942   3.081
10133SOL     OW31297   4.250   6.381   2.504
10133SOL    HW131298   4.198   6.318   2.446
10133SOL    HW231299   4.194   6.461   2.525
10134SOL     OW31300   6.703   0.246   3.857
10134SOL    HW131301   6.605   0.228   3.860
10134SOL    HW231302   6.743   0.222   3.946
10135SOL     OW31303   5.297   3.305   2.642
10135SOL    HW131304   5.342   3.391   2.666
10135SOL    HW231305   5.260   3.312   2.550
10136SOL     OW31306   5.411   0.014   2.761
10136SOL    HW131307   5.444   0.035   2.853
10136SOL    HW231308   5.326   6.986   2.767
10137SOL     OW31309   6.739   5.630   3.696
10137SOL    HW131310   6.664   5.691   3.672
10137SOL    HW231311   6.822   5.659   3.650
10138SOL     OW31312   4.490   2.331   1.123
10138SOL    HW131313   4.516   2.419   1.164
10138SOL    HW231314   4.567   2.267   1.131
10139SOL     OW31315   4.034   3.250   2.694
10139SOL    HW131316   4.027   3.162   2.742
10139SOL    HW231317   4.058   3.234   2.599
10140SOL     OW31318   6.168   5.844   5.679
10140SOL    HW131319   6.075   5.830   5.645
10140SOL    HW231320   6.164   5.888   5.769
10141SOL     OW31321   3.490   2.117   4.456
10141SOL    HW131322   3.467   2.056   4.532
10141SOL    HW231323   3.577   2.089   4.416
10142SOL     OW31324   5.545   6.111   5.374
10142SOL    HW131325   5.513   6.105   5.279
10142SOL    HW231326   5.474   6.155   5.430
10143SOL     OW31327   4.814   0.144   1.388
10143SOL    HW131328   4.808   0.046   1.368
10143SOL    HW231329   4.889   0.184   1.337
10144SOL     OW31330   4.544   6.456   6.368
10144SOL    HW131331   4.451   6.490   6.357
10144SOL    HW231332   4.593   6.515   6.433
10145SOL     OW31333   3.850   6.246   5.934
10145SOL    HW131334   3.901   6.325   5.899
10145SOL    HW231335   3.833   6.182   5.860
10146SOL     OW31336   3.872   5.156   5.591
10146SOL    HW131337   3.908   5.146   5.684
10146SOL    HW231338   3.791   5.100   5.580
10147SOL     OW31339   5.489   4.563   4.370
10147SOL    HW131340   5.573   4.568   4.317
10147SOL    HW231341   5.493   4.631   4.444
10148SOL     OW31342   5.940   4.869   6.756
10148SOL    HW131343   5.849   4.895   6.724
10148SOL    HW231344   5.944   4.879   6.855
10149SOL     OW31345   5.101   2.057   0.860
10149SOL    HW131346   5.172   2.086   0.925
10149SOL    HW231347   5.067   2.138   0.811
10150SOL     OW31348   4.390   3.957   0.295
10150SOL    HW131349   4.412   4.040   0.346
10150SOL    HW231350   4.474   3.919   0.255
10151SOL     OW31351   0.807   0.230   6.384
10151SOL    HW131352   0.765   0.195   6.468
10151SOL    HW231353   0.896   0.271   6.406
10152SOL     OW31354   2.066   5.696   4.194
10152SOL    HW131355   2.092   5.600   4.202
10152SOL    HW231356   2.131   5.752   4.245
10153SOL     OW31357   4.543   5.771   4.316
10153SOL    HW131358   4.643   5.771   4.306
10153SOL    HW231359   4.514   5.856   4.361
10154SOL     OW31360   6.034   6.781   5.327
10154SOL    HW131361   6.122   6.827   5.334
10154SOL    HW231362   5.964   6.845   5.295
10155SOL     OW31363   4.110   1.800   5.766
10155SOL    HW131364   4.024   1.849   5.781
10155SOL    HW231365   4.187   1.855   5.798
10156SOL     OW31366   6.507   0.155   2.035
10156SOL    HW131367   6.424   0.183   1.987
10156SOL    HW231368   6.577   0.225   2.025
10157SOL     OW31369   5.820   2.409   6.106
10157SOL    HW131370   5.785   2.369   6.021
10157SOL    HW231371   5.859   2.499   6.087
10158SOL     OW31372   4.494   3.510   0.038
10158SOL    HW131373   4.577   3.465   0.073
10158SOL    HW231374   4.506   3.526   6.964
10159SOL     OW31375   2.693   3.577   6.089
10159SOL    HW131376   2.720   3.668   6.059
10159SOL    HW231377   2.611   3.549   6.039
10160SOL     OW31378   1.377   3.928   2.236
10160SOL    HW131379   1.367   3.853   2.172
10160SOL    HW231380   1.289   3.945   2.281
10161SOL     OW31381   3.456   4.395   0.409
10161SOL    HW131382   3.357   4.402   0.413
10161SOL    HW231383   3.495   4.482   0.380
10162SOL     OW31384   2.402   4.322   0.565
10162SOL    HW131385   2.368   4.289   0.654
10162SOL    HW231386   2.324   4.334   0.503
10163SOL     OW31387   5.387   4.646   6.712
10163SOL    HW131388   5.408   4.602   6.624
10163SOL    HW231389   5.323   4.721   6.698
10164SOL     OW31390   6.109   3.311   4.989
10164SOL    HW131391   6.126   3.336   4.894
10164SOL    HW231392   6.109   3.394   5.045
10165SOL     OW31393   1.387   2.469   3.914
10165SOL    HW131394   1.443   2.393   3.947
10165SOL    HW231395   1.291   2.445   3.922
10166SOL     OW31396   3.804   1.225   2.188
10166SOL    HW131397   3.876   1.262   2.246
10166SOL    HW231398   3.715   1.248   2.227
10167SOL     OW31399   4.310   2.107   5.976
10167SOL    HW131400   4.315   2.185   6.039
10167SOL    HW231401   4.348   2.026   6.020
10168SOL     OW31402   6.588   4.249   4.976
10168SOL    HW131403   6.552   4.251   5.070
10168SOL    HW231404   6.529   4.192   4.919
10169SOL     OW31405   6.568   3.888   3.133
10169SOL    HW131406   6.646   3.862   3.076
10169SOL    HW231407   6.500   3.815   3.132
10170SOL     OW31408   1.048   4.199   5.836
10170SOL    HW131409   0.976   4.267   5.823
10170SOL    HW231410   1.113   4.232   5.904
10171SOL     OW31411   6.340   3.991   5.903
10171SOL    HW131412   6.243   4.010   5.914
10171SOL    HW231413   6.351   3.914   5.840
10172SOL     OW31414   6.266   6.863   3.654
10172SOL    HW131415   6.237   6.902   3.741
10172SOL    HW231416   6.352   6.813   3.667
10173SOL     OW31417   1.441   2.699   0.809
10173SOL    HW131418   1.481   2.648   0.733
10173SOL    HW231419   1.429   2.638   0.887
10174SOL     OW31420   5.714   5.196   2.230
10174SOL    HW131421   5.642   5.223   2.294
10174SOL    HW231422   5.733   5.099   2.239
10175SOL     OW31423   0.059   2.448   3.681
10175SOL    HW131424   0.058   2.444   3.581
10175SOL    HW231425   0.065   2.543   3.711
10176SOL     OW31426   1.731   3.493   5.820
10176SOL    HW131427   1.724   3.400   5.857
10176SOL    HW231428   1.819   3.532   5.845
10177SOL     OW31429   2.048   0.945   0.768
10177SOL    HW131430   2.122   0.881   0.792
10177SOL    HW231431   2.081   1.009   0.699
10178SOL     OW31432   6.787   2.436   4.986
10178SOL    HW131433   6.732   2.385   4.921
10178SOL    HW231434   6.868   2.382   5.011
10179SOL     OW31435   0.982   1.566   6.009
10179SOL    HW131436   1.010   1.470   6.013
10179SOL    HW231437   1.063   1.624   5.996
10180SOL     OW31438   4.079   6.486   0.018
10180SOL    HW131439   4.127   6.516   0.100
10180SOL    HW231440   4.010   6.419   0.042
10181SOL     OW31441   4.910   3.394   2.110
10181SOL    HW131442   4.869   3.323   2.167
10181SOL    HW231443   4.923   3.477   2.165
10182SOL     OW31444   5.367   1.147   2.201
10182SOL    HW131445   5.453   1.131   2.152
10182SOL    HW231446   5.357   1.244   2.220
10183SOL     OW31447   0.750   1.963   6.401
10183SOL    HW131448   0.696   1.899   6.346
10183SOL    HW231449   0.808   2.018   6.340
10184SOL     OW31450   4.034   0.751   6.283
10184SOL    HW131451   4.018   0.835   6.231
10184SOL    HW231452   3.956   0.733   6.343
10185SOL     OW31453   5.577   5.809   1.679
10185SOL    HW131454   5.533   5.816   1.769
10185SOL    HW231455   5.584   5.899   1.638
10186SOL     OW31456   5.868   3.214   2.604
10186SOL    HW131457   5.951   3.238   2.654
10186SOL    HW231458   5.825   3.298   2.569
10187SOL     OW31459   0.777   2.222   1.331
10187SOL    HW131460   0.716   2.187   1.402
10187SOL    HW231461   0.745   2.191   1.241
10188SOL     OW31462   3.935   6.371   0.669
10188SOL    HW131463   3.854   6.361   0.612
10188SOL    HW231464   3.972   6.463   0.658
10189SOL     OW31465   1.842   0.627   5.449
10189SOL    HW131466   1.911   0.605   5.379
10189SOL    HW231467   1.839   0.552   5.516
10190SOL     OW31468   4.697   3.197   1.436
10190SOL    HW131469   4.624   3.179   1.370
10190SOL    HW231470   4.745   3.281   1.410
10191SOL     OW31471   4.890   4.349   6.844
10191SOL    HW131472   4.973   4.322   6.794
10191SOL    HW231473   4.814   4.290   6.817
10192SOL     OW31474   4.376   0.861   5.586
10192SOL    HW131475   4.462   0.836   5.631
10192SOL    HW231476   4.300   0.845   5.649
10193SOL     OW31477   4.053   3.623   1.781
10193SOL    HW131478   4.145   3.618   1.742
10193SOL    HW231479   4.058   3.612   1.880
10194SOL     OW31480   5.847   4.510   5.136
10194SOL    HW131481   5.860   4.604   5.169
10194SOL    HW231482   5.935   4.474   5.105
10195SOL     OW31483   5.994   4.832   0.929
10195SOL    HW131484   6.045   4.911   0.963
10195SOL    HW231485   6.040   4.795   0.849
10196SOL     OW31486   5.462   1.751   4.826
10196SOL    HW131487   5.397   1.814   4.870
10196SOL    HW231488   5.424   1.659   4.827
10197SOL     OW31489   6.928   2.134   4.834
10197SOL    HW131490   6.982   2.163   4.755
10197SOL    HW231491   6.832   2.160   4.820
10198SOL     OW31492   3.553   0.846   1.997
10198SOL    HW131493   3.579   0.926   1.943
10198SOL    HW231494   3.465   0.862   2.042
10199SOL     OW31495   2.438   3.222   6.014
10199SOL    HW131496   2.500   3.248   6.088
10199SOL    HW231497   2.458   3.128   5.985
10200SOL     OW31498   4.658   2.038   1.028
10200SOL    HW131499   4.707   1.955   1.001
10200SOL    HW231500   4.630   2.089   0.947
10201SOL     OW31501   0.606   4.809   0.764
10201SOL    HW131502   0.629   4.720   0.724
10201SOL    HW231503   0.515   4.837   0.733
10202SOL     OW31504   3.634   2.619   6.458
10202SOL    HW131505   3.569   2.695   6.445
10202SOL    HW231506   3.600   2.538   6.410
10203SOL     OW31507   5.642   2.938   4.146
10203SOL    HW131508   5.704   2.873   4.102
10203SOL    HW231509   5.645   3.025   4.097
10204SOL     OW31510   5.794   0.099   6.858
10204SOL    HW131511   5.866   0.038   6.824
10204SOL    HW231512   5.783   0.175   6.795
10205SOL     OW31513   0.843   1.060   0.868
10205SOL    HW131514   0.939   1.079   0.851
10205SOL    HW231515   0.791   1.071   0.783
10206SOL     OW31516   0.557   0.512   5.789
10206SOL    HW131517   0.617   0.435   5.768
10206SOL    HW231518   0.512   0.543   5.706
10207SOL     OW31519   1.045   1.696   6.313
10207SOL    HW131520   0.945   1.700   6.318
10207SOL    HW231521   1.085   1.757   6.382
10208SOL     OW31522   5.936   5.028   3.926
10208SOL    HW131523   5.847   4.994   3.895
10208SOL    HW231524   5.924   5.109   3.983
10209SOL     OW31525   6.656   6.932   6.423
10209SOL    HW131526   6.694   6.840   6.438
10209SOL    HW231527   6.614   6.936   6.332
10210SOL     OW31528   4.852   6.487   1.507
10210SOL    HW131529   4.865   6.586   1.505
10210SOL    HW231530   4.852   6.456   1.603
10211SOL     OW31531   3.930   6.733   4.512
10211SOL    HW131532   4.026   6.760   4.501
10211SOL    HW231533   3.907   6.665   4.442
10212SOL     OW31534   1.270   0.683   5.000
10212SOL    HW131535   1.301   0.623   5.074
10212SOL    HW231536   1.343   0.693   4.933
10213SOL     OW31537   4.247   2.812   1.238
10213SOL    HW131538   4.329   2.847   1.283
10213SOL    HW231539   4.267   2.794   1.142
10214SOL     OW31540   1.091   2.549   1.627
10214SOL    HW131541   1.132   2.553   1.718
10214SOL    HW231542   1.154   2.504   1.563
10215SOL     OW31543   3.914   3.027   3.213
10215SOL    HW131544   3.892   3.103   3.274
10215SOL    HW231545   3.848   2.953   3.228
10216SOL     OW31546   6.934   1.274   1.233
10216SOL    HW131547   6.961   1.181   1.210
10216SOL    HW231548   7.016   1.330   1.249
10217SOL     OW31549   2.839   1.044   3.314
10217SOL    HW131550   2.749   1.036   3.270
10217SOL    HW231551   2.835   1.113   3.386
10218SOL     OW31552   1.137   3.275   1.932
10218SOL    HW131553   1.068   3.325   1.881
10218SOL    HW231554   1.226   3.286   1.887
10219SOL     OW31555   0.412   1.988   3.078
10219SOL    HW131556   0.391   2.071   3.130
10219SOL    HW231557   0.432   2.013   2.983
10220SOL     OW31558   3.792   2.952   1.216
10220SOL    HW131559   3.699   2.938   1.183
10220SOL    HW231560   3.790   2.982   1.312
10221SOL     OW31561   0.823   5.665   3.134
10221SOL    HW131562   0.755   5.733   3.162
10221SOL    HW231563   0.858   5.688   3.044
10222SOL     OW31564   2.908   3.569   5.158
10222SOL    HW131565   2.870   3.514   5.084
10222SOL    HW231566   2.870   3.539   5.245
10223SOL     OW31567   0.363   4.868   1.196
10223SOL    HW131568   0.318   4.834   1.279
10223SOL    HW231569   0.396   4.961   1.212
10224SOL     OW31570   6.157   3.006   3.520
10224SOL    HW131571   6.089   2.936   3.502
10224SOL    HW231572   6.248   2.964   3.528
10225SOL     OW31573   1.844   4.223   6.231
10225SOL    HW131574   1.800   4.289   6.170
10225SOL    HW231575   1.831   4.130   6.195
10226SOL     OW31576   3.793   0.806   0.192
10226SOL    HW131577   3.860   0.807   0.118
10226SOL    HW231578   3.821   0.871   0.263
10227SOL     OW31579   5.111   4.287   0.681
10227SOL    HW131580   5.124   4.344   0.762
10227SOL    HW231581   5.142   4.194   0.701
10228SOL     OW31582   6.662   0.087   0.767
10228SOL    HW131583   6.741   0.063   0.823
10228SOL    HW231584   6.586   0.114   0.827
10229SOL     OW31585   0.740   3.644   4.982
10229SOL    HW131586   0.709   3.641   4.887
10229SOL    HW231587   0.840   3.653   4.983
10230SOL     OW31588   6.594   5.624   2.646
10230SOL    HW131589   6.533   5.562   2.695
10230SOL    HW231590   6.602   5.710   2.697
10231SOL     OW31591   1.657   6.291   4.458
10231SOL    HW131592   1.710   6.328   4.381
10231SOL    HW231593   1.686   6.335   4.543
10232SOL     OW31594   3.021   0.911   3.471
10232SOL    HW131595   3.115   0.944   3.477
10232SOL    HW231596   2.969   0.969   3.408
10233SOL     OW31597   3.768   4.022   5.473
10233SOL    HW131598   3.867   4.026   5.486
10233SOL    HW231599   3.723   4.005   5.561
10234SOL     OW31600   6.306   0.164   1.510
10234SOL    HW131601   6.296   0.138   1.414
10234SOL    HW231602   6.319   0.263   1.516
10235SOL     OW31603   1.349   1.804   2.328
10235SOL    HW131604   1.312   1.853   2.250
10235SOL    HW231605   1.406   1.728   2.296
10236SOL     OW31606   2.289   6.382   0.012
10236SOL    HW131607   2.192   6.402   0.025
10236SOL    HW231608   2.323   6.328   0.089
10237SOL     OW31609   0.486   3.458   7.022
10237SOL    HW131610   0.393   3.422   0.009
10237SOL    HW231611   0.550   3.404   0.053
10238SOL     OW31612   4.244   4.940   1.322
10238SOL    HW131613   4.248   4.840   1.328
10238SOL    HW231614   4.335   4.977   1.303
10239SOL     OW31615   1.231   2.840   4.742
10239SOL    HW131616   1.272   2.807   4.826
10239SOL    HW231617   1.159   2.906   4.763
10240SOL     OW31618   2.581   6.621   1.888
10240SOL    HW131619   2.670   6.602   1.847
10240SOL    HW231620   2.594   6.672   1.974
10241SOL     OW31621   5.006   1.961   2.091
10241SOL    HW131622   4.971   1.995   2.003
10241SOL    HW231623   5.011   2.037   2.156
10242SOL     OW31624   0.113   2.079   0.559
10242SOL    HW131625   0.127   2.144   0.634
10242SOL    HW231626   0.094   1.989   0.596
10243SOL     OW31627   2.651   4.607   1.254
10243SOL    HW131628   2.598   4.692   1.257
10243SOL    HW231629   2.639   4.557   1.340
10244SOL     OW31630   2.399   4.183   1.432
10244SOL    HW131631   2.453   4.123   1.491
10244SOL    HW231632   2.390   4.142   1.341
10245SOL     OW31633   3.682   3.953   1.404
10245SOL    HW131634   3.698   3.987   1.496
10245SOL    HW231635   3.725   3.863   1.394
10246SOL     OW31636   3.036   3.351   4.342
10246SOL    HW131637   3.037   3.302   4.255
10246SOL    HW231638   3.010   3.288   4.415
10247SOL     OW31639   0.768   4.366   5.314
10247SOL    HW131640   0.717   4.379   5.229
10247SOL    HW231641   0.803   4.272   5.317
10248SOL     OW31642   1.232   0.106   3.686
10248SOL    HW131643   1.244   0.202   3.710
10248SOL    HW231644   1.319   0.058   3.694
10249SOL     OW31645   1.625   4.698   0.058
10249SOL    HW131646   1.628   4.631   0.132
10249SOL    HW231647   1.717   4.734   0.041
10250SOL     OW31648   6.280   3.343   0.731
10250SOL    HW131649   6.325   3.289   0.803
10250SOL    HW231650   6.313   3.437   0.736
10251SOL     OW31651   1.730   0.721   3.850
10251SOL    HW131652   1.733   0.663   3.931
10251SOL    HW231653   1.812   0.706   3.795
10252SOL     OW31654   4.755   3.571   5.418
10252SOL    HW131655   4.719   3.595   5.327
10252SOL    HW231656   4.704   3.493   5.454
10253SOL     OW31657   4.065   6.617   0.681
10253SOL    HW131658   4.005   6.679   0.731
10253SOL    HW231659   4.113   6.668   0.610
10254SOL     OW31660   4.678   1.403   5.499
10254SOL    HW131661   4.730   1.407   5.585
10254SOL    HW231662   4.675   1.494   5.458
10255SOL     OW31663   2.458   6.303   1.310
10255SOL    HW131664   2.479   6.371   1.381
10255SOL    HW231665   2.373   6.256   1.333
10256SOL     OW31666   4.998   0.794   1.777
10256SOL    HW131667   5.087   0.838   1.769
10256SOL    HW231668   4.973   0.785   1.874
10257SOL     OW31669   2.555   4.564   3.648
10257SOL    HW131670   2.651   4.537   3.647
10257SOL    HW231671   2.503   4.507   3.585
10258SOL     OW31672   3.669   2.115   3.286
10258SOL    HW131673   3.616   2.192   3.249
10258SOL    HW231674   3.656   2.110   3.385
10259SOL     OW31675   1.029   4.213   3.834
10259SOL    HW131676   0.931   4.195   3.836
10259SOL    HW231677   1.049   4.297   3.884
10260SOL     OW31678   1.137   1.571   3.806
10260SOL    HW131679   1.133   1.667   3.780
10260SOL    HW231680   1.196   1.521   3.742
10261SOL     OW31681   0.608   4.077   0.430
10261SOL    HW131682   0.595   4.168   0.391
10261SOL    HW231683   0.572   4.075   0.523
10262SOL     OW31684   3.485   0.351   6.617
10262SOL    HW131685   3.543   0.338   6.697
10262SOL    HW231686   3.486   0.269   6.560
10263SOL     OW31687   5.768   0.782   0.412
10263SOL    HW131688   5.694   0.841   0.381
10263SOL    HW231689   5.826   0.759   0.333
10264SOL     OW31690   6.043   4.856   6.505
10264SOL    HW131691   5.994   4.797   6.441
10264SOL    HW231692   5.993   4.862   6.591
10265SOL     OW31693   2.329   2.688   0.418
10265SOL    HW131694   2.398   2.682   0.491
10265SOL    HW231695   2.357   2.631   0.341
10266SOL     OW31696   3.310   2.876   2.931
10266SOL    HW131697   3.380   2.851   2.998
10266SOL    HW231698   3.221   2.883   2.976
10267SOL     OW31699   5.202   0.980   0.998
10267SOL    HW131700   5.284   0.985   1.055
10267SOL    HW231701   5.202   1.056   0.933
10268SOL     OW31702   5.725   6.534   1.924
10268SOL    HW131703   5.823   6.520   1.907
10268SOL    HW231704   5.682   6.447   1.947
10269SOL     OW31705   1.559   2.780   6.674
10269SOL    HW131706   1.653   2.767   6.704
10269SOL    HW231707   1.527   2.871   6.700
10270SOL     OW31708   3.519   5.980   2.438
10270SOL    HW131709   3.618   5.974   2.445
10270SOL    HW231710   3.494   6.029   2.355
10271SOL     OW31711   3.198   2.496   0.482
10271SOL    HW131712   3.255   2.561   0.532
10271SOL    HW231713   3.126   2.545   0.434
10272SOL     OW31714   0.146   1.164   4.226
10272SOL    HW131715   0.068   1.209   4.269
10272SOL    HW231716   0.164   1.206   4.137
10273SOL     OW31717   3.032   4.886   4.582
10273SOL    HW131718   2.949   4.836   4.559
10273SOL    HW231719   3.036   4.901   4.681
10274SOL     OW31720   0.816   5.237   5.556
10274SOL    HW131721   0.726   5.202   5.581
10274SOL    HW231722   0.881   5.216   5.630
10275SOL     OW31723   6.979   0.581   2.484
10275SOL    HW131724   6.885   0.567   2.453
10275SOL    HW231725   6.986   0.557   2.580
10276SOL     OW31726   4.542   5.729   5.922
10276SOL    HW131727   4.575   5.635   5.925
10276SOL    HW231728   4.520   5.753   5.827
10277SOL     OW31729   0.905   0.109   4.509
10277SOL    HW131730   0.825   0.136   4.455
10277SOL    HW231731   0.962   0.048   4.455
10278SOL     OW31732   0.185   0.580   4.427
10278SOL    HW131733   0.269   0.632   4.407
10278SOL    HW231734   0.168   0.516   4.353
10279SOL     OW31735   2.695   5.818   3.989
10279SOL    HW131736   2.739   5.815   3.899
10279SOL    HW231737   2.677   5.724   4.020
10280SOL     OW31738   5.307   3.364   0.042
10280SOL    HW131739   5.292   3.422   0.122
10280SOL    HW231740   5.302   3.419   6.983
10281SOL     OW31741   0.235   2.617   3.019
10281SOL    HW131742   0.211   2.674   2.940
10281SOL    HW231743   0.317   2.564   2.997
10282SOL     OW31744   4.872   3.284   3.266
10282SOL    HW131745   4.848   3.191   3.236
10282SOL    HW231746   4.858   3.348   3.191
10283SOL     OW31747   1.015   2.956   0.470
10283SOL    HW131748   0.983   2.885   0.533
10283SOL    HW231749   1.106   2.987   0.497
10284SOL     OW31750   6.684   2.122   4.003
10284SOL    HW131751   6.716   2.207   4.045
10284SOL    HW231752   6.758   2.080   3.952
10285SOL     OW31753   4.125   6.891   3.243
10285SOL    HW131754   4.195   6.822   3.262
10285SOL    HW231755   4.034   6.849   3.249
10286SOL     OW31756   3.466   0.562   4.290
10286SOL    HW131757   3.459   0.582   4.192
10286SOL    HW231758   3.562   0.541   4.313
10287SOL     OW31759   1.926   5.812   2.004
10287SOL    HW131760   1.896   5.747   2.073
10287SOL    HW231761   2.018   5.787   1.972
10288SOL     OW31762   3.739   7.013   4.654
10288SOL    HW131763   3.822   0.009   4.706
10288SOL    HW231764   3.702   6.925   4.684
10289SOL     OW31765   3.130   5.847   0.998
10289SOL    HW131766   3.099   5.830   1.092
10289SOL    HW231767   3.221   5.807   0.985
10290SOL     OW31768   3.021   3.077   2.544
10290SOL    HW131769   3.095   3.030   2.495
10290SOL    HW231770   3.026   3.056   2.641
10291SOL     OW31771   3.659   1.577   3.207
10291SOL    HW131772   3.705   1.664   3.224
10291SOL    HW231773   3.656   1.524   3.292
10292SOL     OW31774   0.263   1.392   5.988
10292SOL    HW131775   0.186   1.348   6.034
10292SOL    HW231776   0.234   1.427   5.899
10293SOL     OW31777   0.684   3.161   3.634
10293SOL    HW131778   0.752   3.093   3.661
10293SOL    HW231779   0.689   3.177   3.536
10294SOL     OW31780   3.966   1.790   3.044
10294SOL    HW131781   3.966   1.890   3.056
10294SOL    HW231782   4.007   1.768   2.955
10295SOL     OW31783   1.080   2.601   6.100
10295SOL    HW131784   1.160   2.608   6.040
10295SOL    HW231785   1.004   2.558   6.051
10296SOL     OW31786   5.599   1.014   5.919
10296SOL    HW131787   5.526   1.081   5.935
10296SOL    HW231788   5.647   0.996   6.005
10297SOL     OW31789   2.269   1.589   6.856
10297SOL    HW131790   2.332   1.579   6.933
10297SOL    HW231791   2.177   1.561   6.884
10298SOL     OW31792   1.470   4.713   2.191
10298SOL    HW131793   1.449   4.616   2.179
10298SOL    HW231794   1.410   4.752   2.261
10299SOL     OW31795   4.060   6.566   2.566
10299SOL    HW131796   3.965   6.586   2.543
10299SOL    HW231797   4.091   6.631   2.635
10300SOL     OW31798   1.292   4.288   1.751
10300SOL    HW131799   1.360   4.215   1.749
10300SOL    HW231800   1.219   4.267   1.686
10301SOL     OW31801   4.226   1.508   5.382
10301SOL    HW131802   4.242   1.536   5.287
10301SOL    HW231803   4.137   1.463   5.388
10302SOL     OW31804   2.514   6.317   3.732
10302SOL    HW131805   2.448   6.309   3.657
10302SOL    HW231806   2.483   6.262   3.809
10303SOL     OW31807   1.134   5.788   3.779
10303SOL    HW131808   1.092   5.782   3.869
10303SOL    HW231809   1.229   5.819   3.788
10304SOL     OW31810   6.089   0.333   1.272
10304SOL    HW131811   6.050   0.401   1.334
10304SOL    HW231812   6.174   0.368   1.232
10305SOL     OW31813   2.824   4.363   6.081
10305SOL    HW131814   2.760   4.289   6.057
10305SOL    HW231815   2.917   4.333   6.062
10306SOL     OW31816   5.192   6.023   0.567
10306SOL    HW131817   5.161   6.064   0.482
10306SOL    HW231818   5.238   6.092   0.623
10307SOL     OW31819   3.056   1.521   4.755
10307SOL    HW131820   3.007   1.479   4.832
10307SOL    HW231821   3.011   1.606   4.730
10308SOL     OW31822   2.357   4.358   2.237
10308SOL    HW131823   2.269   4.399   2.258
10308SOL    HW231824   2.344   4.280   2.176
10309SOL     OW31825   6.340   1.335   6.449
10309SOL    HW131826   6.323   1.310   6.544
10309SOL    HW231827   6.436   1.322   6.427
10310SOL     OW31828   3.116   3.491   6.922
10310SOL    HW131829   3.139   3.580   6.961
10310SOL    HW231830   3.038   3.452   6.971
10311SOL     OW31831   6.601   5.583   0.289
10311SOL    HW131832   6.674   5.559   0.353
10311SOL    HW231833   6.606   5.523   0.209
10312SOL     OW31834   4.461   0.422   2.819
10312SOL    HW131835   4.541   0.475   2.790
10312SOL    HW231836   4.384   0.483   2.834
10313SOL     OW31837   3.771   5.941   2.479
10313SOL    HW131838   3.802   5.849   2.455
10313SOL    HW231839   3.779   5.954   2.577
10314SOL     OW31840   6.968   0.398   0.625
10314SOL    HW131841   0.034   0.436   0.605
10314SOL    HW231842   6.968   0.300   0.602
10315SOL     OW31843   5.420   6.568   4.049
10315SOL    HW131844   5.495   6.566   3.983
10315SOL    HW231845   5.448   6.618   4.131
10316SOL     OW31846   6.427   2.494   5.986
10316SOL    HW131847   6.423   2.573   5.925
10316SOL    HW231848   6.489   2.425   5.949
10317SOL     OW31849   4.154   6.275   6.193
10317SOL    HW131850   4.162   6.218   6.275
10317SOL    HW231851   4.061   6.310   6.185
10318SOL     OW31852   4.765   0.971   6.198
10318SOL    HW131853   4.802   0.911   6.127
10318SOL    HW231854   4.743   0.916   6.279
10319SOL     OW31855   0.866   4.645   5.292
10319SOL    HW131856   0.786   4.689   5.332
10319SOL    HW231857   0.858   4.546   5.303
10320SOL     OW31858   0.162   6.105   2.737
10320SOL    HW131859   0.133   6.061   2.821
10320SOL    HW231860   0.178   6.202   2.754
10321SOL     OW31861   6.112   1.796   2.270
10321SOL    HW131862   6.054   1.877   2.274
10321SOL    HW231863   6.069   1.721   2.320
10322SOL     OW31864   4.386   5.041   5.227
10322SOL    HW131865   4.483   5.035   5.205
10322SOL    HW231866   4.375   5.080   5.319
10323SOL     OW31867   6.367   4.738   4.773
10323SOL    HW131868   6.342   4.829   4.806
10323SOL    HW231869   6.455   4.711   4.813
10324SOL     OW31870   3.349   3.183   3.038
10324SOL    HW131871   3.348   3.274   2.998
10324SOL    HW231872   3.436   3.139   3.018
10325SOL     OW31873   0.383   4.868   2.617
10325SOL    HW131874   0.476   4.885   2.650
10325SOL    HW231875   0.381   4.872   2.518
10326SOL     OW31876   5.837   4.067   6.889
10326SOL    HW131877   5.882   3.978   6.902
10326SOL    HW231878   5.828   4.085   6.791
10327SOL     OW31879   2.284   3.170   1.762
10327SOL    HW131880   2.324   3.256   1.793
10327SOL    HW231881   2.357   3.111   1.726
10328SOL     OW31882   6.179   2.452   1.572
10328SOL    HW131883   6.149   2.429   1.479
10328SOL    HW231884   6.190   2.551   1.579
10329SOL     OW31885   2.565   1.099   3.243
10329SOL    HW131886   2.536   1.079   3.150
10329SOL    HW231887   2.498   1.159   3.287
10330SOL     OW31888   4.172   0.450   1.792
10330SOL    HW131889   4.268   0.474   1.778
10330SOL    HW231890   4.142   0.485   1.881
10331SOL     OW31891   5.954   6.339   6.584
10331SOL    HW131892   6.002   6.394   6.652
10331SOL    HW231893   5.897   6.271   6.629
10332SOL     OW31894   0.217   0.057   6.743
10332SOL    HW131895   0.307   0.023   6.717
10332SOL    HW231896   0.149   7.008   6.730
10333SOL     OW31897   0.386   5.571   4.916
10333SOL    HW131898   0.318   5.644   4.914
10333SOL    HW231899   0.349   5.491   4.962
10334SOL     OW31900   3.031   0.293   3.928
10334SOL    HW131901   2.998   0.201   3.950
10334SOL    HW231902   2.953   0.350   3.902
10335SOL     OW31903   1.276   4.296   6.829
10335SOL    HW131904   1.190   4.279   6.878
10335SOL    HW231905   1.278   4.242   6.746
10336SOL     OW31906   6.470   0.020   2.325
10336SOL    HW131907   6.466   0.033   2.226
10336SOL    HW231908   6.415   0.090   2.370
10337SOL     OW31909   0.527   5.831   6.444
10337SOL    HW131910   0.428   5.820   6.453
10337SOL    HW231911   0.548   5.901   6.376
10338SOL     OW31912   1.488   6.255   2.222
10338SOL    HW131913   1.513   6.292   2.132
10338SOL    HW231914   1.448   6.328   2.277
10339SOL     OW31915   6.127   3.438   6.011
10339SOL    HW131916   6.075   3.419   5.928
10339SOL    HW231917   6.129   3.537   6.027
10340SOL     OW31918   2.064   2.920   6.999
10340SOL    HW131919   1.989   2.879   0.028
10340SOL    HW231920   2.043   3.015   6.979
10341SOL     OW31921   2.159   3.586   2.256
10341SOL    HW131922   2.125   3.495   2.282
10341SOL    HW231923   2.212   3.578   2.171
10342SOL     OW31924   1.618   0.232   3.599
10342SOL    HW131925   1.575   0.320   3.618
10342SOL    HW231926   1.564   0.159   3.639
10343SOL     OW31927   2.578   5.411   0.341
10343SOL    HW131928   2.492   5.382   0.299
10343SOL    HW231929   2.653   5.397   0.276
10344SOL     OW31930   3.947   3.823   0.140
10344SOL    HW131931   3.923   3.920   0.148
10344SOL    HW231932   3.950   3.782   0.231
10345SOL     OW31933   1.741   2.987   5.677
10345SOL    HW131934   1.792   3.069   5.702
10345SOL    HW231935   1.786   2.907   5.716
10346SOL     OW31936   0.090   5.376   1.334
10346SOL    HW131937   0.170   5.421   1.372
10346SOL    HW231938   0.064   5.420   1.248
10347SOL     OW31939   4.971   1.015   3.303
10347SOL    HW131940   5.058   1.024   3.254
10347SOL    HW231941   4.952   0.918   3.320
10348SOL     OW31942   6.484   2.587   0.269
10348SOL    HW131943   6.577   2.619   0.284
10348SOL    HW231944   6.464   2.587   0.171
10349SOL     OW31945   0.888   0.858   6.758
10349SOL    HW131946   0.982   0.867   6.793
10349SOL    HW231947   0.826   0.908   6.818
10350SOL     OW31948   2.814   5.443   5.158
10350SOL    HW131949   2.785   5.348   5.165
10350SOL    HW231950   2.736   5.503   5.180
10351SOL     OW31951   4.881   5.197   0.065
10351SOL    HW131952   4.935   5.165   7.012
10351SOL    HW231953   4.840   5.119   0.112
10352SOL     OW31954   3.011   0.660   6.375
10352SOL    HW131955   2.984   0.680   6.280
10352SOL    HW231956   3.017   0.561   6.388
10353SOL     OW31957   6.794   2.918   4.601
10353SOL    HW131958   6.809   2.961   4.691
10353SOL    HW231959   6.867   2.945   4.539
10354SOL     OW31960   5.697   1.169   1.352
10354SOL    HW131961   5.641   1.170   1.435
10354SOL    HW231962   5.682   1.253   1.300
10355SOL     OW31963   2.649   6.315   2.059
10355SOL    HW131964   2.614   6.386   1.999
10355SOL    HW231965   2.576   6.250   2.080
10356SOL     OW31966   0.086   4.505   6.273
10356SOL    HW131967   0.085   4.584   6.212
10356SOL    HW231968   0.037   4.429   6.231
10357SOL     OW31969   2.371   2.809   6.517
10357SOL    HW131970   2.277   2.811   6.549
10357SOL    HW231971   2.375   2.834   6.421
10358SOL     OW31972   7.009   2.323   2.788
10358SOL    HW131973   0.035   2.261   2.726
10358SOL    HW231974   6.913   2.327   2.760
10359SOL     OW31975   0.582   1.378   0.906
10359SOL    HW131976   0.647   1.412   0.974
10359SOL    HW231977   0.517   1.316   0.950
10360SOL     OW31978   4.379   4.935   3.136
10360SOL    HW131979   4.374   4.845   3.093
10360SOL    HW231980   4.287   4.974   3.144
10361SOL     OW31981   2.520   6.375   2.471
10361SOL    HW131982   2.616   6.347   2.465
10361SOL    HW231983   2.513   6.455   2.531
10362SOL     OW31984   1.778   4.831   4.838
10362SOL    HW131985   1.818   4.742   4.816
10362SOL    HW231986   1.829   4.903   4.791
10363SOL     OW31987   4.588   1.176   3.320
10363SOL    HW131988   4.552   1.244   3.384
10363SOL    HW231989   4.531   1.094   3.322
10364SOL     OW31990   2.842   3.752   1.274
10364SOL    HW131991   2.814   3.787   1.364
10364SOL    HW231992   2.868   3.828   1.215
10365SOL     OW31993   4.136   5.768   0.481
10365SOL    HW131994   4.080   5.809   0.553
10365SOL    HW231995   4.214   5.828   0.462
10366SOL     OW31996   2.773   0.389   3.832
10366SOL    HW131997   2.774   0.484   3.799
10366SOL    HW231998   2.697   0.377   3.896
10367SOL     OW31999   5.850   1.884   2.502
10367SOL    HW132000   5.764   1.893   2.452
10367SOL    HW232001   5.835   1.828   2.583
10368SOL     OW32002   2.883   0.905   1.598
10368SOL    HW132003   2.833   0.849   1.665
10368SOL    HW232004   2.825   0.920   1.518
10369SOL     OW32005   4.165   1.071   0.698
10369SOL    HW132006   4.226   1.100   0.624
10369SOL    HW232007   4.071   1.096   0.677
10370SOL     OW32008   4.579   0.698   5.229
10370SOL    HW132009   4.625   0.757   5.163
10370SOL    HW232010   4.537   0.620   5.181
10371SOL     OW32011   3.042   5.772   5.561
10371SOL    HW132012   3.023   5.727   5.648
10371SOL    HW232013   3.072   5.705   5.494
10372SOL     OW32014   2.663   0.787   4.853
10372SOL    HW132015   2.707   0.713   4.803
10372SOL    HW232016   2.728   0.829   4.915
10373SOL     OW32017   1.727   6.615   4.801
10373SOL    HW132018   1.639   6.627   4.756
10373SOL    HW232019   1.761   6.522   4.785
10374SOL     OW32020   2.938   1.339   3.636
10374SOL    HW132021   2.922   1.347   3.734
10374SOL    HW232022   2.991   1.417   3.603
10375SOL     OW32023   5.203   2.228   0.457
10375SOL    HW132024   5.219   2.144   0.510
10375SOL    HW232025   5.146   2.207   0.378
10376SOL     OW32026   0.854   0.840   4.172
10376SOL    HW132027   0.893   0.922   4.216
10376SOL    HW232028   0.928   0.782   4.138
10377SOL     OW32029   0.218   0.451   3.468
10377SOL    HW132030   0.130   0.412   3.438
10377SOL    HW232031   0.200   0.530   3.526
10378SOL     OW32032   6.675   0.755   5.977
10378SOL    HW132033   6.688   0.833   6.038
10378SOL    HW232034   6.640   0.787   5.889
10379SOL     OW32035   5.440   0.363   5.239
10379SOL    HW132036   5.464   0.270   5.212
10379SOL    HW232037   5.350   0.364   5.281
10380SOL     OW32038   5.888   0.437   2.833
10380SOL    HW132039   5.917   0.350   2.793
10380SOL    HW232040   5.963   0.475   2.888
10381SOL     OW32041   4.573   5.446   6.046
10381SOL    HW132042   4.477   5.472   6.034
10381SOL    HW232043   4.613   5.500   6.120
10382SOL     OW32044   2.522   5.340   6.220
10382SOL    HW132045   2.604   5.296   6.184
10382SOL    HW232046   2.452   5.345   6.149
10383SOL     OW32047   1.712   3.469   0.486
10383SOL    HW132048   1.638   3.403   0.496
10383SOL    HW232049   1.793   3.437   0.534
10384SOL     OW32050   6.943   0.184   0.930
10384SOL    HW132051   7.020   0.226   0.978
10384SOL    HW232052   6.976   0.114   0.867
10385SOL     OW32053   5.790   0.285   6.369
10385SOL    HW132054   5.735   0.315   6.447
10385SOL    HW232055   5.874   0.241   6.402
10386SOL     OW32056   6.518   3.181   4.920
10386SOL    HW132057   6.538   3.123   4.841
10386SOL    HW232058   6.459   3.131   4.983
10387SOL     OW32059   2.456   2.310   3.270
10387SOL    HW132060   2.481   2.213   3.279
10387SOL    HW232061   2.453   2.335   3.174
10388SOL     OW32062   0.886   4.949   3.094
10388SOL    HW132063   0.970   4.937   3.041
10388SOL    HW232064   0.870   5.047   3.107
10389SOL     OW32065   0.899   4.991   3.470
10389SOL    HW132066   0.844   5.018   3.391
10389SOL    HW232067   0.996   4.992   3.446
10390SOL     OW32068   1.868   3.808   3.114
10390SOL    HW132069   1.837   3.846   3.027
10390SOL    HW232070   1.968   3.801   3.113
10391SOL     OW32071   1.658   5.894   6.366
10391SOL    HW132072   1.675   5.854   6.456
10391SOL    HW232073   1.727   5.861   6.301
10392SOL     OW32074   5.720   4.831   0.177
10392SOL    HW132075   5.625   4.820   0.207
10392SOL    HW232076   5.781   4.795   0.247
10393SOL     OW32077   0.939   1.411   4.009
10393SOL    HW132078   0.943   1.411   3.909
10393SOL    HW232079   0.990   1.333   4.044
10394SOL     OW32080   2.290   6.875   6.744
10394SOL    HW132081   2.340   6.793   6.773
10394SOL    HW232082   2.237   6.853   6.662
10395SOL     OW32083   6.851   0.826   4.144
10395SOL    HW132084   6.943   0.789   4.132
10395SOL    HW232085   6.810   0.841   4.054
10396SOL     OW32086   0.733   0.269   3.834
10396SOL    HW132087   0.798   0.198   3.862
10396SOL    HW232088   0.751   0.295   3.739
10397SOL     OW32089   3.972   0.917   3.139
10397SOL    HW132090   3.977   0.915   3.039
10397SOL    HW232091   3.999   1.008   3.171
10398SOL     OW32092   6.569   3.018   1.301
10398SOL    HW132093   6.594   2.925   1.327
10398SOL    HW232094   6.524   3.063   1.378
10399SOL     OW32095   4.522   2.176   5.511
10399SOL    HW132096   4.467   2.196   5.429
10399SOL    HW232097   4.465   2.128   5.578
10400SOL     OW32098   2.502   5.731   2.603
10400SOL    HW132099   2.443   5.807   2.576
10400SOL    HW232100   2.482   5.651   2.547
10401SOL     OW32101   0.107   5.842   2.379
10401SOL    HW132102   0.164   5.917   2.412
10401SOL    HW232103   0.075   5.862   2.286
10402SOL     OW32104   0.898   3.643   5.247
10402SOL    HW132105   0.877   3.683   5.158
10402SOL    HW232106   0.858   3.699   5.320
10403SOL     OW32107   5.339   1.681   2.241
10403SOL    HW132108   5.336   1.681   2.141
10403SOL    HW232109   5.319   1.772   2.276
10404SOL     OW32110   0.654   6.322   4.190
10404SOL    HW132111   0.611   6.234   4.169
10404SOL    HW232112   0.748   6.323   4.156
10405SOL     OW32113   2.073   6.355   5.641
10405SOL    HW132114   2.048   6.318   5.731
10405SOL    HW232115   2.162   6.401   5.649
10406SOL     OW32116   2.760   4.511   6.361
10406SOL    HW132117   2.744   4.424   6.407
10406SOL    HW232118   2.698   4.519   6.283
10407SOL     OW32119   1.014   2.055   6.052
10407SOL    HW132120   0.997   1.978   5.989
10407SOL    HW232121   0.994   2.141   6.005
10408SOL     OW32122   4.525   4.505   3.499
10408SOL    HW132123   4.428   4.507   3.522
10408SOL    HW232124   4.536   4.480   3.403
10409SOL     OW32125   0.493   3.849   1.931
10409SOL    HW132126   0.446   3.790   1.997
10409SOL    HW232127   0.540   3.923   1.980
10410SOL     OW32128   4.665   0.781   1.114
10410SOL    HW132129   4.586   0.839   1.134
10410SOL    HW232130   4.634   0.689   1.091
10411SOL     OW32131   2.326   4.611   3.145
10411SOL    HW132132   2.296   4.530   3.096
10411SOL    HW232133   2.344   4.685   3.080
10412SOL     OW32134   1.657   2.295   0.231
10412SOL    HW132135   1.716   2.326   0.306
10412SOL    HW232136   1.682   2.203   0.204
10413SOL     OW32137   0.326   2.133   6.594
10413SOL    HW132138   0.271   2.050   6.580
10413SOL    HW232139   0.421   2.116   6.567
10414SOL     OW32140   5.449   6.240   6.852
10414SOL    HW132141   5.506   6.306   6.802
10414SOL    HW232142   5.507   6.186   6.913
10415SOL     OW32143   0.158   5.907   3.575
10415SOL    HW132144   0.228   5.868   3.635
10415SOL    HW232145   0.098   5.966   3.627
10416SOL     OW32146   6.298   2.111   4.555
10416SOL    HW132147   6.299   2.052   4.636
10416SOL    HW232148   6.391   2.119   4.519
10417SOL     OW32149   3.898   5.157   3.285
10417SOL    HW132150   3.912   5.248   3.247
10417SOL    HW232151   3.986   5.120   3.314
10418SOL     OW32152   6.987   4.137   6.598
10418SOL    HW132153   6.899   4.090   6.595
10418SOL    HW232154   0.030   4.086   6.544
10419SOL     OW32155   3.125   0.838   5.281
10419SOL    HW132156   3.198   0.888   5.236
10419SOL    HW232157   3.090   0.766   5.221
10420SOL     OW32158   6.883   3.316   3.350
10420SOL    HW132159   6.876   3.219   3.330
10420SOL    HW232160   6.958   3.332   3.414
10421SOL     OW32161   1.234   4.813   3.944
10421SOL    HW132162   1.236   4.831   3.845
10421SOL    HW232163   1.181   4.731   3.962
10422SOL     OW32164   6.726   3.715   4.550
10422SOL    HW132165   6.689   3.805   4.527
10422SOL    HW232166   6.652   3.647   4.549
10423SOL     OW32167   3.801   4.912   3.983
10423SOL    HW132168   3.758   4.991   3.940
10423SOL    HW232169   3.826   4.846   3.912
10424SOL     OW32170   3.660   0.992   6.527
10424SOL    HW132171   3.737   1.041   6.488
10424SOL    HW232172   3.693   0.918   6.586
10425SOL     OW32173   2.314   0.798   0.886
10425SOL    HW132174   2.261   0.809   0.970
10425SOL    HW232175   2.397   0.854   0.892
10426SOL     OW32176   5.657   2.673   6.045
10426SOL    HW132177   5.623   2.628   6.128
10426SOL    HW232178   5.752   2.699   6.058
10427SOL     OW32179   5.970   6.723   4.823
10427SOL    HW132180   5.894   6.659   4.834
10427SOL    HW232181   5.933   6.815   4.810
10428SOL     OW32182   1.944   0.838   3.482
10428SOL    HW132183   1.888   0.777   3.425
10428SOL    HW232184   2.012   0.884   3.425
10429SOL     OW32185   0.849   3.215   2.678
10429SOL    HW132186   0.803   3.128   2.664
10429SOL    HW232187   0.946   3.206   2.653
10430SOL     OW32188   3.607   0.472   3.799
10430SOL    HW132189   3.680   0.539   3.813
10430SOL    HW232190   3.563   0.490   3.711
10431SOL     OW32191   3.059   1.838   3.783
10431SOL    HW132192   3.065   1.768   3.854
10431SOL    HW232193   3.090   1.800   3.696
10432SOL     OW32194   0.288   6.694   6.096
10432SOL    HW132195   0.347   6.774   6.084
10432SOL    HW232196   0.240   6.675   6.010
10433SOL     OW32197   1.700   6.892   2.016
10433SOL    HW132198   1.785   6.926   2.056
10433SOL    HW232199   1.623   6.920   2.073
10434SOL     OW32200   4.569   6.431   5.551
10434SOL    HW132201   4.637   6.477   5.607
10434SOL    HW232202   4.537   6.349   5.598
10435SOL     OW32203   1.081   2.641   6.749
10435SOL    HW132204   1.155   2.705   6.770
10435SOL    HW232205   1.007   2.689   6.703
10436SOL     OW32206   0.251   4.621   4.988
10436SOL    HW132207   0.255   4.530   4.946
10436SOL    HW232208   0.259   4.613   5.087
10437SOL     OW32209   5.437   5.297   5.374
10437SOL    HW132210   5.338   5.309   5.363
10437SOL    HW232211   5.485   5.352   5.306
10438SOL     OW32212   6.681   5.946   6.202
10438SOL    HW132213   6.637   6.003   6.271
10438SOL    HW232214   6.648   5.852   6.212
10439SOL     OW32215   6.864   6.935   4.318
10439SOL    HW132216   6.895   6.857   4.265
10439SOL    HW232217   6.889   6.922   4.414
10440SOL     OW32218   6.729   2.311   6.265
10440SOL    HW132219   6.820   2.275   6.288
10440SOL    HW232220   6.677   2.324   6.349
10441SOL     OW32221   3.775   1.930   0.884
10441SOL    HW132222   3.757   2.010   0.942
10441SOL    HW232223   3.801   1.961   0.792
10442SOL     OW32224   2.433   1.676   5.432
10442SOL    HW132225   2.415   1.757   5.375
10442SOL    HW232226   2.438   1.595   5.373
10443SOL     OW32227   0.524   1.072   3.246
10443SOL    HW132228   0.475   1.157   3.227
10443SOL    HW232229   0.621   1.084   3.226
10444SOL     OW32230   4.051   5.426   4.570
10444SOL    HW132231   4.011   5.396   4.657
10444SOL    HW232232   4.032   5.523   4.556
10445SOL     OW32233   1.955   4.070   2.733
10445SOL    HW132234   2.055   4.072   2.720
10445SOL    HW232235   1.926   4.156   2.775
10446SOL     OW32236   1.555   4.414   5.498
10446SOL    HW132237   1.651   4.433   5.477
10446SOL    HW232238   1.505   4.501   5.506
10447SOL     OW32239   0.270   1.747   3.073
10447SOL    HW132240   0.313   1.836   3.087
10447SOL    HW232241   0.298   1.710   2.984
10448SOL     OW32242   2.842   6.283   2.961
10448SOL    HW132243   2.845   6.372   3.008
10448SOL    HW232244   2.782   6.221   3.010
10449SOL     OW32245   3.760   5.742   6.404
10449SOL    HW132246   3.781   5.740   6.502
10449SOL    HW232247   3.782   5.653   6.364
10450SOL     OW32248   0.239   0.382   6.364
10450SOL    HW132249   0.171   0.454   6.374
10450SOL    HW232250   0.202   0.295   6.398
10451SOL     OW32251   2.168   0.639   3.396
10451SOL    HW132252   2.217   0.552   3.402
10451SOL    HW232253   2.187   0.694   3.477
10452SOL     OW32254   6.910   3.510   3.908
10452SOL    HW132255   6.928   3.497   4.005
10452SOL    HW232256   6.993   3.543   3.863
10453SOL     OW32257   4.360   5.453   3.225
10453SOL    HW132258   4.290   5.498   3.170
10453SOL    HW232259   4.335   5.457   3.321
10454SOL     OW32260   6.362   0.881   5.933
10454SOL    HW132261   6.385   0.785   5.946
10454SOL    HW232262   6.287   0.888   5.867
10455SOL     OW32263   5.876   6.547   4.164
10455SOL    HW132264   5.804   6.552   4.095
10455SOL    HW232265   5.942   6.477   4.139
10456SOL     OW32266   0.310   5.307   0.176
10456SOL    HW132267   0.384   5.351   0.126
10456SOL    HW232268   0.315   5.333   0.273
10457SOL     OW32269   3.722   2.610   0.065
10457SOL    HW132270   3.751   2.575   7.000
10457SOL    HW232271   3.793   2.593   0.132
10458SOL     OW32272   6.885   5.827   6.710
10458SOL    HW132273   6.820   5.889   6.753
10458SOL    HW232274   6.938   5.877   6.641
10459SOL     OW32275   6.998   5.310   0.492
10459SOL    HW132276   7.021   5.219   0.525
10459SOL    HW232277   0.005   5.378   0.559
10460SOL     OW32278   0.568   2.867   0.207
10460SOL    HW132279   0.664   2.845   0.191
10460SOL    HW232280   0.549   2.959   0.173
10461SOL     OW32281   0.096   5.635   5.127
10461SOL    HW132282   0.026   5.566   5.147
10461SOL    HW232283   0.155   5.647   5.207
10462SOL     OW32284   4.037   1.614   0.647
10462SOL    HW132285   4.115   1.638   0.589
10462SOL    HW232286   3.953   1.647   0.604
10463SOL     OW32287   5.042   3.080   6.280
10463SOL    HW132288   5.054   3.127   6.193
10463SOL    HW232289   4.999   2.991   6.264
10464SOL     OW32290   5.958   4.916   2.658
10464SOL    HW132291   5.947   4.968   2.573
10464SOL    HW232292   5.979   4.979   2.733
10465SOL     OW32293   6.002   3.992   2.088
10465SOL    HW132294   5.905   3.983   2.107
10465SOL    HW232295   6.019   3.980   1.990
10466SOL     OW32296   5.845   5.006   6.226
10466SOL    HW132297   5.845   5.032   6.322
10466SOL    HW232298   5.755   5.021   6.186
10467SOL     OW32299   1.794   2.836   0.050
10467SOL    HW132300   1.828   2.790   0.132
10467SOL    HW232301   1.698   2.812   0.036
10468SOL     OW32302   2.851   4.788   3.997
10468SOL    HW132303   2.943   4.798   4.033
10468SOL    HW232304   2.805   4.712   4.043
10469SOL     OW32305   6.205   1.586   5.048
10469SOL    HW132306   6.259   1.665   5.017
10469SOL    HW232307   6.141   1.560   4.976
10470SOL     OW32308   2.480   2.512   4.023
10470SOL    HW132309   2.410   2.450   4.057
10470SOL    HW232310   2.453   2.547   3.933
10471SOL     OW32311   2.851   6.902   0.601
10471SOL    HW132312   2.873   6.817   0.649
10471SOL    HW232313   2.883   6.980   0.654
10472SOL     OW32314   3.376   5.130   0.601
10472SOL    HW132315   3.396   5.186   0.521
10472SOL    HW232316   3.344   5.190   0.675
10473SOL     OW32317   5.118   4.431   6.522
10473SOL    HW132318   5.100   4.344   6.568
10473SOL    HW232319   5.031   4.477   6.503
10474SOL     OW32320   5.455   0.866   4.094
10474SOL    HW132321   5.496   0.932   4.031
10474SOL    HW232322   5.395   0.804   4.043
10475SOL     OW32323   1.196   6.576   1.688
10475SOL    HW132324   1.229   6.505   1.625
10475SOL    HW232325   1.097   6.567   1.700
10476SOL     OW32326   3.962   6.096   0.389
10476SOL    HW132327   3.884   6.034   0.376
10476SOL    HW232328   3.972   6.117   0.486
10477SOL     OW32329   6.358   6.424   4.158
10477SOL    HW132330   6.391   6.331   4.175
10477SOL    HW232331   6.402   6.488   4.221
10478SOL     OW32332   6.343   0.001   0.076
10478SOL    HW132333   6.276   0.056   0.125
10478SOL    HW232334   6.321   6.928   0.084
10479SOL     OW32335   0.341   1.593   2.581
10479SOL    HW132336   0.254   1.549   2.604
10479SOL    HW232337   0.334   1.691   2.599
10480SOL     OW32338   1.516   0.469   2.291
10480SOL    HW132339   1.507   0.568   2.287
10480SOL    HW232340   1.537   0.441   2.385
10481SOL     OW32341   6.991   0.522   2.764
10481SOL    HW132342   0.010   0.602   2.805
10481SOL    HW232343   6.898   0.512   2.800
10482SOL     OW32344   5.355   3.590   3.600
10482SOL    HW132345   5.416   3.618   3.526
10482SOL    HW232346   5.316   3.671   3.644
10483SOL     OW32347   6.175   5.514   0.420
10483SOL    HW132348   6.132   5.589   0.472
10483SOL    HW232349   6.258   5.548   0.377
10484SOL     OW32350   6.475   0.977   1.462
10484SOL    HW132351   6.566   1.017   1.478
10484SOL    HW232352   6.411   1.050   1.440
10485SOL     OW32353   4.956   3.778   5.796
10485SOL    HW132354   4.928   3.836   5.719
10485SOL    HW232355   4.938   3.682   5.774
10486SOL     OW32356   5.895   2.822   0.655
10486SOL    HW132357   5.804   2.825   0.696
10486SOL    HW232358   5.937   2.734   0.673
10487SOL     OW32359   6.117   6.655   1.398
10487SOL    HW132360   6.100   6.729   1.333
10487SOL    HW232361   6.159   6.693   1.481
10488SOL     OW32362   2.919   2.841   6.969
10488SOL    HW132363   2.978   2.910   7.011
10488SOL    HW232364   2.851   2.887   6.911
10489SOL     OW32365   7.007   5.582   6.376
10489SOL    HW132366   7.016   5.679   6.397
10489SOL    HW232367   0.032   5.528   6.444
10490SOL     OW32368   6.846   1.109   3.302
10490SOL    HW132369   6.936   1.090   3.342
10490SOL    HW232370   6.813   1.028   3.253
10491SOL     OW32371   2.076   4.534   6.162
10491SOL    HW132372   2.101   4.460   6.100
10491SOL    HW232373   2.134   4.530   6.244
10492SOL     OW32374   4.890   3.319   5.159
10492SOL    HW132375   4.839   3.404   5.171
10492SOL    HW232376   4.977   3.338   5.113
10493SOL     OW32377   3.742   0.994   1.832
10493SOL    HW132378   3.723   0.996   1.734
10493SOL    HW232379   3.788   0.909   1.856
10494SOL     OW32380   5.721   1.763   3.943
10494SOL    HW132381   5.781   1.689   3.973
10494SOL    HW232382   5.671   1.801   4.022
10495SOL     OW32383   2.245   6.831   0.693
10495SOL    HW132384   2.209   6.923   0.712
10495SOL    HW232385   2.244   6.778   0.777
10496SOL     OW32386   0.066   6.895   6.878
10496SOL    HW132387   6.997   6.902   6.914
10496SOL    HW232388   0.131   6.922   6.949
10497SOL     OW32389   1.592   1.007   0.853
10497SOL    HW132390   1.685   1.023   0.819
10497SOL    HW232391   1.586   0.916   0.893
10498SOL     OW32392   1.868   6.955   6.230
10498SOL    HW132393   1.958   6.918   6.205
10498SOL    HW232394   1.826   6.997   6.150
10499SOL     OW32395   2.773   5.681   3.302
10499SOL    HW132396   2.834   5.750   3.341
10499SOL    HW232397   2.819   5.593   3.300
10500SOL     OW32398   0.966   2.273   5.870
10500SOL    HW132399   0.945   2.367   5.899
10500SOL    HW232400   0.882   2.231   5.835
10501SOL     OW32401   2.207   4.106   2.688
10501SOL    HW132402   2.206   4.202   2.715
10501SOL    HW232403   2.281   4.090   2.623
10502SOL     OW32404   3.004   6.538   0.491
10502SOL    HW132405   3.024   6.508   0.585
10502SOL    HW232406   3.041   6.630   0.477
10503SOL     OW32407   3.711   2.987   0.364
10503SOL    HW132408   3.709   2.941   0.453
10503SOL    HW232409   3.696   3.085   0.376
10504SOL     OW32410   2.754   2.744   0.263
10504SOL    HW132411   2.734   2.831   0.307
10504SOL    HW232412   2.689   2.728   0.189
10505SOL     OW32413   6.191   6.237   1.141
10505SOL    HW132414   6.142   6.156   1.108
10505SOL    HW232415   6.191   6.237   1.241
10506SOL     OW32416   0.733   4.150   6.123
10506SOL    HW132417   0.698   4.198   6.204
10506SOL    HW232418   0.729   4.211   6.044
10507SOL     OW32419   0.995   0.681   6.417
10507SOL    HW132420   0.981   0.583   6.404
10507SOL    HW232421   1.064   0.696   6.487
10508SOL     OW32422   5.271   5.005   3.725
10508SOL    HW132423   5.256   5.046   3.815
10508SOL    HW232424   5.369   5.010   3.702
10509SOL     OW32425   1.121   6.489   6.912
10509SOL    HW132426   1.074   6.406   6.883
10509SOL    HW232427   1.092   6.513   7.005
10510SOL     OW32428   5.620   5.343   6.608
10510SOL    HW132429   5.554   5.417   6.621
10510SOL    HW232430   5.661   5.319   6.696
10511SOL     OW32431   4.348   3.287   0.586
10511SOL    HW132432   4.369   3.191   0.603
10511SOL    HW232433   4.340   3.302   0.487
10512SOL     OW32434   4.620   0.464   5.999
10512SOL    HW132435   4.564   0.496   5.923
10512SOL    HW232436   4.706   0.428   5.964
10513SOL     OW32437   0.707   2.199   5.817
10513SOL    HW132438   0.629   2.137   5.812
10513SOL    HW232439   0.675   2.292   5.831
10514SOL     OW32440   6.350   4.323   0.056
10514SOL    HW132441   6.393   4.264   7.012
10514SOL    HW232442   6.318   4.407   0.012
10515SOL     OW32443   6.493   1.831   2.931
10515SOL    HW132444   6.539   1.839   2.842
10515SOL    HW232445   6.404   1.788   2.919
10516SOL     OW32446   4.324   0.721   6.266
10516SOL    HW132447   4.374   0.765   6.341
10516SOL    HW232448   4.230   0.700   6.296
10517SOL     OW32449   6.601   1.742   2.684
10517SOL    HW132450   6.636   1.666   2.739
10517SOL    HW232451   6.584   1.710   2.590
10518SOL     OW32452   0.938   6.261   0.258
10518SOL    HW132453   0.931   6.331   0.329
10518SOL    HW232454   0.847   6.232   0.230
10519SOL     OW32455   3.473   3.040   5.699
10519SOL    HW132456   3.458   3.002   5.790
10519SOL    HW232457   3.391   3.087   5.668
10520SOL     OW32458   3.192   2.929   6.386
10520SOL    HW132459   3.212   2.969   6.475
10520SOL    HW232460   3.127   2.854   6.397
10521SOL     OW32461   6.424   6.335   1.670
10521SOL    HW132462   6.458   6.349   1.577
10521SOL    HW232463   6.397   6.240   1.682
10522SOL     OW32464   6.386   1.148   0.667
10522SOL    HW132465   6.355   1.084   0.597
10522SOL    HW232466   6.476   1.119   0.700
10523SOL     OW32467   0.253   5.288   6.369
10523SOL    HW132468   0.229   5.193   6.347
10523SOL    HW232469   0.273   5.295   6.467
10524SOL     OW32470   2.150   0.080   4.288
10524SOL    HW132471   2.175   0.175   4.269
10524SOL    HW232472   2.064   0.059   4.242
10525SOL     OW32473   1.513   6.757   5.032
10525SOL    HW132474   1.514   6.669   4.985
10525SOL    HW232475   1.562   6.825   4.977
10526SOL     OW32476   0.851   0.829   2.385
10526SOL    HW132477   0.752   0.836   2.375
10526SOL    HW232478   0.876   0.847   2.481
10527SOL     OW32479   0.816   2.643   4.715
10527SOL    HW132480   0.766   2.727   4.695
10527SOL    HW232481   0.902   2.665   4.762
10528SOL     OW32482   0.418   5.238   4.811
10528SOL    HW132483   0.343   5.301   4.832
10528SOL    HW232484   0.505   5.286   4.823
10529SOL     OW32485   0.697   6.431   3.660
10529SOL    HW132486   0.654   6.520   3.646
10529SOL    HW232487   0.635   6.359   3.629
10530SOL     OW32488   2.600   2.113   6.305
10530SOL    HW132489   2.606   2.137   6.208
10530SOL    HW232490   2.652   2.180   6.358
10531SOL     OW32491   1.582   3.457   4.955
10531SOL    HW132492   1.671   3.413   4.955
10531SOL    HW232493   1.588   3.547   4.998
10532SOL     OW32494   3.224   2.668   6.949
10532SOL    HW132495   3.227   2.572   6.923
10532SOL    HW232496   3.144   2.685   7.006
10533SOL     OW32497   3.281   1.307   5.241
10533SOL    HW132498   3.227   1.368   5.299
10533SOL    HW232499   3.299   1.350   5.153
10534SOL     OW32500   6.756   6.168   0.805
10534SOL    HW132501   6.798   6.257   0.818
10534SOL    HW232502   6.700   6.169   0.723
10535SOL     OW32503   0.500   1.236   2.721
10535SOL    HW132504   0.418   1.228   2.664
10535SOL    HW232505   0.486   1.189   2.807
10536SOL     OW32506   4.961   0.157   3.181
10536SOL    HW132507   5.030   0.200   3.123
10536SOL    HW232508   4.989   0.165   3.277
10537SOL     OW32509   2.939   5.431   3.306
10537SOL    HW132510   3.012   5.366   3.289
10537SOL    HW232511   2.891   5.407   3.390
10538SOL     OW32512   4.260   3.803   6.860
10538SOL    HW132513   4.199   3.817   6.781
10538SOL    HW232514   4.226   3.726   6.915
10539SOL     OW32515   0.823   3.418   6.207
10539SOL    HW132516   0.827   3.327   6.166
10539SOL    HW232517   0.885   3.479   6.159
10540SOL     OW32518   1.573   1.144   5.599
10540SOL    HW132519   1.638   1.207   5.555
10540SOL    HW232520   1.559   1.064   5.540
10541SOL     OW32521   4.033   3.610   1.053
10541SOL    HW132522   3.946   3.597   1.005
10541SOL    HW232523   4.025   3.577   1.147
10542SOL     OW32524   0.688   2.180   0.092
10542SOL    HW132525   0.617   2.229   0.043
10542SOL    HW232526   0.648   2.102   0.140
10543SOL     OW32527   0.026   2.078   6.022
10543SOL    HW132528   7.012   2.009   5.961
10543SOL    HW232529   6.981   2.149   6.040
10544SOL     OW32530   2.333   2.203   2.949
10544SOL    HW132531   2.292   2.127   2.999
10544SOL    HW232532   2.286   2.216   2.862
10545SOL     OW32533   6.953   0.247   2.425
10545SOL    HW132534   0.008   0.304   2.400
10545SOL    HW232535   6.983   0.176   2.489
10546SOL     OW32536   2.166   0.029   4.567
10546SOL    HW132537   2.146   0.055   4.473
10546SOL    HW232538   2.253   7.003   4.570
10547SOL     OW32539   4.447   1.092   1.895
10547SOL    HW132540   4.515   1.098   1.968
10547SOL    HW232541   4.368   1.149   1.918
10548SOL     OW32542   5.274   3.893   4.192
10548SOL    HW132543   5.234   3.960   4.129
10548SOL    HW232544   5.217   3.884   4.273
10549SOL     OW32545   0.912   0.411   2.397
10549SOL    HW132546   0.998   0.450   2.363
10549SOL    HW232547   0.869   0.475   2.461
10550SOL     OW32548   5.399   0.044   3.984
10550SOL    HW132549   5.300   0.031   3.991
10550SOL    HW232550   5.445   6.989   4.024
10551SOL     OW32551   1.473   2.013   5.364
10551SOL    HW132552   1.494   2.052   5.274
10551SOL    HW232553   1.411   2.074   5.413
10552SOL     OW32554   3.950   2.254   5.908
10552SOL    HW132555   3.976   2.230   5.815
10552SOL    HW232556   3.881   2.325   5.907
10553SOL     OW32557   0.558   5.596   0.521
10553SOL    HW132558   0.622   5.596   0.445
10553SOL    HW232559   0.608   5.580   0.607
10554SOL     OW32560   6.424   4.784   0.006
10554SOL    HW132561   6.498   4.822   6.974
10554SOL    HW232562   6.463   4.737   0.085
10555SOL     OW32563   3.451   1.691   2.109
10555SOL    HW132564   3.393   1.670   2.188
10555SOL    HW232565   3.519   1.759   2.135
10556SOL     OW32566   2.226   3.555   5.141
10556SOL    HW132567   2.182   3.603   5.065
10556SOL    HW232568   2.248   3.620   5.214
10557SOL     OW32569   0.465   2.483   2.936
10557SOL    HW132570   0.486   2.581   2.936
10557SOL    HW232571   0.481   2.446   2.844
10558SOL     OW32572   4.685   6.537   5.307
10558SOL    HW132573   4.658   6.504   5.398
10558SOL    HW232574   4.756   6.607   5.317
10559SOL     OW32575   4.007   1.795   1.003
10559SOL    HW132576   4.069   1.789   0.925
10559SOL    HW232577   3.928   1.851   0.978
10560SOL     OW32578   1.535   4.874   5.240
10560SOL    HW132579   1.451   4.899   5.193
10560SOL    HW232580   1.613   4.885   5.178
10561SOL     OW32581   1.628   5.169   6.945
10561SOL    HW132582   1.724   5.171   6.973
10561SOL    HW232583   1.602   5.076   6.921
10562SOL     OW32584   4.429   0.335   0.826
10562SOL    HW132585   4.502   0.290   0.773
10562SOL    HW232586   4.341   0.321   0.781
10563SOL     OW32587   1.761   1.749   5.022
10563SOL    HW132588   1.760   1.748   5.122
10563SOL    HW232589   1.853   1.772   4.990
10564SOL     OW32590   5.861   0.761   1.703
10564SOL    HW132591   5.859   0.781   1.605
10564SOL    HW232592   5.937   0.699   1.723
10565SOL     OW32593   6.495   1.001   5.497
10565SOL    HW132594   6.437   0.962   5.568
10565SOL    HW232595   6.523   1.093   5.522
10566SOL     OW32596   3.468   3.885   6.255
10566SOL    HW132597   3.461   3.833   6.170
10566SOL    HW232598   3.459   3.983   6.235
10567SOL     OW32599   1.737   3.447   4.621
10567SOL    HW132600   1.801   3.492   4.559
10567SOL    HW232601   1.788   3.390   4.686
10568SOL     OW32602   5.917   1.223   2.296
10568SOL    HW132603   5.921   1.203   2.198
10568SOL    HW232604   5.830   1.192   2.333
10569SOL     OW32605   6.165   3.124   2.145
10569SOL    HW132606   6.205   3.113   2.054
10569SOL    HW232607   6.066   3.108   2.140
10570SOL     OW32608   1.897   4.547   2.510
10570SOL    HW132609   1.974   4.485   2.499
10570SOL    HW232610   1.845   4.521   2.591
10571SOL     OW32611   6.478   5.479   3.162
10571SOL    HW132612   6.551   5.484   3.094
10571SOL    HW232613   6.515   5.499   3.252
10572SOL     OW32614   5.723   3.438   2.531
10572SOL    HW132615   5.665   3.519   2.531
10572SOL    HW232616   5.721   3.396   2.440
10573SOL     OW32617   5.650   6.045   3.639
10573SOL    HW132618   5.641   5.945   3.636
10573SOL    HW232619   5.614   6.084   3.554
10574SOL     OW32620   1.406   1.897   3.723
10574SOL    HW132621   1.372   1.991   3.738
10574SOL    HW232622   1.506   1.896   3.729
10575SOL     OW32623   0.789   0.961   4.543
10575SOL    HW132624   0.748   1.036   4.595
10575SOL    HW232625   0.725   0.885   4.539
10576SOL     OW32626   1.667   5.869   5.393
10576SOL    HW132627   1.667   5.837   5.487
10576SOL    HW232628   1.759   5.860   5.355
10577SOL     OW32629   1.957   3.022   6.317
10577SOL    HW132630   1.882   3.072   6.361
10577SOL    HW232631   1.968   3.056   6.223
10578SOL     OW32632   5.638   0.572   5.197
10578SOL    HW132633   5.577   0.509   5.245
10578SOL    HW232634   5.730   0.565   5.236
10579SOL     OW32635   4.071   1.460   0.879
10579SOL    HW132636   4.047   1.373   0.836
10579SOL    HW232637   4.063   1.534   0.812
10580SOL     OW32638   6.754   6.440   6.615
10580SOL    HW132639   6.760   6.381   6.535
10580SOL    HW232640   6.735   6.534   6.586
10581SOL     OW32641   6.311   0.643   3.200
10581SOL    HW132642   6.338   0.548   3.217
10581SOL    HW232643   6.245   0.671   3.269
10582SOL     OW32644   3.360   5.096   0.112
10582SOL    HW132645   3.382   5.022   0.048
10582SOL    HW232646   3.309   5.059   0.190
10583SOL     OW32647   3.735   0.846   6.784
10583SOL    HW132648   3.812   0.854   6.847
10583SOL    HW232649   3.650   0.839   6.836
10584SOL     OW32650   5.700   6.142   1.415
10584SOL    HW132651   5.751   6.059   1.393
10584SOL    HW232652   5.668   6.137   1.510
10585SOL     OW32653   1.424   3.197   5.824
10585SOL    HW132654   1.359   3.270   5.846
10585SOL    HW232655   1.435   3.191   5.725
10586SOL     OW32656   2.733   5.958   6.001
10586SOL    HW132657   2.745   6.036   5.939
10586SOL    HW232658   2.685   5.884   5.954
10587SOL     OW32659   6.005   3.651   0.142
10587SOL    HW132660   5.924   3.614   0.188
10587SOL    HW232661   6.055   3.710   0.206
10588SOL     OW32662   0.861   4.651   2.294
10588SOL    HW132663   0.879   4.655   2.392
10588SOL    HW232664   0.803   4.572   2.273
10589SOL     OW32665   5.836   2.689   4.293
10589SOL    HW132666   5.856   2.711   4.198
10589SOL    HW232667   5.913   2.715   4.351
10590SOL     OW32668   1.149   6.893   2.853
10590SOL    HW132669   1.198   6.851   2.776
10590SOL    HW232670   1.215   6.944   2.909
10591SOL     OW32671   1.634   1.550   5.641
10591SOL    HW132672   1.629   1.485   5.565
10591SOL    HW232673   1.711   1.526   5.700
10592SOL     OW32674   6.939   1.386   6.979
10592SOL    HW132675   6.952   1.293   7.014
10592SOL    HW232676   6.844   1.414   6.995
10593SOL     OW32677   2.304   5.635   1.682
10593SOL    HW132678   2.380   5.691   1.650
10593SOL    HW232679   2.322   5.539   1.660
10594SOL     OW32680   6.240   1.879   3.644
10594SOL    HW132681   6.277   1.850   3.556
10594SOL    HW232682   6.285   1.828   3.717
10595SOL     OW32683   3.278   6.902   5.856
10595SOL    HW132684   3.230   6.861   5.933
10595SOL    HW232685   3.283   6.837   5.780
10596SOL     OW32686   4.163   6.682   1.993
10596SOL    HW132687   4.099   6.721   2.059
10596SOL    HW232688   4.244   6.741   1.987
10597SOL     OW32689   2.689   1.438   4.485
10597SOL    HW132690   2.647   1.515   4.532
10597SOL    HW232691   2.705   1.364   4.550
10598SOL     OW32692   2.291   2.743   6.993
10598SOL    HW132693   2.278   2.799   6.911
10598SOL    HW232694   2.308   2.802   0.047
10599SOL     OW32695   6.409   1.347   0.185
10599SOL    HW132696   6.310   1.362   0.172
10599SOL    HW232697   6.424   1.258   0.228
10600SOL     OW32698   2.781   2.903   6.368
10600SOL    HW132699   2.878   2.883   6.380
10600SOL    HW232700   2.759   2.903   6.270
10601SOL     OW32701   2.734   6.595   6.132
10601SOL    HW132702   2.760   6.570   6.039
10601SOL    HW232703   2.676   6.522   6.170
10602SOL     OW32704   4.708   1.029   1.417
10602SOL    HW132705   4.749   0.966   1.351
10602SOL    HW232706   4.691   0.981   1.503
10603SOL     OW32707   1.387   5.888   3.827
10603SOL    HW132708   1.362   5.915   3.921
10603SOL    HW232709   1.479   5.850   3.827
10604SOL     OW32710   6.480   4.343   4.625
10604SOL    HW132711   6.496   4.245   4.617
10604SOL    HW232712   6.559   4.386   4.668
10605SOL     OW32713   1.018   5.580   0.490
10605SOL    HW132714   0.973   5.491   0.482
10605SOL    HW232715   1.018   5.609   0.586
10606SOL     OW32716   0.190   0.943   1.654
10606SOL    HW132717   0.109   0.979   1.607
10606SOL    HW232718   0.272   0.969   1.604
10607SOL     OW32719   4.453   4.550   6.410
10607SOL    HW132720   4.491   4.589   6.494
10607SOL    HW232721   4.353   4.551   6.414
10608SOL     OW32722   5.722   1.590   4.397
10608SOL    HW132723   5.812   1.626   4.372
10608SOL    HW232724   5.713   1.587   4.496
10609SOL     OW32725   3.888   5.991   1.186
10609SOL    HW132726   3.866   6.039   1.271
10609SOL    HW232727   3.986   6.000   1.167
10610SOL     OW32728   1.545   3.451   6.154
10610SOL    HW132729   1.516   3.542   6.124
10610SOL    HW232730   1.478   3.416   6.220
10611SOL     OW32731   5.250   2.806   6.074
10611SOL    HW132732   5.151   2.822   6.073
10611SOL    HW232733   5.271   2.728   6.015
10612SOL     OW32734   2.592   0.156   6.255
10612SOL    HW132735   2.682   0.198   6.240
10612SOL    HW232736   2.554   0.126   6.167
10613SOL     OW32737   0.572   6.968   5.305
10613SOL    HW132738   0.561   6.967   5.206
10613SOL    HW232739   0.494   6.920   5.347
10614SOL     OW32740   6.423   0.706   4.489
10614SOL    HW132741   6.435   0.799   4.524
10614SOL    HW232742   6.485   0.692   4.412
10615SOL     OW32743   4.818   5.489   4.933
10615SOL    HW132744   4.904   5.495   4.882
10615SOL    HW232745   4.819   5.553   5.010
10616SOL     OW32746   2.895   6.088   0.874
10616SOL    HW132747   2.954   6.105   0.953
10616SOL    HW232748   2.828   6.018   0.897
10617SOL     OW32749   2.345   2.484   0.219
10617SOL    HW132750   2.341   2.520   0.126
10617SOL    HW232751   2.263   2.429   0.237
10618SOL     OW32752   6.324   2.132   0.390
10618SOL    HW132753   6.390   2.064   0.423
10618SOL    HW232754   6.233   2.110   0.425
10619SOL     OW32755   0.831   4.060   3.178
10619SOL    HW132756   0.910   4.110   3.214
10619SOL    HW232757   0.850   4.033   3.084
10620SOL     OW32758   1.440   6.232   4.856
10620SOL    HW132759   1.467   6.161   4.921
10620SOL    HW232760   1.417   6.190   4.768
10621SOL     OW32761   1.229   5.867   6.637
10621SOL    HW132762   1.238   5.769   6.657
10621SOL    HW232763   1.168   5.909   6.704
10622SOL     OW32764   4.159   0.012   1.925
10622SOL    HW132765   4.073   7.014   1.970
10622SOL    HW232766   4.148   0.098   1.875
10623SOL     OW32767   5.630   2.578   3.781
10623SOL    HW132768   5.614   2.554   3.877
10623SOL    HW232769   5.716   2.627   3.773
10624SOL     OW32770   1.740   1.006   4.776
10624SOL    HW132771   1.719   1.100   4.751
10624SOL    HW232772   1.833   0.984   4.748
10625SOL     OW32773   0.650   3.566   6.659
10625SOL    HW132774   0.739   3.525   6.641
10625SOL    HW232775   0.580   3.495   6.665
10626SOL     OW32776   1.137   1.938   1.770
10626SOL    HW132777   1.201   1.862   1.767
10626SOL    HW232778   1.044   1.903   1.778
10627SOL     OW32779   6.826   6.621   2.506
10627SOL    HW132780   6.808   6.702   2.450
10627SOL    HW232781   6.781   6.630   2.594
10628SOL     OW32782   6.272   5.139   5.211
10628SOL    HW132783   6.345   5.089   5.165
10628SOL    HW232784   6.312   5.211   5.269
10629SOL     OW32785   2.277   4.870   6.093
10629SOL    HW132786   2.256   4.774   6.073
10629SOL    HW232787   2.318   4.876   6.184
10630SOL     OW32788   6.285   0.809   2.928
10630SOL    HW132789   6.203   0.784   2.877
10630SOL    HW232790   6.303   0.739   2.998
10631SOL     OW32791   0.362   6.888   3.902
10631SOL    HW132792   0.422   6.886   3.822
10631SOL    HW232793   0.399   6.953   3.969
10632SOL     OW32794   6.612   2.517   4.307
10632SOL    HW132795   6.568   2.441   4.259
10632SOL    HW232796   6.556   2.543   4.386
10633SOL     OW32797   2.499   4.841   1.338
10633SOL    HW132798   2.419   4.826   1.395
10633SOL    HW232799   2.499   4.936   1.305
10634SOL     OW32800   2.790   5.719   1.174
10634SOL    HW132801   2.714   5.654   1.171
10634SOL    HW232802   2.754   5.813   1.173
10635SOL     OW32803   2.790   0.753   0.845
10635SOL    HW132804   2.835   0.692   0.780
10635SOL    HW232805   2.838   0.841   0.846
10636SOL     OW32806   0.927   1.823   1.507
10636SOL    HW132807   0.943   1.735   1.550
10636SOL    HW232808   0.837   1.823   1.462
10637SOL     OW32809   3.412   4.237   5.212
10637SOL    HW132810   3.348   4.247   5.288
10637SOL    HW232811   3.505   4.225   5.249
10638SOL     OW32812   6.610   6.435   4.587
10638SOL    HW132813   6.578   6.480   4.504
10638SOL    HW232814   6.692   6.483   4.621
10639SOL     OW32815   0.821   0.993   5.051
10639SOL    HW132816   0.843   0.932   4.974
10639SOL    HW232817   0.884   0.974   5.127
10640SOL     OW32818   5.161   0.389   0.264
10640SOL    HW132819   5.228   0.463   0.254
10640SOL    HW232820   5.080   0.423   0.311
10641SOL     OW32821   5.074   1.703   0.088
10641SOL    HW132822   5.029   1.746   0.166
10641SOL    HW232823   5.020   1.719   0.006
10642SOL     OW32824   0.596   1.940   1.914
10642SOL    HW132825   0.559   1.956   2.005
10642SOL    HW232826   0.623   1.844   1.906
10643SOL     OW32827   2.308   3.770   5.308
10643SOL    HW132828   2.323   3.854   5.256
10643SOL    HW232829   2.396   3.733   5.338
10644SOL     OW32830   4.690   1.604   4.275
10644SOL    HW132831   4.724   1.511   4.263
10644SOL    HW232832   4.597   1.611   4.238
10645SOL     OW32833   1.640   0.365   4.721
10645SOL    HW132834   1.642   0.273   4.762
10645SOL    HW232835   1.546   0.390   4.701
10646SOL     OW32836   1.043   2.563   5.658
10646SOL    HW132837   1.105   2.490   5.688
10646SOL    HW232838   1.077   2.601   5.572
10647SOL     OW32839   6.361   4.915   0.755
10647SOL    HW132840   6.270   4.876   0.739
10647SOL    HW232841   6.355   5.015   0.752
10648SOL     OW32842   4.711   3.330   6.395
10648SOL    HW132843   4.746   3.336   6.302
10648SOL    HW232844   4.784   3.349   6.460
10649SOL     OW32845   6.889   5.002   5.656
10649SOL    HW132846   6.977   5.050   5.649
10649SOL    HW232847   6.843   5.005   5.568
10650SOL     OW32848   2.242   6.298   4.103
10650SOL    HW132849   2.340   6.301   4.080
10650SOL    HW232850   2.226   6.351   4.186
10651SOL     OW32851   5.035   6.739   5.702
10651SOL    HW132852   5.017   6.649   5.664
10651SOL    HW232853   5.082   6.795   5.634
10652SOL     OW32854   3.376   0.483   6.218
10652SOL    HW132855   3.331   0.560   6.172
10652SOL    HW232856   3.367   0.401   6.161
10653SOL     OW32857   5.014   4.621   4.207
10653SOL    HW132858   5.058   4.568   4.280
10653SOL    HW232859   4.947   4.564   4.160
10654SOL     OW32860   2.903   0.562   1.465
10654SOL    HW132861   2.902   0.556   1.564
10654SOL    HW232862   2.810   0.554   1.429
10655SOL     OW32863   3.176   6.264   1.706
10655SOL    HW132864   3.207   6.260   1.801
10655SOL    HW232865   3.255   6.268   1.645
10656SOL     OW32866   6.379   2.085   0.119
10656SOL    HW132867   6.474   2.102   0.093
10656SOL    HW232868   6.364   2.115   0.213
10657SOL     OW32869   5.404   0.025   1.084
10657SOL    HW132870   5.421   6.950   1.082
10657SOL    HW232871   5.329   0.045   1.147
10658SOL     OW32872   1.197   5.497   3.738
10658SOL    HW132873   1.138   5.440   3.681
10658SOL    HW232874   1.154   5.587   3.751
10659SOL     OW32875   5.642   0.282   0.830
10659SOL    HW132876   5.674   0.227   0.907
10659SOL    HW232877   5.695   0.366   0.824
10660SOL     OW32878   4.062   4.082   5.451
10660SOL    HW132879   4.116   4.054   5.372
10660SOL    HW232880   4.110   4.155   5.500
10661SOL     OW32881   0.523   6.455   2.168
10661SOL    HW132882   0.526   6.439   2.069
10661SOL    HW232883   0.591   6.524   2.192
10662SOL     OW32884   6.653   1.669   0.498
10662SOL    HW132885   6.688   1.752   0.454
10662SOL    HW232886   6.725   1.599   0.500
10663SOL     OW32887   0.327   0.297   0.850
10663SOL    HW132888   0.277   0.324   0.932
10663SOL    HW232889   0.412   0.251   0.877
10664SOL     OW32890   1.925   4.936   0.258
10664SOL    HW132891   1.903   5.034   0.260
10664SOL    HW232892   1.856   4.885   0.310
10665SOL     OW32893   6.890   2.231   0.610
10665SOL    HW132894   6.978   2.202   0.573
10665SOL    HW232895   6.816   2.190   0.557
10666SOL     OW32896   2.380   5.921   6.974
10666SOL    HW132897   2.448   5.867   6.924
10666SOL    HW232898   2.394   6.018   6.955
10667SOL     OW32899   3.688   1.932   5.675
10667SOL    HW132900   3.628   2.009   5.699
10667SOL    HW232901   3.638   1.870   5.614
10668SOL     OW32902   1.556   1.865   6.541
10668SOL    HW132903   1.521   1.772   6.531
10668SOL    HW232904   1.483   1.930   6.519
10669SOL     OW32905   1.770   6.944   0.066
10669SOL    HW132906   1.703   7.015   0.043
10669SOL    HW232907   1.848   6.949   0.004
10670SOL     OW32908   5.506   4.421   5.609
10670SOL    HW132909   5.606   4.431   5.616
10670SOL    HW232910   5.466   4.417   5.700
10671SOL     OW32911   2.346   2.481   2.942
10671SOL    HW132912   2.334   2.383   2.955
10671SOL    HW232913   2.383   2.498   2.850
10672SOL     OW32914   0.480   2.558   1.153
10672SOL    HW132915   0.503   2.655   1.161
10672SOL    HW232916   0.381   2.546   1.152
10673SOL     OW32917   2.660   3.145   5.349
10673SOL    HW132918   2.736   3.116   5.291
10673SOL    HW232919   2.577   3.098   5.320
10674SOL     OW32920   3.835   3.343   1.539
10674SOL    HW132921   3.819   3.381   1.448
10674SOL    HW232922   3.923   3.297   1.541
10675SOL     OW32923   0.375   6.813   5.396
10675SOL    HW132924   0.281   6.838   5.373
10675SOL    HW232925   0.390   6.828   5.494
10676SOL     OW32926   5.999   0.092   6.396
10676SOL    HW132927   6.074   0.041   6.438
10676SOL    HW232928   5.992   0.067   6.299
10677SOL     OW32929   0.345   0.511   1.095
10677SOL    HW132930   0.420   0.550   1.042
10677SOL    HW232931   0.368   0.516   1.192
10678SOL     OW32932   2.135   5.844   2.357
10678SOL    HW132933   2.074   5.901   2.302
10678SOL    HW232934   2.081   5.792   2.424
10679SOL     OW32935   5.240   5.152   3.941
10679SOL    HW132936   5.284   5.153   4.031
10679SOL    HW232937   5.141   5.159   3.952
10680SOL     OW32938   1.170   3.533   2.528
10680SOL    HW132939   1.154   3.489   2.439
10680SOL    HW232940   1.168   3.463   2.600
10681SOL     OW32941   6.453   2.558   5.646
10681SOL    HW132942   6.402   2.484   5.688
10681SOL    HW232943   6.439   2.643   5.697
10682SOL     OW32944   0.141   0.929   2.520
10682SOL    HW132945   0.076   0.897   2.589
10682SOL    HW232946   0.161   0.854   2.456
10683SOL     OW32947   1.594   1.887   4.719
10683SOL    HW132948   1.585   1.821   4.794
10683SOL    HW232949   1.617   1.838   4.635
10684SOL     OW32950   6.312   4.560   6.929
10684SOL    HW132951   6.358   4.646   6.953
10684SOL    HW232952   6.357   4.519   6.850
10685SOL     OW32953   0.196   2.934   3.174
10685SOL    HW132954   0.132   2.950   3.249
10685SOL    HW232955   0.260   2.861   3.199
10686SOL     OW32956   3.051   5.710   0.708
10686SOL    HW132957   3.137   5.659   0.706
10686SOL    HW232958   3.001   5.688   0.792
10687SOL     OW32959   0.258   4.766   2.818
10687SOL    HW132960   0.286   4.812   2.734
10687SOL    HW232961   0.301   4.810   2.896
10688SOL     OW32962   6.910   4.774   2.026
10688SOL    HW132963   6.935   4.870   2.028
10688SOL    HW232964   6.811   4.765   2.026
10689SOL     OW32965   0.572   0.550   2.551
10689SOL    HW132966   0.647   0.511   2.605
10689SOL    HW232967   0.527   0.478   2.499
10690SOL     OW32968   4.494   4.886   2.120
10690SOL    HW132969   4.573   4.855   2.173
10690SOL    HW232970   4.484   4.829   2.039
10691SOL     OW32971   6.873   1.326   1.867
10691SOL    HW132972   6.870   1.416   1.824
10691SOL    HW232973   6.784   1.306   1.909
10692SOL     OW32974   3.421   5.706   3.749
10692SOL    HW132975   3.513   5.744   3.760
10692SOL    HW232976   3.411   5.625   3.808
10693SOL     OW32977   6.556   1.477   1.849
10693SOL    HW132978   6.627   1.499   1.782
10693SOL    HW232979   6.589   1.406   1.911
10694SOL     OW32980   4.554   6.452   0.602
10694SOL    HW132981   4.572   6.417   0.694
10694SOL    HW232982   4.596   6.542   0.592
10695SOL     OW32983   0.053   2.303   4.006
10695SOL    HW132984   0.144   2.296   3.966
10695SOL    HW232985   7.008   2.293   3.934
10696SOL     OW32986   6.845   5.917   1.346
10696SOL    HW132987   6.887   5.834   1.310
10696SOL    HW232988   6.747   5.904   1.355
10697SOL     OW32989   1.405   6.145   4.362
10697SOL    HW132990   1.414   6.077   4.289
10697SOL    HW232991   1.495   6.168   4.398
10698SOL     OW32992   2.795   6.973   3.671
10698SOL    HW132993   2.786   6.957   3.769
10698SOL    HW232994   2.847   0.033   3.655
10699SOL     OW32995   3.194   2.123   2.767
10699SOL    HW132996   3.285   2.154   2.740
10699SOL    HW232997   3.202   2.042   2.825
10700SOL     OW32998   6.891   6.565   1.277
10700SOL    HW132999   6.910   6.638   1.211
10700SOL    HW233000   6.825   6.502   1.239
10701SOL     OW33001   2.717   6.442   0.502
10701SOL    HW133002   2.789   6.486   0.448
10701SOL    HW233003   2.757   6.374   0.563
10702SOL     OW33004   6.123   2.659   0.608
10702SOL    HW133005   6.161   2.732   0.666
10702SOL    HW233006   6.178   2.576   0.619
10703SOL     OW33007   4.089   3.800   3.884
10703SOL    HW133008   4.046   3.889   3.895
10703SOL    HW233009   4.096   3.754   3.972
10704SOL     OW33010   4.937   0.353   2.389
10704SOL    HW133011   4.910   0.260   2.364
10704SOL    HW233012   4.928   0.366   2.488
10705SOL     OW33013   0.074   3.209   6.094
10705SOL    HW133014   0.134   3.264   6.152
10705SOL    HW233015   7.013   3.258   6.078
10706SOL     OW33016   3.117   0.953   2.491
10706SOL    HW133017   3.102   0.854   2.492
10706SOL    HW233018   3.094   0.991   2.581
10707SOL     OW33019   6.016   0.086   6.114
10707SOL    HW133020   6.035   0.007   6.056
10707SOL    HW233021   6.085   0.156   6.099
10708SOL     OW33022   4.344   1.182   0.466
10708SOL    HW133023   4.290   1.155   0.386
10708SOL    HW233024   4.410   1.109   0.487
10709SOL     OW33025   5.890   6.678   5.672
10709SOL    HW133026   5.831   6.731   5.611
10709SOL    HW233027   5.983   6.677   5.636
10710SOL     OW33028   6.211   5.104   3.281
10710SOL    HW133029   6.192   5.199   3.255
10710SOL    HW233030   6.307   5.095   3.306
10711SOL     OW33031   1.663   6.958   3.954
10711SOL    HW133032   1.614   7.011   4.024
10711SOL    HW233033   1.745   6.918   3.995
10712SOL     OW33034   3.763   1.242   4.992
10712SOL    HW133035   3.694   1.283   4.933
10712SOL    HW233036   3.803   1.163   4.945
10713SOL     OW33037   1.107   6.019   1.523
10713SOL    HW133038   1.020   6.028   1.475
10713SOL    HW233039   1.181   6.010   1.456
10714SOL     OW33040   6.891   5.300   5.486
10714SOL    HW133041   6.835   5.222   5.459
10714SOL    HW233042   6.886   5.312   5.585
10715SOL     OW33043   5.002   1.693   4.649
10715SOL    HW133044   5.000   1.751   4.730
10715SOL    HW233045   4.939   1.729   4.580
10716SOL     OW33046   6.292   0.420   3.945
10716SOL    HW133047   6.312   0.430   4.042
10716SOL    HW233048   6.193   0.416   3.932
10717SOL     OW33049   0.172   0.446   1.425
10717SOL    HW133050   0.212   0.511   1.490
10717SOL    HW233051   0.120   0.377   1.475
10718SOL     OW33052   6.316   5.287   0.045
10718SOL    HW133053   6.322   5.255   6.975
10718SOL    HW233054   6.392   5.250   0.099
10719SOL     OW33055   5.529   0.542   2.009
10719SOL    HW133056   5.431   0.558   1.997
10719SOL    HW233057   5.545   0.443   2.016
10720SOL     OW33058   0.099   3.713   6.363
10720SOL    HW133059   0.179   3.660   6.392
10720SOL    HW233060   0.021   3.652   6.354
10721SOL     OW33061   5.118   2.647   4.786
10721SOL    HW133062   5.197   2.647   4.725
10721SOL    HW233063   5.097   2.741   4.813
10722SOL     OW33064   0.157   3.653   6.986
10722SOL    HW133065   0.143   3.630   6.890
10722SOL    HW233066   0.069   3.663   0.008
10723SOL     OW33067   5.813   3.843   6.622
10723SOL    HW133068   5.718   3.872   6.606
10723SOL    HW233069   5.813   3.763   6.682
10724SOL     OW33070   4.237   6.554   6.381
10724SOL    HW133071   4.212   6.564   6.285
10724SOL    HW233072   4.217   6.460   6.411
10725SOL     OW33073   6.728   5.965   5.097
10725SOL    HW133074   6.715   5.914   5.012
10725SOL    HW233075   6.814   6.016   5.093
10726SOL     OW33076   4.608   1.175   4.553
10726SOL    HW133077   4.687   1.184   4.613
10726SOL    HW233078   4.534   1.129   4.602
10727SOL     OW33079   2.322   6.516   5.617
10727SOL    HW133080   2.378   6.437   5.643
10727SOL    HW233081   2.352   6.550   5.528
10728SOL     OW33082   5.105   5.936   3.122
10728SOL    HW133083   5.025   5.945   3.181
10728SOL    HW233084   5.122   6.022   3.075
10729SOL     OW33085   5.894   2.672   2.837
10729SOL    HW133086   5.910   2.732   2.759
10729SOL    HW233087   5.810   2.701   2.884
10730SOL     OW33088   2.149   6.573   2.852
10730SOL    HW133089   2.213   6.608   2.784
10730SOL    HW233090   2.082   6.644   2.874
10731SOL     OW33091   3.472   0.073   6.511
10731SOL    HW133092   3.499   0.055   6.606
10731SOL    HW233093   3.550   0.060   6.451
10732SOL     OW33094   5.947   5.959   3.440
10732SOL    HW133095   5.894   5.908   3.373
10732SOL    HW233096   6.017   5.899   3.479
10733SOL     OW33097   0.139   0.689   5.809
10733SOL    HW133098   0.046   0.684   5.847
10733SOL    HW233099   0.206   0.678   5.882
10734SOL     OW33100   1.137   1.419   5.443
10734SOL    HW133101   1.096   1.421   5.534
10734SOL    HW233102   1.157   1.325   5.417
10735SOL     OW33103   1.408   5.334   1.951
10735SOL    HW133104   1.482   5.288   1.901
10735SOL    HW233105   1.404   5.430   1.922
10736SOL     OW33106   5.920   0.052   3.779
10736SOL    HW133107   5.874   0.123   3.833
10736SOL    HW233108   5.879   6.987   3.799
10737SOL     OW33109   6.653   1.294   2.037
10737SOL    HW133110   6.569   1.239   2.038
10737SOL    HW233111   6.683   1.309   2.131
10738SOL     OW33112   3.232   0.799   1.892
10738SOL    HW133113   3.288   0.820   1.973
10738SOL    HW233114   3.267   0.851   1.814
10739SOL     OW33115   6.029   2.426   2.927
10739SOL    HW133116   6.080   2.384   2.852
10739SOL    HW233117   5.982   2.508   2.895
10740SOL     OW33118   1.483   6.698   6.431
10740SOL    HW133119   1.562   6.646   6.398
10740SOL    HW233120   1.403   6.638   6.435
10741SOL     OW33121   2.581   2.432   3.664
10741SOL    HW133122   2.660   2.450   3.604
10741SOL    HW233123   2.545   2.518   3.698
10742SOL     OW33124   6.110   6.126   3.246
10742SOL    HW133125   6.093   6.085   3.157
10742SOL    HW233126   6.032   6.108   3.307
10743SOL     OW33127   3.632   1.099   5.795
10743SOL    HW133128   3.624   1.150   5.881
10743SOL    HW233129   3.680   1.155   5.728
10744SOL     OW33130   1.866   0.160   0.291
10744SOL    HW133131   1.874   0.242   0.234
10744SOL    HW233132   1.828   0.085   0.237
10745SOL     OW33133   2.248   5.017   1.287
10745SOL    HW133134   2.221   4.958   1.211
10745SOL    HW233135   2.250   4.963   1.372
10746SOL     OW33136   1.742   6.141   6.264
10746SOL    HW133137   1.710   6.072   6.330
10746SOL    HW233138   1.676   6.147   6.189
10747SOL     OW33139   6.239   1.525   4.731
10747SOL    HW133140   6.154   1.487   4.768
10747SOL    HW233141   6.314   1.461   4.747
10748SOL     OW33142   4.124   6.216   1.249
10748SOL    HW133143   4.198   6.272   1.286
10748SOL    HW233144   4.043   6.226   1.308
10749SOL     OW33145   5.488   5.537   2.418
10749SOL    HW133146   5.540   5.452   2.409
10749SOL    HW233147   5.398   5.517   2.457
10750SOL     OW33148   4.951   2.244   4.063
10750SOL    HW133149   4.938   2.179   3.988
10750SOL    HW233150   4.965   2.336   4.026
10751SOL     OW33151   0.343   5.081   5.132
10751SOL    HW133152   0.303   5.064   5.042
10751SOL    HW233153   0.356   4.995   5.180
10752SOL     OW33154   6.192   6.528   1.169
10752SOL    HW133155   6.191   6.431   1.144
10752SOL    HW233156   6.168   6.538   1.265
10753SOL     OW33157   4.846   6.204   3.912
10753SOL    HW133158   4.825   6.301   3.924
10753SOL    HW233159   4.834   6.156   3.999
10754SOL     OW33160   1.174   3.639   1.553
10754SOL    HW133161   1.235   3.617   1.477
10754SOL    HW233162   1.211   3.602   1.638
10755SOL     OW33163   6.132   3.205   0.953
10755SOL    HW133164   6.080   3.281   0.990
10755SOL    HW233165   6.230   3.220   0.971
10756SOL     OW33166   0.309   2.236   1.013
10756SOL    HW133167   0.365   2.251   1.095
10756SOL    HW233168   0.268   2.144   1.017
10757SOL     OW33169   0.093   3.799   1.573
10757SOL    HW133170   0.175   3.833   1.527
10757SOL    HW233171   0.051   3.727   1.518
10758SOL     OW33172   0.633   0.425   6.736
10758SOL    HW133173   0.543   0.446   6.699
10758SOL    HW233174   0.697   0.499   6.715
10759SOL     OW33175   2.654   2.536   6.438
10759SOL    HW133176   2.660   2.440   6.467
10759SOL    HW233177   2.563   2.553   6.401
10760SOL     OW33178   0.543   5.121   0.468
10760SOL    HW133179   0.476   5.166   0.527
10760SOL    HW233180   0.582   5.188   0.405
10761SOL     OW33181   0.351   1.585   6.208
10761SOL    HW133182   0.359   1.668   6.153
10761SOL    HW233183   0.340   1.506   6.148
10762SOL     OW33184   3.903   6.412   6.178
10762SOL    HW133185   3.859   6.390   6.265
10762SOL    HW233186   3.882   6.340   6.111
10763SOL     OW33187   5.374   0.545   3.081
10763SOL    HW133188   5.356   0.448   3.067
10763SOL    HW233189   5.468   0.558   3.112
10764SOL     OW33190   4.070   0.780   4.673
10764SOL    HW133191   4.010   0.774   4.752
10764SOL    HW233192   4.084   0.876   4.649
10765SOL     OW33193   6.864   1.684   2.883
10765SOL    HW133194   6.841   1.780   2.868
10765SOL    HW233195   6.923   1.677   2.964
10766SOL     OW33196   1.669   4.862   6.027
10766SOL    HW133197   1.757   4.824   6.056
10766SOL    HW233198   1.621   4.795   5.971
10767SOL     OW33199   1.901   5.761   0.304
10767SOL    HW133200   1.809   5.795   0.322
10767SOL    HW233201   1.895   5.675   0.254
10768SOL     OW33202   5.830   5.846   0.596
10768SOL    HW133203   5.751   5.798   0.557
10768SOL    HW233204   5.804   5.938   0.623
10769SOL     OW33205   3.264   3.209   4.634
10769SOL    HW133206   3.310   3.213   4.723
10769SOL    HW233207   3.310   3.271   4.570
10770SOL     OW33208   5.290   6.759   3.875
10770SOL    HW133209   5.308   6.693   3.947
10770SOL    HW233210   5.243   6.839   3.914
10771SOL     OW33211   4.896   5.994   5.801
10771SOL    HW133212   4.968   6.023   5.738
10771SOL    HW233213   4.917   6.028   5.893
10772SOL     OW33214   5.925   4.655   2.745
10772SOL    HW133215   6.007   4.599   2.735
10772SOL    HW233216   5.937   4.742   2.696
10773SOL     OW33217   6.688   4.644   1.058
10773SOL    HW133218   6.654   4.691   0.976
10773SOL    HW233219   6.611   4.608   1.110
10774SOL     OW33220   1.669   3.184   0.499
10774SOL    HW133221   1.675   3.110   0.567
10774SOL    HW233222   1.752   3.183   0.442
10775SOL     OW33223   1.002   4.389   1.162
10775SOL    HW133224   0.903   4.381   1.152
10775SOL    HW233225   1.031   4.481   1.135
10776SOL     OW33226   1.278   1.989   3.220
10776SOL    HW133227   1.269   1.976   3.121
10776SOL    HW233228   1.235   2.075   3.247
10777SOL     OW33229   3.526   1.257   2.184
10777SOL    HW133230   3.490   1.165   2.165
10777SOL    HW233231   3.458   1.325   2.156
10778SOL     OW33232   6.141   6.463   3.502
10778SOL    HW133233   6.125   6.365   3.492
10778SOL    HW233234   6.191   6.481   3.587
10779SOL     OW33235   5.536   3.966   4.267
10779SOL    HW133236   5.546   3.934   4.361
10779SOL    HW233237   5.442   3.951   4.236
10780SOL     OW33238   1.552   5.982   5.005
10780SOL    HW133239   1.518   5.911   4.944
10780SOL    HW233240   1.652   5.980   5.006
10781SOL     OW33241   5.878   2.087   5.496
10781SOL    HW133242   5.854   2.034   5.416
10781SOL    HW233243   5.859   2.184   5.479
10782SOL     OW33244   1.290   2.759   4.991
10782SOL    HW133245   1.295   2.659   4.996
10782SOL    HW233246   1.221   2.792   5.055
10783SOL     OW33247   1.254   2.954   2.956
10783SOL    HW133248   1.259   3.049   2.926
10783SOL    HW233249   1.276   2.894   2.879
10784SOL     OW33250   3.736   6.342   2.445
10784SOL    HW133251   3.644   6.350   2.484
10784SOL    HW233252   3.799   6.306   2.515
10785SOL     OW33253   1.749   5.915   2.420
10785SOL    HW133254   1.834   5.882   2.459
10785SOL    HW233255   1.768   5.990   2.357
10786SOL     OW33256   4.131   1.108   2.093
10786SOL    HW133257   4.060   1.131   2.159
10786SOL    HW233258   4.158   1.191   2.043
10787SOL     OW33259   3.834   1.438   3.690
10787SOL    HW133260   3.896   1.455   3.613
10787SOL    HW233261   3.865   1.488   3.770
10788SOL     OW33262   0.645   5.085   0.831
10788SOL    HW133263   0.664   5.075   0.929
10788SOL    HW233264   0.671   5.001   0.783
10789SOL     OW33265   6.424   1.536   0.504
10789SOL    HW133266   6.514   1.577   0.487
10789SOL    HW233267   6.368   1.601   0.555
10790SOL     OW33268   0.454   2.591   4.674
10790SOL    HW133269   0.375   2.544   4.712
10790SOL    HW233270   0.521   2.524   4.642
10791SOL     OW33271   1.615   1.880   3.348
10791SOL    HW133272   1.520   1.878   3.378
10791SOL    HW233273   1.632   1.804   3.285
10792SOL     OW33274   3.884   1.982   1.311
10792SOL    HW133275   3.898   2.063   1.368
10792SOL    HW233276   3.814   1.924   1.353
10793SOL     OW33277   4.481   1.414   5.042
10793SOL    HW133278   4.472   1.326   4.995
10793SOL    HW233279   4.574   1.424   5.077
10794SOL     OW33280   4.347   2.991   0.472
10794SOL    HW133281   4.289   2.949   0.542
10794SOL    HW233282   4.441   2.957   0.481
10795SOL     OW33283   0.360   3.637   3.135
10795SOL    HW133284   0.411   3.641   3.049
10795SOL    HW233285   0.422   3.608   3.208
10796SOL     OW33286   6.840   6.997   6.983
10796SOL    HW133287   6.881   0.029   0.031
10796SOL    HW233288   6.860   0.013   6.894
10797SOL     OW33289   4.137   4.097   0.338
10797SOL    HW133290   4.147   4.102   0.437
10797SOL    HW233291   4.199   4.027   0.302
10798SOL     OW33292   2.488   0.326   6.440
10798SOL    HW133293   2.519   0.261   6.372
10798SOL    HW233294   2.515   0.296   6.532
10799SOL     OW33295   2.752   1.516   2.742
10799SOL    HW133296   2.657   1.521   2.772
10799SOL    HW233297   2.757   1.464   2.657
10800SOL     OW33298   1.493   0.351   5.553
10800SOL    HW133299   1.445   0.424   5.504
10800SOL    HW233300   1.589   0.375   5.564
10801SOL     OW33301   2.841   6.399   5.930
10801SOL    HW133302   2.774   6.379   5.858
10801SOL    HW233303   2.901   6.473   5.900
10802SOL     OW33304   0.551   4.286   4.673
10802SOL    HW133305   0.647   4.259   4.667
10802SOL    HW233306   0.544   4.379   4.708
10803SOL     OW33307   6.845   4.339   5.124
10803SOL    HW133308   6.919   4.358   5.059
10803SOL    HW233309   6.768   4.299   5.076
10804SOL     OW33310   5.228   4.690   1.571
10804SOL    HW133311   5.174   4.773   1.557
10804SOL    HW233312   5.229   4.667   1.669
10805SOL     OW33313   4.309   6.936   0.778
10805SOL    HW133314   4.397   6.985   0.780
10805SOL    HW233315   4.303   6.884   0.693
10806SOL     OW33316   5.010   3.562   6.981
10806SOL    HW133317   5.003   3.543   0.055
10806SOL    HW233318   5.101   3.597   6.960
10807SOL     OW33319   4.170   6.614   3.521
10807SOL    HW133320   4.086   6.653   3.560
10807SOL    HW233321   4.185   6.522   3.557
10808SOL     OW33322   0.093   2.932   6.105
10808SOL    HW133323   0.173   2.893   6.060
10808SOL    HW233324   0.101   3.032   6.107
10809SOL     OW33325   2.545   0.631   3.429
10809SOL    HW133326   2.529   0.728   3.450
10809SOL    HW233327   2.543   0.578   3.513
10810SOL     OW33328   6.841   1.212   5.197
10810SOL    HW133329   6.791   1.140   5.245
10810SOL    HW233330   6.907   1.170   5.135
10811SOL     OW33331   4.520   4.756   5.628
10811SOL    HW133332   4.514   4.833   5.692
10811SOL    HW233333   4.446   4.691   5.647
10812SOL     OW33334   6.555   2.273   2.951
10812SOL    HW133335   6.489   2.224   2.894
10812SOL    HW233336   6.508   2.346   3.000
10813SOL     OW33337   2.696   6.008   1.564
10813SOL    HW133338   2.632   6.059   1.620
10813SOL    HW233339   2.675   6.024   1.467
10814SOL     OW33340   1.858   0.082   4.967
10814SOL    HW133341   1.841   7.011   4.940
10814SOL    HW233342   1.945   0.112   4.929
10815SOL     OW33343   5.144   2.894   3.128
10815SOL    HW133344   5.125   2.902   3.030
10815SOL    HW233345   5.085   2.957   3.179
10816SOL     OW33346   2.235   1.519   1.939
10816SOL    HW133347   2.291   1.506   2.021
10816SOL    HW233348   2.152   1.464   1.945
10817SOL     OW33349   4.524   6.454   2.132
10817SOL    HW133350   4.491   6.409   2.050
10817SOL    HW233351   4.529   6.553   2.116
10818SOL     OW33352   4.591   3.503   6.791
10818SOL    HW133353   4.587   3.412   6.834
10818SOL    HW233354   4.568   3.495   6.694
10819SOL     OW33355   0.163   3.943   6.487
10819SOL    HW133356   0.255   3.982   6.488
10819SOL    HW233357   0.166   3.851   6.449
10820SOL     OW33358   0.133   6.450   4.676
10820SOL    HW133359   0.177   6.520   4.733
10820SOL    HW233360   0.182   6.364   4.686
10821SOL     OW33361   6.701   0.497   0.722
10821SOL    HW133362   6.701   0.451   0.811
10821SOL    HW233363   6.750   0.441   0.656
10822SOL     OW33364   1.098   4.181   1.565
10822SOL    HW133365   1.125   4.093   1.603
10822SOL    HW233366   1.092   4.174   1.465
10823SOL     OW33367   1.377   0.748   0.877
10823SOL    HW133368   1.318   0.753   0.957
10823SOL    HW233369   1.322   0.727   0.796
10824SOL     OW33370   5.792   0.149   2.720
10824SOL    HW133371   5.814   0.072   2.660
10824SOL    HW233372   5.801   0.120   2.815
10825SOL     OW33373   3.496   1.155   0.983
10825SOL    HW133374   3.561   1.132   1.055
10825SOL    HW233375   3.413   1.195   1.023
10826SOL     OW33376   6.616   3.030   1.745
10826SOL    HW133377   6.711   3.001   1.757
10826SOL    HW233378   6.603   3.121   1.783
10827SOL     OW33379   7.023   2.362   4.275
10827SOL    HW133380   0.060   2.424   4.324
10827SOL    HW233381   0.020   2.364   4.177
10828SOL     OW33382   0.849   6.000   0.321
10828SOL    HW133383   0.900   5.937   0.379
10828SOL    HW233384   0.911   6.072   0.289
10829SOL     OW33385   2.947   3.507   1.298
10829SOL    HW133386   2.984   3.497   1.205
10829SOL    HW233387   2.912   3.600   1.311
10830SOL     OW33388   4.789   2.480   4.217
10830SOL    HW133389   4.850   2.474   4.137
10830SOL    HW233390   4.715   2.544   4.197
10831SOL     OW33391   5.413   1.687   2.967
10831SOL    HW133392   5.447   1.768   2.920
10831SOL    HW233393   5.315   1.697   2.985
10832SOL     OW33394   6.974   1.652   0.984
10832SOL    HW133395   0.019   1.580   0.993
10832SOL    HW233396   7.013   1.739   1.015
10833SOL     OW33397   3.310   0.018   4.630
10833SOL    HW133398   3.406   0.040   4.612
10833SOL    HW233399   3.261   0.102   4.652
10834SOL     OW33400   0.534   1.370   4.993
10834SOL    HW133401   0.527   1.272   4.975
10834SOL    HW233402   0.552   1.385   5.090
10835SOL     OW33403   6.837   1.558   2.393
10835SOL    HW133404   6.911   1.602   2.341
10835SOL    HW233405   6.770   1.627   2.419
10836SOL     OW33406   2.099   2.561   6.571
10836SOL    HW133407   2.112   2.622   6.649
10836SOL    HW233408   2.091   2.466   6.603
10837SOL     OW33409   0.728   5.411   0.716
10837SOL    HW133410   0.705   5.317   0.740
10837SOL    HW233411   0.750   5.463   0.799
10838SOL     OW33412   5.999   0.147   0.053
10838SOL    HW133413   5.919   0.139   7.018
10838SOL    HW233414   5.972   0.128   0.148
10839SOL     OW33415   2.267   1.910   0.667
10839SOL    HW133416   2.332   1.835   0.676
10839SOL    HW233417   2.316   1.994   0.646
10840SOL     OW33418   3.908   5.535   1.669
10840SOL    HW133419   3.980   5.536   1.738
10840SOL    HW233420   3.838   5.468   1.694
10841SOL     OW33421   3.615   4.771   6.536
10841SOL    HW133422   3.680   4.704   6.502
10841SOL    HW233423   3.550   4.794   6.464
10842SOL     OW33424   6.197   2.717   1.559
10842SOL    HW133425   6.104   2.719   1.593
10842SOL    HW233426   6.257   2.766   1.622
10843SOL     OW33427   0.259   1.517   1.938
10843SOL    HW133428   0.212   1.429   1.936
10843SOL    HW233429   0.348   1.508   1.893
10844SOL     OW33430   4.566   6.604   3.966
10844SOL    HW133431   4.502   6.550   3.911
10844SOL    HW233432   4.537   6.700   3.967
10845SOL     OW33433   1.790   2.676   0.845
10845SOL    HW133434   1.703   2.726   0.852
10845SOL    HW233435   1.798   2.611   0.921
10846SOL     OW33436   3.932   1.832   1.698
10846SOL    HW133437   3.846   1.883   1.704
10846SOL    HW233438   3.922   1.744   1.743
10847SOL     OW33439   4.221   2.949   6.306
10847SOL    HW133440   4.153   3.014   6.340
10847SOL    HW233441   4.310   2.968   6.348
10848SOL     OW33442   1.590   0.617   6.571
10848SOL    HW133443   1.501   0.642   6.532
10848SOL    HW233444   1.659   0.681   6.539
10849SOL     OW33445   2.659   4.870   4.239
10849SOL    HW133446   2.590   4.821   4.185
10849SOL    HW233447   2.717   4.923   4.178
10850SOL     OW33448   5.356   6.492   0.765
10850SOL    HW133449   5.378   6.505   0.668
10850SOL    HW233450   5.354   6.581   0.811
10851SOL     OW33451   4.071   2.075   6.351
10851SOL    HW133452   4.033   1.983   6.358
10851SOL    HW233453   4.012   2.132   6.294
10852SOL     OW33454   0.358   0.570   5.984
10852SOL    HW133455   0.346   0.483   6.031
10852SOL    HW233456   0.428   0.561   5.914
10853SOL     OW33457   2.296   1.242   4.582
10853SOL    HW133458   2.201   1.212   4.575
10853SOL    HW233459   2.307   1.298   4.664
10854SOL     OW33460   6.862   6.522   0.201
10854SOL    HW133461   6.762   6.514   0.202
10854SOL    HW233462   6.901   6.461   0.270
10855SOL     OW33463   1.140   6.224   0.632
10855SOL    HW133464   1.042   6.208   0.645
10855SOL    HW233465   1.153   6.290   0.558
10856SOL     OW33466   6.210   6.737   6.644
10856SOL    HW133467   6.253   6.752   6.733
10856SOL    HW233468   6.281   6.721   6.575
10857SOL     OW33469   5.881   1.168   3.992
10857SOL    HW133470   5.954   1.201   3.932
10857SOL    HW233471   5.911   1.085   4.038
10858SOL     OW33472   2.222   1.984   0.271
10858SOL    HW133473   2.282   1.941   0.203
10858SOL    HW233474   2.130   1.947   0.262
10859SOL     OW33475   0.650   4.548   1.846
10859SOL    HW133476   0.697   4.467   1.880
10859SOL    HW233477   0.629   4.609   1.922
10860SOL     OW33478   6.677   1.929   0.052
10860SOL    HW133479   6.615   1.868   0.001
10860SOL    HW233480   6.675   2.020   0.011
10861SOL     OW33481   3.189   2.872   1.961
10861SOL    HW133482   3.150   2.848   2.049
10861SOL    HW233483   3.288   2.886   1.971
10862SOL     OW33484   3.742   3.381   5.458
10862SOL    HW133485   3.693   3.334   5.385
10862SOL    HW233486   3.818   3.433   5.419
10863SOL     OW33487   1.924   1.642   3.028
10863SOL    HW133488   1.939   1.545   3.006
10863SOL    HW233489   1.987   1.670   3.100
10864SOL     OW33490   3.034   4.850   1.926
10864SOL    HW133491   3.129   4.822   1.910
10864SOL    HW233492   2.977   4.768   1.936
10865SOL     OW33493   4.146   1.435   3.382
10865SOL    HW133494   4.151   1.483   3.470
10865SOL    HW233495   4.118   1.499   3.311
10866SOL     OW33496   0.213   3.878   3.078
10866SOL    HW133497   0.266   3.798   3.105
10866SOL    HW233498   0.227   3.896   2.981
10867SOL     OW33499   4.414   3.645   0.248
10867SOL    HW133500   4.450   3.585   0.177
10867SOL    HW233501   4.401   3.737   0.211
10868SOL     OW33502   1.269   1.548   4.661
10868SOL    HW133503   1.341   1.548   4.592
10868SOL    HW233504   1.251   1.454   4.691
10869NA      NA33505   6.682   2.478   5.624
10870NA      NA33506   4.383   4.662   5.209
10871NA      NA33507   1.007   4.649   2.704
10872NA      NA33508   5.781   4.125   3.239
10873NA      NA33509   3.972   2.146   5.283
10874NA      NA33510   2.397   4.963   0.415
10875NA      NA33511   1.009   5.154   6.927
10876NA      NA33512   3.542   4.073   1.274
10877NA      NA33513   4.392   5.191   0.736
10878NA      NA33514   3.115   0.777   6.557
10879NA      NA33515   5.645   6.524   2.157
10880NA      NA33516   1.604   6.758   5.267
10881NA      NA33517   4.081   5.032   1.891
10882NA      NA33518   3.519   3.338   6.721
   7.02418   7.02418   7.02418
