Generated by trjconv : CNT in water t= 151.00000
33518
    1C        C    1   2.840   2.765   4.747
    1C        C    2   2.901   2.721   4.867
    1C        C    3   2.845   2.769   4.986
    1C        C    4   2.849   2.771   4.262
    1C        C    5   2.898   2.716   4.382
    1C        C    6   2.842   2.767   4.502
    1C        C    7   3.009   2.639   4.625
    1C        C    8   2.891   2.716   4.624
    1C        C    9   3.075   2.601   4.744
    1C        C   10   3.008   2.629   4.865
    1C        C   11   3.180   2.493   4.977
    1C        C   12   3.059   2.562   4.977
    1C        C   13   2.850   2.769   3.771
    1C        C   14   2.900   2.720   3.894
    1C        C   15   2.848   2.769   4.016
    1C        C   16   3.017   2.642   4.141
    1C        C   17   2.900   2.722   4.139
    1C        C   18   3.080   2.608   4.262
    1C        C   19   3.018   2.642   4.384
    1C        C   20   3.208   2.549   4.504
    1C        C   21   3.078   2.604   4.507
    1C        C   22   3.275   2.527   4.626
    1C        C   23   3.204   2.540   4.748
    1C        C   24   3.412   2.484   4.867
    1C        C   25   3.269   2.493   4.865
    1C        C   26   3.489   2.478   4.983
    1C        C   27   2.849   2.763   3.281
    1C        C   28   2.904   2.721   3.405
    1C        C   29   2.849   2.767   3.527
    1C        C   30   3.016   2.636   3.650
    1C        C   31   2.904   2.722   3.649
    1C        C   32   3.073   2.599   3.774
    1C        C   33   3.014   2.636   3.896
    1C        C   34   3.206   2.548   4.017
    1C        C   35   3.077   2.604   4.019
    1C        C   36   3.278   2.533   4.138
    1C        C   37   3.212   2.557   4.261
    1C        C   38   3.415   2.498   4.379
    1C        C   39   3.278   2.533   4.383
    1C        C   40   3.483   2.496   4.503
    1C        C   41   3.413   2.497   4.626
    1C        C   42   3.628   2.489   4.745
    1C        C   43   3.486   2.484   4.745
    1C        C   44   3.705   2.489   4.864
    1C        C   45   3.628   2.468   4.979
    1C        C   46   2.839   2.754   2.790
    1C        C   47   2.893   2.711   2.913
    1C        C   48   2.844   2.761   3.036
    1C        C   49   3.014   2.633   3.160
    1C        C   50   2.901   2.718   3.158
    1C        C   51   3.078   2.603   3.283
    1C        C   52   3.017   2.636   3.406
    1C        C   53   3.207   2.545   3.528
    1C        C   54   3.077   2.599   3.528
    1C        C   55   3.274   2.525   3.651
    1C        C   56   3.204   2.546   3.772
    1C        C   57   3.412   2.503   3.894
    1C        C   58   3.272   2.524   3.894
    1C        C   59   3.486   2.502   4.014
    1C        C   60   3.416   2.507   4.137
    1C        C   61   3.628   2.499   4.260
    1C        C   62   3.487   2.490   4.258
    1C        C   63   3.698   2.512   4.382
    1C        C   64   3.624   2.502   4.502
    1C        C   65   3.831   2.553   4.623
    1C        C   66   3.697   2.508   4.623
    1C        C   67   3.903   2.575   4.743
    1C        C   68   3.838   2.535   4.862
    1C        C   69   4.051   2.588   4.979
    1C        C   70   3.919   2.542   4.976
    1C        C   71   2.826   2.738   2.308
    1C        C   72   2.882   2.694   2.429
    1C        C   73   2.834   2.749   2.550
    1C        C   74   3.007   2.620   2.673
    1C        C   75   2.892   2.702   2.670
    1C        C   76   3.072   2.595   2.796
    1C        C   77   3.011   2.633   2.917
    1C        C   78   3.206   2.544   3.039
    1C        C   79   3.076   2.600   3.038
    1C        C   80   3.275   2.522   3.161
    1C        C   81   3.209   2.550   3.283
    1C        C   82   3.413   2.497   3.402
    1C        C   83   3.275   2.526   3.405
    1C        C   84   3.483   2.494   3.525
    1C        C   85   3.413   2.504   3.648
    1C        C   86   3.623   2.504   3.772
    1C        C   87   3.482   2.496   3.771
    1C        C   88   3.695   2.512   3.894
    1C        C   89   3.627   2.505   4.017
    1C        C   90   3.833   2.552   4.135
    1C        C   91   3.700   2.507   4.139
    1C        C   92   3.899   2.578   4.257
    1C        C   93   3.834   2.550   4.379
    1C        C   94   4.025   2.641   4.500
    1C        C   95   3.899   2.577   4.502
    1C        C   96   4.091   2.675   4.621
    1C        C   97   4.034   2.631   4.742
    1C        C   98   4.191   2.769   4.861
    1C        C   99   4.101   2.658   4.865
    1C        C  100   4.222   2.844   4.975
    1C        C  101   2.819   2.728   2.071
    1C        C  102   2.988   2.588   2.195
    1C        C  103   2.875   2.677   2.189
    1C        C  104   3.061   2.569   2.315
    1C        C  105   2.998   2.613   2.434
    1C        C  106   3.198   2.526   2.552
    1C        C  107   3.068   2.580   2.552
    1C        C  108   3.271   2.516   2.673
    1C        C  109   3.203   2.541   2.794
    1C        C  110   3.410   2.495   2.915
    1C        C  111   3.272   2.522   2.916
    1C        C  112   3.483   2.491   3.036
    1C        C  113   3.414   2.498   3.159
    1C        C  114   3.626   2.499   3.282
    1C        C  115   3.484   2.492   3.281
    1C        C  116   3.696   2.506   3.405
    1C        C  117   3.624   2.504   3.526
    1C        C  118   3.829   2.551   3.647
    1C        C  119   3.691   2.518   3.649
    1C        C  120   3.896   2.575   3.769
    1C        C  121   3.831   2.548   3.892
    1C        C  122   4.024   2.644   4.011
    1C        C  123   3.900   2.575   4.013
    1C        C  124   4.082   2.681   4.134
    1C        C  125   4.024   2.645   4.258
    1C        C  126   4.197   2.769   4.376
    1C        C  127   4.085   2.682   4.379
    1C        C  128   4.246   2.821   4.498
    1C        C  129   4.190   2.775   4.619
    1C        C  130   4.331   2.935   4.741
    1C        C  131   4.246   2.821   4.740
    1C        C  132   4.367   3.002   4.860
    1C        C  133   4.294   2.963   4.973
    1C        C  134   3.171   2.469   2.084
    1C        C  135   3.038   2.513   2.084
    1C        C  136   3.261   2.481   2.190
    1C        C  137   3.195   2.520   2.309
    1C        C  138   3.403   2.476   2.431
    1C        C  139   3.263   2.496   2.430
    1C        C  140   3.480   2.478   2.549
    1C        C  141   3.411   2.496   2.671
    1C        C  142   3.623   2.493   2.791
    1C        C  143   3.481   2.493   2.793
    1C        C  144   3.693   2.508   2.913
    1C        C  145   3.625   2.495   3.036
    1C        C  146   3.831   2.537   3.158
    1C        C  147   3.694   2.500   3.159
    1C        C  148   3.899   2.562   3.280
    1C        C  149   3.833   2.542   3.403
    1C        C  150   4.025   2.632   3.523
    1C        C  151   3.898   2.569   3.525
    1C        C  152   4.085   2.670   3.645
    1C        C  153   4.024   2.633   3.767
    1C        C  154   4.194   2.767   3.886
    1C        C  155   4.085   2.676   3.888
    1C        C  156   4.239   2.820   4.008
    1C        C  157   4.193   2.768   4.131
    1C        C  158   4.339   2.923   4.254
    1C        C  159   4.249   2.815   4.253
    1C        C  160   4.381   2.985   4.374
    1C        C  161   4.336   2.930   4.496
    1C        C  162   4.443   3.114   4.614
    1C        C  163   4.374   2.991   4.618
    1C        C  164   4.478   3.181   4.733
    1C        C  165   4.441   3.121   4.856
    1C        C  166   4.516   3.323   4.970
    1C        C  167   4.485   3.188   4.971
    1C        C  168   3.475   2.438   2.073
    1C        C  169   3.401   2.460   2.190
    1C        C  170   3.617   2.470   2.307
    1C        C  171   3.475   2.468   2.310
    1C        C  172   3.691   2.488   2.425
    1C        C  173   3.621   2.487   2.547
    1C        C  174   3.828   2.540   2.667
    1C        C  175   3.692   2.501   2.669
    1C        C  176   3.896   2.561   2.789
    1C        C  177   3.830   2.542   2.912
    1C        C  178   4.020   2.629   3.032
    1C        C  179   3.894   2.566   3.035
    1C        C  180   4.083   2.664   3.153
    1C        C  181   4.025   2.624   3.276
    1C        C  182   4.198   2.746   3.397
    1C        C  183   4.083   2.665   3.399
    1C        C  184   4.250   2.798   3.518
    1C        C  185   4.197   2.755   3.642
    1C        C  186   4.339   2.918   3.763
    1C        C  187   4.249   2.808   3.763
    1C        C  188   4.380   2.978   3.884
    1C        C  189   4.335   2.924   4.007
    1C        C  190   4.445   3.104   4.127
    1C        C  191   4.376   2.980   4.130
    1C        C  192   4.472   3.173   4.247
    1C        C  193   4.442   3.113   4.371
    1C        C  194   4.514   3.314   4.492
    1C        C  195   4.467   3.181   4.492
    1C        C  196   4.527   3.387   4.612
    1C        C  197   4.522   3.316   4.734
    1C        C  198   4.556   3.537   4.850
    1C        C  199   4.540   3.394   4.852
    1C        C  200   4.582   3.620   4.963
    1C        C  201   3.614   2.421   2.072
    1C        C  202   3.825   2.514   2.182
    1C        C  203   3.690   2.469   2.184
    1C        C  204   3.896   2.547   2.301
    1C        C  205   3.828   2.524   2.423
    1C        C  206   4.023   2.616   2.546
    1C        C  207   3.895   2.557   2.543
    1C        C  208   4.087   2.655   2.666
    1C        C  209   4.021   2.626   2.788
    1C        C  210   4.198   2.745   2.907
    1C        C  211   4.084   2.661   2.909
    1C        C  212   4.249   2.795   3.029
    1C        C  213   4.195   2.751   3.151
    1C        C  214   4.333   2.908   3.273
    1C        C  215   4.246   2.797   3.274
    1C        C  216   4.371   2.970   3.395
    1C        C  217   4.336   2.910   3.518
    1C        C  218   4.437   3.100   3.639
    1C        C  219   4.375   2.973   3.638
    1C        C  220   4.474   3.165   3.759
    1C        C  221   4.448   3.102   3.883
    1C        C  222   4.511   3.305   4.002
    1C        C  223   4.471   3.169   4.004
    1C        C  224   4.532   3.375   4.123
    1C        C  225   4.511   3.309   4.247
    1C        C  226   4.532   3.521   4.366
    1C        C  227   4.526   3.380   4.368
    1C        C  228   4.524   3.597   4.485
    1C        C  229   4.537   3.528   4.607
    1C        C  230   4.502   3.742   4.727
    1C        C  231   4.538   3.604   4.726
    1C        C  232   4.488   3.818   4.846
    1C        C  233   4.540   3.753   4.959
    1C        C  234   4.019   2.614   2.064
    1C        C  235   3.894   2.554   2.067
    1C        C  236   4.084   2.650   2.183
    1C        C  237   4.024   2.607   2.303
    1C        C  238   4.199   2.735   2.422
    1C        C  239   4.085   2.650   2.424
    1C        C  240   4.254   2.783   2.543
    1C        C  241   4.200   2.739   2.665
    1C        C  242   4.343   2.900   2.785
    1C        C  243   4.253   2.792   2.786
    1C        C  244   4.382   2.960   2.908
    1C        C  245   4.340   2.903   3.030
    1C        C  246   4.441   3.091   3.149
    1C        C  247   4.378   2.965   3.152
    1C        C  248   4.461   3.160   3.271
    1C        C  249   4.433   3.097   3.394
    1C        C  250   4.500   3.300   3.515
    1C        C  251   4.461   3.164   3.515
    1C        C  252   4.514   3.369   3.637
    1C        C  253   4.508   3.302   3.762
    1C        C  254   4.528   3.517   3.880
    1C        C  255   4.522   3.376   3.881
    1C        C  256   4.526   3.589   4.001
    1C        C  257   4.533   3.516   4.122
    1C        C  258   4.491   3.726   4.241
    1C        C  259   4.526   3.589   4.242
    1C        C  260   4.466   3.797   4.361
    1C        C  261   4.487   3.733   4.485
    1C        C  262   4.425   3.939   4.601
    1C        C  263   4.474   3.806   4.605
    1C        C  264   4.397   4.009   4.721
    1C        C  265   4.428   3.945   4.843
    1C        C  266   4.314   4.131   4.958
    1C        C  267   4.392   4.015   4.959
    1C        C  268   4.265   2.770   2.061
    1C        C  269   4.201   2.729   2.179
    1C        C  270   4.352   2.883   2.300
    1C        C  271   4.255   2.778   2.300
    1C        C  272   4.383   2.951   2.419
    1C        C  273   4.340   2.895   2.541
    1C        C  274   4.451   3.079   2.661
    1C        C  275   4.381   2.956   2.661
    1C        C  276   4.476   3.148   2.782
    1C        C  277   4.448   3.084   2.904
    1C        C  278   4.506   3.290   3.025
    1C        C  279   4.469   3.154   3.026
    1C        C  280   4.515   3.361   3.147
    1C        C  281   4.492   3.298   3.271
    1C        C  282   4.523   3.510   3.392
    1C        C  283   4.510   3.369   3.392
    1C        C  284   4.522   3.580   3.514
    1C        C  285   4.526   3.510   3.636
    1C        C  286   4.491   3.722   3.753
    1C        C  287   4.525   3.585   3.756
    1C        C  288   4.473   3.790   3.875
    1C        C  289   4.498   3.728   4.000
    1C        C  290   4.426   3.930   4.116
    1C        C  291   4.476   3.798   4.120
    1C        C  292   4.388   3.994   4.236
    1C        C  293   4.415   3.929   4.358
    1C        C  294   4.324   4.123   4.479
    1C        C  295   4.395   4.001   4.478
    1C        C  296   4.277   4.183   4.598
    1C        C  297   4.326   4.133   4.721
    1C        C  298   4.199   4.314   4.838
    1C        C  299   4.281   4.197   4.839
    1C        C  300   4.170   4.405   4.944
    1C        C  301   4.352   2.877   2.064
    1C        C  302   4.468   3.066   2.178
    1C        C  303   4.403   2.939   2.179
    1C        C  304   4.482   3.142   2.297
    1C        C  305   4.452   3.075   2.418
    1C        C  306   4.511   3.280   2.538
    1C        C  307   4.484   3.142   2.538
    1C        C  308   4.518   3.355   2.657
    1C        C  309   4.504   3.287   2.780
    1C        C  310   4.523   3.498   2.903
    1C        C  311   4.519   3.357   2.902
    1C        C  312   4.517   3.572   3.023
    1C        C  313   4.522   3.502   3.146
    1C        C  314   4.484   3.713   3.265
    1C        C  315   4.518   3.575   3.267
    1C        C  316   4.472   3.783   3.387
    1C        C  317   4.494   3.719   3.510
    1C        C  318   4.422   3.922   3.626
    1C        C  319   4.472   3.790   3.630
    1C        C  320   4.388   3.984   3.748
    1C        C  321   4.418   3.920   3.871
    1C        C  322   4.314   4.107   3.991
    1C        C  323   4.391   3.988   3.992
    1C        C  324   4.272   4.167   4.111
    1C        C  325   4.315   4.115   4.235
    1C        C  326   4.183   4.281   4.354
    1C        C  327   4.280   4.178   4.357
    1C        C  328   4.131   4.335   4.473
    1C        C  329   4.186   4.291   4.595
    1C        C  330   4.025   4.435   4.713
    1C        C  331   4.142   4.354   4.714
    1C        C  332   3.969   4.489   4.830
    1C        C  333   4.051   4.478   4.943
    1C        C  334   4.554   3.266   2.063
    1C        C  335   4.533   3.128   2.066
    1C        C  336   4.543   3.349   2.176
    1C        C  337   4.521   3.278   2.296
    1C        C  338   4.527   3.493   2.413
    1C        C  339   4.521   3.352   2.417
    1C        C  340   4.521   3.565   2.534
    1C        C  341   4.523   3.496   2.658
    1C        C  342   4.495   3.707   2.776
    1C        C  343   4.520   3.568   2.780
    1C        C  344   4.476   3.778   2.896
    1C        C  345   4.495   3.711   3.018
    1C        C  346   4.415   3.908   3.137
    1C        C  347   4.467   3.777   3.140
    1C        C  348   4.386   3.974   3.259
    1C        C  349   4.420   3.915   3.382
    1C        C  350   4.314   4.102   3.499
    1C        C  351   4.391   3.983   3.503
    1C        C  352   4.269   4.157   3.622
    1C        C  353   4.312   4.103   3.745
    1C        C  354   4.174   4.263   3.866
    1C        C  355   4.271   4.161   3.867
    1C        C  356   4.117   4.310   3.987
    1C        C  357   4.169   4.264   4.110
    1C        C  358   4.010   4.404   4.230
    1C        C  359   4.122   4.318   4.232
    1C        C  360   3.953   4.452   4.350
    1C        C  361   4.016   4.417   4.471
    1C        C  362   3.828   4.518   4.596
    1C        C  363   3.958   4.463   4.592
    1C        C  364   3.763   4.548   4.718
    1C        C  365   3.838   4.541   4.837
    1C        C  366   3.628   4.594   4.950
    1C        C  367   3.765   4.571   4.953
    1C        C  368   4.513   3.562   2.053
    1C        C  369   4.528   3.489   2.172
    1C        C  370   4.503   3.705   2.290
    1C        C  371   4.521   3.565   2.291
    1C        C  372   4.483   3.776   2.410
    1C        C  373   4.494   3.703   2.531
    1C        C  374   4.416   3.901   2.651
    1C        C  375   4.473   3.772   2.652
    1C        C  376   4.388   3.971   2.770
    1C        C  377   4.421   3.909   2.893
    1C        C  378   4.314   4.092   3.013
    1C        C  379   4.390   3.973   3.014
    1C        C  380   4.267   4.150   3.133
    1C        C  381   4.312   4.094   3.255
    1C        C  382   4.170   4.254   3.377
    1C        C  383   4.272   4.155   3.376
    1C        C  384   4.117   4.304   3.497
    1C        C  385   4.172   4.259   3.620
    1C        C  386   4.005   4.387   3.740
    1C        C  387   4.120   4.306   3.743
    1C        C  388   3.942   4.425   3.861
    1C        C  389   4.000   4.390   3.984
    1C        C  390   3.816   4.488   4.107
    1C        C  391   3.944   4.430   4.108
    1C        C  392   3.754   4.518   4.230
    1C        C  393   3.823   4.508   4.353
    1C        C  394   3.617   4.556   4.474
    1C        C  395   3.756   4.528   4.475
    1C        C  396   3.547   4.565   4.596
    1C        C  397   3.622   4.560   4.716
    1C        C  398   3.410   4.551   4.837
    1C        C  399   3.549   4.577   4.835
    1C        C  400   3.343   4.515   4.955
    1C        C  401   4.495   3.700   2.054
    1C        C  402   4.452   3.914   2.168
    1C        C  403   4.491   3.778   2.170
    1C        C  404   4.408   3.975   2.287
    1C        C  405   4.428   3.906   2.408
    1C        C  406   4.319   4.090   2.528
    1C        C  407   4.385   3.965   2.529
    1C        C  408   4.280   4.153   2.648
    1C        C  409   4.320   4.095   2.770
    1C        C  410   4.174   4.252   2.887
    1C        C  411   4.272   4.151   2.891
    1C        C  412   4.117   4.296   3.009
    1C        C  413   4.167   4.250   3.133
    1C        C  414   3.997   4.377   3.250
    1C        C  415   4.115   4.299   3.255
    1C        C  416   3.938   4.413   3.373
    1C        C  417   4.000   4.382   3.496
    1C        C  418   3.813   4.481   3.617
    1C        C  419   3.941   4.421   3.619
    1C        C  420   3.748   4.505   3.740
    1C        C  421   3.813   4.483   3.864
    1C        C  422   3.609   4.540   3.984
    1C        C  423   3.748   4.512   3.986
    1C        C  424   3.543   4.544   4.109
    1C        C  425   3.615   4.546   4.231
    1C        C  426   3.404   4.552   4.354
    1C        C  427   3.545   4.560   4.353
    1C        C  428   3.333   4.547   4.477
    1C        C  429   3.406   4.559   4.597
    1C        C  430   3.195   4.519   4.723
    1C        C  431   3.335   4.541   4.718
    1C        C  432   3.125   4.495   4.845
    1C        C  433   3.206   4.493   4.959
    1C        C  434   4.387   4.122   2.054
    1C        C  435   4.443   3.994   2.053
    1C        C  436   4.304   4.165   2.162
    1C        C  437   4.333   4.096   2.283
    1C        C  438   4.177   4.243   2.401
    1C        C  439   4.277   4.144   2.404
    1C        C  440   4.125   4.296   2.522
    1C        C  441   4.181   4.254   2.644
    1C        C  442   4.002   4.374   2.762
    1C        C  443   4.122   4.299   2.764
    1C        C  444   3.941   4.411   2.884
    1C        C  445   4.003   4.378   3.006
    1C        C  446   3.810   4.474   3.128
    1C        C  447   3.938   4.414   3.127
    1C        C  448   3.744   4.496   3.251
    1C        C  449   3.810   4.472   3.374
    1C        C  450   3.607   4.536   3.495
    1C        C  451   3.745   4.503   3.495
    1C        C  452   3.540   4.545   3.619
    1C        C  453   3.611   4.540   3.741
    1C        C  454   3.397   4.546   3.864
    1C        C  455   3.539   4.550   3.862
    1C        C  456   3.330   4.538   3.988
    1C        C  457   3.402   4.540   4.109
    1C        C  458   3.198   4.502   4.237
    1C        C  459   3.333   4.541   4.232
    1C        C  460   3.130   4.483   4.359
    1C        C  461   3.196   4.513   4.480
    1C        C  462   2.999   4.432   4.604
    1C        C  463   3.126   4.493   4.602
    1C        C  464   2.931   4.402   4.724
    1C        C  465   2.993   4.440   4.846
    1C        C  466   2.806   4.331   4.959
    1C        C  467   2.909   4.427   4.960
    1C        C  468   4.126   4.283   2.040
    1C        C  469   4.191   4.252   2.160
    1C        C  470   4.008   4.373   2.278
    1C        C  471   4.128   4.296   2.280
    1C        C  472   3.942   4.406   2.399
    1C        C  473   4.008   4.375   2.520
    1C        C  474   3.813   4.468   2.641
    1C        C  475   3.943   4.411   2.639
    1C        C  476   3.747   4.498   2.762
    1C        C  477   3.812   4.469   2.884
    1C        C  478   3.606   4.525   3.005
    1C        C  479   3.744   4.498   3.005
    1C        C  480   3.537   4.534   3.128
    1C        C  481   3.607   4.528   3.251
    1C        C  482   3.395   4.538   3.375
    1C        C  483   3.536   4.541   3.373
    1C        C  484   3.327   4.537   3.498
    1C        C  485   3.399   4.547   3.620
    1C        C  486   3.191   4.503   3.746
    1C        C  487   3.327   4.541   3.741
    1C        C  488   3.126   4.482   3.869
    1C        C  489   3.194   4.501   3.992
    1C        C  490   3.004   4.414   4.115
    1C        C  491   3.130   4.477   4.116
    1C        C  492   2.948   4.378   4.240
    1C        C  493   3.002   4.423   4.363
    1C        C  494   2.832   4.294   4.484
    1C        C  495   2.939   4.386   4.484
    1C        C  496   2.777   4.249   4.606
    1C        C  497   2.820   4.313   4.724
    1C        C  498   2.664   4.164   4.846
    1C        C  499   2.753   4.274   4.842
    1C        C  500   2.590   4.116   4.955
    1C        C  501   4.006   4.353   2.043
    1C        C  502   3.814   4.462   2.155
    1C        C  503   3.943   4.403   2.157
    1C        C  504   3.742   4.479   2.275
    1C        C  505   3.809   4.454   2.397
    1C        C  506   3.607   4.518   2.519
    1C        C  507   3.745   4.485   2.518
    1C        C  508   3.536   4.525   2.641
    1C        C  509   3.609   4.526   2.762
    1C        C  510   3.395   4.535   2.884
    1C        C  511   3.536   4.537   2.883
    1C        C  512   3.325   4.529   3.006
    1C        C  513   3.396   4.533   3.129
    1C        C  514   3.190   4.492   3.256
    1C        C  515   3.326   4.530   3.252
    1C        C  516   3.123   4.474   3.378
    1C        C  517   3.189   4.507   3.499
    1C        C  518   3.002   4.411   3.627
    1C        C  519   3.126   4.479   3.623
    1C        C  520   2.943   4.372   3.749
    1C        C  521   3.003   4.413   3.870
    1C        C  522   2.835   4.285   3.998
    1C        C  523   2.945   4.374   3.993
    1C        C  524   2.787   4.235   4.121
    1C        C  525   2.838   4.289   4.241
    1C        C  526   2.688   4.138   4.363
    1C        C  527   2.779   4.246   4.362
    1C        C  528   2.650   4.076   4.484
    1C        C  529   2.688   4.139   4.605
    1C        C  530   2.583   3.960   4.730
    1C        C  531   2.639   4.091   4.728
    1C        C  532   2.539   3.902   4.852
    1C        C  533   2.525   3.992   4.963
    1C        C  534   3.618   4.559   2.036
    1C        C  535   3.748   4.507   2.040
    1C        C  536   3.539   4.534   2.152
    1C        C  537   3.603   4.510   2.277
    1C        C  538   3.393   4.525   2.397
    1C        C  539   3.534   4.530   2.399
    1C        C  540   3.323   4.515   2.519
    1C        C  541   3.395   4.524   2.641
    1C        C  542   3.188   4.480   2.767
    1C        C  543   3.325   4.517   2.763
    1C        C  544   3.121   4.463   2.889
    1C        C  545   3.189   4.491   3.010
    1C        C  546   2.999   4.401   3.136
    1C        C  547   3.122   4.471   3.134
    1C        C  548   2.943   4.364   3.260
    1C        C  549   3.001   4.403   3.384
    1C        C  550   2.834   4.275   3.505
    1C        C  551   2.944   4.364   3.507
    1C        C  552   2.785   4.228   3.629
    1C        C  553   2.837   4.278   3.750
    1C        C  554   2.700   4.124   3.876
    1C        C  555   2.785   4.237   3.875
    1C        C  556   2.656   4.066   3.997
    1C        C  557   2.699   4.125   4.118
    1C        C  558   2.597   3.944   4.245
    1C        C  559   2.658   4.071   4.242
    1C        C  560   2.571   3.878   4.367
    1C        C  561   2.593   3.947   4.488
    1C        C  562   2.530   3.748   4.614
    1C        C  563   2.563   3.886   4.612
    1C        C  564   2.515   3.680   4.737
    1C        C  565   2.519   3.760   4.854
    1C        C  566   2.535   3.548   4.975
    1C        C  567   2.529   3.687   4.973
    1C        C  568   3.330   4.471   2.040
    1C        C  569   3.398   4.511   2.155
    1C        C  570   3.186   4.470   2.280
    1C        C  571   3.324   4.505   2.276
    1C        C  572   3.117   4.454   2.402
    1C        C  573   3.186   4.479   2.522
    1C        C  574   2.991   4.399   2.649
    1C        C  575   3.120   4.456   2.645
    1C        C  576   2.929   4.363   2.771
    1C        C  577   2.993   4.402   2.891
    1C        C  578   2.830   4.272   3.016
    1C        C  579   2.938   4.363   3.014
    1C        C  580   2.781   4.223   3.139
    1C        C  581   2.832   4.278   3.259
    1C        C  582   2.700   4.114   3.384
    1C        C  583   2.784   4.227   3.382
    1C        C  584   2.660   4.058   3.508
    1C        C  585   2.698   4.117   3.631
    1C        C  586   2.595   3.937   3.755
    1C        C  587   2.660   4.062   3.755
    1C        C  588   2.564   3.875   3.879
    1C        C  589   2.595   3.938   4.001
    1C        C  590   2.543   3.735   4.126
    1C        C  591   2.576   3.873   4.125
    1C        C  592   2.526   3.670   4.250
    1C        C  593   2.533   3.742   4.371
    1C        C  594   2.517   3.533   4.496
    1C        C  595   2.523   3.674   4.495
    1C        C  596   2.519   3.464   4.619
    1C        C  597   2.518   3.538   4.739
    1C        C  598   2.535   3.326   4.863
    1C        C  599   2.528   3.467   4.861
    1C        C  600   2.531   3.245   4.978
    1C        C  601   3.196   4.437   2.042
    1C        C  602   2.981   4.397   2.160
    1C        C  603   3.118   4.437   2.159
    1C        C  604   2.925   4.358   2.285
    1C        C  605   2.987   4.398   2.405
    1C        C  606   2.819   4.272   2.528
    1C        C  607   2.929   4.361   2.528
    1C        C  608   2.769   4.221   2.650
    1C        C  609   2.821   4.272   2.771
    1C        C  610   2.693   4.107   2.894
    1C        C  611   2.778   4.220   2.895
    1C        C  612   2.659   4.049   3.018
    1C        C  613   2.697   4.109   3.140
    1C        C  614   2.597   3.925   3.267
    1C        C  615   2.657   4.053   3.264
    1C        C  616   2.572   3.862   3.391
    1C        C  617   2.598   3.931   3.512
    1C        C  618   2.531   3.731   3.637
    1C        C  619   2.570   3.867   3.635
    1C        C  620   2.515   3.665   3.761
    1C        C  621   2.525   3.740   3.881
    1C        C  622   2.512   3.528   4.008
    1C        C  623   2.526   3.668   4.003
    1C        C  624   2.515   3.457   4.130
    1C        C  625   2.517   3.529   4.252
    1C        C  626   2.541   3.320   4.378
    1C        C  627   2.521   3.459   4.375
    1C        C  628   2.553   3.252   4.501
    1C        C  629   2.539   3.324   4.621
    1C        C  630   2.602   3.120   4.744
    1C        C  631   2.557   3.254   4.743
    1C        C  632   2.625   3.051   4.867
    1C        C  633   2.563   3.109   4.982
    1C        C  634   2.785   4.303   2.055
    1C        C  635   2.890   4.395   2.049
    1C        C  636   2.748   4.228   2.168
    1C        C  637   2.812   4.271   2.286
    1C        C  638   2.675   4.112   2.410
    1C        C  639   2.763   4.222   2.409
    1C        C  640   2.637   4.050   2.532
    1C        C  641   2.681   4.111   2.651
    1C        C  642   2.584   3.923   2.775
    1C        C  643   2.648   4.049   2.774
    1C        C  644   2.561   3.861   2.900
    1C        C  645   2.591   3.925   3.023
    1C        C  646   2.525   3.725   3.147
    1C        C  647   2.567   3.860   3.146
    1C        C  648   2.519   3.655   3.270
    1C        C  649   2.534   3.726   3.391
    1C        C  650   2.509   3.520   3.517
    1C        C  651   2.517   3.661   3.516
    1C        C  652   2.515   3.452   3.641
    1C        C  653   2.515   3.524   3.762
    1C        C  654   2.546   3.317   3.888
    1C        C  655   2.518   3.456   3.886
    1C        C  656   2.562   3.250   4.011
    1C        C  657   2.546   3.319   4.133
    1C        C  658   2.608   3.117   4.258
    1C        C  659   2.564   3.252   4.256
    1C        C  660   2.637   3.055   4.381
    1C        C  661   2.607   3.121   4.503
    1C        C  662   2.706   2.932   4.623
    1C        C  663   2.631   3.052   4.623
    1C        C  664   2.746   2.871   4.744
    1C        C  665   2.705   2.932   4.865
    1C        C  666   2.742   2.862   4.981
    1C        C  667   2.686   4.020   2.055
    1C        C  668   2.679   4.105   2.166
    1C        C  669   2.586   3.916   2.290
    1C        C  670   2.640   4.047   2.289
    1C        C  671   2.556   3.851   2.412
    1C        C  672   2.581   3.920   2.533
    1C        C  673   2.516   3.720   2.658
    1C        C  674   2.549   3.857   2.655
    1C        C  675   2.510   3.651   2.781
    1C        C  676   2.526   3.724   2.901
    1C        C  677   2.509   3.515   3.029
    1C        C  678   2.520   3.656   3.024
    1C        C  679   2.509   3.444   3.151
    1C        C  680   2.508   3.514   3.274
    1C        C  681   2.541   3.306   3.402
    1C        C  682   2.514   3.445   3.397
    1C        C  683   2.553   3.240   3.526
    1C        C  684   2.534   3.312   3.645
    1C        C  685   2.609   3.114   3.772
    1C        C  686   2.558   3.245   3.767
    1C        C  687   2.639   3.050   3.894
    1C        C  688   2.606   3.116   4.015
    1C        C  689   2.710   2.930   4.137
    1C        C  690   2.638   3.052   4.137
    1C        C  691   2.753   2.875   4.259
    1C        C  692   2.711   2.935   4.380
    1C        C  693   2.750   2.875   4.502
    1C        C  694   2.632   3.891   2.058
    1C        C  695   2.528   3.704   2.174
    1C        C  696   2.572   3.838   2.173
    1C        C  697   2.509   3.640   2.298
    1C        C  698   2.518   3.715   2.417
    1C        C  699   2.487   3.506   2.542
    1C        C  700   2.496   3.647   2.539
    1C        C  701   2.496   3.436   2.665
    1C        C  702   2.501   3.510   2.785
    1C        C  703   2.529   3.302   2.910
    1C        C  704   2.507   3.442   2.909
    1C        C  705   2.546   3.235   3.033
    1C        C  706   2.534   3.305   3.155
    1C        C  707   2.605   3.107   3.278
    1C        C  708   2.556   3.239   3.278
    1C        C  709   2.639   3.047   3.401
    1C        C  710   2.606   3.108   3.524
    1C        C  711   2.711   2.929   3.647
    1C        C  712   2.638   3.050   3.649
    1C        C  713   2.756   2.874   3.769
    1C        C  714   2.714   2.930   3.891
    1C        C  715   2.752   2.873   4.015
    1C        C  716   2.448   3.498   2.065
    1C        C  717   2.493   3.631   2.059
    1C        C  718   2.465   3.422   2.184
    1C        C  719   2.484   3.500   2.302
    1C        C  720   2.517   3.290   2.423
    1C        C  721   2.489   3.429   2.424
    1C        C  722   2.540   3.225   2.546
    1C        C  723   2.520   3.297   2.666
    1C        C  724   2.596   3.099   2.791
    1C        C  725   2.545   3.231   2.789
    1C        C  726   2.625   3.036   2.914
    1C        C  727   2.596   3.103   3.035
    1C        C  728   2.708   2.921   3.159
    1C        C  729   2.630   3.039   3.156
    1C        C  730   2.758   2.871   3.281
    1C        C  731   2.710   2.925   3.403
    1C        C  732   2.754   2.871   3.526
    1C        C  733   2.491   3.197   2.070
    1C        C  734   2.493   3.282   2.182
    1C        C  735   2.576   3.082   2.305
    1C        C  736   2.525   3.215   2.304
    1C        C  737   2.616   3.024   2.428
    1C        C  738   2.590   3.093   2.548
    1C        C  739   2.694   2.908   2.671
    1C        C  740   2.627   3.032   2.670
    1C        C  741   2.737   2.852   2.794
    1C        C  742   2.698   2.915   2.914
    1C        C  743   2.747   2.863   3.036
    1C        C  744   2.537   3.066   2.073
    1C        C  745   2.678   2.895   2.186
    1C        C  746   2.593   3.007   2.187
    1C        C  747   2.727   2.841   2.307
    1C        C  748   2.687   2.902   2.428
    1C        C  749   2.734   2.848   2.549
    1C        C  750   2.735   2.839   2.071
    1C        C  751   3.653   2.295   2.006
    1C        O  752   3.668   2.186   2.068
    1C        O  753   3.742   2.301   1.898
    1C        C  754   4.616   3.056   1.966
    1C        O  755   4.573   3.008   1.858
    1C        O  756   4.752   3.030   1.984
    1C        C  757   4.443   4.214   1.951
    1C        O  758   4.556   4.265   1.974
    1C        O  759   4.439   4.171   1.818
    1C        C  760   3.620   4.695   1.977
    1C        O  761   3.619   4.791   2.059
    1C        O  762   3.548   4.716   1.859
    1C        C  763   2.862   4.504   1.953
    1C        O  764   2.903   4.493   1.834
    1C        O  765   2.765   4.603   1.970
    1C        C  766   2.339   3.479   1.966
    1C        O  767   2.355   3.451   1.844
    1C        O  768   2.208   3.467   2.015
    1C        C  769   4.701   3.593   5.048
    1C        O  770   4.685   3.590   5.173
    1C        O  771   4.831   3.579   5.000
    1C        C  772   4.274   4.461   5.034
    1C        O  773   4.245   4.511   5.146
    1C        O  774   4.405   4.497   4.999
    1C        C  775   4.143   2.525   5.076
    1C        O  776   4.181   2.406   5.058
    1C        O  777   4.122   2.554   5.211
    1C        C  778   2.896   4.524   5.071
    1C        O  779   2.884   4.646   5.040
    1C        O  780   2.954   4.502   5.196
    1C        C  781   2.455   3.038   5.055
    1C        O  782   2.355   2.991   4.996
    1C        O  783   2.474   2.976   5.178
    1C        C  784   2.418   3.981   5.064
    1C        O  785   2.305   4.035   5.046
    1C        O  786   2.451   3.969   5.200
    1C        C  787   2.947   2.419   2.016
    1C        O  788   2.929   2.433   1.892
    1C        O  789   2.910   2.295   2.067
    1C        C  790   3.183   2.394   5.087
    1C        O  791   3.139   2.276   5.074
    1C        O  792   3.254   2.427   5.203
    1C        H  793   4.315   3.013   5.065
    1C        H  794   4.239   2.782   5.061
    1C        H  795   4.535   3.125   5.042
    1C        H  796   4.496   3.381   5.058
    1C        H  797   4.609   3.818   5.010
    1C        H  798   4.458   4.005   5.043
    1C        H  799   4.314   4.184   5.051
    1C        H  800   4.008   4.495   5.040
    1C        H  801   3.813   4.600   5.044
    1C        H  802   3.583   4.639   5.036
    1C        H  803   3.398   4.508   5.047
    1C        H  804   3.160   4.510   5.054
    1C        H  805   3.880   2.493   5.063
    1C        H  806   3.673   2.422   5.065
    1C        H  807   2.984   2.537   5.049
    1C        H  808   3.451   2.517   5.075
    1C        H  809   2.894   2.745   5.078
    1C        H  810   2.713   2.909   5.073
    1C        H  811   2.469   3.282   5.057
    1C        H  812   2.506   3.503   5.067
    1C        H  813   2.531   3.733   5.070
    1C        H  814   2.581   4.177   5.042
    1C        H  815   2.781   4.283   5.051
    1C        H  816   2.709   2.875   1.973
    1C        H  817   2.855   2.697   1.975
    1C        H  818   3.197   2.428   1.988
    1C        H  819   3.420   2.402   1.989
    1C        H  820   3.878   2.499   1.976
    1C        H  821   4.086   2.584   1.986
    1C        H  822   4.294   2.687   1.999
    1C        H  823   4.419   2.874   1.981
    1C        H  824   4.605   3.306   1.978
    1C        H  825   4.496   3.506   1.964
    1C        H  826   4.527   3.747   1.963
    1C        H  827   3.785   4.481   1.944
    1C        H  828   3.952   4.348   1.951
    1C        H  829   4.140   4.213   1.961
    1C        H  830   4.488   3.953   1.965
    1C        H  831   2.658   3.821   1.981
    1C        H  832   2.774   4.030   1.994
    1C        H  833   2.729   4.298   1.964
    1C        H  834   3.366   4.512   1.948
    1C        H  835   3.148   4.434   1.947
    1C        H  836   2.481   3.000   2.010
    1C        H  837   2.496   3.243   1.974
    1C        H  838   2.483   3.679   1.964
    2V3OU   H29  839   2.804   3.543   1.695
    2V3OU   C27  840   2.781   3.496   1.794
    2V3OU   H27  841   2.719   3.574   1.844
    2V3OU   H28  842   2.726   3.400   1.776
    2V3OU   O11  843   2.909   3.477   1.854
    2V3OU   C15  844   2.925   3.393   1.963
    2V3OU   C13  845   3.053   3.372   2.018
    2V3OU   C14  846   3.078   3.267   2.107
    2V3OU   C16  847   2.969   3.191   2.149
    2V3OU    H6  848   2.993   3.097   2.202
    2V3OU   C12  849   3.215   3.233   2.152
    2V3OU    O2  850   3.230   3.125   2.213
    2V3OU   C10  851   3.328   3.311   2.101
    2V3OU    C8  852   3.458   3.267   2.123
    2V3OU   O10  853   3.490   3.152   2.190
    2V3OU   H26  854   3.410   3.109   2.223
    2V3OU    C6  855   3.566   3.348   2.074
    2V3OU    C5  856   3.536   3.466   2.006
    2V3OU    C4  857   3.704   3.293   2.074
    2V3OU    H4  858   3.724   3.229   2.165
    2V3OU    H5  859   3.713   3.224   1.985
    2V3OU    C2  860   3.818   3.395   2.074
    2V3OU    O6  861   3.807   3.472   2.194
    2V3OU   H21  862   3.767   3.556   2.163
    2V3OU    C3  863   3.780   3.491   1.962
    2V3OU    H2  864   3.861   3.568   1.960
    2V3OU    H3  865   3.779   3.435   1.865
    2V3OU   C25  866   3.953   3.326   2.059
    2V3OU    O7  867   4.001   3.297   1.949
    2V3OU   C26  868   4.031   3.285   2.183
    2V3OU   H22  869   4.066   3.377   2.238
    2V3OU   H23  870   4.121   3.227   2.153
    2V3OU    O8  871   3.968   3.202   2.278
    2V3OU   H24  872   3.929   3.264   2.341
    2V3OU    C1  873   3.645   3.562   1.970
    2V3OU    H1  874   3.627   3.617   1.873
    2V3OU    O3  875   3.661   3.659   2.073
    2V3OU   C19  876   3.623   3.796   2.062
    2V3OU    H9  877   3.522   3.809   2.011
    2V3OU    O4  878   3.712   3.856   1.971
    2V3OU   C20  879   3.845   3.878   2.020
    2V3OU   H10  880   3.890   3.775   2.028
    2V3OU   C24  881   3.605   3.854   2.202
    2V3OU   H16  882   3.535   3.791   2.261
    2V3OU   H17  883   3.556   3.954   2.189
    2V3OU   C23  884   3.747   3.874   2.256
    2V3OU   H15  885   3.788   3.769   2.278
    2V3OU    N1  886   3.741   3.952   2.379
    2V3OU   H19  887   3.807   3.919   2.446
    2V3OU   H20  888   3.651   3.936   2.417
    2V3OU   C21  889   3.847   3.943   2.158
    2V3OU   H11  890   3.948   3.922   2.203
    2V3OU    O5  891   3.824   4.083   2.153
    2V3OU   H18  892   3.777   4.107   2.235
    2V3OU   C22  893   3.912   3.948   1.903
    2V3OU   H12  894   3.861   4.046   1.886
    2V3OU   H13  895   3.907   3.884   1.811
    2V3OU   H14  896   4.021   3.959   1.929
    2V3OU   C11  897   3.160   3.471   2.005
    2V3OU    O1  898   3.131   3.585   1.961
    2V3OU    C9  899   3.300   3.432   2.034
    2V3OU    C7  900   3.403   3.510   1.982
    2V3OU    O9  901   3.383   3.609   1.887
    2V3OU   H25  902   3.289   3.628   1.898
    2V3OU   C17  903   2.819   3.315   2.013
    2V3OU    H7  904   2.716   3.337   1.983
    2V3OU   C18  905   2.839   3.216   2.108
    2V3OU    H8  906   2.763   3.163   2.167
    3SOL     OW  907   2.105   4.262   0.861
    3SOL    HW1  908   2.129   4.253   0.764
    3SOL    HW2  909   2.184   4.298   0.911
    4SOL     OW  910   6.563   5.453   2.248
    4SOL    HW1  911   6.648   5.506   2.254
    4SOL    HW2  912   6.576   5.378   2.182
    5SOL     OW  913   3.756   1.570   2.360
    5SOL    HW1  914   3.805   1.651   2.329
    5SOL    HW2  915   3.752   1.568   2.460
    6SOL     OW  916   4.081   1.516   2.385
    6SOL    HW1  917   4.115   1.583   2.450
    6SOL    HW2  918   4.017   1.560   2.322
    7SOL     OW  919   6.457   3.283   1.515
    7SOL    HW1  920   6.495   3.374   1.497
    7SOL    HW2  921   6.525   3.227   1.562
    8SOL     OW  922   2.545   6.785   4.935
    8SOL    HW1  923   2.618   6.847   4.907
    8SOL    HW2  924   2.493   6.825   5.011
    9SOL     OW  925   0.853   5.541   6.032
    9SOL    HW1  926   0.859   5.561   6.130
    9SOL    HW2  927   0.837   5.626   5.981
   10SOL     OW  928   1.257   4.782   5.331
   10SOL    HW1  929   1.285   4.716   5.401
   10SOL    HW2  930   1.191   4.739   5.269
   11SOL     OW  931   2.913   0.426   0.688
   11SOL    HW1  932   2.927   0.412   0.786
   11SOL    HW2  933   2.840   0.493   0.674
   12SOL     OW  934   4.135   5.789   4.043
   12SOL    HW1  935   4.063   5.720   4.039
   12SOL    HW2  936   4.102   5.869   4.093
   13SOL     OW  937   3.806   5.795   4.368
   13SOL    HW1  938   3.764   5.800   4.278
   13SOL    HW2  939   3.820   5.699   4.393
   14SOL     OW  940   4.655   5.754   6.456
   14SOL    HW1  941   4.664   5.749   6.556
   14SOL    HW2  942   4.576   5.701   6.427
   15SOL     OW  943   1.619   5.713   0.046
   15SOL    HW1  944   1.587   5.806   0.066
   15SOL    HW2  945   1.555   5.646   0.085
   16SOL     OW  946   5.923   2.125   5.743
   16SOL    HW1  947   5.923   2.078   5.831
   16SOL    HW2  948   5.906   2.059   5.670
   17SOL     OW  949   6.055   6.096   4.774
   17SOL    HW1  950   6.033   6.005   4.809
   17SOL    HW2  951   5.972   6.140   4.740
   18SOL     OW  952   3.353   1.608   6.877
   18SOL    HW1  953   3.370   1.589   6.780
   18SOL    HW2  954   3.330   1.523   6.924
   19SOL     OW  955   0.507   6.854   3.087
   19SOL    HW1  956   0.567   6.776   3.070
   19SOL    HW2  957   0.537   6.902   3.169
   20SOL     OW  958   3.304   1.828   4.093
   20SOL    HW1  959   3.226   1.873   4.051
   20SOL    HW2  960   3.378   1.894   4.106
   21SOL     OW  961   3.031   2.185   2.542
   21SOL    HW1  962   2.981   2.213   2.460
   21SOL    HW2  963   2.973   2.196   2.622
   22SOL     OW  964   2.188   0.054   6.707
   22SOL    HW1  965   2.113   0.031   6.769
   22SOL    HW2  966   2.274   0.021   6.746
   23SOL     OW  967   4.558   6.541   3.466
   23SOL    HW1  968   4.466   6.564   3.435
   23SOL    HW2  969   4.553   6.480   3.545
   24SOL     OW  970   5.173   1.440   4.043
   24SOL    HW1  971   5.139   1.365   4.099
   24SOL    HW2  972   5.127   1.525   4.069
   25SOL     OW  973   3.157   5.990   5.949
   25SOL    HW1  974   3.130   6.044   5.870
   25SOL    HW2  975   3.158   5.893   5.924
   26SOL     OW  976   5.947   1.238   1.210
   26SOL    HW1  977   5.940   1.316   1.148
   26SOL    HW2  978   5.889   1.254   1.290
   27SOL     OW  979   0.353   1.016   2.148
   27SOL    HW1  980   0.259   0.981   2.152
   27SOL    HW2  981   0.351   1.116   2.150
   28SOL     OW  982   4.339   0.887   0.369
   28SOL    HW1  983   4.304   0.980   0.365
   28SOL    HW2  984   4.438   0.890   0.386
   29SOL     OW  985   5.219   2.415   1.826
   29SOL    HW1  986   5.290   2.379   1.886
   29SOL    HW2  987   5.150   2.463   1.880
   30SOL     OW  988   3.441   6.977   5.401
   30SOL    HW1  989   3.396   0.010   5.331
   30SOL    HW2  990   3.393   6.988   5.488
   31SOL     OW  991   0.791   1.710   5.832
   31SOL    HW1  992   0.817   1.798   5.792
   31SOL    HW2  993   0.767   1.646   5.759
   32SOL     OW  994   0.847   1.769   2.836
   32SOL    HW1  995   0.843   1.849   2.778
   32SOL    HW2  996   0.767   1.768   2.896
   33SOL     OW  997   2.348   3.261   6.831
   33SOL    HW1  998   2.307   3.338   6.782
   33SOL    HW2  999   2.382   3.194   6.764
   34SOL     OW 1000   2.130   0.927   3.881
   34SOL    HW1 1001   2.042   0.967   3.857
   34SOL    HW2 1002   2.203   0.973   3.830
   35SOL     OW 1003   4.121   2.213   6.649
   35SOL    HW1 1004   4.134   2.268   6.732
   35SOL    HW2 1005   4.023   2.199   6.633
   36SOL     OW 1006   0.679   0.815   6.466
   36SOL    HW1 1007   0.679   0.860   6.555
   36SOL    HW2 1008   0.766   0.767   6.454
   37SOL     OW 1009   2.349   0.497   0.526
   37SOL    HW1 1010   2.396   0.452   0.449
   37SOL    HW2 1011   2.343   0.433   0.603
   38SOL     OW 1012   0.554   5.708   3.330
   38SOL    HW1 1013   0.460   5.735   3.312
   38SOL    HW2 1014   0.555   5.623   3.382
   39SOL     OW 1015   6.442   4.333   6.432
   39SOL    HW1 1016   6.494   4.417   6.415
   39SOL    HW2 1017   6.483   4.284   6.509
   40SOL     OW 1018   5.998   2.218   1.569
   40SOL    HW1 1019   6.043   2.253   1.487
   40SOL    HW2 1020   6.063   2.219   1.645
   41SOL     OW 1021   1.524   6.383   4.403
   41SOL    HW1 1022   1.608   6.427   4.372
   41SOL    HW2 1023   1.533   6.284   4.395
   42SOL     OW 1024   3.184   6.716   6.558
   42SOL    HW1 1025   3.257   6.758   6.612
   42SOL    HW2 1026   3.097   6.726   6.606
   43SOL     OW 1027   5.979   6.275   5.505
   43SOL    HW1 1028   5.884   6.284   5.532
   43SOL    HW2 1029   6.034   6.248   5.584
   44SOL     OW 1030   6.248   2.478   6.286
   44SOL    HW1 1031   6.294   2.476   6.198
   44SOL    HW2 1032   6.252   2.570   6.325
   45SOL     OW 1033   3.244   0.621   3.827
   45SOL    HW1 1034   3.254   0.712   3.789
   45SOL    HW2 1035   3.330   0.571   3.817
   46SOL     OW 1036   1.320   3.727   4.232
   46SOL    HW1 1037   1.226   3.717   4.265
   46SOL    HW2 1038   1.358   3.637   4.214
   47SOL     OW 1039   5.301   3.810   2.989
   47SOL    HW1 1040   5.399   3.824   2.985
   47SOL    HW2 1041   5.276   3.731   2.934
   48SOL     OW 1042   0.722   2.912   4.906
   48SOL    HW1 1043   0.652   2.859   4.859
   48SOL    HW2 1044   0.734   2.877   4.999
   49SOL     OW 1045   4.573   3.992   1.700
   49SOL    HW1 1046   4.497   4.039   1.746
   49SOL    HW2 1047   4.655   4.049   1.707
   50SOL     OW 1048   6.276   2.186   5.667
   50SOL    HW1 1049   6.258   2.123   5.592
   50SOL    HW2 1050   6.190   2.216   5.707
   51SOL     OW 1051   3.134   6.039   2.571
   51SOL    HW1 1052   3.218   5.990   2.596
   51SOL    HW2 1053   3.065   6.024   2.641
   52SOL     OW 1054   4.769   1.850   3.659
   52SOL    HW1 1055   4.783   1.767   3.712
   52SOL    HW2 1056   4.858   1.883   3.626
   53SOL     OW 1057   4.821   0.408   4.375
   53SOL    HW1 1058   4.788   0.314   4.383
   53SOL    HW2 1059   4.768   0.456   4.306
   54SOL     OW 1060   3.637   5.051   0.473
   54SOL    HW1 1061   3.563   5.061   0.540
   54SOL    HW2 1062   3.626   4.964   0.424
   55SOL     OW 1063   3.521   1.320   6.295
   55SOL    HW1 1064   3.504   1.227   6.329
   55SOL    HW2 1065   3.449   1.381   6.327
   56SOL     OW 1066   1.302   0.600   1.335
   56SOL    HW1 1067   1.207   0.602   1.364
   56SOL    HW2 1068   1.360   0.643   1.405
   57SOL     OW 1069   4.745   0.177   1.028
   57SOL    HW1 1070   4.720   0.272   1.009
   57SOL    HW2 1071   4.805   0.143   0.955
   58SOL     OW 1072   0.084   6.636   5.883
   58SOL    HW1 1073   0.178   6.625   5.916
   58SOL    HW2 1074   0.084   6.641   5.783
   59SOL     OW 1075   1.698   1.142   6.136
   59SOL    HW1 1076   1.770   1.117   6.071
   59SOL    HW2 1077   1.673   1.238   6.121
   60SOL     OW 1078   6.046   0.842   6.196
   60SOL    HW1 1079   5.964   0.791   6.170
   60SOL    HW2 1080   6.043   0.933   6.155
   61SOL     OW 1081   5.112   1.240   4.651
   61SOL    HW1 1082   5.089   1.292   4.568
   61SOL    HW2 1083   5.192   1.281   4.694
   62SOL     OW 1084   0.660   1.167   3.512
   62SOL    HW1 1085   0.571   1.197   3.546
   62SOL    HW2 1086   0.660   1.169   3.412
   63SOL     OW 1087   6.328   1.596   3.750
   63SOL    HW1 1088   6.257   1.596   3.821
   63SOL    HW2 1089   6.287   1.569   3.663
   64SOL     OW 1090   0.471   3.948   6.456
   64SOL    HW1 1091   0.549   3.993   6.412
   64SOL    HW2 1092   0.486   3.849   6.455
   65SOL     OW 1093   6.352   4.322   5.109
   65SOL    HW1 1094   6.414   4.329   5.187
   65SOL    HW2 1095   6.290   4.245   5.124
   66SOL     OW 1096   3.372   0.626   6.717
   66SOL    HW1 1097   3.287   0.679   6.709
   66SOL    HW2 1098   3.374   0.579   6.805
   67SOL     OW 1099   5.798   5.224   5.284
   67SOL    HW1 1100   5.703   5.246   5.305
   67SOL    HW2 1101   5.858   5.267   5.351
   68SOL     OW 1102   6.546   0.604   6.731
   68SOL    HW1 1103   6.544   0.653   6.644
   68SOL    HW2 1104   6.639   0.575   6.751
   69SOL     OW 1105   1.767   4.097   6.644
   69SOL    HW1 1106   1.821   4.168   6.600
   69SOL    HW2 1107   1.772   4.013   6.589
   70SOL     OW 1108   6.381   5.064   3.087
   70SOL    HW1 1109   6.370   5.084   3.185
   70SOL    HW2 1110   6.440   5.133   3.045
   71SOL     OW 1111   3.423   2.072   2.658
   71SOL    HW1 1112   3.364   2.116   2.591
   71SOL    HW2 1113   3.513   2.116   2.658
   72SOL     OW 1114   3.050   6.005   4.692
   72SOL    HW1 1115   3.121   5.976   4.756
   72SOL    HW2 1116   3.029   5.929   4.630
   73SOL     OW 1117   3.342   1.565   0.627
   73SOL    HW1 1118   3.281   1.638   0.657
   73SOL    HW2 1119   3.344   1.561   0.527
   74SOL     OW 1120   5.282   6.551   6.500
   74SOL    HW1 1121   5.353   6.500   6.453
   74SOL    HW2 1122   5.294   6.649   6.482
   75SOL     OW 1123   3.736   6.484   5.756
   75SOL    HW1 1124   3.652   6.484   5.702
   75SOL    HW2 1125   3.815   6.497   5.696
   76SOL     OW 1126   1.603   3.046   1.327
   76SOL    HW1 1127   1.595   3.044   1.427
   76SOL    HW2 1128   1.624   2.954   1.294
   77SOL     OW 1129   4.749   6.106   4.298
   77SOL    HW1 1130   4.758   6.098   4.397
   77SOL    HW2 1131   4.775   6.019   4.255
   78SOL     OW 1132   5.852   0.294   6.004
   78SOL    HW1 1133   5.875   0.257   6.094
   78SOL    HW2 1134   5.772   0.246   5.968
   79SOL     OW 1135   3.058   6.596   0.531
   79SOL    HW1 1136   2.980   6.651   0.559
   79SOL    HW2 1137   3.126   6.595   0.605
   80SOL     OW 1138   5.472   1.222   4.479
   80SOL    HW1 1139   5.535   1.283   4.431
   80SOL    HW2 1140   5.514   1.190   4.564
   81SOL     OW 1141   2.345   0.080   2.372
   81SOL    HW1 1142   2.294   0.143   2.432
   81SOL    HW2 1143   2.290   0.060   2.291
   82SOL     OW 1144   0.050   5.689   0.491
   82SOL    HW1 1145   7.014   5.652   0.563
   82SOL    HW2 1146   0.041   5.634   0.408
   83SOL     OW 1147   6.144   0.027   0.626
   83SOL    HW1 1148   6.216   7.023   0.690
   83SOL    HW2 1149   6.057   0.035   0.674
   84SOL     OW 1150   4.909   3.529   3.414
   84SOL    HW1 1151   4.896   3.462   3.340
   84SOL    HW2 1152   4.944   3.482   3.495
   85SOL     OW 1153   1.249   1.513   5.376
   85SOL    HW1 1154   1.327   1.505   5.438
   85SOL    HW2 1155   1.164   1.501   5.427
   86SOL     OW 1156   0.919   0.101   5.652
   86SOL    HW1 1157   0.981   0.041   5.602
   86SOL    HW2 1158   0.930   0.195   5.619
   87SOL     OW 1159   5.109   2.987   0.513
   87SOL    HW1 1160   5.117   3.008   0.415
   87SOL    HW2 1161   5.089   3.071   0.564
   88SOL     OW 1162   4.155   1.784   6.235
   88SOL    HW1 1163   4.190   1.837   6.312
   88SOL    HW2 1164   4.232   1.756   6.178
   89SOL     OW 1165   1.647   3.125   6.590
   89SOL    HW1 1166   1.740   3.156   6.607
   89SOL    HW2 1167   1.584   3.202   6.604
   90SOL     OW 1168   4.792   6.560   3.841
   90SOL    HW1 1169   4.726   6.526   3.775
   90SOL    HW2 1170   4.744   6.596   3.921
   91SOL     OW 1171   4.780   4.295   4.042
   91SOL    HW1 1172   4.775   4.199   4.013
   91SOL    HW2 1173   4.699   4.316   4.097
   92SOL     OW 1174   3.009   4.399   0.619
   92SOL    HW1 1175   2.910   4.386   0.622
   92SOL    HW2 1176   3.047   4.347   0.543
   93SOL     OW 1177   2.526   4.514   6.543
   93SOL    HW1 1178   2.477   4.494   6.458
   93SOL    HW2 1179   2.524   4.433   6.602
   94SOL     OW 1180   2.424   6.493   6.104
   94SOL    HW1 1181   2.452   6.589   6.111
   94SOL    HW2 1182   2.341   6.478   6.158
   95SOL     OW 1183   1.108   1.722   2.982
   95SOL    HW1 1184   1.179   1.664   2.942
   95SOL    HW2 1185   1.024   1.713   2.929
   96SOL     OW 1186   2.927   6.936   5.853
   96SOL    HW1 1187   2.842   6.963   5.807
   96SOL    HW2 1188   2.973   7.017   5.888
   97SOL     OW 1189   0.703   3.787   5.737
   97SOL    HW1 1190   0.646   3.746   5.666
   97SOL    HW2 1191   0.671   3.756   5.827
   98SOL     OW 1192   6.351   3.963   0.202
   98SOL    HW1 1193   6.361   3.878   0.151
   98SOL    HW2 1194   6.437   3.984   0.249
   99SOL     OW 1195   4.391   4.169   0.994
   99SOL    HW1 1196   4.343   4.235   0.937
   99SOL    HW2 1197   4.441   4.217   1.066
  100SOL     OW 1198   0.915   6.893   5.849
  100SOL    HW1 1199   0.975   6.861   5.922
  100SOL    HW2 1200   0.934   6.990   5.831
  101SOL     OW 1201   1.394   5.738   2.758
  101SOL    HW1 1202   1.380   5.678   2.837
  101SOL    HW2 1203   1.451   5.691   2.691
  102SOL     OW 1204   5.200   0.560   2.719
  102SOL    HW1 1205   5.141   0.624   2.670
  102SOL    HW2 1206   5.261   0.611   2.780
  103SOL     OW 1207   3.759   1.018   2.474
  103SOL    HW1 1208   3.744   1.116   2.483
  103SOL    HW2 1209   3.672   0.970   2.487
  104SOL     OW 1210   0.726   4.921   2.539
  104SOL    HW1 1211   0.772   4.965   2.462
  104SOL    HW2 1212   0.684   4.991   2.597
  105SOL     OW 1213   6.414   2.121   6.432
  105SOL    HW1 1214   6.397   2.058   6.508
  105SOL    HW2 1215   6.393   2.215   6.461
  106SOL     OW 1216   3.329   6.539   5.248
  106SOL    HW1 1217   3.353   6.613   5.185
  106SOL    HW2 1218   3.270   6.575   5.320
  107SOL     OW 1219   2.003   2.105   1.831
  107SOL    HW1 1220   1.926   2.064   1.880
  107SOL    HW2 1221   2.041   2.038   1.767
  108SOL     OW 1222   4.290   4.890   6.764
  108SOL    HW1 1223   4.195   4.886   6.796
  108SOL    HW2 1224   4.340   4.812   6.802
  109SOL     OW 1225   0.312   1.214   1.444
  109SOL    HW1 1226   0.245   1.288   1.459
  109SOL    HW2 1227   0.395   1.251   1.404
  110SOL     OW 1228   3.723   6.763   5.597
  110SOL    HW1 1229   3.784   6.684   5.603
  110SOL    HW2 1230   3.678   6.764   5.508
  111SOL     OW 1231   3.252   0.540   5.349
  111SOL    HW1 1232   3.265   0.444   5.370
  111SOL    HW2 1233   3.331   0.593   5.379
  112SOL     OW 1234   6.173   6.457   5.972
  112SOL    HW1 1235   6.246   6.520   6.001
  112SOL    HW2 1236   6.088   6.508   5.961
  113SOL     OW 1237   6.862   4.969   3.016
  113SOL    HW1 1238   6.935   4.902   3.033
  113SOL    HW2 1239   6.813   4.986   3.102
  114SOL     OW 1240   0.872   0.081   1.115
  114SOL    HW1 1241   0.877   0.007   1.182
  114SOL    HW2 1242   0.852   0.167   1.162
  115SOL     OW 1243   4.046   1.317   4.505
  115SOL    HW1 1244   3.993   1.402   4.504
  115SOL    HW2 1245   3.989   1.243   4.467
  116SOL     OW 1246   6.010   5.312   2.428
  116SOL    HW1 1247   5.993   5.383   2.360
  116SOL    HW2 1248   5.958   5.332   2.511
  117SOL     OW 1249   0.882   1.437   6.222
  117SOL    HW1 1250   0.852   1.483   6.305
  117SOL    HW2 1251   0.926   1.503   6.161
  118SOL     OW 1252   0.821   1.353   2.196
  118SOL    HW1 1253   0.881   1.355   2.117
  118SOL    HW2 1254   0.817   1.443   2.239
  119SOL     OW 1255   1.302   2.260   6.151
  119SOL    HW1 1256   1.369   2.319   6.195
  119SOL    HW2 1257   1.332   2.241   6.057
  120SOL     OW 1258   6.451   6.812   0.278
  120SOL    HW1 1259   6.368   6.820   0.333
  120SOL    HW2 1260   6.462   6.895   0.223
  121SOL     OW 1261   2.553   3.945   6.724
  121SOL    HW1 1262   2.569   3.991   6.636
  121SOL    HW2 1263   2.483   3.996   6.775
  122SOL     OW 1264   1.555   4.590   6.399
  122SOL    HW1 1265   1.652   4.609   6.384
  122SOL    HW2 1266   1.546   4.517   6.466
  123SOL     OW 1267   0.566   2.112   1.580
  123SOL    HW1 1268   0.649   2.112   1.636
  123SOL    HW2 1269   0.526   2.020   1.579
  124SOL     OW 1270   5.358   2.946   0.132
  124SOL    HW1 1271   5.401   3.034   0.113
  124SOL    HW2 1272   5.417   2.893   0.193
  125SOL     OW 1273   2.585   1.781   2.089
  125SOL    HW1 1274   2.621   1.841   2.016
  125SOL    HW2 1275   2.522   1.715   2.049
  126SOL     OW 1276   2.362   4.358   0.888
  126SOL    HW1 1277   2.317   4.443   0.862
  126SOL    HW2 1278   2.448   4.379   0.935
  127SOL     OW 1279   6.944   5.170   6.251
  127SOL    HW1 1280   0.003   5.116   6.234
  127SOL    HW2 1281   6.865   5.126   6.208
  128SOL     OW 1282   4.221   2.603   1.435
  128SOL    HW1 1283   4.202   2.612   1.533
  128SOL    HW2 1284   4.134   2.603   1.385
  129SOL     OW 1285   4.274   4.123   6.274
  129SOL    HW1 1286   4.287   4.129   6.373
  129SOL    HW2 1287   4.224   4.204   6.242
  130SOL     OW 1288   0.577   1.019   4.368
  130SOL    HW1 1289   0.577   1.119   4.363
  130SOL    HW2 1290   0.634   0.982   4.295
  131SOL     OW 1291   5.649   1.282   2.104
  131SOL    HW1 1292   5.689   1.371   2.125
  131SOL    HW2 1293   5.555   1.293   2.073
  132SOL     OW 1294   2.546   2.918   0.777
  132SOL    HW1 1295   2.597   2.985   0.724
  132SOL    HW2 1296   2.465   2.962   0.817
  133SOL     OW 1297   5.227   6.508   3.992
  133SOL    HW1 1298   5.185   6.511   3.901
  133SOL    HW2 1299   5.236   6.600   4.028
  134SOL     OW 1300   6.083   1.588   2.572
  134SOL    HW1 1301   6.059   1.499   2.611
  134SOL    HW2 1302   6.162   1.625   2.621
  135SOL     OW 1303   5.909   2.892   1.811
  135SOL    HW1 1304   5.934   2.858   1.901
  135SOL    HW2 1305   5.810   2.882   1.798
  136SOL     OW 1306   3.944   3.421   6.399
  136SOL    HW1 1307   3.852   3.442   6.365
  136SOL    HW2 1308   3.941   3.414   6.499
  137SOL     OW 1309   5.208   0.663   4.934
  137SOL    HW1 1310   5.260   0.730   4.988
  137SOL    HW2 1311   5.205   0.692   4.838
  138SOL     OW 1312   0.485   4.301   3.720
  138SOL    HW1 1313   0.512   4.273   3.628
  138SOL    HW2 1314   0.504   4.226   3.784
  139SOL     OW 1315   2.446   5.928   5.163
  139SOL    HW1 1316   2.453   6.017   5.207
  139SOL    HW2 1317   2.536   5.901   5.128
  140SOL     OW 1318   0.471   6.226   3.524
  140SOL    HW1 1319   0.379   6.198   3.552
  140SOL    HW2 1320   0.491   6.187   3.434
  141SOL     OW 1321   6.119   3.069   5.253
  141SOL    HW1 1322   6.176   3.004   5.303
  141SOL    HW2 1323   6.112   3.155   5.304
  142SOL     OW 1324   1.649   5.130   0.589
  142SOL    HW1 1325   1.730   5.168   0.545
  142SOL    HW2 1326   1.584   5.100   0.518
  143SOL     OW 1327   5.793   3.930   1.696
  143SOL    HW1 1328   5.823   4.018   1.658
  143SOL    HW2 1329   5.736   3.947   1.777
  144SOL     OW 1330   1.406   6.831   6.721
  144SOL    HW1 1331   1.329   6.799   6.666
  144SOL    HW2 1332   1.372   6.875   6.804
  145SOL     OW 1333   0.606   4.825   0.494
  145SOL    HW1 1334   0.681   4.803   0.557
  145SOL    HW2 1335   0.569   4.915   0.518
  146SOL     OW 1336   5.109   0.089   5.673
  146SOL    HW1 1337   5.202   0.053   5.670
  146SOL    HW2 1338   5.070   0.088   5.581
  147SOL     OW 1339   5.932   3.000   6.678
  147SOL    HW1 1340   5.834   3.005   6.657
  147SOL    HW2 1341   5.945   2.987   6.776
  148SOL     OW 1342   0.451   4.724   6.514
  148SOL    HW1 1343   0.423   4.737   6.419
  148SOL    HW2 1344   0.465   4.626   6.531
  149SOL     OW 1345   2.704   1.629   4.298
  149SOL    HW1 1346   2.723   1.612   4.394
  149SOL    HW2 1347   2.656   1.551   4.259
  150SOL     OW 1348   5.737   5.136   6.535
  150SOL    HW1 1349   5.822   5.188   6.527
  150SOL    HW2 1350   5.678   5.180   6.603
  151SOL     OW 1351   3.376   1.815   1.091
  151SOL    HW1 1352   3.298   1.795   1.151
  151SOL    HW2 1353   3.459   1.825   1.145
  152SOL     OW 1354   1.870   1.449   3.930
  152SOL    HW1 1355   1.774   1.444   3.904
  152SOL    HW2 1356   1.913   1.529   3.887
  153SOL     OW 1357   2.959   0.194   1.612
  153SOL    HW1 1358   2.864   0.221   1.622
  153SOL    HW2 1359   2.972   0.103   1.652
  154SOL     OW 1360   0.604   2.890   2.972
  154SOL    HW1 1361   0.597   2.960   3.043
  154SOL    HW2 1362   0.694   2.896   2.928
  155SOL     OW 1363   0.470   1.356   3.289
  155SOL    HW1 1364   0.549   1.322   3.237
  155SOL    HW2 1365   0.501   1.423   3.356
  156SOL     OW 1366   0.021   1.896   1.346
  156SOL    HW1 1367   0.053   1.977   1.298
  156SOL    HW2 1368   0.082   1.819   1.326
  157SOL     OW 1369   6.379   3.661   1.681
  157SOL    HW1 1370   6.477   3.654   1.662
  157SOL    HW2 1371   6.344   3.746   1.642
  158SOL     OW 1372   2.753   0.095   2.556
  158SOL    HW1 1373   2.738   0.179   2.609
  158SOL    HW2 1374   2.849   0.090   2.528
  159SOL     OW 1375   4.635   4.267   1.517
  159SOL    HW1 1376   4.612   4.182   1.470
  159SOL    HW2 1377   4.630   4.343   1.452
  160SOL     OW 1378   7.006   4.899   0.010
  160SOL    HW1 1379   6.931   4.918   0.074
  160SOL    HW2 1380   0.070   4.899   0.060
  161SOL     OW 1381   1.804   5.319   4.601
  161SOL    HW1 1382   1.714   5.285   4.572
  161SOL    HW2 1383   1.824   5.284   4.693
  162SOL     OW 1384   3.764   6.575   0.412
  162SOL    HW1 1385   3.846   6.532   0.374
  162SOL    HW2 1386   3.699   6.504   0.438
  163SOL     OW 1387   5.092   5.695   1.213
  163SOL    HW1 1388   5.139   5.607   1.202
  163SOL    HW2 1389   5.132   5.745   1.290
  164SOL     OW 1390   6.716   4.081   1.140
  164SOL    HW1 1391   6.690   4.149   1.072
  164SOL    HW2 1392   6.634   4.039   1.178
  165SOL     OW 1393   5.625   2.952   1.000
  165SOL    HW1 1394   5.675   2.974   1.084
  165SOL    HW2 1395   5.563   2.875   1.018
  166SOL     OW 1396   0.350   4.857   3.801
  166SOL    HW1 1397   0.327   4.885   3.894
  166SOL    HW2 1398   0.343   4.757   3.794
  167SOL     OW 1399   5.646   2.157   0.622
  167SOL    HW1 1400   5.730   2.162   0.567
  167SOL    HW2 1401   5.627   2.061   0.644
  168SOL     OW 1402   2.784   3.683   1.041
  168SOL    HW1 1403   2.692   3.651   1.017
  168SOL    HW2 1404   2.779   3.748   1.117
  169SOL     OW 1405   3.866   0.449   2.784
  169SOL    HW1 1406   3.842   0.512   2.710
  169SOL    HW2 1407   3.936   0.385   2.752
  170SOL     OW 1408   0.317   1.684   3.484
  170SOL    HW1 1409   0.225   1.657   3.457
  170SOL    HW2 1410   0.369   1.713   3.404
  171SOL     OW 1411   3.829   4.328   0.355
  171SOL    HW1 1412   3.918   4.364   0.382
  171SOL    HW2 1413   3.777   4.400   0.307
  172SOL     OW 1414   6.300   1.829   4.274
  172SOL    HW1 1415   6.264   1.756   4.332
  172SOL    HW2 1416   6.234   1.905   4.271
  173SOL     OW 1417   6.503   1.423   4.305
  173SOL    HW1 1418   6.520   1.325   4.315
  173SOL    HW2 1419   6.409   1.437   4.273
  174SOL     OW 1420   2.713   5.205   4.301
  174SOL    HW1 1421   2.795   5.156   4.273
  174SOL    HW2 1422   2.643   5.196   4.230
  175SOL     OW 1423   1.831   6.801   1.917
  175SOL    HW1 1424   1.748   6.753   1.944
  175SOL    HW2 1425   1.807   6.894   1.889
  176SOL     OW 1426   1.136   4.105   1.271
  176SOL    HW1 1427   1.120   4.201   1.248
  176SOL    HW2 1428   1.235   4.088   1.275
  177SOL     OW 1429   5.802   2.960   2.447
  177SOL    HW1 1430   5.705   2.939   2.432
  177SOL    HW2 1431   5.814   3.059   2.455
  178SOL     OW 1432   4.647   3.431   5.801
  178SOL    HW1 1433   4.743   3.432   5.773
  178SOL    HW2 1434   4.626   3.515   5.851
  179SOL     OW 1435   2.704   1.923   5.957
  179SOL    HW1 1436   2.668   1.864   6.030
  179SOL    HW2 1437   2.628   1.959   5.903
  180SOL     OW 1438   1.296   0.398   6.415
  180SOL    HW1 1439   1.231   0.323   6.427
  180SOL    HW2 1440   1.388   0.366   6.440
  181SOL     OW 1441   3.722   1.354   6.691
  181SOL    HW1 1442   3.773   1.440   6.689
  181SOL    HW2 1443   3.785   1.278   6.707
  182SOL     OW 1444   3.917   2.168   4.564
  182SOL    HW1 1445   3.978   2.228   4.512
  182SOL    HW2 1446   3.950   2.160   4.658
  183SOL     OW 1447   3.410   1.793   3.582
  183SOL    HW1 1448   3.410   1.847   3.666
  183SOL    HW2 1449   3.467   1.837   3.513
  184SOL     OW 1450   1.388   5.975   4.080
  184SOL    HW1 1451   1.379   6.071   4.053
  184SOL    HW2 1452   1.309   5.924   4.046
  185SOL     OW 1453   0.937   2.566   6.423
  185SOL    HW1 1454   0.971   2.624   6.496
  185SOL    HW2 1455   1.011   2.509   6.388
  186SOL     OW 1456   6.670   1.236   3.334
  186SOL    HW1 1457   6.755   1.185   3.322
  186SOL    HW2 1458   6.645   1.279   3.247
  187SOL     OW 1459   4.808   0.707   3.643
  187SOL    HW1 1460   4.797   0.738   3.737
  187SOL    HW2 1461   4.891   0.652   3.636
  188SOL     OW 1462   6.251   2.052   2.944
  188SOL    HW1 1463   6.157   2.078   2.920
  188SOL    HW2 1464   6.259   1.953   2.945
  189SOL     OW 1465   1.763   5.679   2.899
  189SOL    HW1 1466   1.724   5.770   2.914
  189SOL    HW2 1467   1.861   5.682   2.917
  190SOL     OW 1468   3.762   1.344   4.763
  190SOL    HW1 1469   3.804   1.404   4.695
  190SOL    HW2 1470   3.674   1.311   4.729
  191SOL     OW 1471   5.374   5.703   5.805
  191SOL    HW1 1472   5.353   5.792   5.846
  191SOL    HW2 1473   5.326   5.693   5.718
  192SOL     OW 1474   0.107   5.427   1.750
  192SOL    HW1 1475   0.084   5.382   1.836
  192SOL    HW2 1476   0.032   5.417   1.685
  193SOL     OW 1477   4.397   2.581   5.675
  193SOL    HW1 1478   4.484   2.533   5.665
  193SOL    HW2 1479   4.329   2.541   5.613
  194SOL     OW 1480   3.513   1.207   2.993
  194SOL    HW1 1481   3.469   1.146   2.927
  194SOL    HW2 1482   3.446   1.272   3.028
  195SOL     OW 1483   1.956   6.253   4.432
  195SOL    HW1 1484   1.907   6.202   4.503
  195SOL    HW2 1485   2.033   6.302   4.474
  196SOL     OW 1486   2.810   1.459   6.893
  196SOL    HW1 1487   2.893   1.452   6.837
  196SOL    HW2 1488   2.787   1.556   6.905
  197SOL     OW 1489   2.445   0.658   0.254
  197SOL    HW1 1490   2.488   0.731   0.306
  197SOL    HW2 1491   2.353   0.686   0.227
  198SOL     OW 1492   4.914   1.481   3.300
  198SOL    HW1 1493   5.011   1.488   3.325
  198SOL    HW2 1494   4.892   1.385   3.282
  199SOL     OW 1495   1.071   2.455   4.135
  199SOL    HW1 1496   1.076   2.499   4.046
  199SOL    HW2 1497   1.145   2.490   4.194
  200SOL     OW 1498   1.615   3.315   0.816
  200SOL    HW1 1499   1.586   3.378   0.888
  200SOL    HW2 1500   1.550   3.319   0.740
  201SOL     OW 1501   0.330   6.446   5.342
  201SOL    HW1 1502   0.231   6.455   5.330
  201SOL    HW2 1503   0.369   6.399   5.263
  202SOL     OW 1504   3.955   1.775   6.585
  202SOL    HW1 1505   4.018   1.792   6.509
  202SOL    HW2 1506   3.880   1.716   6.554
  203SOL     OW 1507   5.948   2.274   5.263
  203SOL    HW1 1508   5.868   2.294   5.207
  203SOL    HW2 1509   5.933   2.305   5.356
  204SOL     OW 1510   0.761   6.883   4.654
  204SOL    HW1 1511   0.692   6.881   4.726
  204SOL    HW2 1512   0.716   6.894   4.565
  205SOL     OW 1513   2.040   2.422   2.774
  205SOL    HW1 1514   2.069   2.486   2.845
  205SOL    HW2 1515   2.044   2.467   2.685
  206SOL     OW 1516   1.245   3.256   1.113
  206SOL    HW1 1517   1.344   3.274   1.118
  206SOL    HW2 1518   1.209   3.245   1.205
  207SOL     OW 1519   5.460   0.674   3.564
  207SOL    HW1 1520   5.559   0.661   3.563
  207SOL    HW2 1521   5.423   0.646   3.652
  208SOL     OW 1522   0.344   3.847   5.668
  208SOL    HW1 1523   0.301   3.857   5.577
  208SOL    HW2 1524   0.338   3.934   5.717
  209SOL     OW 1525   6.351   4.452   3.081
  209SOL    HW1 1526   6.444   4.415   3.090
  209SOL    HW2 1527   6.285   4.378   3.092
  210SOL     OW 1528   4.377   2.084   0.684
  210SOL    HW1 1529   4.342   1.995   0.712
  210SOL    HW2 1530   4.447   2.114   0.749
  211SOL     OW 1531   1.189   6.843   2.477
  211SOL    HW1 1532   1.192   6.745   2.499
  211SOL    HW2 1533   1.162   6.894   2.559
  212SOL     OW 1534   1.170   3.755   2.507
  212SOL    HW1 1535   1.156   3.657   2.520
  212SOL    HW2 1536   1.266   3.778   2.525
  213SOL     OW 1537   1.499   5.900   0.792
  213SOL    HW1 1538   1.513   5.987   0.839
  213SOL    HW2 1539   1.577   5.881   0.732
  214SOL     OW 1540   3.582   5.146   2.616
  214SOL    HW1 1541   3.498   5.141   2.671
  214SOL    HW2 1542   3.639   5.066   2.635
  215SOL     OW 1543   2.918   4.234   1.278
  215SOL    HW1 1544   3.008   4.195   1.259
  215SOL    HW2 1545   2.929   4.321   1.327
  216SOL     OW 1546   0.820   6.486   2.949
  216SOL    HW1 1547   0.877   6.462   3.027
  216SOL    HW2 1548   0.776   6.574   2.965
  217SOL     OW 1549   0.919   2.169   5.165
  217SOL    HW1 1550   0.826   2.182   5.133
  217SOL    HW2 1551   0.984   2.199   5.095
  218SOL     OW 1552   0.499   3.044   4.662
  218SOL    HW1 1553   0.593   3.041   4.627
  218SOL    HW2 1554   0.480   2.960   4.713
  219SOL     OW 1555   4.477   0.669   0.623
  219SOL    HW1 1556   4.481   0.649   0.525
  219SOL    HW2 1557   4.563   0.710   0.653
  220SOL     OW 1558   2.636   0.043   0.666
  220SOL    HW1 1559   2.721   7.015   0.671
  220SOL    HW2 1560   2.649   0.124   0.609
  221SOL     OW 1561   6.387   4.252   1.160
  221SOL    HW1 1562   6.376   4.153   1.161
  221SOL    HW2 1563   6.323   4.293   1.225
  222SOL     OW 1564   1.673   4.439   6.153
  222SOL    HW1 1565   1.719   4.490   6.226
  222SOL    HW2 1566   1.695   4.481   6.065
  223SOL     OW 1567   6.614   2.752   5.212
  223SOL    HW1 1568   6.525   2.790   5.189
  223SOL    HW2 1569   6.677   2.765   5.136
  224SOL     OW 1570   3.658   1.161   6.933
  224SOL    HW1 1571   3.683   1.256   6.914
  224SOL    HW2 1572   3.609   1.123   6.855
  225SOL     OW 1573   4.193   3.910   6.097
  225SOL    HW1 1574   4.239   3.983   6.149
  225SOL    HW2 1575   4.143   3.852   6.161
  226SOL     OW 1576   0.559   1.390   5.984
  226SOL    HW1 1577   0.465   1.364   6.005
  226SOL    HW2 1578   0.622   1.326   6.029
  227SOL     OW 1579   2.134   4.421   2.665
  227SOL    HW1 1580   2.100   4.470   2.585
  227SOL    HW2 1581   2.058   4.380   2.714
  228SOL     OW 1582   1.906   0.553   2.834
  228SOL    HW1 1583   1.837   0.593   2.773
  228SOL    HW2 1584   1.867   0.472   2.879
  229SOL     OW 1585   5.315   5.332   6.146
  229SOL    HW1 1586   5.290   5.368   6.056
  229SOL    HW2 1587   5.277   5.240   6.156
  230SOL     OW 1588   4.523   5.823   4.490
  230SOL    HW1 1589   4.615   5.807   4.526
  230SOL    HW2 1590   4.480   5.735   4.468
  231SOL     OW 1591   6.136   1.487   6.278
  231SOL    HW1 1592   6.065   1.498   6.348
  231SOL    HW2 1593   6.218   1.448   6.320
  232SOL     OW 1594   0.508   3.260   6.438
  232SOL    HW1 1595   0.423   3.238   6.391
  232SOL    HW2 1596   0.571   3.183   6.430
  233SOL     OW 1597   4.018   1.598   3.038
  233SOL    HW1 1598   4.108   1.563   3.064
  233SOL    HW2 1599   4.008   1.693   3.070
  234SOL     OW 1600   6.022   1.483   6.831
  234SOL    HW1 1601   6.086   1.406   6.832
  234SOL    HW2 1602   5.929   1.449   6.849
  235SOL     OW 1603   4.885   3.192   2.132
  235SOL    HW1 1604   4.952   3.131   2.175
  235SOL    HW2 1605   4.825   3.139   2.072
  236SOL     OW 1606   5.079   2.778   6.881
  236SOL    HW1 1607   5.088   2.865   6.834
  236SOL    HW2 1608   5.012   2.786   6.955
  237SOL     OW 1609   0.161   4.072   1.411
  237SOL    HW1 1610   0.185   4.157   1.458
  237SOL    HW2 1611   0.065   4.076   1.381
  238SOL     OW 1612   6.299   1.927   0.195
  238SOL    HW1 1613   6.256   1.853   0.247
  238SOL    HW2 1614   6.281   2.014   0.241
  239SOL     OW 1615   1.069   4.075   0.211
  239SOL    HW1 1616   1.110   3.989   0.179
  239SOL    HW2 1617   0.972   4.076   0.187
  240SOL     OW 1618   0.843   3.212   3.452
  240SOL    HW1 1619   0.919   3.152   3.424
  240SOL    HW2 1620   0.861   3.305   3.420
  241SOL     OW 1621   2.746   2.318   4.719
  241SOL    HW1 1622   2.721   2.368   4.802
  241SOL    HW2 1623   2.686   2.239   4.709
  242SOL     OW 1624   3.259   3.597   3.775
  242SOL    HW1 1625   3.314   3.567   3.697
  242SOL    HW2 1626   3.169   3.627   3.742
  243SOL     OW 1627   4.469   1.637   0.316
  243SOL    HW1 1628   4.543   1.657   0.381
  243SOL    HW2 1629   4.508   1.620   0.226
  244SOL     OW 1630   5.974   3.934   5.477
  244SOL    HW1 1631   5.992   4.031   5.490
  244SOL    HW2 1632   5.882   3.921   5.441
  245SOL     OW 1633   4.235   2.291   3.829
  245SOL    HW1 1634   4.201   2.304   3.736
  245SOL    HW2 1635   4.163   2.253   3.886
  246SOL     OW 1636   4.990   1.566   3.566
  246SOL    HW1 1637   4.930   1.523   3.499
  246SOL    HW2 1638   4.948   1.561   3.657
  247SOL     OW 1639   2.521   1.495   0.438
  247SOL    HW1 1640   2.602   1.523   0.489
  247SOL    HW2 1641   2.439   1.511   0.493
  248SOL     OW 1642   2.471   1.299   2.855
  248SOL    HW1 1643   2.395   1.360   2.875
  248SOL    HW2 1644   2.439   1.222   2.800
  249SOL     OW 1645   5.199   6.572   5.790
  249SOL    HW1 1646   5.268   6.639   5.817
  249SOL    HW2 1647   5.119   6.620   5.753
  250SOL     OW 1648   4.358   3.523   0.553
  250SOL    HW1 1649   4.346   3.450   0.485
  250SOL    HW2 1650   4.346   3.485   0.645
  251SOL     OW 1651   4.536   3.437   5.336
  251SOL    HW1 1652   4.510   3.504   5.405
  251SOL    HW2 1653   4.576   3.484   5.258
  252SOL     OW 1654   6.802   0.029   4.946
  252SOL    HW1 1655   6.861   0.010   5.025
  252SOL    HW2 1656   6.734   6.980   4.936
  253SOL     OW 1657   3.639   5.288   6.770
  253SOL    HW1 1658   3.589   5.336   6.697
  253SOL    HW2 1659   3.630   5.190   6.756
  254SOL     OW 1660   6.467   2.274   3.688
  254SOL    HW1 1661   6.503   2.273   3.782
  254SOL    HW2 1662   6.367   2.275   3.691
  255SOL     OW 1663   2.361   4.631   5.737
  255SOL    HW1 1664   2.358   4.720   5.781
  255SOL    HW2 1665   2.268   4.597   5.722
  256SOL     OW 1666   5.584   3.335   5.737
  256SOL    HW1 1667   5.512   3.394   5.701
  256SOL    HW2 1668   5.550   3.241   5.741
  257SOL     OW 1669   5.187   0.086   3.402
  257SOL    HW1 1670   5.119   0.115   3.469
  257SOL    HW2 1671   5.203   0.160   3.336
  258SOL     OW 1672   2.388   4.213   5.303
  258SOL    HW1 1673   2.410   4.202   5.400
  258SOL    HW2 1674   2.397   4.125   5.256
  259SOL     OW 1675   5.896   0.536   2.331
  259SOL    HW1 1676   5.802   0.522   2.362
  259SOL    HW2 1677   5.906   0.500   2.238
  260SOL     OW 1678   4.016   5.590   3.176
  260SOL    HW1 1679   4.000   5.492   3.171
  260SOL    HW2 1680   3.987   5.633   3.090
  261SOL     OW 1681   5.678   3.806   1.368
  261SOL    HW1 1682   5.593   3.755   1.381
  261SOL    HW2 1683   5.658   3.903   1.358
  262SOL     OW 1684   0.909   4.116   0.465
  262SOL    HW1 1685   0.894   4.135   0.368
  262SOL    HW2 1686   0.936   4.201   0.512
  263SOL     OW 1687   1.745   0.703   4.359
  263SOL    HW1 1688   1.756   0.757   4.275
  263SOL    HW2 1689   1.658   0.728   4.402
  264SOL     OW 1690   6.661   2.245   0.041
  264SOL    HW1 1691   6.745   2.289   0.073
  264SOL    HW2 1692   6.604   2.311   7.016
  265SOL     OW 1693   5.668   6.299   3.140
  265SOL    HW1 1694   5.617   6.280   3.056
  265SOL    HW2 1695   5.717   6.386   3.131
  266SOL     OW 1696   4.690   2.967   5.967
  266SOL    HW1 1697   4.652   2.920   5.887
  266SOL    HW2 1698   4.717   2.900   6.036
  267SOL     OW 1699   0.527   1.753   5.927
  267SOL    HW1 1700   0.520   1.694   6.007
  267SOL    HW2 1701   0.619   1.746   5.889
  268SOL     OW 1702   2.876   1.161   6.209
  268SOL    HW1 1703   2.914   1.243   6.253
  268SOL    HW2 1704   2.915   1.151   6.118
  269SOL     OW 1705   2.237   4.233   1.157
  269SOL    HW1 1706   2.271   4.239   1.251
  269SOL    HW2 1707   2.296   4.172   1.104
  270SOL     OW 1708   0.845   6.384   0.950
  270SOL    HW1 1709   0.847   6.312   1.020
  270SOL    HW2 1710   0.901   6.355   0.872
  271SOL     OW 1711   6.957   1.829   5.988
  271SOL    HW1 1712   0.003   1.872   6.044
  271SOL    HW2 1713   6.866   1.856   6.019
  272SOL     OW 1714   3.630   6.269   4.116
  272SOL    HW1 1715   3.604   6.211   4.193
  272SOL    HW2 1716   3.550   6.321   4.085
  273SOL     OW 1717   2.377   4.472   4.555
  273SOL    HW1 1718   2.308   4.493   4.485
  273SOL    HW2 1719   2.338   4.487   4.646
  274SOL     OW 1720   3.973   1.664   3.595
  274SOL    HW1 1721   3.897   1.724   3.570
  274SOL    HW2 1722   4.049   1.719   3.629
  275SOL     OW 1723   6.301   5.686   2.903
  275SOL    HW1 1724   6.257   5.737   2.977
  275SOL    HW2 1725   6.338   5.751   2.836
  276SOL     OW 1726   6.706   6.781   3.800
  276SOL    HW1 1727   6.625   6.797   3.855
  276SOL    HW2 1728   6.781   6.840   3.831
  277SOL     OW 1729   1.847   4.084   0.411
  277SOL    HW1 1730   1.774   4.027   0.373
  277SOL    HW2 1731   1.814   4.129   0.494
  278SOL     OW 1732   0.420   3.506   1.852
  278SOL    HW1 1733   0.413   3.605   1.864
  278SOL    HW2 1734   0.510   3.483   1.814
  279SOL     OW 1735   5.511   3.035   4.537
  279SOL    HW1 1736   5.460   2.985   4.607
  279SOL    HW2 1737   5.599   3.065   4.574
  280SOL     OW 1738   2.961   5.403   1.920
  280SOL    HW1 1739   2.899   5.379   1.995
  280SOL    HW2 1740   3.024   5.475   1.949
  281SOL     OW 1741   2.455   4.892   1.860
  281SOL    HW1 1742   2.470   4.958   1.934
  281SOL    HW2 1743   2.540   4.843   1.842
  282SOL     OW 1744   2.935   1.516   5.539
  282SOL    HW1 1745   2.836   1.533   5.532
  282SOL    HW2 1746   2.975   1.582   5.603
  283SOL     OW 1747   6.159   2.722   6.642
  283SOL    HW1 1748   6.105   2.652   6.690
  283SOL    HW2 1749   6.165   2.804   6.699
  284SOL     OW 1750   1.433   3.247   4.047
  284SOL    HW1 1751   1.461   3.169   4.101
  284SOL    HW2 1752   1.341   3.275   4.074
  285SOL     OW 1753   5.023   5.045   4.251
  285SOL    HW1 1754   5.097   5.071   4.314
  285SOL    HW2 1755   4.951   4.999   4.303
  286SOL     OW 1756   3.325   4.648   0.096
  286SOL    HW1 1757   3.410   4.679   0.054
  286SOL    HW2 1758   3.262   4.725   0.107
  287SOL     OW 1759   1.325   3.165   0.727
  287SOL    HW1 1760   1.274   3.080   0.713
  287SOL    HW2 1761   1.374   3.160   0.814
  288SOL     OW 1762   3.581   1.880   6.888
  288SOL    HW1 1763   3.538   1.941   6.821
  288SOL    HW2 1764   3.579   1.923   6.978
  289SOL     OW 1765   1.976   4.200   5.386
  289SOL    HW1 1766   2.039   4.238   5.319
  289SOL    HW2 1767   1.999   4.103   5.402
  290SOL     OW 1768   6.081   1.850   4.698
  290SOL    HW1 1769   6.021   1.907   4.754
  290SOL    HW2 1770   6.164   1.829   4.749
  291SOL     OW 1771   0.534   1.725   4.327
  291SOL    HW1 1772   0.451   1.780   4.323
  291SOL    HW2 1773   0.511   1.634   4.361
  292SOL     OW 1774   2.344   1.662   3.094
  292SOL    HW1 1775   2.311   1.738   3.150
  292SOL    HW2 1776   2.342   1.689   2.997
  293SOL     OW 1777   4.359   5.604   2.990
  293SOL    HW1 1778   4.432   5.581   3.054
  293SOL    HW2 1779   4.307   5.682   3.026
  294SOL     OW 1780   6.530   5.939   6.490
  294SOL    HW1 1781   6.596   5.874   6.527
  294SOL    HW2 1782   6.443   5.893   6.474
  295SOL     OW 1783   3.381   1.421   3.114
  295SOL    HW1 1784   3.289   1.460   3.104
  295SOL    HW2 1785   3.440   1.487   3.161
  296SOL     OW 1786   3.104   1.650   2.481
  296SOL    HW1 1787   3.008   1.622   2.472
  296SOL    HW2 1788   3.115   1.707   2.563
  297SOL     OW 1789   2.304   4.266   3.937
  297SOL    HW1 1790   2.325   4.220   3.851
  297SOL    HW2 1791   2.205   4.271   3.949
  298SOL     OW 1792   4.381   6.116   1.432
  298SOL    HW1 1793   4.426   6.120   1.343
  298SOL    HW2 1794   4.323   6.196   1.444
  299SOL     OW 1795   5.316   3.677   5.262
  299SOL    HW1 1796   5.369   3.648   5.341
  299SOL    HW2 1797   5.238   3.617   5.249
  300SOL     OW 1798   6.721   0.533   2.421
  300SOL    HW1 1799   6.762   0.485   2.499
  300SOL    HW2 1800   6.629   0.564   2.445
  301SOL     OW 1801   5.627   3.824   0.422
  301SOL    HW1 1802   5.700   3.803   0.488
  301SOL    HW2 1803   5.664   3.821   0.330
  302SOL     OW 1804   1.602   0.462   3.253
  302SOL    HW1 1805   1.621   0.440   3.349
  302SOL    HW2 1806   1.506   0.491   3.244
  303SOL     OW 1807   5.062   0.406   1.918
  303SOL    HW1 1808   5.139   0.408   1.855
  303SOL    HW2 1809   5.073   0.330   1.982
  304SOL     OW 1810   1.984   0.037   3.381
  304SOL    HW1 1811   1.963   0.109   3.315
  304SOL    HW2 1812   2.043   0.073   3.453
  305SOL     OW 1813   0.462   3.325   6.712
  305SOL    HW1 1814   0.366   3.340   6.735
  305SOL    HW2 1815   0.470   3.309   6.614
  306SOL     OW 1816   1.392   1.523   4.166
  306SOL    HW1 1817   1.318   1.513   4.101
  306SOL    HW2 1818   1.465   1.458   4.145
  307SOL     OW 1819   5.170   6.665   1.406
  307SOL    HW1 1820   5.087   6.616   1.381
  307SOL    HW2 1821   5.155   6.717   1.490
  308SOL     OW 1822   7.019   5.175   4.133
  308SOL    HW1 1823   6.986   5.260   4.175
  308SOL    HW2 1824   6.941   5.121   4.101
  309SOL     OW 1825   3.807   4.523   5.384
  309SOL    HW1 1826   3.886   4.565   5.340
  309SOL    HW2 1827   3.777   4.444   5.330
  310SOL     OW 1828   5.684   6.995   5.739
  310SOL    HW1 1829   5.688   6.937   5.657
  310SOL    HW2 1830   5.712   6.942   5.819
  311SOL     OW 1831   6.876   5.067   2.041
  311SOL    HW1 1832   6.810   5.028   2.105
  311SOL    HW2 1833   6.828   5.100   1.960
  312SOL     OW 1834   4.687   1.636   5.058
  312SOL    HW1 1835   4.697   1.731   5.029
  312SOL    HW2 1836   4.609   1.629   5.120
  313SOL     OW 1837   2.536   4.254   1.644
  313SOL    HW1 1838   2.600   4.330   1.635
  313SOL    HW2 1839   2.575   4.173   1.600
  314SOL     OW 1840   3.406   5.700   0.756
  314SOL    HW1 1841   3.429   5.767   0.686
  314SOL    HW2 1842   3.362   5.620   0.713
  315SOL     OW 1843   0.838   2.071   3.187
  315SOL    HW1 1844   0.775   2.142   3.155
  315SOL    HW2 1845   0.788   2.003   3.241
  316SOL     OW 1846   2.307   2.586   4.614
  316SOL    HW1 1847   2.312   2.671   4.666
  316SOL    HW2 1848   2.232   2.529   4.649
  317SOL     OW 1849   0.717   1.628   6.908
  317SOL    HW1 1850   0.713   1.531   6.885
  317SOL    HW2 1851   0.795   1.645   6.968
  318SOL     OW 1852   1.341   5.282   0.985
  318SOL    HW1 1853   1.277   5.334   0.927
  318SOL    HW2 1854   1.354   5.191   0.945
  319SOL     OW 1855   0.970   0.095   2.001
  319SOL    HW1 1856   0.926   0.123   2.086
  319SOL    HW2 1857   1.065   0.126   2.000
  320SOL     OW 1858   6.154   2.496   7.013
  320SOL    HW1 1859   6.068   2.490   0.040
  320SOL    HW2 1860   6.185   2.404   6.989
  321SOL     OW 1861   2.304   1.924   2.329
  321SOL    HW1 1862   2.379   1.934   2.394
  321SOL    HW2 1863   2.223   1.970   2.364
  322SOL     OW 1864   3.205   3.029   4.240
  322SOL    HW1 1865   3.243   3.033   4.333
  322SOL    HW2 1866   3.120   2.977   4.241
  323SOL     OW 1867   0.629   4.379   0.464
  323SOL    HW1 1868   0.702   4.402   0.400
  323SOL    HW2 1869   0.579   4.462   0.488
  324SOL     OW 1870   0.823   2.974   4.446
  324SOL    HW1 1871   0.851   3.070   4.440
  324SOL    HW2 1872   0.781   2.947   4.360
  325SOL     OW 1873   2.256   3.194   1.209
  325SOL    HW1 1874   2.300   3.103   1.205
  325SOL    HW2 1875   2.286   3.241   1.292
  326SOL     OW 1876   1.885   6.168   6.747
  326SOL    HW1 1877   1.787   6.185   6.755
  326SOL    HW2 1878   1.935   6.231   6.806
  327SOL     OW 1879   0.463   4.920   4.367
  327SOL    HW1 1880   0.443   5.014   4.393
  327SOL    HW2 1881   0.444   4.907   4.270
  328SOL     OW 1882   3.769   5.316   2.523
  328SOL    HW1 1883   3.686   5.265   2.546
  328SOL    HW2 1884   3.762   5.408   2.562
  329SOL     OW 1885   3.341   4.132   3.269
  329SOL    HW1 1886   3.399   4.175   3.200
  329SOL    HW2 1887   3.385   4.137   3.359
  330SOL     OW 1888   2.936   6.476   2.001
  330SOL    HW1 1889   2.903   6.437   1.915
  330SOL    HW2 1890   2.866   6.465   2.071
  331SOL     OW 1891   4.779   5.516   6.365
  331SOL    HW1 1892   4.872   5.548   6.346
  331SOL    HW2 1893   4.723   5.593   6.395
  332SOL     OW 1894   3.387   2.056   3.787
  332SOL    HW1 1895   3.371   2.151   3.759
  332SOL    HW2 1896   3.310   2.023   3.841
  333SOL     OW 1897   3.911   0.206   6.621
  333SOL    HW1 1898   4.002   0.242   6.642
  333SOL    HW2 1899   3.870   0.168   6.704
  334SOL     OW 1900   3.074   6.827   2.341
  334SOL    HW1 1901   3.007   6.897   2.316
  334SOL    HW2 1902   3.029   6.737   2.340
  335SOL     OW 1903   3.741   5.880   3.841
  335SOL    HW1 1904   3.785   5.851   3.926
  335SOL    HW2 1905   3.780   5.829   3.764
  336SOL     OW 1906   2.262   1.275   3.415
  336SOL    HW1 1907   2.222   1.323   3.337
  336SOL    HW2 1908   2.361   1.282   3.411
  337SOL     OW 1909   7.015   3.083   1.191
  337SOL    HW1 1910   0.040   3.170   1.184
  337SOL    HW2 1911   0.040   3.023   1.254
  338SOL     OW 1912   2.849   3.049   1.707
  338SOL    HW1 1913   2.871   3.104   1.788
  338SOL    HW2 1914   2.854   3.107   1.626
  339SOL     OW 1915   4.011   0.604   2.959
  339SOL    HW1 1916   4.092   0.557   2.994
  339SOL    HW2 1917   3.951   0.538   2.913
  340SOL     OW 1918   5.383   4.187   4.616
  340SOL    HW1 1919   5.434   4.263   4.656
  340SOL    HW2 1920   5.438   4.145   4.544
  341SOL     OW 1921   5.383   6.232   3.953
  341SOL    HW1 1922   5.463   6.292   3.948
  341SOL    HW2 1923   5.364   6.209   4.048
  342SOL     OW 1924   5.742   4.494   6.678
  342SOL    HW1 1925   5.838   4.470   6.663
  342SOL    HW2 1926   5.734   4.545   6.764
  343SOL     OW 1927   2.856   6.396   1.725
  343SOL    HW1 1928   2.953   6.415   1.707
  343SOL    HW2 1929   2.836   6.301   1.699
  344SOL     OW 1930   2.092   5.192   0.703
  344SOL    HW1 1931   2.143   5.272   0.671
  344SOL    HW2 1932   2.141   5.109   0.675
  345SOL     OW 1933   0.330   0.645   5.712
  345SOL    HW1 1934   0.383   0.722   5.748
  345SOL    HW2 1935   0.273   0.607   5.785
  346SOL     OW 1936   1.265   0.904   2.997
  346SOL    HW1 1937   1.237   0.836   2.929
  346SOL    HW2 1938   1.363   0.922   2.987
  347SOL     OW 1939   5.858   0.371   6.623
  347SOL    HW1 1940   5.858   0.461   6.666
  347SOL    HW2 1941   5.952   0.340   6.611
  348SOL     OW 1942   4.154   5.157   1.672
  348SOL    HW1 1943   4.094   5.096   1.619
  348SOL    HW2 1944   4.133   5.252   1.650
  349SOL     OW 1945   0.503   4.506   2.193
  349SOL    HW1 1946   0.481   4.602   2.174
  349SOL    HW2 1947   0.420   4.451   2.185
  350SOL     OW 1948   4.053   3.710   1.673
  350SOL    HW1 1949   4.059   3.702   1.772
  350SOL    HW2 1950   3.996   3.636   1.637
  351SOL     OW 1951   2.771   2.165   0.646
  351SOL    HW1 1952   2.855   2.180   0.699
  351SOL    HW2 1953   2.753   2.246   0.590
  352SOL     OW 1954   3.762   0.690   4.955
  352SOL    HW1 1955   3.796   0.623   4.889
  352SOL    HW2 1956   3.662   0.691   4.953
  353SOL     OW 1957   2.061   6.482   0.451
  353SOL    HW1 1958   2.063   6.544   0.372
  353SOL    HW2 1959   2.149   6.436   0.460
  354SOL     OW 1960   4.119   2.311   0.767
  354SOL    HW1 1961   4.037   2.352   0.805
  354SOL    HW2 1962   4.177   2.277   0.842
  355SOL     OW 1963   6.872   2.923   2.432
  355SOL    HW1 1964   6.939   2.903   2.361
  355SOL    HW2 1965   6.875   2.851   2.501
  356SOL     OW 1966   4.713   4.992   5.093
  356SOL    HW1 1967   4.782   4.932   5.051
  356SOL    HW2 1968   4.713   5.081   5.047
  357SOL     OW 1969   0.731   6.240   5.928
  357SOL    HW1 1970   0.686   6.160   5.890
  357SOL    HW2 1971   0.751   6.225   6.025
  358SOL     OW 1972   6.365   0.365   1.696
  358SOL    HW1 1973   6.393   0.460   1.691
  358SOL    HW2 1974   6.426   0.316   1.759
  359SOL     OW 1975   1.318   2.680   2.331
  359SOL    HW1 1976   1.222   2.687   2.304
  359SOL    HW2 1977   1.374   2.733   2.267
  360SOL     OW 1978   3.511   6.653   6.078
  360SOL    HW1 1979   3.421   6.613   6.062
  360SOL    HW2 1980   3.544   6.696   5.994
  361SOL     OW 1981   5.227   5.510   3.178
  361SOL    HW1 1982   5.201   5.438   3.242
  361SOL    HW2 1983   5.177   5.499   3.092
  362SOL     OW 1984   2.775   4.305   0.257
  362SOL    HW1 1985   2.719   4.380   0.291
  362SOL    HW2 1986   2.871   4.320   0.284
  363SOL     OW 1987   3.850   4.907   4.260
  363SOL    HW1 1988   3.909   4.964   4.204
  363SOL    HW2 1989   3.872   4.921   4.357
  364SOL     OW 1990   0.472   5.467   5.749
  364SOL    HW1 1991   0.433   5.375   5.749
  364SOL    HW2 1992   0.497   5.493   5.656
  365SOL     OW 1993   4.908   5.888   2.690
  365SOL    HW1 1994   4.847   5.950   2.739
  365SOL    HW2 1995   5.003   5.906   2.716
  366SOL     OW 1996   6.131   1.526   0.081
  366SOL    HW1 1997   6.118   1.557   7.010
  366SOL    HW2 1998   6.049   1.478   0.113
  367SOL     OW 1999   5.128   3.026   0.901
  367SOL    HW1 2000   5.175   2.939   0.887
  367SOL    HW2 2001   5.123   3.046   0.999
  368SOL     OW 2002   1.510   4.891   4.879
  368SOL    HW1 2003   1.603   4.853   4.878
  368SOL    HW2 2004   1.510   4.979   4.926
  369SOL     OW 2005   6.390   4.406   1.638
  369SOL    HW1 2006   6.361   4.434   1.730
  369SOL    HW2 2007   6.454   4.330   1.646
  370SOL     OW 2008   2.461   0.359   5.844
  370SOL    HW1 2009   2.520   0.423   5.895
  370SOL    HW2 2010   2.504   0.338   5.756
  371SOL     OW 2011   2.556   3.815   6.986
  371SOL    HW1 2012   2.645   3.792   0.001
  371SOL    HW2 2013   2.564   3.832   6.888
  372SOL     OW 2014   6.857   0.441   5.067
  372SOL    HW1 2015   6.814   0.531   5.061
  372SOL    HW2 2016   6.932   0.445   5.134
  373SOL     OW 2017   0.202   6.443   6.685
  373SOL    HW1 2018   0.166   6.442   6.592
  373SOL    HW2 2019   0.242   6.353   6.707
  374SOL     OW 2020   3.609   0.393   2.880
  374SOL    HW1 2021   3.692   0.434   2.844
  374SOL    HW2 2022   3.530   0.426   2.828
  375SOL     OW 2023   6.397   5.068   3.646
  375SOL    HW1 2024   6.313   5.066   3.700
  375SOL    HW2 2025   6.466   5.122   3.695
  376SOL     OW 2026   1.536   2.828   3.737
  376SOL    HW1 2027   1.474   2.838   3.659
  376SOL    HW2 2028   1.576   2.917   3.760
  377SOL     OW 2029   5.270   2.371   2.754
  377SOL    HW1 2030   5.215   2.406   2.829
  377SOL    HW2 2031   5.358   2.418   2.752
  378SOL     OW 2032   3.869   3.625   5.734
  378SOL    HW1 2033   3.931   3.549   5.720
  378SOL    HW2 2034   3.791   3.595   5.789
  379SOL     OW 2035   5.785   3.586   1.082
  379SOL    HW1 2036   5.804   3.684   1.071
  379SOL    HW2 2037   5.686   3.572   1.087
  380SOL     OW 2038   1.346   1.604   1.047
  380SOL    HW1 2039   1.343   1.505   1.035
  380SOL    HW2 2040   1.353   1.626   1.144
  381SOL     OW 2041   2.795   5.169   1.497
  381SOL    HW1 2042   2.792   5.071   1.520
  381SOL    HW2 2043   2.849   5.217   1.566
  382SOL     OW 2044   3.166   5.726   0.384
  382SOL    HW1 2045   3.207   5.682   0.464
  382SOL    HW2 2046   3.109   5.803   0.414
  383SOL     OW 2047   6.910   2.661   6.628
  383SOL    HW1 2048   6.901   2.619   6.538
  383SOL    HW2 2049   6.881   2.596   6.699
  384SOL     OW 2050   0.123   5.388   5.538
  384SOL    HW1 2051   0.163   5.452   5.472
  384SOL    HW2 2052   0.027   5.414   5.555
  385SOL     OW 2053   4.628   6.159   0.243
  385SOL    HW1 2054   4.596   6.183   0.335
  385SOL    HW2 2055   4.550   6.127   0.189
  386SOL     OW 2056   4.104   6.771   4.930
  386SOL    HW1 2057   4.033   6.763   5.000
  386SOL    HW2 2058   4.061   6.781   4.840
  387SOL     OW 2059   0.100   0.459   4.134
  387SOL    HW1 2060   0.181   0.409   4.163
  387SOL    HW2 2061   0.102   0.472   4.035
  388SOL     OW 2062   6.982   3.112   5.292
  388SOL    HW1 2063   6.912   3.127   5.222
  388SOL    HW2 2064   6.992   3.194   5.348
  389SOL     OW 2065   4.340   4.371   1.678
  389SOL    HW1 2066   4.257   4.325   1.645
  389SOL    HW2 2067   4.396   4.306   1.729
  390SOL     OW 2068   3.820   1.405   0.869
  390SOL    HW1 2069   3.728   1.431   0.840
  390SOL    HW2 2070   3.864   1.484   0.911
  391SOL     OW 2071   3.152   3.986   6.261
  391SOL    HW1 2072   3.161   4.057   6.191
  391SOL    HW2 2073   3.057   3.956   6.266
  392SOL     OW 2074   1.549   3.951   2.057
  392SOL    HW1 2075   1.638   3.966   2.013
  392SOL    HW2 2076   1.559   3.962   2.156
  393SOL     OW 2077   1.053   4.567   0.986
  393SOL    HW1 2078   0.966   4.580   0.940
  393SOL    HW2 2079   1.082   4.654   1.028
  394SOL     OW 2080   6.426   2.607   6.717
  394SOL    HW1 2081   6.502   2.670   6.699
  394SOL    HW2 2082   6.340   2.658   6.720
  395SOL     OW 2083   4.691   4.317   1.761
  395SOL    HW1 2084   4.660   4.306   1.666
  395SOL    HW2 2085   4.618   4.288   1.823
  396SOL     OW 2086   3.275   2.065   2.443
  396SOL    HW1 2087   3.256   2.072   2.345
  396SOL    HW2 2088   3.191   2.080   2.495
  397SOL     OW 2089   4.623   1.279   5.404
  397SOL    HW1 2090   4.651   1.193   5.447
  397SOL    HW2 2091   4.705   1.332   5.382
  398SOL     OW 2092   1.342   0.082   4.562
  398SOL    HW1 2093   1.338   0.049   4.467
  398SOL    HW2 2094   1.395   0.166   4.566
  399SOL     OW 2095   5.002   5.336   3.954
  399SOL    HW1 2096   4.955   5.326   4.042
  399SOL    HW2 2097   4.935   5.342   3.880
  400SOL     OW 2098   5.956   0.656   4.414
  400SOL    HW1 2099   5.860   0.647   4.389
  400SOL    HW2 2100   6.013   0.658   4.332
  401SOL     OW 2101   6.491   6.905   5.898
  401SOL    HW1 2102   6.405   6.874   5.857
  401SOL    HW2 2103   6.564   6.900   5.830
  402SOL     OW 2104   6.333   6.909   2.636
  402SOL    HW1 2105   6.256   6.935   2.578
  402SOL    HW2 2106   6.417   6.906   2.582
  403SOL     OW 2107   2.832   0.831   6.431
  403SOL    HW1 2108   2.806   0.843   6.335
  403SOL    HW2 2109   2.817   0.737   6.458
  404SOL     OW 2110   3.722   5.759   5.693
  404SOL    HW1 2111   3.748   5.734   5.786
  404SOL    HW2 2112   3.805   5.772   5.638
  405SOL     OW 2113   2.051   3.799   3.637
  405SOL    HW1 2114   2.071   3.761   3.727
  405SOL    HW2 2115   2.062   3.899   3.639
  406SOL     OW 2116   0.244   5.228   5.714
  406SOL    HW1 2117   0.272   5.145   5.666
  406SOL    HW2 2118   0.195   5.288   5.652
  407SOL     OW 2119   1.156   3.119   4.061
  407SOL    HW1 2120   1.140   3.181   4.138
  407SOL    HW2 2121   1.103   3.035   4.075
  408SOL     OW 2122   3.098   1.551   3.120
  408SOL    HW1 2123   3.015   1.521   3.073
  408SOL    HW2 2124   3.138   1.628   3.070
  409SOL     OW 2125   1.362   4.059   2.747
  409SOL    HW1 2126   1.376   4.136   2.686
  409SOL    HW2 2127   1.399   3.976   2.706
  410SOL     OW 2128   1.840   2.607   1.348
  410SOL    HW1 2129   1.792   2.692   1.324
  410SOL    HW2 2130   1.827   2.588   1.445
  411SOL     OW 2131   0.182   2.269   1.602
  411SOL    HW1 2132   0.165   2.215   1.685
  411SOL    HW2 2133   0.281   2.274   1.586
  412SOL     OW 2134   2.172   5.083   2.708
  412SOL    HW1 2135   2.116   5.128   2.637
  412SOL    HW2 2136   2.226   5.010   2.667
  413SOL     OW 2137   4.160   4.815   2.606
  413SOL    HW1 2138   4.100   4.787   2.530
  413SOL    HW2 2139   4.173   4.914   2.603
  414SOL     OW 2140   2.699   6.666   3.769
  414SOL    HW1 2141   2.618   6.681   3.712
  414SOL    HW2 2142   2.686   6.585   3.825
  415SOL     OW 2143   6.470   0.621   0.495
  415SOL    HW1 2144   6.404   0.553   0.525
  415SOL    HW2 2145   6.424   0.708   0.481
  416SOL     OW 2146   4.948   3.518   4.790
  416SOL    HW1 2147   4.893   3.536   4.871
  416SOL    HW2 2148   5.030   3.576   4.793
  417SOL     OW 2149   3.730   2.230   6.773
  417SOL    HW1 2150   3.805   2.199   6.833
  417SOL    HW2 2151   3.749   2.201   6.679
  418SOL     OW 2152   3.572   6.115   4.359
  418SOL    HW1 2153   3.645   6.182   4.368
  418SOL    HW2 2154   3.598   6.031   4.408
  419SOL     OW 2155   0.950   6.933   1.814
  419SOL    HW1 2156   1.033   6.954   1.763
  419SOL    HW2 2157   0.947   6.987   1.897
  420SOL     OW 2158   6.291   0.545   6.546
  420SOL    HW1 2159   6.238   0.578   6.468
  420SOL    HW2 2160   6.386   0.533   6.520
  421SOL     OW 2161   5.069   4.131   3.980
  421SOL    HW1 2162   5.030   4.121   3.888
  421SOL    HW2 2163   5.013   4.081   4.045
  422SOL     OW 2164   5.606   2.660   1.712
  422SOL    HW1 2165   5.636   2.748   1.748
  422SOL    HW2 2166   5.628   2.588   1.778
  423SOL     OW 2167   3.037   1.358   6.319
  423SOL    HW1 2168   3.136   1.363   6.332
  423SOL    HW2 2169   3.004   1.443   6.279
  424SOL     OW 2170   1.493   4.418   3.287
  424SOL    HW1 2171   1.450   4.413   3.197
  424SOL    HW2 2172   1.429   4.460   3.352
  425SOL     OW 2173   3.494   0.658   5.424
  425SOL    HW1 2174   3.547   0.725   5.370
  425SOL    HW2 2175   3.555   0.585   5.455
  426SOL     OW 2176   2.463   2.388   4.503
  426SOL    HW1 2177   2.394   2.450   4.539
  426SOL    HW2 2178   2.478   2.313   4.567
  427SOL     OW 2179   4.420   1.861   3.416
  427SOL    HW1 2180   4.378   1.912   3.341
  427SOL    HW2 2181   4.519   1.874   3.414
  428SOL     OW 2182   2.586   1.140   5.074
  428SOL    HW1 2183   2.630   1.230   5.072
  428SOL    HW2 2184   2.575   1.107   4.980
  429SOL     OW 2185   1.127   6.157   3.712
  429SOL    HW1 2186   1.036   6.135   3.746
  429SOL    HW2 2187   1.123   6.175   3.614
  430SOL     OW 2188   1.941   6.799   3.437
  430SOL    HW1 2189   1.963   6.894   3.416
  430SOL    HW2 2190   2.020   6.741   3.417
  431SOL     OW 2191   2.480   2.024   1.846
  431SOL    HW1 2192   2.579   2.036   1.855
  431SOL    HW2 2193   2.450   2.056   1.756
  432SOL     OW 2194   4.177   2.211   1.583
  432SOL    HW1 2195   4.096   2.264   1.607
  432SOL    HW2 2196   4.253   2.239   1.642
  433SOL     OW 2197   2.428   6.967   6.780
  433SOL    HW1 2198   2.442   6.975   6.879
  433SOL    HW2 2199   2.411   6.872   6.756
  434SOL     OW 2200   4.242   6.497   3.821
  434SOL    HW1 2201   4.212   6.448   3.904
  434SOL    HW2 2202   4.257   6.431   3.748
  435SOL     OW 2203   3.182   1.545   6.035
  435SOL    HW1 2204   3.085   1.524   6.047
  435SOL    HW2 2205   3.196   1.643   6.051
  436SOL     OW 2206   4.382   0.085   3.092
  436SOL    HW1 2207   4.296   0.135   3.105
  436SOL    HW2 2208   4.373   7.016   3.129
  437SOL     OW 2209   0.074   6.998   4.481
  437SOL    HW1 2210   0.006   0.048   4.475
  437SOL    HW2 2211   0.157   0.002   4.432
  438SOL     OW 2212   0.993   4.397   2.812
  438SOL    HW1 2213   0.911   4.423   2.862
  438SOL    HW2 2214   0.983   4.422   2.716
  439SOL     OW 2215   5.422   0.484   3.004
  439SOL    HW1 2216   5.503   0.506   3.059
  439SOL    HW2 2217   5.451   0.444   2.917
  440SOL     OW 2218   4.249   1.141   0.327
  440SOL    HW1 2219   4.291   1.193   0.252
  440SOL    HW2 2220   4.154   1.168   0.338
  441SOL     OW 2221   0.387   4.470   2.607
  441SOL    HW1 2222   0.476   4.456   2.565
  441SOL    HW2 2223   0.376   4.566   2.633
  442SOL     OW 2224   5.363   3.451   5.588
  442SOL    HW1 2225   5.351   3.397   5.505
  442SOL    HW2 2226   5.399   3.541   5.564
  443SOL     OW 2227   4.827   3.870   2.795
  443SOL    HW1 2228   4.916   3.877   2.840
  443SOL    HW2 2229   4.788   3.779   2.810
  444SOL     OW 2230   4.483   0.924   1.271
  444SOL    HW1 2231   4.447   0.933   1.179
  444SOL    HW2 2232   4.505   1.015   1.307
  445SOL     OW 2233   1.752   5.196   2.360
  445SOL    HW1 2234   1.789   5.195   2.267
  445SOL    HW2 2235   1.780   5.113   2.407
  446SOL     OW 2236   5.670   6.691   2.069
  446SOL    HW1 2237   5.605   6.694   1.993
  446SOL    HW2 2238   5.672   6.780   2.115
  447SOL     OW 2239   5.889   3.858   6.892
  447SOL    HW1 2240   5.961   3.854   6.961
  447SOL    HW2 2241   5.823   3.784   6.908
  448SOL     OW 2242   2.830   0.196   3.373
  448SOL    HW1 2243   2.900   0.193   3.444
  448SOL    HW2 2244   2.794   0.289   3.366
  449SOL     OW 2245   1.977   2.893   4.466
  449SOL    HW1 2246   1.893   2.845   4.491
  449SOL    HW2 2247   2.014   2.852   4.383
  450SOL     OW 2248   0.761   4.055   3.385
  450SOL    HW1 2249   0.756   4.024   3.291
  450SOL    HW2 2250   0.737   4.152   3.389
  451SOL     OW 2251   1.036   2.310   2.625
  451SOL    HW1 2252   0.949   2.259   2.621
  451SOL    HW2 2253   1.054   2.339   2.719
  452SOL     OW 2254   4.486   6.093   3.169
  452SOL    HW1 2255   4.567   6.153   3.170
  452SOL    HW2 2256   4.437   6.107   3.083
  453SOL     OW 2257   3.786   0.702   0.099
  453SOL    HW1 2258   3.755   0.653   0.181
  453SOL    HW2 2259   3.727   0.679   0.022
  454SOL     OW 2260   0.357   4.416   6.456
  454SOL    HW1 2261   0.301   4.478   6.401
  454SOL    HW2 2262   0.299   4.365   6.519
  455SOL     OW 2263   6.444   4.799   6.199
  455SOL    HW1 2264   6.357   4.849   6.197
  455SOL    HW2 2265   6.501   4.828   6.122
  456SOL     OW 2266   2.507   0.880   2.607
  456SOL    HW1 2267   2.583   0.926   2.562
  456SOL    HW2 2268   2.442   0.948   2.642
  457SOL     OW 2269   2.142   7.021   6.179
  457SOL    HW1 2270   2.095   0.069   6.127
  457SOL    HW2 2271   2.118   0.007   6.276
  458SOL     OW 2272   1.995   1.670   3.353
  458SOL    HW1 2273   2.020   1.667   3.449
  458SOL    HW2 2274   2.068   1.715   3.301
  459SOL     OW 2275   2.332   0.044   4.650
  459SOL    HW1 2276   2.361   0.069   4.743
  459SOL    HW2 2277   2.409   7.023   4.603
  460SOL     OW 2278   1.179   1.707   5.009
  460SOL    HW1 2279   1.108   1.752   4.955
  460SOL    HW2 2280   1.264   1.759   5.001
  461SOL     OW 2281   0.779   5.294   5.913
  461SOL    HW1 2282   0.806   5.385   5.945
  461SOL    HW2 2283   0.857   5.250   5.868
  462SOL     OW 2284   3.207   3.986   4.558
  462SOL    HW1 2285   3.141   3.914   4.537
  462SOL    HW2 2286   3.171   4.045   4.631
  463SOL     OW 2287   5.984   6.834   2.312
  463SOL    HW1 2288   5.937   6.774   2.377
  463SOL    HW2 2289   6.083   6.824   2.323
  464SOL     OW 2290   3.686   5.922   6.686
  464SOL    HW1 2291   3.679   5.945   6.783
  464SOL    HW2 2292   3.775   5.951   6.651
  465SOL     OW 2293   1.760   2.587   0.132
  465SOL    HW1 2294   1.746   2.675   0.087
  465SOL    HW2 2295   1.812   2.526   0.072
  466SOL     OW 2296   3.913   5.723   4.714
  466SOL    HW1 2297   3.991   5.741   4.656
  466SOL    HW2 2298   3.880   5.629   4.698
  467SOL     OW 2299   6.299   0.623   2.332
  467SOL    HW1 2300   6.207   0.655   2.356
  467SOL    HW2 2301   6.291   0.534   2.287
  468SOL     OW 2302   4.133   6.906   6.523
  468SOL    HW1 2303   4.189   6.985   6.547
  468SOL    HW2 2304   4.179   6.852   6.453
  469SOL     OW 2305   2.697   5.079   6.070
  469SOL    HW1 2306   2.667   5.000   6.124
  469SOL    HW2 2307   2.620   5.113   6.017
  470SOL     OW 2308   2.046   4.822   2.983
  470SOL    HW1 2309   2.130   4.774   2.957
  470SOL    HW2 2310   2.023   4.799   3.077
  471SOL     OW 2311   2.693   2.336   4.093
  471SOL    HW1 2312   2.600   2.348   4.059
  471SOL    HW2 2313   2.690   2.307   4.189
  472SOL     OW 2314   6.451   4.284   5.903
  472SOL    HW1 2315   6.483   4.193   5.929
  472SOL    HW2 2316   6.440   4.341   5.984
  473SOL     OW 2317   6.676   2.476   2.972
  473SOL    HW1 2318   6.764   2.509   3.005
  473SOL    HW2 2319   6.624   2.552   2.933
  474SOL     OW 2320   5.080   6.110   4.471
  474SOL    HW1 2321   5.139   6.160   4.534
  474SOL    HW2 2322   5.118   6.020   4.453
  475SOL     OW 2323   5.817   1.375   1.403
  475SOL    HW1 2324   5.794   1.310   1.476
  475SOL    HW2 2325   5.737   1.431   1.382
  476SOL     OW 2326   0.637   4.484   1.607
  476SOL    HW1 2327   0.718   4.432   1.632
  476SOL    HW2 2328   0.662   4.559   1.546
  477SOL     OW 2329   1.417   4.837   3.919
  477SOL    HW1 2330   1.368   4.923   3.929
  477SOL    HW2 2331   1.351   4.761   3.917
  478SOL     OW 2332   4.585   5.881   1.455
  478SOL    HW1 2333   4.642   5.842   1.382
  478SOL    HW2 2334   4.541   5.964   1.422
  479SOL     OW 2335   4.014   3.784   4.107
  479SOL    HW1 2336   3.974   3.789   4.199
  479SOL    HW2 2337   4.019   3.876   4.069
  480SOL     OW 2338   2.211   0.229   2.928
  480SOL    HW1 2339   2.215   0.227   3.027
  480SOL    HW2 2340   2.302   0.249   2.891
  481SOL     OW 2341   0.370   0.091   0.871
  481SOL    HW1 2342   0.384   0.039   0.955
  481SOL    HW2 2343   0.384   0.188   0.890
  482SOL     OW 2344   5.015   4.973   1.675
  482SOL    HW1 2345   5.109   4.972   1.641
  482SOL    HW2 2346   4.995   5.062   1.716
  483SOL     OW 2347   5.540   2.336   2.977
  483SOL    HW1 2348   5.506   2.244   2.996
  483SOL    HW2 2349   5.640   2.335   2.977
  484SOL     OW 2350   2.207   4.015   4.322
  484SOL    HW1 2351   2.260   4.099   4.311
  484SOL    HW2 2352   2.213   3.961   4.238
  485SOL     OW 2353   5.294   3.178   1.924
  485SOL    HW1 2354   5.319   3.129   2.008
  485SOL    HW2 2355   5.216   3.132   1.881
  486SOL     OW 2356   5.861   6.542   6.146
  486SOL    HW1 2357   5.896   6.616   6.088
  486SOL    HW2 2358   5.937   6.497   6.193
  487SOL     OW 2359   7.013   6.532   4.860
  487SOL    HW1 2360   6.946   6.458   4.863
  487SOL    HW2 2361   0.042   6.526   4.775
  488SOL     OW 2362   1.461   6.142   3.636
  488SOL    HW1 2363   1.430   6.141   3.731
  488SOL    HW2 2364   1.545   6.195   3.629
  489SOL     OW 2365   0.477   6.038   6.184
  489SOL    HW1 2366   0.499   6.099   6.108
  489SOL    HW2 2367   0.502   5.944   6.160
  490SOL     OW 2368   1.257   5.094   5.576
  490SOL    HW1 2369   1.281   5.157   5.502
  490SOL    HW2 2370   1.336   5.039   5.601
  491SOL     OW 2371   0.184   2.464   1.121
  491SOL    HW1 2372   0.252   2.439   1.191
  491SOL    HW2 2373   0.117   2.527   1.161
  492SOL     OW 2374   1.517   1.897   5.891
  492SOL    HW1 2375   1.594   1.864   5.946
  492SOL    HW2 2376   1.493   1.828   5.822
  493SOL     OW 2377   2.768   5.984   4.624
  493SOL    HW1 2378   2.819   6.069   4.628
  493SOL    HW2 2379   2.811   5.916   4.683
  494SOL     OW 2380   2.161   6.723   5.202
  494SOL    HW1 2381   2.130   6.720   5.107
  494SOL    HW2 2382   2.103   6.665   5.258
  495SOL     OW 2383   3.661   5.407   5.997
  495SOL    HW1 2384   3.729   5.479   6.010
  495SOL    HW2 2385   3.573   5.448   5.973
  496SOL     OW 2386   4.916   1.868   2.764
  496SOL    HW1 2387   4.890   1.849   2.859
  496SOL    HW2 2388   4.969   1.953   2.760
  497SOL     OW 2389   3.334   1.079   6.783
  497SOL    HW1 2390   3.243   1.115   6.765
  497SOL    HW2 2391   3.348   1.071   6.882
  498SOL     OW 2392   0.350   5.816   1.869
  498SOL    HW1 2393   0.352   5.716   1.866
  498SOL    HW2 2394   0.298   5.851   1.791
  499SOL     OW 2395   3.309   5.806   0.176
  499SOL    HW1 2396   3.373   5.875   0.209
  499SOL    HW2 2397   3.248   5.779   0.251
  500SOL     OW 2398   5.657   1.719   0.348
  500SOL    HW1 2399   5.603   1.785   0.400
  500SOL    HW2 2400   5.643   1.627   0.387
  501SOL     OW 2401   1.102   0.489   3.047
  501SOL    HW1 2402   1.082   0.556   2.975
  501SOL    HW2 2403   1.138   0.537   3.127
  502SOL     OW 2404   1.912   5.289   6.581
  502SOL    HW1 2405   1.865   5.377   6.575
  502SOL    HW2 2406   1.845   5.217   6.595
  503SOL     OW 2407   3.597   5.034   6.837
  503SOL    HW1 2408   3.644   5.002   6.920
  503SOL    HW2 2409   3.613   4.968   6.763
  504SOL     OW 2410   6.135   6.330   1.596
  504SOL    HW1 2411   6.119   6.354   1.500
  504SOL    HW2 2412   6.226   6.290   1.605
  505SOL     OW 2413   4.886   6.850   4.751
  505SOL    HW1 2414   4.969   6.817   4.795
  505SOL    HW2 2415   4.904   6.864   4.653
  506SOL     OW 2416   3.714   5.251   2.916
  506SOL    HW1 2417   3.716   5.153   2.899
  506SOL    HW2 2418   3.620   5.280   2.934
  507SOL     OW 2419   3.541   0.682   0.931
  507SOL    HW1 2420   3.523   0.591   0.893
  507SOL    HW2 2421   3.635   0.708   0.910
  508SOL     OW 2422   6.843   4.999   4.051
  508SOL    HW1 2423   6.828   4.978   3.954
  508SOL    HW2 2424   6.822   4.919   4.106
  509SOL     OW 2425   4.652   6.376   6.024
  509SOL    HW1 2426   4.625   6.435   6.100
  509SOL    HW2 2427   4.683   6.433   5.948
  510SOL     OW 2428   6.976   3.913   6.928
  510SOL    HW1 2429   6.997   3.846   6.857
  510SOL    HW2 2430   6.894   3.964   6.901
  511SOL     OW 2431   1.017   1.738   0.691
  511SOL    HW1 2432   0.983   1.815   0.744
  511SOL    HW2 2433   1.111   1.756   0.663
  512SOL     OW 2434   6.666   2.464   6.527
  512SOL    HW1 2435   6.653   2.561   6.550
  512SOL    HW2 2436   6.578   2.417   6.530
  513SOL     OW 2437   5.280   0.224   2.840
  513SOL    HW1 2438   5.277   0.261   2.747
  513SOL    HW2 2439   5.277   0.299   2.906
  514SOL     OW 2440   6.250   6.847   4.098
  514SOL    HW1 2441   6.171   6.894   4.060
  514SOL    HW2 2442   6.236   6.831   4.196
  515SOL     OW 2443   3.731   6.880   6.797
  515SOL    HW1 2444   3.814   6.826   6.788
  515SOL    HW2 2445   3.676   6.870   6.714
  516SOL     OW 2446   1.948   5.568   1.387
  516SOL    HW1 2447   1.851   5.569   1.410
  516SOL    HW2 2448   2.001   5.539   1.467
  517SOL     OW 2449   3.436   5.192   2.386
  517SOL    HW1 2450   3.486   5.151   2.462
  517SOL    HW2 2451   3.373   5.125   2.348
  518SOL     OW 2452   2.120   3.342   3.545
  518SOL    HW1 2453   2.102   3.245   3.565
  518SOL    HW2 2454   2.099   3.396   3.626
  519SOL     OW 2455   0.334   6.816   3.367
  519SOL    HW1 2456   0.421   6.863   3.351
  519SOL    HW2 2457   0.278   6.821   3.284
  520SOL     OW 2458   1.836   3.068   0.197
  520SOL    HW1 2459   1.837   3.167   0.187
  520SOL    HW2 2460   1.752   3.040   0.243
  521SOL     OW 2461   5.359   4.947   5.490
  521SOL    HW1 2462   5.343   5.037   5.450
  521SOL    HW2 2463   5.365   4.879   5.417
  522SOL     OW 2464   4.324   3.796   1.272
  522SOL    HW1 2465   4.232   3.763   1.293
  522SOL    HW2 2466   4.352   3.863   1.341
  523SOL     OW 2467   0.496   6.229   1.810
  523SOL    HW1 2468   0.569   6.270   1.756
  523SOL    HW2 2469   0.413   6.220   1.754
  524SOL     OW 2470   6.748   2.050   1.872
  524SOL    HW1 2471   6.692   2.113   1.927
  524SOL    HW2 2472   6.823   2.015   1.927
  525SOL     OW 2473   1.626   4.025   6.372
  525SOL    HW1 2474   1.711   3.973   6.382
  525SOL    HW2 2475   1.558   3.968   6.326
  526SOL     OW 2476   2.986   6.930   4.504
  526SOL    HW1 2477   2.940   6.972   4.582
  526SOL    HW2 2478   3.085   6.934   4.519
  527SOL     OW 2479   0.951   2.025   0.446
  527SOL    HW1 2480   0.924   2.108   0.495
  527SOL    HW2 2481   0.870   1.972   0.421
  528SOL     OW 2482   6.393   2.659   4.197
  528SOL    HW1 2483   6.353   2.740   4.238
  528SOL    HW2 2484   6.345   2.578   4.230
  529SOL     OW 2485   2.188   0.321   5.764
  529SOL    HW1 2486   2.142   0.396   5.811
  529SOL    HW2 2487   2.283   0.316   5.792
  530SOL     OW 2488   3.606   3.643   0.890
  530SOL    HW1 2489   3.616   3.614   0.985
  530SOL    HW2 2490   3.517   3.688   0.878
  531SOL     OW 2491   2.261   0.647   2.022
  531SOL    HW1 2492   2.188   0.584   2.048
  531SOL    HW2 2493   2.291   0.627   1.929
  532SOL     OW 2494   2.747   2.401   0.477
  532SOL    HW1 2495   2.671   2.455   0.441
  532SOL    HW2 2496   2.821   2.463   0.504
  533SOL     OW 2497   3.867   0.171   3.887
  533SOL    HW1 2498   3.879   0.074   3.908
  533SOL    HW2 2499   3.820   0.180   3.799
  534SOL     OW 2500   1.128   5.296   1.232
  534SOL    HW1 2501   1.166   5.385   1.256
  534SOL    HW2 2502   1.178   5.258   1.155
  535SOL     OW 2503   5.185   3.661   3.394
  535SOL    HW1 2504   5.218   3.580   3.345
  535SOL    HW2 2505   5.095   3.687   3.358
  536SOL     OW 2506   6.530   6.128   3.036
  536SOL    HW1 2507   6.597   6.201   3.048
  536SOL    HW2 2508   6.443   6.156   3.078
  537SOL     OW 2509   3.443   0.861   4.559
  537SOL    HW1 2510   3.378   0.897   4.493
  537SOL    HW2 2511   3.527   0.914   4.556
  538SOL     OW 2512   2.646   4.820   5.758
  538SOL    HW1 2513   2.683   4.744   5.812
  538SOL    HW2 2514   2.549   4.832   5.780
  539SOL     OW 2515   0.704   6.177   0.402
  539SOL    HW1 2516   0.682   6.269   0.435
  539SOL    HW2 2517   0.631   6.145   0.341
  540SOL     OW 2518   1.224   0.325   3.847
  540SOL    HW1 2519   1.129   0.340   3.874
  540SOL    HW2 2520   1.285   0.355   3.921
  541SOL     OW 2521   4.070   6.401   4.356
  541SOL    HW1 2522   4.165   6.385   4.331
  541SOL    HW2 2523   4.065   6.450   4.443
  542SOL     OW 2524   2.831   6.493   7.018
  542SOL    HW1 2525   2.844   6.394   0.007
  542SOL    HW2 2526   2.774   6.508   6.937
  543SOL     OW 2527   5.175   2.457   4.350
  543SOL    HW1 2528   5.170   2.461   4.450
  543SOL    HW2 2529   5.251   2.514   4.319
  544SOL     OW 2530   0.807   4.440   0.682
  544SOL    HW1 2531   0.795   4.408   0.776
  544SOL    HW2 2532   0.740   4.395   0.623
  545SOL     OW 2533   5.383   1.303   2.033
  545SOL    HW1 2534   5.341   1.270   1.948
  545SOL    HW2 2535   5.334   1.264   2.111
  546SOL     OW 2536   0.509   3.990   2.235
  546SOL    HW1 2537   0.606   3.993   2.211
  546SOL    HW2 2538   0.499   4.003   2.333
  547SOL     OW 2539   4.602   1.439   6.765
  547SOL    HW1 2540   4.674   1.507   6.748
  547SOL    HW2 2541   4.643   1.349   6.774
  548SOL     OW 2542   3.572   2.787   7.004
  548SOL    HW1 2543   3.632   2.861   0.011
  548SOL    HW2 2544   3.626   2.714   6.963
  549SOL     OW 2545   6.024   2.306   0.703
  549SOL    HW1 2546   6.055   2.383   0.759
  549SOL    HW2 2547   5.941   2.331   0.654
  550SOL     OW 2548   0.018   4.519   2.975
  550SOL    HW1 2549   0.117   4.505   2.986
  550SOL    HW2 2550   6.992   4.458   3.038
  551SOL     OW 2551   6.900   0.768   0.540
  551SOL    HW1 2552   6.819   0.826   0.529
  551SOL    HW2 2553   6.879   0.676   0.506
  552SOL     OW 2554   5.588   5.564   5.868
  552SOL    HW1 2555   5.672   5.606   5.834
  552SOL    HW2 2556   5.509   5.617   5.838
  553SOL     OW 2557   3.399   1.355   5.600
  553SOL    HW1 2558   3.426   1.380   5.693
  553SOL    HW2 2559   3.471   1.301   5.557
  554SOL     OW 2560   6.010   5.897   0.906
  554SOL    HW1 2561   6.012   5.833   0.829
  554SOL    HW2 2562   5.940   5.967   0.890
  555SOL     OW 2563   2.291   5.361   5.310
  555SOL    HW1 2564   2.381   5.406   5.308
  555SOL    HW2 2565   2.254   5.358   5.217
  556SOL     OW 2566   4.816   1.520   3.787
  556SOL    HW1 2567   4.780   1.552   3.875
  556SOL    HW2 2568   4.780   1.429   3.768
  557SOL     OW 2569   6.500   4.787   5.618
  557SOL    HW1 2570   6.423   4.728   5.595
  557SOL    HW2 2571   6.564   4.790   5.541
  558SOL     OW 2572   3.678   3.769   2.626
  558SOL    HW1 2573   3.714   3.861   2.637
  558SOL    HW2 2574   3.579   3.770   2.640
  559SOL     OW 2575   6.327   6.483   5.685
  559SOL    HW1 2576   6.414   6.473   5.733
  559SOL    HW2 2577   6.265   6.410   5.714
  560SOL     OW 2578   6.564   3.235   2.999
  560SOL    HW1 2579   6.481   3.196   2.960
  560SOL    HW2 2580   6.590   3.183   3.080
  561SOL     OW 2581   0.717   3.208   6.291
  561SOL    HW1 2582   0.669   3.191   6.204
  561SOL    HW2 2583   0.809   3.242   6.272
  562SOL     OW 2584   4.318   0.635   5.721
  562SOL    HW1 2585   4.225   0.664   5.699
  562SOL    HW2 2586   4.339   0.550   5.672
  563SOL     OW 2587   1.535   1.747   4.244
  563SOL    HW1 2588   1.496   1.774   4.333
  563SOL    HW2 2589   1.496   1.659   4.216
  564SOL     OW 2590   0.308   2.002   5.471
  564SOL    HW1 2591   0.230   1.972   5.526
  564SOL    HW2 2592   0.373   1.927   5.461
  565SOL     OW 2593   3.181   2.994   3.652
  565SOL    HW1 2594   3.175   3.081   3.701
  565SOL    HW2 2595   3.172   2.918   3.717
  566SOL     OW 2596   3.494   5.776   3.043
  566SOL    HW1 2597   3.425   5.790   3.114
  566SOL    HW2 2598   3.469   5.828   2.961
  567SOL     OW 2599   2.405   2.108   6.634
  567SOL    HW1 2600   2.492   2.149   6.662
  567SOL    HW2 2601   2.420   2.051   6.553
  568SOL     OW 2602   6.270   0.273   0.925
  568SOL    HW1 2603   6.334   0.302   0.855
  568SOL    HW2 2604   6.223   0.353   0.964
  569SOL     OW 2605   0.376   1.953   0.311
  569SOL    HW1 2606   0.335   1.910   0.231
  569SOL    HW2 2607   0.433   1.887   0.359
  570SOL     OW 2608   2.964   0.403   6.354
  570SOL    HW1 2609   2.931   0.497   6.362
  570SOL    HW2 2610   2.898   0.340   6.395
  571SOL     OW 2611   2.962   4.878   2.999
  571SOL    HW1 2612   2.981   4.875   2.901
  571SOL    HW2 2613   2.904   4.800   3.024
  572SOL     OW 2614   2.154   6.094   4.158
  572SOL    HW1 2615   2.226   6.093   4.229
  572SOL    HW2 2616   2.195   6.119   4.071
  573SOL     OW 2617   6.046   2.366   5.724
  573SOL    HW1 2618   6.076   2.380   5.818
  573SOL    HW2 2619   6.010   2.273   5.714
  574SOL     OW 2620   2.557   1.661   5.223
  574SOL    HW1 2621   2.510   1.749   5.234
  574SOL    HW2 2622   2.511   1.592   5.280
  575SOL     OW 2623   3.397   3.351   0.133
  575SOL    HW1 2624   3.467   3.314   0.072
  575SOL    HW2 2625   3.342   3.419   0.085
  576SOL     OW 2626   1.798   3.268   3.194
  576SOL    HW1 2627   1.827   3.177   3.165
  576SOL    HW2 2628   1.877   3.330   3.192
  577SOL     OW 2629   1.388   1.388   2.207
  577SOL    HW1 2630   1.358   1.407   2.301
  577SOL    HW2 2631   1.421   1.473   2.166
  578SOL     OW 2632   2.055   5.402   7.001
  578SOL    HW1 2633   2.080   5.333   6.933
  578SOL    HW2 2634   2.113   5.483   6.989
  579SOL     OW 2635   2.620   4.549   2.435
  579SOL    HW1 2636   2.654   4.627   2.382
  579SOL    HW2 2637   2.673   4.468   2.414
  580SOL     OW 2638   4.305   5.897   5.240
  580SOL    HW1 2639   4.379   5.892   5.174
  580SOL    HW2 2640   4.240   5.968   5.212
  581SOL     OW 2641   1.078   2.879   3.640
  581SOL    HW1 2642   1.038   2.836   3.559
  581SOL    HW2 2643   1.019   2.865   3.719
  582SOL     OW 2644   5.701   5.211   3.309
  582SOL    HW1 2645   5.785   5.165   3.339
  582SOL    HW2 2646   5.627   5.143   3.303
  583SOL     OW 2647   3.117   5.409   6.353
  583SOL    HW1 2648   3.192   5.344   6.358
  583SOL    HW2 2649   3.104   5.437   6.258
  584SOL     OW 2650   3.717   0.549   6.849
  584SOL    HW1 2651   3.680   0.463   6.815
  584SOL    HW2 2652   3.810   0.534   6.883
  585SOL     OW 2653   2.378   6.448   2.069
  585SOL    HW1 2654   2.283   6.474   2.090
  585SOL    HW2 2655   2.431   6.531   2.051
  586SOL     OW 2656   4.150   0.121   1.276
  586SOL    HW1 2657   4.168   0.138   1.373
  586SOL    HW2 2658   4.227   0.155   1.222
  587SOL     OW 2659   5.253   1.856   2.048
  587SOL    HW1 2660   5.295   1.766   2.034
  587SOL    HW2 2661   5.157   1.843   2.074
  588SOL     OW 2662   1.376   5.567   1.556
  588SOL    HW1 2663   1.436   5.647   1.568
  588SOL    HW2 2664   1.298   5.575   1.617
  589SOL     OW 2665   3.514   5.834   1.436
  589SOL    HW1 2666   3.476   5.872   1.352
  589SOL    HW2 2667   3.446   5.840   1.509
  590SOL     OW 2668   5.721   1.121   0.865
  590SOL    HW1 2669   5.748   1.028   0.891
  590SOL    HW2 2670   5.790   1.186   0.896
  591SOL     OW 2671   4.447   5.268   4.461
  591SOL    HW1 2672   4.402   5.358   4.470
  591SOL    HW2 2673   4.523   5.263   4.526
  592SOL     OW 2674   4.514   1.628   4.599
  592SOL    HW1 2675   4.599   1.603   4.552
  592SOL    HW2 2676   4.468   1.700   4.546
  593SOL     OW 2677   3.458   2.086   5.554
  593SOL    HW1 2678   3.443   2.087   5.653
  593SOL    HW2 2679   3.407   2.160   5.511
  594SOL     OW 2680   5.473   1.345   1.687
  594SOL    HW1 2681   5.384   1.303   1.702
  594SOL    HW2 2682   5.474   1.437   1.727
  595SOL     OW 2683   5.389   5.986   2.544
  595SOL    HW1 2684   5.335   6.000   2.461
  595SOL    HW2 2685   5.456   5.913   2.527
  596SOL     OW 2686   6.802   4.008   3.741
  596SOL    HW1 2687   6.893   3.967   3.746
  596SOL    HW2 2688   6.785   4.059   3.825
  597SOL     OW 2689   2.911   6.698   5.957
  597SOL    HW1 2690   3.007   6.667   5.960
  597SOL    HW2 2691   2.908   6.795   5.935
  598SOL     OW 2692   2.897   3.822   4.991
  598SOL    HW1 2693   2.809   3.853   4.956
  598SOL    HW2 2694   2.947   3.776   4.917
  599SOL     OW 2695   1.446   5.695   1.862
  599SOL    HW1 2696   1.463   5.738   1.950
  599SOL    HW2 2697   1.363   5.733   1.822
  600SOL     OW 2698   6.839   3.843   4.617
  600SOL    HW1 2699   6.784   3.926   4.611
  600SOL    HW2 2700   6.935   3.866   4.604
  601SOL     OW 2701   1.099   0.892   4.772
  601SOL    HW1 2702   1.092   0.872   4.870
  601SOL    HW2 2703   1.153   0.974   4.758
  602SOL     OW 2704   2.740   6.289   4.741
  602SOL    HW1 2705   2.800   6.307   4.663
  602SOL    HW2 2706   2.647   6.316   4.718
  603SOL     OW 2707   1.611   0.970   5.054
  603SOL    HW1 2708   1.516   0.980   5.025
  603SOL    HW2 2709   1.671   1.014   4.987
  604SOL     OW 2710   6.938   2.444   1.861
  604SOL    HW1 2711   6.910   2.518   1.800
  604SOL    HW2 2712   6.877   2.366   1.849
  605SOL     OW 2713   0.274   4.352   2.158
  605SOL    HW1 2714   0.187   4.306   2.140
  605SOL    HW2 2715   0.344   4.314   2.097
  606SOL     OW 2716   3.955   6.945   5.107
  606SOL    HW1 2717   3.870   6.904   5.075
  606SOL    HW2 2718   4.008   6.877   5.157
  607SOL     OW 2719   1.462   4.926   5.657
  607SOL    HW1 2720   1.457   4.924   5.757
  607SOL    HW2 2721   1.454   4.833   5.621
  608SOL     OW 2722   4.157   0.380   6.250
  608SOL    HW1 2723   4.097   0.303   6.273
  608SOL    HW2 2724   4.207   0.410   6.332
  609SOL     OW 2725   3.956   2.491   1.382
  609SOL    HW1 2726   3.922   2.574   1.426
  609SOL    HW2 2727   3.924   2.411   1.434
  610SOL     OW 2728   4.611   2.598   0.251
  610SOL    HW1 2729   4.607   2.697   0.242
  610SOL    HW2 2730   4.700   2.565   0.222
  611SOL     OW 2731   4.047   0.271   2.690
  611SOL    HW1 2732   4.144   0.273   2.669
  611SOL    HW2 2733   3.995   0.253   2.606
  612SOL     OW 2734   3.802   4.729   5.908
  612SOL    HW1 2735   3.744   4.658   5.868
  612SOL    HW2 2736   3.884   4.686   5.947
  613SOL     OW 2737   5.293   5.824   5.209
  613SOL    HW1 2738   5.238   5.904   5.184
  613SOL    HW2 2739   5.296   5.816   5.309
  614SOL     OW 2740   5.129   5.586   5.576
  614SOL    HW1 2741   5.204   5.643   5.543
  614SOL    HW2 2742   5.043   5.635   5.563
  615SOL     OW 2743   0.141   4.619   0.922
  615SOL    HW1 2744   0.097   4.681   0.987
  615SOL    HW2 2745   0.137   4.525   0.956
  616SOL     OW 2746   6.332   2.573   3.380
  616SOL    HW1 2747   6.270   2.509   3.334
  616SOL    HW2 2748   6.389   2.523   3.446
  617SOL     OW 2749   2.472   5.584   6.296
  617SOL    HW1 2750   2.499   5.603   6.202
  617SOL    HW2 2751   2.372   5.575   6.301
  618SOL     OW 2752   1.385   1.337   1.400
  618SOL    HW1 2753   1.413   1.339   1.496
  618SOL    HW2 2754   1.465   1.354   1.342
  619SOL     OW 2755   1.931   2.190   6.462
  619SOL    HW1 2756   1.833   2.200   6.478
  619SOL    HW2 2757   1.965   2.108   6.508
  620SOL     OW 2758   4.689   2.765   0.485
  620SOL    HW1 2759   4.664   2.695   0.418
  620SOL    HW2 2760   4.787   2.784   0.478
  621SOL     OW 2761   6.538   5.042   0.373
  621SOL    HW1 2762   6.614   5.012   0.431
  621SOL    HW2 2763   6.574   5.093   0.295
  622SOL     OW 2764   1.750   1.652   0.312
  622SOL    HW1 2765   1.660   1.637   0.352
  622SOL    HW2 2766   1.766   1.586   0.239
  623SOL     OW 2767   0.841   4.903   6.334
  623SOL    HW1 2768   0.787   4.984   6.309
  623SOL    HW2 2769   0.922   4.931   6.385
  624SOL     OW 2770   0.418   2.441   2.536
  624SOL    HW1 2771   0.478   2.408   2.609
  624SOL    HW2 2772   0.342   2.492   2.576
  625SOL     OW 2773   2.746   1.643   2.675
  625SOL    HW1 2774   2.765   1.545   2.675
  625SOL    HW2 2775   2.822   1.691   2.719
  626SOL     OW 2776   2.060   6.268   3.456
  626SOL    HW1 2777   2.027   6.335   3.523
  626SOL    HW2 2778   2.050   6.306   3.364
  627SOL     OW 2779   5.570   1.057   0.380
  627SOL    HW1 2780   5.586   1.040   0.477
  627SOL    HW2 2781   5.514   0.983   0.342
  628SOL     OW 2782   4.852   4.831   3.970
  628SOL    HW1 2783   4.943   4.873   3.977
  628SOL    HW2 2784   4.862   4.731   3.976
  629SOL     OW 2785   0.564   0.025   1.600
  629SOL    HW1 2786   0.471   7.023   1.626
  629SOL    HW2 2787   0.586   0.115   1.638
  630SOL     OW 2788   4.779   1.210   1.765
  630SOL    HW1 2789   4.695   1.201   1.817
  630SOL    HW2 2790   4.846   1.262   1.818
  631SOL     OW 2791   2.387   0.058   5.727
  631SOL    HW1 2792   2.389   0.157   5.713
  631SOL    HW2 2793   2.322   0.017   5.665
  632SOL     OW 2794   2.313   0.818   0.558
  632SOL    HW1 2795   2.326   0.854   0.651
  632SOL    HW2 2796   2.345   0.724   0.554
  633SOL     OW 2797   3.176   6.137   0.464
  633SOL    HW1 2798   3.185   6.109   0.559
  633SOL    HW2 2799   3.248   6.204   0.441
  634SOL     OW 2800   4.293   5.564   1.065
  634SOL    HW1 2801   4.375   5.574   1.008
  634SOL    HW2 2802   4.316   5.583   1.160
  635SOL     OW 2803   3.345   0.457   2.771
  635SOL    HW1 2804   3.275   0.448   2.841
  635SOL    HW2 2805   3.347   0.375   2.714
  636SOL     OW 2806   5.356   5.311   6.710
  636SOL    HW1 2807   5.422   5.386   6.701
  636SOL    HW2 2808   5.391   5.229   6.664
  637SOL     OW 2809   4.757   4.884   1.479
  637SOL    HW1 2810   4.829   4.895   1.411
  637SOL    HW2 2811   4.768   4.797   1.525
  638SOL     OW 2812   5.226   1.244   1.810
  638SOL    HW1 2813   5.179   1.317   1.860
  638SOL    HW2 2814   5.165   1.207   1.741
  639SOL     OW 2815   4.289   4.640   1.669
  639SOL    HW1 2816   4.265   4.647   1.572
  639SOL    HW2 2817   4.322   4.548   1.689
  640SOL     OW 2818   2.450   4.158   5.554
  640SOL    HW1 2819   2.532   4.101   5.552
  640SOL    HW2 2820   2.379   4.112   5.608
  641SOL     OW 2821   0.529   5.810   4.743
  641SOL    HW1 2822   0.609   5.836   4.798
  641SOL    HW2 2823   0.459   5.771   4.802
  642SOL     OW 2824   0.245   5.020   4.783
  642SOL    HW1 2825   0.285   5.094   4.728
  642SOL    HW2 2826   0.300   4.938   4.774
  643SOL     OW 2827   6.559   5.592   5.987
  643SOL    HW1 2828   6.486   5.659   5.979
  643SOL    HW2 2829   6.583   5.579   6.083
  644SOL     OW 2830   1.079   6.283   2.719
  644SOL    HW1 2831   1.005   6.334   2.675
  644SOL    HW2 2832   1.079   6.189   2.685
  645SOL     OW 2833   4.846   2.440   4.359
  645SOL    HW1 2834   4.820   2.507   4.289
  645SOL    HW2 2835   4.943   2.419   4.351
  646SOL     OW 2836   1.475   1.050   3.920
  646SOL    HW1 2837   1.490   0.964   3.968
  646SOL    HW2 2838   1.519   1.125   3.970
  647SOL     OW 2839   6.219   2.772   6.966
  647SOL    HW1 2840   6.180   2.680   6.968
  647SOL    HW2 2841   6.196   2.820   0.028
  648SOL     OW 2842   6.176   3.570   2.404
  648SOL    HW1 2843   6.258   3.537   2.356
  648SOL    HW2 2844   6.127   3.635   2.346
  649SOL     OW 2845   3.876   4.474   0.964
  649SOL    HW1 2846   3.899   4.429   0.878
  649SOL    HW2 2847   3.776   4.484   0.971
  650SOL     OW 2848   4.656   4.388   0.835
  650SOL    HW1 2849   4.606   4.439   0.904
  650SOL    HW2 2850   4.738   4.439   0.809
  651SOL     OW 2851   0.438   6.531   1.106
  651SOL    HW1 2852   0.415   6.617   1.061
  651SOL    HW2 2853   0.515   6.545   1.168
  652SOL     OW 2854   4.730   0.485   3.048
  652SOL    HW1 2855   4.645   0.466   2.999
  652SOL    HW2 2856   4.713   0.485   3.147
  653SOL     OW 2857   3.394   4.998   4.177
  653SOL    HW1 2858   3.330   4.938   4.224
  653SOL    HW2 2859   3.453   5.043   4.244
  654SOL     OW 2860   6.973   5.352   6.853
  654SOL    HW1 2861   6.978   5.264   6.805
  654SOL    HW2 2862   0.010   5.418   6.807
  655SOL     OW 2863   0.559   0.195   1.138
  655SOL    HW1 2864   0.597   0.261   1.073
  655SOL    HW2 2865   0.579   0.225   1.231
  656SOL     OW 2866   2.270   6.134   2.336
  656SOL    HW1 2867   2.317   6.222   2.343
  656SOL    HW2 2868   2.277   6.100   2.242
  657SOL     OW 2869   2.967   1.298   0.898
  657SOL    HW1 2870   2.872   1.322   0.919
  657SOL    HW2 2871   2.979   1.292   0.799
  658SOL     OW 2872   3.361   3.750   6.934
  658SOL    HW1 2873   3.414   3.773   7.015
  658SOL    HW2 2874   3.412   3.775   6.852
  659SOL     OW 2875   2.939   6.867   0.376
  659SOL    HW1 2876   2.957   6.789   0.315
  659SOL    HW2 2877   2.846   6.859   0.412
  660SOL     OW 2878   3.950   5.724   2.178
  660SOL    HW1 2879   3.927   5.821   2.168
  660SOL    HW2 2880   4.026   5.701   2.115
  661SOL     OW 2881   4.630   5.750   2.870
  661SOL    HW1 2882   4.592   5.702   2.949
  661SOL    HW2 2883   4.727   5.766   2.885
  662SOL     OW 2884   3.604   1.147   5.988
  662SOL    HW1 2885   3.521   1.162   5.934
  662SOL    HW2 2886   3.587   1.171   6.083
  663SOL     OW 2887   2.058   4.603   5.207
  663SOL    HW1 2888   2.114   4.586   5.287
  663SOL    HW2 2889   2.011   4.518   5.181
  664SOL     OW 2890   0.014   6.647   6.730
  664SOL    HW1 2891   0.031   6.702   6.812
  664SOL    HW2 2892   0.088   6.581   6.718
  665SOL     OW 2893   3.179   5.803   3.674
  665SOL    HW1 2894   3.247   5.739   3.711
  665SOL    HW2 2895   3.193   5.893   3.715
  666SOL     OW 2896   4.170   1.016   2.500
  666SOL    HW1 2897   4.133   0.926   2.475
  666SOL    HW2 2898   4.099   1.086   2.486
  667SOL     OW 2899   1.008   5.489   1.638
  667SOL    HW1 2900   0.921   5.442   1.655
  667SOL    HW2 2901   1.073   5.425   1.598
  668SOL     OW 2902   5.660   4.489   6.274
  668SOL    HW1 2903   5.642   4.449   6.184
  668SOL    HW2 2904   5.595   4.563   6.291
  669SOL     OW 2905   5.922   1.381   2.725
  669SOL    HW1 2906   5.834   1.382   2.677
  669SOL    HW2 2907   5.955   1.287   2.731
  670SOL     OW 2908   1.572   1.709   3.511
  670SOL    HW1 2909   1.654   1.667   3.550
  670SOL    HW2 2910   1.582   1.718   3.412
  671SOL     OW 2911   2.273   6.574   1.623
  671SOL    HW1 2912   2.289   6.480   1.653
  671SOL    HW2 2913   2.183   6.604   1.657
  672SOL     OW 2914   0.533   5.986   1.951
  672SOL    HW1 2915   0.469   5.920   1.912
  672SOL    HW2 2916   0.538   6.067   1.892
  673SOL     OW 2917   5.599   6.687   1.235
  673SOL    HW1 2918   5.661   6.615   1.203
  673SOL    HW2 2919   5.643   6.776   1.227
  674SOL     OW 2920   6.841   1.417   4.917
  674SOL    HW1 2921   6.843   1.516   4.903
  674SOL    HW2 2922   6.915   1.390   4.979
  675SOL     OW 2923   5.784   2.237   1.880
  675SOL    HW1 2924   5.777   2.187   1.793
  675SOL    HW2 2925   5.820   2.177   1.951
  676SOL     OW 2926   2.460   4.692   4.851
  676SOL    HW1 2927   2.428   4.661   4.941
  676SOL    HW2 2928   2.558   4.679   4.844
  677SOL     OW 2929   4.620   0.564   1.446
  677SOL    HW1 2930   4.552   0.625   1.487
  677SOL    HW2 2931   4.588   0.535   1.356
  678SOL     OW 2932   2.507   4.582   5.271
  678SOL    HW1 2933   2.527   4.484   5.264
  678SOL    HW2 2934   2.590   4.634   5.253
  679SOL     OW 2935   5.337   1.572   5.319
  679SOL    HW1 2936   5.431   1.587   5.287
  679SOL    HW2 2937   5.273   1.590   5.245
  680SOL     OW 2938   5.487   6.972   4.306
  680SOL    HW1 2939   5.439   0.015   4.363
  680SOL    HW2 2940   5.468   6.880   4.338
  681SOL     OW 2941   5.371   6.063   2.066
  681SOL    HW1 2942   5.363   6.052   2.165
  681SOL    HW2 2943   5.280   6.072   2.026
  682SOL     OW 2944   0.494   0.742   2.618
  682SOL    HW1 2945   0.459   0.811   2.555
  682SOL    HW2 2946   0.571   0.695   2.575
  683SOL     OW 2947   4.467   3.198   1.168
  683SOL    HW1 2948   4.463   3.271   1.236
  683SOL    HW2 2949   4.471   3.238   1.076
  684SOL     OW 2950   6.563   0.450   6.473
  684SOL    HW1 2951   6.616   0.522   6.428
  684SOL    HW2 2952   6.625   0.379   6.506
  685SOL     OW 2953   3.530   1.578   3.398
  685SOL    HW1 2954   3.441   1.531   3.398
  685SOL    HW2 2955   3.578   1.560   3.484
  686SOL     OW 2956   4.279   0.855   4.102
  686SOL    HW1 2957   4.196   0.826   4.055
  686SOL    HW2 2958   4.327   0.774   4.137
  687SOL     OW 2959   0.803   1.823   4.417
  687SOL    HW1 2960   0.712   1.797   4.384
  687SOL    HW2 2961   0.872   1.788   4.355
  688SOL     OW 2962   0.034   1.339   6.401
  688SOL    HW1 2963   0.007   1.435   6.393
  688SOL    HW2 2964   0.134   1.332   6.400
  689SOL     OW 2965   0.924   4.912   5.271
  689SOL    HW1 2966   0.954   4.914   5.367
  689SOL    HW2 2967   0.824   4.922   5.268
  690SOL     OW 2968   6.295   3.356   2.693
  690SOL    HW1 2969   6.206   3.362   2.647
  690SOL    HW2 2970   6.368   3.370   2.626
  691SOL     OW 2971   3.979   1.633   0.156
  691SOL    HW1 2972   3.972   1.678   0.245
  691SOL    HW2 2973   4.059   1.668   0.107
  692SOL     OW 2974   3.159   1.253   5.473
  692SOL    HW1 2975   3.136   1.294   5.385
  692SOL    HW2 2976   3.243   1.295   5.509
  693SOL     OW 2977   4.695   5.757   3.259
  693SOL    HW1 2978   4.769   5.817   3.229
  693SOL    HW2 2979   4.626   5.810   3.308
  694SOL     OW 2980   3.958   6.154   4.426
  694SOL    HW1 2981   3.860   6.147   4.446
  694SOL    HW2 2982   3.973   6.229   4.361
  695SOL     OW 2983   3.192   5.880   4.134
  695SOL    HW1 2984   3.276   5.919   4.096
  695SOL    HW2 2985   3.181   5.787   4.101
  696SOL     OW 2986   5.081   3.943   2.960
  696SOL    HW1 2987   5.086   4.041   2.939
  696SOL    HW2 2988   5.170   3.901   2.942
  697SOL     OW 2989   0.872   4.371   1.670
  697SOL    HW1 2990   0.921   4.303   1.616
  697SOL    HW2 2991   0.860   4.336   1.763
  698SOL     OW 2992   4.790   6.901   1.513
  698SOL    HW1 2993   4.710   6.934   1.564
  698SOL    HW2 2994   4.759   6.861   1.427
  699SOL     OW 2995   2.575   2.736   0.178
  699SOL    HW1 2996   2.582   2.676   0.258
  699SOL    HW2 2997   2.657   2.727   0.122
  700SOL     OW 2998   3.148   6.888   2.617
  700SOL    HW1 2999   3.090   6.918   2.693
  700SOL    HW2 3000   3.090   6.856   2.542
  701SOL     OW 3001   6.104   4.593   0.602
  701SOL    HW1 3002   6.085   4.593   0.700
  701SOL    HW2 3003   6.189   4.544   0.583
  702SOL     OW 3004   3.092   0.861   4.574
  702SOL    HW1 3005   3.112   0.827   4.665
  702SOL    HW2 3006   3.100   0.786   4.508
  703SOL     OW 3007   2.887   3.334   5.377
  703SOL    HW1 3008   2.914   3.264   5.311
  703SOL    HW2 3009   2.788   3.328   5.393
  704SOL     OW 3010   1.262   2.636   6.386
  704SOL    HW1 3011   1.270   2.732   6.362
  704SOL    HW2 3012   1.258   2.627   6.485
  705SOL     OW 3013   6.405   6.325   4.161
  705SOL    HW1 3014   6.392   6.226   4.160
  705SOL    HW2 3015   6.482   6.348   4.220
  706SOL     OW 3016   4.105   0.980   5.489
  706SOL    HW1 3017   4.130   1.057   5.547
  706SOL    HW2 3018   4.080   1.013   5.398
  707SOL     OW 3019   3.727   5.429   3.503
  707SOL    HW1 3020   3.635   5.389   3.499
  707SOL    HW2 3021   3.758   5.431   3.598
  708SOL     OW 3022   3.132   1.239   3.301
  708SOL    HW1 3023   3.130   1.218   3.203
  708SOL    HW2 3024   3.170   1.331   3.314
  709SOL     OW 3025   1.542   6.823   1.643
  709SOL    HW1 3026   1.608   6.771   1.588
  709SOL    HW2 3027   1.591   6.881   1.708
  710SOL     OW 3028   5.081   3.013   1.504
  710SOL    HW1 3029   5.179   3.022   1.483
  710SOL    HW2 3030   5.046   2.930   1.462
  711SOL     OW 3031   0.111   2.902   5.303
  711SOL    HW1 3032   0.066   2.991   5.298
  711SOL    HW2 3033   0.081   2.845   5.226
  712SOL     OW 3034   4.483   2.949   1.107
  712SOL    HW1 3035   4.474   3.037   1.154
  712SOL    HW2 3036   4.392   2.917   1.079
  713SOL     OW 3037   4.352   2.690   5.301
  713SOL    HW1 3038   4.311   2.756   5.363
  713SOL    HW2 3039   4.282   2.624   5.271
  714SOL     OW 3040   6.538   4.460   3.674
  714SOL    HW1 3041   6.564   4.543   3.723
  714SOL    HW2 3042   6.510   4.390   3.740
  715SOL     OW 3043   6.391   5.062   5.520
  715SOL    HW1 3044   6.442   5.140   5.557
  715SOL    HW2 3045   6.447   4.979   5.526
  716SOL     OW 3046   2.364   1.077   2.729
  716SOL    HW1 3047   2.290   1.029   2.778
  716SOL    HW2 3048   2.324   1.142   2.665
  717SOL     OW 3049   6.001   4.819   3.913
  717SOL    HW1 3050   5.944   4.901   3.909
  717SOL    HW2 3051   5.961   4.749   3.854
  718SOL     OW 3052   4.782   2.119   4.351
  718SOL    HW1 3053   4.812   2.169   4.269
  718SOL    HW2 3054   4.690   2.083   4.335
  719SOL     OW 3055   6.776   0.458   2.881
  719SOL    HW1 3056   6.748   0.435   2.788
  719SOL    HW2 3057   6.695   0.478   2.936
  720SOL     OW 3058   1.818   0.645   6.298
  720SOL    HW1 3059   1.835   0.678   6.391
  720SOL    HW2 3060   1.730   0.598   6.295
  721SOL     OW 3061   0.477   2.432   2.038
  721SOL    HW1 3062   0.544   2.363   2.012
  721SOL    HW2 3063   0.489   2.456   2.134
  722SOL     OW 3064   4.294   0.103   6.580
  722SOL    HW1 3065   4.243   0.175   6.626
  722SOL    HW2 3066   4.353   0.143   6.510
  723SOL     OW 3067   2.338   6.264   3.437
  723SOL    HW1 3068   2.359   6.255   3.340
  723SOL    HW2 3069   2.240   6.252   3.452
  724SOL     OW 3070   0.922   0.898   3.297
  724SOL    HW1 3071   0.895   0.971   3.234
  724SOL    HW2 3072   0.947   0.937   3.385
  725SOL     OW 3073   2.334   4.515   2.422
  725SOL    HW1 3074   2.328   4.418   2.398
  725SOL    HW2 3075   2.422   4.532   2.466
  726SOL     OW 3076   2.370   5.140   0.492
  726SOL    HW1 3077   2.375   5.229   0.446
  726SOL    HW2 3078   2.432   5.140   0.570
  727SOL     OW 3079   4.913   5.238   6.335
  727SOL    HW1 3080   4.841   5.169   6.342
  727SOL    HW2 3081   4.872   5.329   6.330
  728SOL     OW 3082   0.256   3.502   4.426
  728SOL    HW1 3083   0.263   3.484   4.328
  728SOL    HW2 3084   0.183   3.568   4.443
  729SOL     OW 3085   0.488   2.943   0.640
  729SOL    HW1 3086   0.458   3.021   0.695
  729SOL    HW2 3087   0.572   2.905   0.678
  730SOL     OW 3088   5.111   0.670   3.327
  730SOL    HW1 3089   5.042   0.693   3.259
  730SOL    HW2 3090   5.117   0.571   3.337
  731SOL     OW 3091   4.799   4.367   6.587
  731SOL    HW1 3092   4.716   4.400   6.540
  731SOL    HW2 3093   4.773   4.300   6.657
  732SOL     OW 3094   5.278   2.124   2.877
  732SOL    HW1 3095   5.358   2.064   2.873
  732SOL    HW2 3096   5.305   2.217   2.852
  733SOL     OW 3097   5.962   6.718   3.826
  733SOL    HW1 3098   6.050   6.752   3.861
  733SOL    HW2 3099   5.946   6.755   3.734
  734SOL     OW 3100   6.539   4.952   2.456
  734SOL    HW1 3101   6.619   4.995   2.499
  734SOL    HW2 3102   6.534   4.856   2.482
  735SOL     OW 3103   5.736   0.600   1.811
  735SOL    HW1 3104   5.768   0.651   1.732
  735SOL    HW2 3105   5.637   0.609   1.819
  736SOL     OW 3106   1.568   1.293   4.150
  736SOL    HW1 3107   1.533   1.228   4.216
  736SOL    HW2 3108   1.665   1.277   4.135
  737SOL     OW 3109   5.851   1.531   6.115
  737SOL    HW1 3110   5.765   1.501   6.157
  737SOL    HW2 3111   5.889   1.607   6.167
  738SOL     OW 3112   2.841   4.007   1.150
  738SOL    HW1 3113   2.887   4.085   1.192
  738SOL    HW2 3114   2.774   4.040   1.083
  739SOL     OW 3115   3.170   6.999   4.947
  739SOL    HW1 3116   3.249   7.017   4.888
  739SOL    HW2 3117   3.126   6.914   4.919
  740SOL     OW 3118   5.561   2.433   2.716
  740SOL    HW1 3119   5.628   2.371   2.675
  740SOL    HW2 3120   5.563   2.423   2.816
  741SOL     OW 3121   2.485   0.235   4.487
  741SOL    HW1 3122   2.424   0.292   4.432
  741SOL    HW2 3123   2.436   0.155   4.520
  742SOL     OW 3124   1.490   6.519   0.586
  742SOL    HW1 3125   1.463   6.548   0.494
  742SOL    HW2 3126   1.477   6.421   0.595
  743SOL     OW 3127   1.044   6.539   3.959
  743SOL    HW1 3128   1.098   6.507   3.881
  743SOL    HW2 3129   0.953   6.497   3.956
  744SOL     OW 3130   6.328   1.495   0.633
  744SOL    HW1 3131   6.355   1.586   0.664
  744SOL    HW2 3132   6.409   1.439   0.619
  745SOL     OW 3133   2.143   5.710   4.862
  745SOL    HW1 3134   2.047   5.724   4.836
  745SOL    HW2 3135   2.186   5.646   4.799
  746SOL     OW 3136   5.309   3.922   4.845
  746SOL    HW1 3137   5.257   3.939   4.929
  746SOL    HW2 3138   5.331   4.009   4.802
  747SOL     OW 3139   5.531   5.291   3.513
  747SOL    HW1 3140   5.585   5.268   3.432
  747SOL    HW2 3141   5.593   5.308   3.590
  748SOL     OW 3142   4.992   5.572   2.600
  748SOL    HW1 3143   4.992   5.602   2.505
  748SOL    HW2 3144   4.901   5.539   2.624
  749SOL     OW 3145   4.879   3.707   3.641
  749SOL    HW1 3146   4.788   3.746   3.632
  749SOL    HW2 3147   4.895   3.642   3.567
  750SOL     OW 3148   2.260   1.405   1.678
  750SOL    HW1 3149   2.265   1.504   1.688
  750SOL    HW2 3150   2.265   1.381   1.581
  751SOL     OW 3151   4.970   1.960   0.498
  751SOL    HW1 3152   5.061   1.990   0.467
  751SOL    HW2 3153   4.920   2.037   0.536
  752SOL     OW 3154   3.229   2.518   5.587
  752SOL    HW1 3155   3.209   2.429   5.627
  752SOL    HW2 3156   3.239   2.586   5.660
  753SOL     OW 3157   3.588   3.545   5.225
  753SOL    HW1 3158   3.552   3.511   5.138
  753SOL    HW2 3159   3.632   3.469   5.274
  754SOL     OW 3160   5.838   0.908   6.431
  754SOL    HW1 3161   5.826   0.995   6.478
  754SOL    HW2 3162   5.931   0.874   6.448
  755SOL     OW 3163   3.095   4.264   5.191
  755SOL    HW1 3164   3.170   4.258   5.257
  755SOL    HW2 3165   3.058   4.357   5.192
  756SOL     OW 3166   2.523   5.380   6.904
  756SOL    HW1 3167   2.495   5.306   6.843
  756SOL    HW2 3168   2.504   5.468   6.860
  757SOL     OW 3169   1.773   6.672   2.249
  757SOL    HW1 3170   1.707   6.675   2.174
  757SOL    HW2 3171   1.783   6.763   2.288
  758SOL     OW 3172   4.192   1.428   3.913
  758SOL    HW1 3173   4.186   1.354   3.979
  758SOL    HW2 3174   4.134   1.409   3.834
  759SOL     OW 3175   6.819   3.083   3.671
  759SOL    HW1 3176   6.838   2.986   3.678
  759SOL    HW2 3177   6.848   3.129   3.755
  760SOL     OW 3178   6.779   6.493   3.758
  760SOL    HW1 3179   6.750   6.587   3.774
  760SOL    HW2 3180   6.730   6.432   3.821
  761SOL     OW 3181   5.423   3.931   5.262
  761SOL    HW1 3182   5.382   3.840   5.253
  761SOL    HW2 3183   5.390   3.975   5.345
  762SOL     OW 3184   2.869   6.143   5.463
  762SOL    HW1 3185   2.780   6.175   5.494
  762SOL    HW2 3186   2.931   6.220   5.454
  763SOL     OW 3187   5.686   0.262   6.828
  763SOL    HW1 3188   5.626   0.338   6.802
  763SOL    HW2 3189   5.741   0.234   6.750
  764SOL     OW 3190   5.520   1.201   5.807
  764SOL    HW1 3191   5.598   1.202   5.870
  764SOL    HW2 3192   5.486   1.294   5.794
  765SOL     OW 3193   0.853   6.779   0.691
  765SOL    HW1 3194   0.756   6.765   0.673
  765SOL    HW2 3195   0.883   6.720   0.765
  766SOL     OW 3196   2.218   2.021   4.822
  766SOL    HW1 3197   2.223   1.946   4.888
  766SOL    HW2 3198   2.131   2.018   4.774
  767SOL     OW 3199   6.845   6.973   3.950
  767SOL    HW1 3200   6.927   6.962   3.894
  767SOL    HW2 3201   6.837   0.045   3.979
  768SOL     OW 3202   1.813   6.254   2.582
  768SOL    HW1 3203   1.847   6.288   2.494
  768SOL    HW2 3204   1.737   6.311   2.612
  769SOL     OW 3205   3.365   1.699   5.227
  769SOL    HW1 3206   3.343   1.758   5.305
  769SOL    HW2 3207   3.291   1.705   5.160
  770SOL     OW 3208   2.017   5.134   4.421
  770SOL    HW1 3209   1.956   5.128   4.500
  770SOL    HW2 3210   2.051   5.042   4.398
  771SOL     OW 3211   1.189   5.233   3.374
  771SOL    HW1 3212   1.157   5.277   3.290
  771SOL    HW2 3213   1.171   5.293   3.452
  772SOL     OW 3214   5.462   4.945   7.004
  772SOL    HW1 3215   5.472   4.850   0.010
  772SOL    HW2 3216   5.372   4.979   0.008
  773SOL     OW 3217   1.398   3.433   3.544
  773SOL    HW1 3218   1.448   3.453   3.460
  773SOL    HW2 3219   1.430   3.347   3.582
  774SOL     OW 3220   2.005   1.666   3.849
  774SOL    HW1 3221   2.056   1.648   3.933
  774SOL    HW2 3222   1.970   1.760   3.851
  775SOL     OW 3223   2.109   3.536   4.058
  775SOL    HW1 3224   2.131   3.438   4.060
  775SOL    HW2 3225   2.167   3.584   4.124
  776SOL     OW 3226   1.098   0.218   6.445
  776SOL    HW1 3227   1.148   0.133   6.428
  776SOL    HW2 3228   1.036   0.204   6.522
  777SOL     OW 3229   1.827   3.939   0.037
  777SOL    HW1 3230   1.907   3.902   7.012
  777SOL    HW2 3231   1.785   4.010   7.004
  778SOL     OW 3232   3.825   6.626   2.065
  778SOL    HW1 3233   3.773   6.604   1.982
  778SOL    HW2 3234   3.764   6.665   2.133
  779SOL     OW 3235   0.619   2.762   1.789
  779SOL    HW1 3236   0.553   2.687   1.790
  779SOL    HW2 3237   0.569   2.849   1.784
  780SOL     OW 3238   1.453   2.181   4.714
  780SOL    HW1 3239   1.362   2.138   4.714
  780SOL    HW2 3240   1.519   2.117   4.754
  781SOL     OW 3241   0.333   4.380   0.561
  781SOL    HW1 3242   0.236   4.370   0.585
  781SOL    HW2 3243   0.380   4.294   0.578
  782SOL     OW 3244   1.989   4.149   5.821
  782SOL    HW1 3245   1.994   4.055   5.855
  782SOL    HW2 3246   1.946   4.208   5.891
  783SOL     OW 3247   5.393   4.377   6.402
  783SOL    HW1 3248   5.456   4.443   6.445
  783SOL    HW2 3249   5.338   4.333   6.473
  784SOL     OW 3250   3.070   6.063   1.590
  784SOL    HW1 3251   3.136   6.136   1.610
  784SOL    HW2 3252   2.978   6.102   1.586
  785SOL     OW 3253   0.479   6.858   4.227
  785SOL    HW1 3254   0.554   6.908   4.182
  785SOL    HW2 3255   0.479   6.763   4.196
  786SOL     OW 3256   6.491   0.962   3.663
  786SOL    HW1 3257   6.534   0.968   3.753
  786SOL    HW2 3258   6.393   0.944   3.675
  787SOL     OW 3259   2.518   0.406   0.038
  787SOL    HW1 3260   2.441   0.448   0.087
  787SOL    HW2 3261   2.604   0.444   0.072
  788SOL     OW 3262   3.943   3.168   1.307
  788SOL    HW1 3263   3.874   3.119   1.254
  788SOL    HW2 3264   4.027   3.114   1.312
  789SOL     OW 3265   4.540   5.319   1.424
  789SOL    HW1 3266   4.608   5.263   1.472
  789SOL    HW2 3267   4.573   5.413   1.416
  790SOL     OW 3268   0.967   2.790   1.465
  790SOL    HW1 3269   0.919   2.748   1.542
  790SOL    HW2 3270   1.047   2.840   1.498
  791SOL     OW 3271   2.714   5.151   5.579
  791SOL    HW1 3272   2.635   5.099   5.611
  791SOL    HW2 3273   2.772   5.091   5.524
  792SOL     OW 3274   0.653   0.869   0.871
  792SOL    HW1 3275   0.663   0.969   0.876
  792SOL    HW2 3276   0.681   0.837   0.781
  793SOL     OW 3277   3.814   5.458   3.784
  793SOL    HW1 3278   3.911   5.481   3.781
  793SOL    HW2 3279   3.786   5.443   3.879
  794SOL     OW 3280   3.055   3.752   3.624
  794SOL    HW1 3281   3.038   3.700   3.540
  794SOL    HW2 3282   3.096   3.840   3.600
  795SOL     OW 3283   3.580   0.868   6.181
  795SOL    HW1 3284   3.648   0.796   6.169
  795SOL    HW2 3285   3.497   0.844   6.131
  796SOL     OW 3286   1.956   3.140   6.641
  796SOL    HW1 3287   1.944   3.077   6.717
  796SOL    HW2 3288   1.964   3.089   6.555
  797SOL     OW 3289   4.590   6.796   0.871
  797SOL    HW1 3290   4.510   6.737   0.880
  797SOL    HW2 3291   4.584   6.871   0.936
  798SOL     OW 3292   2.984   6.226   1.168
  798SOL    HW1 3293   2.978   6.255   1.072
  798SOL    HW2 3294   3.031   6.296   1.221
  799SOL     OW 3295   1.327   1.875   6.596
  799SOL    HW1 3296   1.241   1.857   6.643
  799SOL    HW2 3297   1.322   1.964   6.550
  800SOL     OW 3298   6.024   1.315   2.067
  800SOL    HW1 3299   5.972   1.393   2.033
  800SOL    HW2 3300   6.094   1.289   2.000
  801SOL     OW 3301   2.069   5.524   5.546
  801SOL    HW1 3302   2.011   5.523   5.464
  801SOL    HW2 3303   2.149   5.582   5.529
  802SOL     OW 3304   5.403   2.065   0.036
  802SOL    HW1 3305   5.403   2.148   0.092
  802SOL    HW2 3306   5.313   2.021   0.041
  803SOL     OW 3307   2.789   0.863   5.566
  803SOL    HW1 3308   2.775   0.898   5.473
  803SOL    HW2 3309   2.751   0.928   5.632
  804SOL     OW 3310   6.140   0.539   2.008
  804SOL    HW1 3311   6.054   0.488   2.011
  804SOL    HW2 3312   6.161   0.564   1.914
  805SOL     OW 3313   3.125   1.227   3.610
  805SOL    HW1 3314   3.059   1.300   3.591
  805SOL    HW2 3315   3.206   1.240   3.554
  806SOL     OW 3316   0.877   6.943   5.234
  806SOL    HW1 3317   0.823   6.862   5.257
  806SOL    HW2 3318   0.892   6.947   5.135
  807SOL     OW 3319   0.538   6.126   5.123
  807SOL    HW1 3320   0.536   6.221   5.093
  807SOL    HW2 3321   0.566   6.121   5.219
  808SOL     OW 3322   5.779   2.811   0.386
  808SOL    HW1 3323   5.723   2.891   0.408
  808SOL    HW2 3324   5.813   2.770   0.470
  809SOL     OW 3325   0.682   5.155   0.055
  809SOL    HW1 3326   0.588   5.162   0.021
  809SOL    HW2 3327   0.697   5.222   0.127
  810SOL     OW 3328   2.944   3.924   0.358
  810SOL    HW1 3329   2.900   3.838   0.384
  810SOL    HW2 3330   2.900   3.959   0.275
  811SOL     OW 3331   5.285   5.123   4.759
  811SOL    HW1 3332   5.268   5.114   4.858
  811SOL    HW2 3333   5.211   5.176   4.718
  812SOL     OW 3334   0.681   1.855   2.202
  812SOL    HW1 3335   0.770   1.816   2.224
  812SOL    HW2 3336   0.618   1.782   2.176
  813SOL     OW 3337   1.914   1.157   4.329
  813SOL    HW1 3338   1.898   1.137   4.232
  813SOL    HW2 3339   1.850   1.106   4.385
  814SOL     OW 3340   6.856   5.894   2.865
  814SOL    HW1 3341   6.931   5.866   2.925
  814SOL    HW2 3342   6.822   5.984   2.893
  815SOL     OW 3343   5.102   2.202   3.781
  815SOL    HW1 3344   5.023   2.245   3.825
  815SOL    HW2 3345   5.114   2.110   3.817
  816SOL     OW 3346   5.137   3.834   0.277
  816SOL    HW1 3347   5.046   3.804   0.248
  816SOL    HW2 3348   5.131   3.879   0.366
  817SOL     OW 3349   1.180   5.840   0.890
  817SOL    HW1 3350   1.253   5.844   0.958
  817SOL    HW2 3351   1.205   5.777   0.816
  818SOL     OW 3352   5.840   2.779   3.527
  818SOL    HW1 3353   5.807   2.737   3.443
  818SOL    HW2 3354   5.808   2.726   3.606
  819SOL     OW 3355   5.623   2.043   1.489
  819SOL    HW1 3356   5.565   2.101   1.544
  819SOL    HW2 3357   5.602   1.947   1.507
  820SOL     OW 3358   2.327   2.064   4.202
  820SOL    HW1 3359   2.299   2.056   4.106
  820SOL    HW2 3360   2.255   2.028   4.261
  821SOL     OW 3361   5.631   4.120   4.900
  821SOL    HW1 3362   5.691   4.069   4.838
  821SOL    HW2 3363   5.599   4.059   4.973
  822SOL     OW 3364   0.782   4.387   3.809
  822SOL    HW1 3365   0.690   4.354   3.788
  822SOL    HW2 3366   0.786   4.486   3.795
  823SOL     OW 3367   1.201   3.983   6.048
  823SOL    HW1 3368   1.183   4.070   6.094
  823SOL    HW2 3369   1.115   3.932   6.038
  824SOL     OW 3370   5.608   1.068   4.988
  824SOL    HW1 3371   5.707   1.080   4.980
  824SOL    HW2 3372   5.584   0.974   4.963
  825SOL     OW 3373   6.203   5.977   1.095
  825SOL    HW1 3374   6.292   5.950   1.059
  825SOL    HW2 3375   6.131   5.943   1.035
  826SOL     OW 3376   3.848   1.137   5.598
  826SOL    HW1 3377   3.860   1.237   5.594
  826SOL    HW2 3378   3.934   1.093   5.570
  827SOL     OW 3379   3.479   3.881   4.557
  827SOL    HW1 3380   3.400   3.937   4.584
  827SOL    HW2 3381   3.560   3.913   4.605
  828SOL     OW 3382   6.099   5.466   4.363
  828SOL    HW1 3383   6.172   5.401   4.384
  828SOL    HW2 3384   6.103   5.542   4.428
  829SOL     OW 3385   3.477   2.947   2.688
  829SOL    HW1 3386   3.548   2.903   2.743
  829SOL    HW2 3387   3.513   3.030   2.647
  830SOL     OW 3388   6.361   4.486   6.795
  830SOL    HW1 3389   6.435   4.518   6.735
  830SOL    HW2 3390   6.304   4.564   6.822
  831SOL     OW 3391   5.544   5.981   1.232
  831SOL    HW1 3392   5.550   6.062   1.292
  831SOL    HW2 3393   5.636   5.956   1.202
  832SOL     OW 3394   3.550   1.548   5.099
  832SOL    HW1 3395   3.494   1.611   5.154
  832SOL    HW2 3396   3.504   1.531   5.012
  833SOL     OW 3397   1.217   3.845   6.573
  833SOL    HW1 3398   1.139   3.902   6.546
  833SOL    HW2 3399   1.194   3.795   6.657
  834SOL     OW 3400   4.603   3.275   6.575
  834SOL    HW1 3401   4.666   3.350   6.596
  834SOL    HW2 3402   4.655   3.198   6.537
  835SOL     OW 3403   1.243   0.523   4.322
  835SOL    HW1 3404   1.220   0.615   4.352
  835SOL    HW2 3405   1.207   0.456   4.387
  836SOL     OW 3406   3.329   1.850   5.451
  836SOL    HW1 3407   3.385   1.777   5.492
  836SOL    HW2 3408   3.378   1.937   5.459
  837SOL     OW 3409   1.499   0.423   1.284
  837SOL    HW1 3410   1.427   0.490   1.299
  837SOL    HW2 3411   1.463   0.347   1.230
  838SOL     OW 3412   2.273   5.399   4.034
  838SOL    HW1 3413   2.334   5.385   3.956
  838SOL    HW2 3414   2.180   5.371   4.009
  839SOL     OW 3415   2.165   1.195   1.109
  839SOL    HW1 3416   2.131   1.265   1.046
  839SOL    HW2 3417   2.247   1.152   1.071
  840SOL     OW 3418   6.326   5.552   0.249
  840SOL    HW1 3419   6.354   5.468   0.203
  840SOL    HW2 3420   6.266   5.529   0.326
  841SOL     OW 3421   4.330   5.210   5.563
  841SOL    HW1 3422   4.399   5.196   5.633
  841SOL    HW2 3423   4.264   5.135   5.564
  842SOL     OW 3424   3.347   0.159   6.706
  842SOL    HW1 3425   3.264   0.185   6.657
  842SOL    HW2 3426   3.322   0.120   6.795
  843SOL     OW 3427   1.591   1.695   1.442
  843SOL    HW1 3428   1.632   1.657   1.359
  843SOL    HW2 3429   1.585   1.795   1.434
  844SOL     OW 3430   0.261   6.837   1.292
  844SOL    HW1 3431   0.167   6.850   1.262
  844SOL    HW2 3432   0.296   6.923   1.332
  845SOL     OW 3433   4.165   1.806   2.860
  845SOL    HW1 3434   4.247   1.834   2.810
  845SOL    HW2 3435   4.159   1.706   2.861
  846SOL     OW 3436   3.041   1.642   6.558
  846SOL    HW1 3437   3.137   1.670   6.550
  846SOL    HW2 3438   2.982   1.720   6.540
  847SOL     OW 3439   2.506   3.393   1.609
  847SOL    HW1 3440   2.446   3.416   1.686
  847SOL    HW2 3441   2.548   3.304   1.624
  848SOL     OW 3442   5.985   6.725   6.001
  848SOL    HW1 3443   5.936   6.729   5.914
  848SOL    HW2 3444   6.057   6.793   6.002
  849SOL     OW 3445   5.628   3.526   0.246
  849SOL    HW1 3446   5.659   3.499   0.337
  849SOL    HW2 3447   5.534   3.559   0.251
  850SOL     OW 3448   6.219   0.957   4.989
  850SOL    HW1 3449   6.225   0.857   4.988
  850SOL    HW2 3450   6.198   0.989   5.081
  851SOL     OW 3451   6.376   3.064   6.724
  851SOL    HW1 3452   6.427   3.027   6.646
  851SOL    HW2 3453   6.280   3.074   6.699
  852SOL     OW 3454   6.994   4.071   1.039
  852SOL    HW1 3455   6.894   4.074   1.046
  852SOL    HW2 3456   7.021   3.986   0.993
  853SOL     OW 3457   1.916   4.533   0.360
  853SOL    HW1 3458   1.836   4.552   0.415
  853SOL    HW2 3459   1.901   4.449   0.306
  854SOL     OW 3460   6.128   6.518   0.021
  854SOL    HW1 3461   6.219   6.475   0.022
  854SOL    HW2 3462   6.136   6.610   7.006
  855SOL     OW 3463   0.225   0.917   6.822
  855SOL    HW1 3464   0.295   0.887   6.757
  855SOL    HW2 3465   0.234   1.016   6.838
  856SOL     OW 3466   1.976   6.648   6.423
  856SOL    HW1 3467   2.013   6.612   6.509
  856SOL    HW2 3468   1.934   6.737   6.439
  857SOL     OW 3469   0.196   4.613   3.487
  857SOL    HW1 3470   0.264   4.660   3.430
  857SOL    HW2 3471   0.242   4.551   3.551
  858SOL     OW 3472   3.928   3.807   0.568
  858SOL    HW1 3473   4.028   3.807   0.563
  858SOL    HW2 3474   3.894   3.901   0.560
  859SOL     OW 3475   4.259   6.504   5.339
  859SOL    HW1 3476   4.257   6.425   5.278
  859SOL    HW2 3477   4.343   6.555   5.326
  860SOL     OW 3478   5.129   2.675   5.313
  860SOL    HW1 3479   5.036   2.647   5.288
  860SOL    HW2 3480   5.127   2.723   5.400
  861SOL     OW 3481   2.087   5.313   3.171
  861SOL    HW1 3482   2.100   5.268   3.083
  861SOL    HW2 3483   2.012   5.379   3.164
  862SOL     OW 3484   1.750   4.181   3.791
  862SOL    HW1 3485   1.706   4.231   3.716
  862SOL    HW2 3486   1.787   4.247   3.857
  863SOL     OW 3487   6.763   0.266   5.720
  863SOL    HW1 3488   6.749   0.362   5.694
  863SOL    HW2 3489   6.853   0.257   5.764
  864SOL     OW 3490   4.693   0.167   5.591
  864SOL    HW1 3491   4.750   0.247   5.610
  864SOL    HW2 3492   4.708   0.136   5.498
  865SOL     OW 3493   2.521   5.956   4.712
  865SOL    HW1 3494   2.496   6.027   4.778
  865SOL    HW2 3495   2.608   5.981   4.669
  866SOL     OW 3496   2.702   6.833   1.095
  866SOL    HW1 3497   2.795   6.799   1.107
  866SOL    HW2 3498   2.647   6.764   1.047
  867SOL     OW 3499   5.928   2.082   0.927
  867SOL    HW1 3500   5.968   2.148   0.863
  867SOL    HW2 3501   5.894   2.003   0.876
  868SOL     OW 3502   0.238   1.928   2.086
  868SOL    HW1 3503   0.248   2.027   2.074
  868SOL    HW2 3504   0.217   1.907   2.181
  869SOL     OW 3505   7.021   4.036   4.226
  869SOL    HW1 3506   0.034   4.076   4.141
  869SOL    HW2 3507   0.035   3.944   4.236
  870SOL     OW 3508   3.419   5.055   1.882
  870SOL    HW1 3509   3.484   5.069   1.958
  870SOL    HW2 3510   3.409   4.957   1.865
  871SOL     OW 3511   4.900   1.918   4.527
  871SOL    HW1 3512   4.954   1.946   4.448
  871SOL    HW2 3513   4.815   1.971   4.530
  872SOL     OW 3514   0.075   2.192   4.636
  872SOL    HW1 3515   0.089   2.093   4.634
  872SOL    HW2 3516   0.161   2.238   4.613
  873SOL     OW 3517   4.366   6.250   5.904
  873SOL    HW1 3518   4.276   6.288   5.923
  873SOL    HW2 3519   4.435   6.321   5.914
  874SOL     OW 3520   5.992   4.460   6.565
  874SOL    HW1 3521   6.010   4.363   6.579
  874SOL    HW2 3522   6.077   4.512   6.573
  875SOL     OW 3523   5.186   5.108   1.011
  875SOL    HW1 3524   5.208   5.044   1.084
  875SOL    HW2 3525   5.216   5.200   1.036
  876SOL     OW 3526   0.398   5.468   2.099
  876SOL    HW1 3527   0.480   5.411   2.087
  876SOL    HW2 3528   0.419   5.544   2.160
  877SOL     OW 3529   2.797   4.690   0.323
  877SOL    HW1 3530   2.752   4.693   0.412
  877SOL    HW2 3531   2.732   4.718   0.252
  878SOL     OW 3532   4.215   6.731   4.127
  878SOL    HW1 3533   4.292   6.772   4.078
  878SOL    HW2 3534   4.142   6.710   4.062
  879SOL     OW 3535   3.994   0.602   1.311
  879SOL    HW1 3536   3.910   0.655   1.324
  879SOL    HW2 3537   3.980   0.535   1.239
  880SOL     OW 3538   3.396   4.157   3.786
  880SOL    HW1 3539   3.469   4.164   3.718
  880SOL    HW2 3540   3.436   4.165   3.878
  881SOL     OW 3541   4.469   2.433   5.111
  881SOL    HW1 3542   4.507   2.342   5.128
  881SOL    HW2 3543   4.378   2.424   5.070
  882SOL     OW 3544   0.509   3.532   4.767
  882SOL    HW1 3545   0.508   3.550   4.668
  882SOL    HW2 3546   0.448   3.456   4.787
  883SOL     OW 3547   2.734   0.460   3.324
  883SOL    HW1 3548   2.686   0.515   3.392
  883SOL    HW2 3549   2.800   0.517   3.275
  884SOL     OW 3550   4.777   2.809   5.460
  884SOL    HW1 3551   4.845   2.867   5.414
  884SOL    HW2 3552   4.693   2.807   5.406
  885SOL     OW 3553   2.927   1.191   5.704
  885SOL    HW1 3554   2.923   1.126   5.629
  885SOL    HW2 3555   2.986   1.268   5.678
  886SOL     OW 3556   3.780   0.659   0.516
  886SOL    HW1 3557   3.822   0.750   0.514
  886SOL    HW2 3558   3.781   0.623   0.609
  887SOL     OW 3559   3.909   6.932   3.957
  887SOL    HW1 3560   3.974   6.861   3.932
  887SOL    HW2 3561   3.855   6.901   4.035
  888SOL     OW 3562   0.793   6.887   2.887
  888SOL    HW1 3563   0.705   6.878   2.840
  888SOL    HW2 3564   0.820   6.984   2.889
  889SOL     OW 3565   0.441   3.608   0.467
  889SOL    HW1 3566   0.513   3.640   0.529
  889SOL    HW2 3567   0.357   3.659   0.484
  890SOL     OW 3568   1.252   5.231   3.832
  890SOL    HW1 3569   1.257   5.268   3.925
  890SOL    HW2 3570   1.342   5.235   3.789
  891SOL     OW 3571   5.422   5.579   1.016
  891SOL    HW1 3572   5.387   5.667   0.984
  891SOL    HW2 3573   5.522   5.579   1.011
  892SOL     OW 3574   2.881   4.142   5.583
  892SOL    HW1 3575   2.869   4.203   5.504
  892SOL    HW2 3576   2.846   4.187   5.665
  893SOL     OW 3577   2.736   6.503   2.834
  893SOL    HW1 3578   2.649   6.455   2.844
  893SOL    HW2 3579   2.719   6.599   2.814
  894SOL     OW 3580   1.010   3.090   1.338
  894SOL    HW1 3581   0.996   2.992   1.324
  894SOL    HW2 3582   0.944   3.141   1.282
  895SOL     OW 3583   0.530   4.322   3.215
  895SOL    HW1 3584   0.559   4.386   3.286
  895SOL    HW2 3585   0.606   4.260   3.193
  896SOL     OW 3586   5.894   5.288   0.719
  896SOL    HW1 3587   5.981   5.243   0.740
  896SOL    HW2 3588   5.863   5.258   0.629
  897SOL     OW 3589   4.665   1.272   0.382
  897SOL    HW1 3590   4.615   1.193   0.347
  897SOL    HW2 3591   4.619   1.306   0.464
  898SOL     OW 3592   3.506   6.003   2.857
  898SOL    HW1 3593   3.458   6.082   2.821
  898SOL    HW2 3594   3.563   5.963   2.785
  899SOL     OW 3595   0.315   5.952   6.519
  899SOL    HW1 3596   0.359   6.030   6.475
  899SOL    HW2 3597   0.362   5.868   6.492
  900SOL     OW 3598   6.073   6.957   0.210
  900SOL    HW1 3599   6.033   6.871   0.178
  900SOL    HW2 3600   6.117   6.943   0.299
  901SOL     OW 3601   2.186   0.484   2.661
  901SOL    HW1 3602   2.272   0.530   2.645
  901SOL    HW2 3603   2.141   0.523   2.742
  902SOL     OW 3604   0.192   3.047   0.596
  902SOL    HW1 3605   0.262   3.067   0.528
  902SOL    HW2 3606   0.233   3.044   0.687
  903SOL     OW 3607   6.717   2.184   6.568
  903SOL    HW1 3608   6.705   2.152   6.662
  903SOL    HW2 3609   6.706   2.283   6.565
  904SOL     OW 3610   2.756   2.149   3.520
  904SOL    HW1 3611   2.854   2.153   3.502
  904SOL    HW2 3612   2.739   2.167   3.617
  905SOL     OW 3613   5.168   1.923   0.088
  905SOL    HW1 3614   5.170   1.846   0.024
  905SOL    HW2 3615   5.073   1.942   0.113
  906SOL     OW 3616   7.022   2.496   5.903
  906SOL    HW1 3617   0.040   2.568   5.848
  906SOL    HW2 3618   0.065   2.422   5.915
  907SOL     OW 3619   5.043   3.337   0.388
  907SOL    HW1 3620   5.036   3.428   0.428
  907SOL    HW2 3621   4.969   3.279   0.423
  908SOL     OW 3622   2.581   4.844   2.614
  908SOL    HW1 3623   2.607   4.895   2.532
  908SOL    HW2 3624   2.490   4.873   2.644
  909SOL     OW 3625   4.296   5.585   0.118
  909SOL    HW1 3626   4.285   5.526   0.038
  909SOL    HW2 3627   4.319   5.677   0.088
  910SOL     OW 3628   3.017   2.752   1.235
  910SOL    HW1 3629   3.090   2.771   1.302
  910SOL    HW2 3630   2.938   2.713   1.282
  911SOL     OW 3631   1.384   5.880   6.219
  911SOL    HW1 3632   1.388   5.852   6.123
  911SOL    HW2 3633   1.313   5.828   6.266
  912SOL     OW 3634   5.497   2.932   3.055
  912SOL    HW1 3635   5.451   2.887   3.131
  912SOL    HW2 3636   5.435   3.000   3.014
  913SOL     OW 3637   4.917   5.948   3.229
  913SOL    HW1 3638   4.934   6.005   3.309
  913SOL    HW2 3639   4.984   5.971   3.157
  914SOL     OW 3640   2.253   0.403   6.637
  914SOL    HW1 3641   2.189   0.452   6.577
  914SOL    HW2 3642   2.237   0.305   6.630
  915SOL     OW 3643   6.224   4.607   6.550
  915SOL    HW1 3644   6.171   4.692   6.556
  915SOL    HW2 3645   6.316   4.623   6.585
  916SOL     OW 3646   1.769   2.598   2.045
  916SOL    HW1 3647   1.809   2.646   2.124
  916SOL    HW2 3648   1.788   2.649   1.962
  917SOL     OW 3649   6.876   6.743   0.638
  917SOL    HW1 3650   6.900   6.724   0.543
  917SOL    HW2 3651   6.872   6.657   0.689
  918SOL     OW 3652   2.372   6.852   0.407
  918SOL    HW1 3653   2.394   6.754   0.403
  918SOL    HW2 3654   2.342   6.876   0.499
  919SOL     OW 3655   5.275   1.254   3.471
  919SOL    HW1 3656   5.326   1.172   3.448
  919SOL    HW2 3657   5.335   1.318   3.518
  920SOL     OW 3658   2.355   4.669   1.669
  920SOL    HW1 3659   2.302   4.699   1.748
  920SOL    HW2 3660   2.423   4.601   1.698
  921SOL     OW 3661   5.027   5.402   4.398
  921SOL    HW1 3662   4.990   5.355   4.318
  921SOL    HW2 3663   5.005   5.499   4.393
  922SOL     OW 3664   3.793   3.552   4.394
  922SOL    HW1 3665   3.827   3.643   4.369
  922SOL    HW2 3666   3.724   3.523   4.328
  923SOL     OW 3667   2.041   2.893   5.965
  923SOL    HW1 3668   1.952   2.852   5.947
  923SOL    HW2 3669   2.109   2.851   5.905
  924SOL     OW 3670   6.550   3.635   2.359
  924SOL    HW1 3671   6.480   3.704   2.341
  924SOL    HW2 3672   6.572   3.588   2.274
  925SOL     OW 3673   6.909   2.332   0.199
  925SOL    HW1 3674   6.974   2.403   0.176
  925SOL    HW2 3675   6.863   2.354   0.285
  926SOL     OW 3676   6.867   1.673   1.538
  926SOL    HW1 3677   6.808   1.738   1.587
  926SOL    HW2 3678   6.931   1.724   1.481
  927SOL     OW 3679   5.910   3.995   3.792
  927SOL    HW1 3680   5.822   3.958   3.763
  927SOL    HW2 3681   5.911   4.003   3.892
  928SOL     OW 3682   2.859   6.016   0.618
  928SOL    HW1 3683   2.928   5.946   0.596
  928SOL    HW2 3684   2.854   6.028   0.717
  929SOL     OW 3685   6.684   1.074   7.001
  929SOL    HW1 3686   6.782   1.088   7.012
  929SOL    HW2 3687   6.667   1.007   6.929
  930SOL     OW 3688   4.255   5.346   6.181
  930SOL    HW1 3689   4.233   5.351   6.084
  930SOL    HW2 3690   4.317   5.420   6.205
  931SOL     OW 3691   6.690   1.971   3.707
  931SOL    HW1 3692   6.706   1.965   3.609
  931SOL    HW2 3693   6.633   1.895   3.736
  932SOL     OW 3694   3.553   1.499   3.658
  932SOL    HW1 3695   3.479   1.563   3.680
  932SOL    HW2 3696   3.639   1.532   3.697
  933SOL     OW 3697   1.347   4.874   2.734
  933SOL    HW1 3698   1.367   4.972   2.725
  933SOL    HW2 3699   1.416   4.831   2.791
  934SOL     OW 3700   2.436   6.070   6.367
  934SOL    HW1 3701   2.478   5.980   6.379
  934SOL    HW2 3702   2.505   6.136   6.338
  935SOL     OW 3703   5.146   3.956   3.342
  935SOL    HW1 3704   5.145   4.012   3.258
  935SOL    HW2 3705   5.092   3.874   3.327
  936SOL     OW 3706   1.323   0.493   5.992
  936SOL    HW1 3707   1.335   0.501   6.090
  936SOL    HW2 3708   1.413   0.496   5.947
  937SOL     OW 3709   4.117   1.236   5.598
  937SOL    HW1 3710   4.077   1.318   5.557
  937SOL    HW2 3711   4.170   1.262   5.679
  938SOL     OW 3712   6.996   5.863   4.096
  938SOL    HW1 3713   0.045   5.801   4.126
  938SOL    HW2 3714   6.931   5.813   4.039
  939SOL     OW 3715   6.799   6.817   4.739
  939SOL    HW1 3716   6.837   6.909   4.727
  939SOL    HW2 3717   6.781   6.800   4.836
  940SOL     OW 3718   0.943   5.021   1.271
  940SOL    HW1 3719   1.041   5.015   1.252
  940SOL    HW2 3720   0.904   5.098   1.222
  941SOL     OW 3721   4.774   0.466   6.674
  941SOL    HW1 3722   4.861   0.515   6.681
  941SOL    HW2 3723   4.791   0.368   6.684
  942SOL     OW 3724   6.645   6.364   1.106
  942SOL    HW1 3725   6.631   6.338   1.011
  942SOL    HW2 3726   6.685   6.456   1.110
  943SOL     OW 3727   2.828   4.905   2.705
  943SOL    HW1 3728   2.747   4.848   2.689
  943SOL    HW2 3729   2.842   4.966   2.627
  944SOL     OW 3730   0.451   6.235   4.373
  944SOL    HW1 3731   0.498   6.149   4.392
  944SOL    HW2 3732   0.421   6.276   4.460
  945SOL     OW 3733   0.131   5.547   5.257
  945SOL    HW1 3734   0.171   5.633   5.290
  945SOL    HW2 3735   0.202   5.477   5.251
  946SOL     OW 3736   4.853   4.540   4.301
  946SOL    HW1 3737   4.781   4.472   4.281
  946SOL    HW2 3738   4.926   4.496   4.353
  947SOL     OW 3739   4.147   3.543   3.685
  947SOL    HW1 3740   4.088   3.463   3.674
  947SOL    HW2 3741   4.159   3.562   3.782
  948SOL     OW 3742   4.893   1.169   2.804
  948SOL    HW1 3743   4.920   1.076   2.780
  948SOL    HW2 3744   4.971   1.230   2.795
  949SOL     OW 3745   2.844   6.635   0.746
  949SOL    HW1 3746   2.769   6.571   0.727
  949SOL    HW2 3747   2.855   6.643   0.845
  950SOL     OW 3748   6.695   5.691   1.658
  950SOL    HW1 3749   6.636   5.759   1.702
  950SOL    HW2 3750   6.790   5.710   1.681
  951SOL     OW 3751   1.697   0.099   3.381
  951SOL    HW1 3752   1.633   0.050   3.440
  951SOL    HW2 3753   1.790   0.081   3.412
  952SOL     OW 3754   4.006   2.142   2.457
  952SOL    HW1 3755   4.016   2.137   2.358
  952SOL    HW2 3756   3.910   2.128   2.481
  953SOL     OW 3757   6.652   5.854   4.965
  953SOL    HW1 3758   6.642   5.859   5.065
  953SOL    HW2 3759   6.592   5.922   4.923
  954SOL     OW 3760   4.720   5.765   2.049
  954SOL    HW1 3761   4.662   5.773   2.130
  954SOL    HW2 3762   4.798   5.705   2.070
  955SOL     OW 3763   1.692   4.650   6.975
  955SOL    HW1 3764   1.672   4.684   0.044
  955SOL    HW2 3765   1.638   4.701   6.909
  956SOL     OW 3766   0.270   0.753   1.054
  956SOL    HW1 3767   0.217   0.669   1.061
  956SOL    HW2 3768   0.209   0.831   1.042
  957SOL     OW 3769   6.191   1.384   2.280
  957SOL    HW1 3770   6.157   1.338   2.198
  957SOL    HW2 3771   6.114   1.415   2.335
  958SOL     OW 3772   5.022   6.689   2.312
  958SOL    HW1 3773   5.101   6.634   2.285
  958SOL    HW2 3774   5.053   6.780   2.341
  959SOL     OW 3775   3.564   6.738   4.126
  959SOL    HW1 3776   3.469   6.763   4.109
  959SOL    HW2 3777   3.572   6.639   4.134
  960SOL     OW 3778   0.461   0.599   0.651
  960SOL    HW1 3779   0.453   0.623   0.748
  960SOL    HW2 3780   0.426   0.674   0.595
  961SOL     OW 3781   3.102   6.288   3.221
  961SOL    HW1 3782   3.053   6.335   3.147
  961SOL    HW2 3783   3.194   6.326   3.230
  962SOL     OW 3784   6.542   6.943   4.921
  962SOL    HW1 3785   6.474   6.887   4.875
  962SOL    HW2 3786   6.559   0.003   4.868
  963SOL     OW 3787   4.616   2.060   1.629
  963SOL    HW1 3788   4.625   2.154   1.595
  963SOL    HW2 3789   4.553   2.010   1.569
  964SOL     OW 3790   5.220   4.402   4.882
  964SOL    HW1 3791   5.311   4.378   4.847
  964SOL    HW2 3792   5.183   4.324   4.932
  965SOL     OW 3793   5.627   2.252   2.333
  965SOL    HW1 3794   5.651   2.320   2.402
  965SOL    HW2 3795   5.672   2.274   2.247
  966SOL     OW 3796   5.012   1.932   3.593
  966SOL    HW1 3797   5.003   2.032   3.586
  966SOL    HW2 3798   5.107   1.909   3.612
  967SOL     OW 3799   4.290   4.456   6.400
  967SOL    HW1 3800   4.210   4.503   6.437
  967SOL    HW2 3801   4.293   4.468   6.301
  968SOL     OW 3802   3.411   0.418   2.016
  968SOL    HW1 3803   3.444   0.329   1.982
  968SOL    HW2 3804   3.489   0.477   2.037
  969SOL     OW 3805   3.670   4.954   5.922
  969SOL    HW1 3806   3.739   4.883   5.922
  969SOL    HW2 3807   3.669   5.000   6.011
  970SOL     OW 3808   6.247   0.649   4.955
  970SOL    HW1 3809   6.308   0.577   4.987
  970SOL    HW2 3810   6.193   0.615   4.878
  971SOL     OW 3811   6.801   4.518   2.832
  971SOL    HW1 3812   6.744   4.597   2.854
  971SOL    HW2 3813   6.884   4.521   2.888
  972SOL     OW 3814   6.693   2.534   0.926
  972SOL    HW1 3815   6.664   2.555   1.020
  972SOL    HW2 3816   6.632   2.581   0.862
  973SOL     OW 3817   0.214   4.366   5.818
  973SOL    HW1 3818   0.268   4.450   5.811
  973SOL    HW2 3819   0.123   4.382   5.781
  974SOL     OW 3820   0.430   4.887   4.083
  974SOL    HW1 3821   0.449   4.794   4.113
  974SOL    HW2 3822   0.332   4.905   4.092
  975SOL     OW 3823   1.996   6.441   1.611
  975SOL    HW1 3824   2.059   6.489   1.549
  975SOL    HW2 3825   1.977   6.500   1.689
  976SOL     OW 3826   6.394   3.940   1.920
  976SOL    HW1 3827   6.389   3.960   1.822
  976SOL    HW2 3828   6.315   3.980   1.966
  977SOL     OW 3829   1.140   1.052   2.244
  977SOL    HW1 3830   1.151   0.954   2.259
  977SOL    HW2 3831   1.047   1.080   2.270
  978SOL     OW 3832   6.198   1.957   1.912
  978SOL    HW1 3833   6.297   1.948   1.905
  978SOL    HW2 3834   6.169   2.040   1.865
  979SOL     OW 3835   6.998   3.430   6.407
  979SOL    HW1 3836   6.997   3.331   6.423
  979SOL    HW2 3837   6.936   3.451   6.331
  980SOL     OW 3838   3.878   1.096   4.653
  980SOL    HW1 3839   3.852   1.191   4.669
  980SOL    HW2 3840   3.893   1.081   4.555
  981SOL     OW 3841   6.828   0.280   4.827
  981SOL    HW1 3842   6.876   0.335   4.895
  981SOL    HW2 3843   6.833   0.183   4.853
  982SOL     OW 3844   0.424   1.719   5.522
  982SOL    HW1 3845   0.514   1.742   5.557
  982SOL    HW2 3846   0.366   1.687   5.597
  983SOL     OW 3847   0.245   3.747   3.439
  983SOL    HW1 3848   0.194   3.682   3.495
  983SOL    HW2 3849   0.330   3.704   3.407
  984SOL     OW 3850   1.888   2.262   2.943
  984SOL    HW1 3851   1.875   2.166   2.917
  984SOL    HW2 3852   1.945   2.307   2.874
  985SOL     OW 3853   5.809   3.339   3.947
  985SOL    HW1 3854   5.858   3.300   3.869
  985SOL    HW2 3855   5.777   3.431   3.925
  986SOL     OW 3856   4.865   4.230   1.330
  986SOL    HW1 3857   4.768   4.227   1.355
  986SOL    HW2 3858   4.898   4.137   1.314
  987SOL     OW 3859   5.789   5.577   3.497
  987SOL    HW1 3860   5.693   5.584   3.472
  987SOL    HW2 3861   5.803   5.612   3.589
  988SOL     OW 3862   3.589   3.940   1.727
  988SOL    HW1 3863   3.615   3.919   1.822
  988SOL    HW2 3864   3.561   4.035   1.720
  989SOL     OW 3865   0.204   2.384   0.405
  989SOL    HW1 3866   0.211   2.370   0.504
  989SOL    HW2 3867   0.287   2.430   0.373
  990SOL     OW 3868   3.515   0.914   3.208
  990SOL    HW1 3869   3.584   0.905   3.137
  990SOL    HW2 3870   3.557   0.945   3.292
  991SOL     OW 3871   6.589   3.945   4.098
  991SOL    HW1 3872   6.580   3.854   4.057
  991SOL    HW2 3873   6.501   3.992   4.094
  992SOL     OW 3874   1.185   2.791   1.165
  992SOL    HW1 3875   1.204   2.694   1.183
  992SOL    HW2 3876   1.222   2.846   1.240
  993SOL     OW 3877   1.424   4.564   0.980
  993SOL    HW1 3878   1.351   4.499   0.960
  993SOL    HW2 3879   1.511   4.514   0.985
  994SOL     OW 3880   3.563   6.461   1.441
  994SOL    HW1 3881   3.534   6.513   1.521
  994SOL    HW2 3882   3.482   6.428   1.392
  995SOL     OW 3883   4.916   3.424   5.743
  995SOL    HW1 3884   5.006   3.396   5.776
  995SOL    HW2 3885   4.918   3.521   5.719
  996SOL     OW 3886   4.419   6.132   5.512
  996SOL    HW1 3887   4.469   6.056   5.470
  996SOL    HW2 3888   4.353   6.168   5.446
  997SOL     OW 3889   1.418   6.737   3.540
  997SOL    HW1 3890   1.381   6.688   3.461
  997SOL    HW2 3891   1.518   6.734   3.538
  998SOL     OW 3892   6.249   0.367   6.161
  998SOL    HW1 3893   6.344   0.345   6.181
  998SOL    HW2 3894   6.245   0.445   6.099
  999SOL     OW 3895   4.911   3.221   1.411
  999SOL    HW1 3896   4.998   3.205   1.458
  999SOL    HW2 3897   4.895   3.319   1.402
 1000SOL     OW 3898   3.986   1.674   1.085
 1000SOL    HW1 3899   3.916   1.711   1.025
 1000SOL    HW2 3900   4.052   1.622   1.031
 1001SOL     OW 3901   2.783   6.453   2.220
 1001SOL    HW1 3902   2.709   6.492   2.164
 1001SOL    HW2 3903   2.781   6.353   2.214
 1002SOL     OW 3904   5.062   2.719   1.625
 1002SOL    HW1 3905   5.003   2.757   1.553
 1002SOL    HW2 3906   5.039   2.761   1.713
 1003SOL     OW 3907   1.358   6.013   2.711
 1003SOL    HW1 3908   1.386   5.919   2.727
 1003SOL    HW2 3909   1.422   6.058   2.649
 1004SOL     OW 3910   6.672   1.758   3.325
 1004SOL    HW1 3911   6.742   1.723   3.262
 1004SOL    HW2 3912   6.609   1.818   3.276
 1005SOL     OW 3913   1.382   4.594   4.233
 1005SOL    HW1 3914   1.451   4.524   4.217
 1005SOL    HW2 3915   1.304   4.578   4.172
 1006SOL     OW 3916   2.170   4.045   0.601
 1006SOL    HW1 3917   2.117   4.115   0.552
 1006SOL    HW2 3918   2.251   4.087   0.641
 1007SOL     OW 3919   4.561   1.617   0.060
 1007SOL    HW1 3920   4.563   1.531   0.009
 1007SOL    HW2 3921   4.604   1.689   0.005
 1008SOL     OW 3922   0.665   4.863   5.006
 1008SOL    HW1 3923   0.672   4.907   5.096
 1008SOL    HW2 3924   0.674   4.933   4.935
 1009SOL     OW 3925   6.059   4.856   5.228
 1009SOL    HW1 3926   6.104   4.877   5.315
 1009SOL    HW2 3927   5.960   4.866   5.238
 1010SOL     OW 3928   2.254   2.940   1.776
 1010SOL    HW1 3929   2.279   3.037   1.779
 1010SOL    HW2 3930   2.166   2.927   1.821
 1011SOL     OW 3931   0.904   5.192   2.539
 1011SOL    HW1 3932   0.944   5.263   2.597
 1011SOL    HW2 3933   0.811   5.174   2.570
 1012SOL     OW 3934   6.327   0.012   2.294
 1012SOL    HW1 3935   6.261   0.023   2.220
 1012SOL    HW2 3936   6.419   0.001   2.256
 1013SOL     OW 3937   6.700   1.064   6.105
 1013SOL    HW1 3938   6.722   1.161   6.092
 1013SOL    HW2 3939   6.633   1.035   6.037
 1014SOL     OW 3940   1.082   5.037   3.734
 1014SOL    HW1 3941   1.153   5.079   3.791
 1014SOL    HW2 3942   1.124   4.973   3.671
 1015SOL     OW 3943   3.210   0.075   6.376
 1015SOL    HW1 3944   3.298   0.094   6.333
 1015SOL    HW2 3945   3.182   0.153   6.431
 1016SOL     OW 3946   5.147   4.161   1.130
 1016SOL    HW1 3947   5.188   4.093   1.069
 1016SOL    HW2 3948   5.137   4.121   1.222
 1017SOL     OW 3949   2.088   1.881   1.691
 1017SOL    HW1 3950   2.047   1.790   1.679
 1017SOL    HW2 3951   2.114   1.917   1.601
 1018SOL     OW 3952   6.898   4.867   3.793
 1018SOL    HW1 3953   6.899   4.775   3.834
 1018SOL    HW2 3954   6.990   4.905   3.794
 1019SOL     OW 3955   6.724   4.945   0.681
 1019SOL    HW1 3956   6.703   4.945   0.779
 1019SOL    HW2 3957   6.717   4.852   0.645
 1020SOL     OW 3958   0.199   0.558   1.724
 1020SOL    HW1 3959   0.225   0.646   1.683
 1020SOL    HW2 3960   0.100   0.546   1.718
 1021SOL     OW 3961   6.686   5.816   2.229
 1021SOL    HW1 3962   6.781   5.787   2.233
 1021SOL    HW2 3963   6.635   5.773   2.304
 1022SOL     OW 3964   2.661   6.213   6.294
 1022SOL    HW1 3965   2.697   6.238   6.204
 1022SOL    HW2 3966   2.737   6.202   6.359
 1023SOL     OW 3967   6.927   1.548   2.729
 1023SOL    HW1 3968   6.865   1.615   2.690
 1023SOL    HW2 3969   6.879   1.462   2.744
 1024SOL     OW 3970   0.808   1.312   5.007
 1024SOL    HW1 3971   0.803   1.232   4.947
 1024SOL    HW2 3972   0.719   1.328   5.048
 1025SOL     OW 3973   5.115   3.701   6.442
 1025SOL    HW1 3974   5.114   3.738   6.349
 1025SOL    HW2 3975   5.048   3.749   6.497
 1026SOL     OW 3976   3.052   2.298   1.706
 1026SOL    HW1 3977   3.052   2.201   1.731
 1026SOL    HW2 3978   3.023   2.353   1.784
 1027SOL     OW 3979   1.288   6.081   1.901
 1027SOL    HW1 3980   1.340   6.024   1.965
 1027SOL    HW2 3981   1.202   6.109   1.943
 1028SOL     OW 3982   1.125   6.216   3.437
 1028SOL    HW1 3983   1.204   6.176   3.391
 1028SOL    HW2 3984   1.052   6.230   3.371
 1029SOL     OW 3985   1.223   1.945   5.757
 1029SOL    HW1 3986   1.145   1.965   5.816
 1029SOL    HW2 3987   1.201   1.971   5.663
 1030SOL     OW 3988   3.252   3.182   1.768
 1030SOL    HW1 3989   3.198   3.255   1.726
 1030SOL    HW2 3990   3.207   3.094   1.754
 1031SOL     OW 3991   3.626   3.431   1.535
 1031SOL    HW1 3992   3.599   3.375   1.613
 1031SOL    HW2 3993   3.722   3.457   1.544
 1032SOL     OW 3994   2.133   0.921   6.073
 1032SOL    HW1 3995   2.076   0.844   6.104
 1032SOL    HW2 3996   2.143   0.918   5.974
 1033SOL     OW 3997   1.015   5.865   2.093
 1033SOL    HW1 3998   1.010   5.781   2.038
 1033SOL    HW2 3999   0.936   5.868   2.154
 1034SOL     OW 4000   3.525   6.461   4.553
 1034SOL    HW1 4001   3.483   6.496   4.469
 1034SOL    HW2 4002   3.465   6.393   4.595
 1035SOL     OW 4003   0.547   2.190   5.582
 1035SOL    HW1 4004   0.609   2.118   5.613
 1035SOL    HW2 4005   0.468   2.195   5.644
 1036SOL     OW 4006   5.055   1.174   1.622
 1036SOL    HW1 4007   5.057   1.259   1.569
 1036SOL    HW2 4008   4.964   1.133   1.616
 1037SOL     OW 4009   2.190   2.210   2.632
 1037SOL    HW1 4010   2.156   2.260   2.712
 1037SOL    HW2 4011   2.146   2.244   2.550
 1038SOL     OW 4012   2.394   0.733   6.832
 1038SOL    HW1 4013   2.403   0.776   6.921
 1038SOL    HW2 4014   2.298   0.714   6.814
 1039SOL     OW 4015   3.135   3.186   3.840
 1039SOL    HW1 4016   3.046   3.220   3.810
 1039SOL    HW2 4017   3.181   3.256   3.895
 1040SOL     OW 4018   5.022   0.829   3.095
 1040SOL    HW1 4019   5.119   0.852   3.090
 1040SOL    HW2 4020   4.976   0.862   3.012
 1041SOL     OW 4021   6.726   6.101   4.740
 1041SOL    HW1 4022   6.643   6.059   4.777
 1041SOL    HW2 4023   6.799   6.033   4.737
 1042SOL     OW 4024   4.945   4.939   2.366
 1042SOL    HW1 4025   4.873   4.872   2.354
 1042SOL    HW2 4026   5.021   4.898   2.416
 1043SOL     OW 4027   3.449   1.237   3.330
 1043SOL    HW1 4028   3.476   1.282   3.245
 1043SOL    HW2 4029   3.357   1.199   3.319
 1044SOL     OW 4030   6.313   5.029   1.465
 1044SOL    HW1 4031   6.353   5.119   1.480
 1044SOL    HW2 4032   6.225   5.038   1.419
 1045SOL     OW 4033   2.366   0.490   3.574
 1045SOL    HW1 4034   2.370   0.394   3.545
 1045SOL    HW2 4035   2.297   0.500   3.645
 1046SOL     OW 4036   3.124   0.954   1.498
 1046SOL    HW1 4037   3.039   0.977   1.547
 1046SOL    HW2 4038   3.101   0.921   1.406
 1047SOL     OW 4039   3.416   6.876   3.682
 1047SOL    HW1 4040   3.418   6.779   3.706
 1047SOL    HW2 4041   3.388   6.887   3.586
 1048SOL     OW 4042   2.303   6.006   2.086
 1048SOL    HW1 4043   2.241   5.967   2.017
 1048SOL    HW2 4044   2.342   5.932   2.140
 1049SOL     OW 4045   4.071   6.994   4.346
 1049SOL    HW1 4046   4.095   6.900   4.371
 1049SOL    HW2 4047   4.076   7.005   4.247
 1050SOL     OW 4048   3.921   5.150   3.656
 1050SOL    HW1 4049   3.939   5.120   3.562
 1050SOL    HW2 4050   3.893   5.071   3.711
 1051SOL     OW 4051   6.970   6.623   0.070
 1051SOL    HW1 4052   6.876   6.652   0.085
 1051SOL    HW2 4053   6.971   6.531   0.031
 1052SOL     OW 4054   4.030   0.487   6.029
 1052SOL    HW1 4055   3.962   0.549   6.068
 1052SOL    HW2 4056   4.066   0.428   6.101
 1053SOL     OW 4057   5.871   3.520   2.224
 1053SOL    HW1 4058   5.966   3.531   2.196
 1053SOL    HW2 4059   5.854   3.572   2.308
 1054SOL     OW 4060   3.415   3.858   0.853
 1054SOL    HW1 4061   3.315   3.863   0.844
 1054SOL    HW2 4062   3.454   3.949   0.839
 1055SOL     OW 4063   4.990   5.698   6.853
 1055SOL    HW1 4064   5.073   5.655   6.819
 1055SOL    HW2 4065   4.961   5.652   6.937
 1056SOL     OW 4066   2.063   4.315   0.513
 1056SOL    HW1 4067   2.028   4.385   0.576
 1056SOL    HW2 4068   2.004   4.309   0.433
 1057SOL     OW 4069   3.590   1.714   1.675
 1057SOL    HW1 4070   3.640   1.634   1.642
 1057SOL    HW2 4071   3.500   1.686   1.707
 1058SOL     OW 4072   3.886   2.126   3.035
 1058SOL    HW1 4073   3.882   2.139   2.936
 1058SOL    HW2 4074   3.805   2.167   3.077
 1059SOL     OW 4075   2.136   6.424   2.190
 1059SOL    HW1 4076   2.145   6.373   2.276
 1059SOL    HW2 4077   2.085   6.369   2.124
 1060SOL     OW 4078   0.608   5.783   4.299
 1060SOL    HW1 4079   0.537   5.851   4.281
 1060SOL    HW2 4080   0.679   5.789   4.229
 1061SOL     OW 4081   6.391   4.149   6.998
 1061SOL    HW1 4082   6.410   4.076   0.041
 1061SOL    HW2 4083   6.304   4.130   6.952
 1062SOL     OW 4084   3.982   6.513   4.606
 1062SOL    HW1 4085   4.005   6.610   4.605
 1062SOL    HW2 4086   3.892   6.500   4.647
 1063SOL     OW 4087   1.099   6.818   6.130
 1063SOL    HW1 4088   1.166   6.891   6.143
 1063SOL    HW2 4089   1.007   6.855   6.142
 1064SOL     OW 4090   0.786   4.635   1.074
 1064SOL    HW1 4091   0.696   4.632   1.031
 1064SOL    HW2 4092   0.776   4.649   1.173
 1065SOL     OW 4093   4.033   1.038   4.077
 1065SOL    HW1 4094   3.942   1.080   4.080
 1065SOL    HW2 4095   4.025   0.943   4.047
 1066SOL     OW 4096   4.640   0.056   2.494
 1066SOL    HW1 4097   4.572   0.053   2.421
 1066SOL    HW2 4098   4.696   6.997   2.490
 1067SOL     OW 4099   2.693   1.124   0.272
 1067SOL    HW1 4100   2.616   1.173   0.232
 1067SOL    HW2 4101   2.711   1.041   0.219
 1068SOL     OW 4102   6.331   3.511   1.047
 1068SOL    HW1 4103   6.273   3.434   1.074
 1068SOL    HW2 4104   6.298   3.547   0.959
 1069SOL     OW 4105   5.677   4.693   0.595
 1069SOL    HW1 4106   5.719   4.613   0.550
 1069SOL    HW2 4107   5.583   4.673   0.619
 1070SOL     OW 4108   2.190   0.242   2.529
 1070SOL    HW1 4109   2.094   0.238   2.505
 1070SOL    HW2 4110   2.206   0.323   2.586
 1071SOL     OW 4111   6.883   2.488   5.130
 1071SOL    HW1 4112   6.905   2.399   5.169
 1071SOL    HW2 4113   6.871   2.555   5.203
 1072SOL     OW 4114   2.662   0.690   1.778
 1072SOL    HW1 4115   2.634   0.757   1.847
 1072SOL    HW2 4116   2.601   0.610   1.783
 1073SOL     OW 4117   5.544   1.752   3.235
 1073SOL    HW1 4118   5.492   1.760   3.320
 1073SOL    HW2 4119   5.483   1.770   3.158
 1074SOL     OW 4120   3.156   4.912   2.410
 1074SOL    HW1 4121   3.157   5.006   2.377
 1074SOL    HW2 4122   3.093   4.858   2.355
 1075SOL     OW 4123   5.769   2.063   5.013
 1075SOL    HW1 4124   5.775   2.158   5.045
 1075SOL    HW2 4125   5.839   2.048   4.943
 1076SOL     OW 4126   2.059   3.945   5.133
 1076SOL    HW1 4127   2.148   3.975   5.099
 1076SOL    HW2 4128   2.059   3.945   5.233
 1077SOL     OW 4129   6.815   0.453   0.239
 1077SOL    HW1 4130   6.785   0.525   0.177
 1077SOL    HW2 4131   6.782   0.472   0.331
 1078SOL     OW 4132   6.501   6.854   3.971
 1078SOL    HW1 4133   6.409   6.867   4.007
 1078SOL    HW2 4134   6.542   6.773   4.014
 1079SOL     OW 4135   1.161   5.668   2.601
 1079SOL    HW1 4136   1.242   5.690   2.656
 1079SOL    HW2 4137   1.157   5.727   2.521
 1080SOL     OW 4138   2.143   6.168   5.605
 1080SOL    HW1 4139   2.118   6.229   5.680
 1080SOL    HW2 4140   2.105   6.077   5.621
 1081SOL     OW 4141   6.800   5.808   4.512
 1081SOL    HW1 4142   6.859   5.851   4.580
 1081SOL    HW2 4143   6.771   5.876   4.445
 1082SOL     OW 4144   5.791   0.807   5.862
 1082SOL    HW1 4145   5.827   0.715   5.881
 1082SOL    HW2 4146   5.706   0.820   5.912
 1083SOL     OW 4147   5.060   4.341   0.486
 1083SOL    HW1 4148   5.050   4.311   0.581
 1083SOL    HW2 4149   5.134   4.290   0.443
 1084SOL     OW 4150   6.547   0.009   6.513
 1084SOL    HW1 4151   6.563   0.066   6.594
 1084SOL    HW2 4152   6.628   6.976   6.495
 1085SOL     OW 4153   1.892   3.519   4.404
 1085SOL    HW1 4154   1.905   3.608   4.360
 1085SOL    HW2 4155   1.972   3.498   4.460
 1086SOL     OW 4156   6.669   4.463   6.218
 1086SOL    HW1 4157   6.631   4.373   6.199
 1086SOL    HW2 4158   6.678   4.514   6.132
 1087SOL     OW 4159   1.170   0.842   5.386
 1087SOL    HW1 4160   1.124   0.845   5.475
 1087SOL    HW2 4161   1.213   0.752   5.373
 1088SOL     OW 4162   0.136   5.234   3.864
 1088SOL    HW1 4163   0.147   5.136   3.851
 1088SOL    HW2 4164   0.043   5.262   3.838
 1089SOL     OW 4165   6.996   5.112   4.861
 1089SOL    HW1 4166   0.008   5.163   4.939
 1089SOL    HW2 4167   0.048   5.070   4.811
 1090SOL     OW 4168   5.888   1.720   4.295
 1090SOL    HW1 4169   5.960   1.693   4.360
 1090SOL    HW2 4170   5.859   1.813   4.315
 1091SOL     OW 4171   2.057   3.434   3.784
 1091SOL    HW1 4172   1.963   3.429   3.820
 1091SOL    HW2 4173   2.116   3.477   3.853
 1092SOL     OW 4174   0.889   5.278   1.127
 1092SOL    HW1 4175   0.979   5.271   1.168
 1092SOL    HW2 4176   0.843   5.361   1.159
 1093SOL     OW 4177   2.375   6.642   1.325
 1093SOL    HW1 4178   2.410   6.652   1.418
 1093SOL    HW2 4179   2.414   6.713   1.266
 1094SOL     OW 4180   0.832   0.107   2.743
 1094SOL    HW1 4181   0.799   0.185   2.796
 1094SOL    HW2 4182   0.928   0.123   2.716
 1095SOL     OW 4183   0.244   2.598   6.405
 1095SOL    HW1 4184   0.173   2.612   6.337
 1095SOL    HW2 4185   0.240   2.671   6.473
 1096SOL     OW 4186   2.738   5.694   0.879
 1096SOL    HW1 4187   2.769   5.694   0.974
 1096SOL    HW2 4188   2.818   5.692   0.819
 1097SOL     OW 4189   2.038   5.403   3.881
 1097SOL    HW1 4190   1.960   5.450   3.922
 1097SOL    HW2 4191   2.005   5.333   3.818
 1098SOL     OW 4192   6.050   4.137   6.578
 1098SOL    HW1 4193   6.089   4.101   6.493
 1098SOL    HW2 4194   5.973   4.080   6.606
 1099SOL     OW 4195   4.236   1.462   6.055
 1099SOL    HW1 4196   4.149   1.414   6.062
 1099SOL    HW2 4197   4.311   1.397   6.067
 1100SOL     OW 4198   4.211   1.250   4.093
 1100SOL    HW1 4199   4.147   1.178   4.067
 1100SOL    HW2 4200   4.302   1.210   4.103
 1101SOL     OW 4201   5.683   3.096   5.078
 1101SOL    HW1 4202   5.667   3.007   5.120
 1101SOL    HW2 4203   5.781   3.109   5.063
 1102SOL     OW 4204   2.439   0.944   4.479
 1102SOL    HW1 4205   2.361   0.951   4.541
 1102SOL    HW2 4206   2.450   1.029   4.429
 1103SOL     OW 4207   2.807   1.496   6.563
 1103SOL    HW1 4208   2.770   1.521   6.653
 1103SOL    HW2 4209   2.897   1.538   6.550
 1104SOL     OW 4210   0.827   4.286   3.561
 1104SOL    HW1 4211   0.832   4.327   3.652
 1104SOL    HW2 4212   0.902   4.221   3.550
 1105SOL     OW 4213   5.422   1.855   5.226
 1105SOL    HW1 4214   5.374   1.812   5.303
 1105SOL    HW2 4215   5.501   1.800   5.201
 1106SOL     OW 4216   0.907   1.674   0.085
 1106SOL    HW1 4217   0.959   1.753   0.117
 1106SOL    HW2 4218   0.891   1.611   0.161
 1107SOL     OW 4219   1.525   0.574   6.272
 1107SOL    HW1 4220   1.447   0.531   6.319
 1107SOL    HW2 4221   1.501   0.668   6.247
 1108SOL     OW 4222   3.287   5.856   4.436
 1108SOL    HW1 4223   3.343   5.884   4.359
 1108SOL    HW2 4224   3.332   5.881   4.522
 1109SOL     OW 4225   5.950   1.461   3.539
 1109SOL    HW1 4226   5.914   1.440   3.448
 1109SOL    HW2 4227   5.949   1.378   3.595
 1110SOL     OW 4228   3.311   1.122   2.767
 1110SOL    HW1 4229   3.259   1.047   2.726
 1110SOL    HW2 4230   3.265   1.209   2.749
 1111SOL     OW 4231   4.583   4.132   6.162
 1111SOL    HW1 4232   4.586   4.228   6.135
 1111SOL    HW2 4233   4.488   4.103   6.174
 1112SOL     OW 4234   6.288   7.014   2.983
 1112SOL    HW1 4235   6.216   0.059   2.968
 1112SOL    HW2 4236   6.367   0.014   2.926
 1113SOL     OW 4237   6.345   3.725   2.858
 1113SOL    HW1 4238   6.442   3.707   2.871
 1113SOL    HW2 4239   6.328   3.750   2.762
 1114SOL     OW 4240   3.699   2.641   6.015
 1114SOL    HW1 4241   3.771   2.683   5.960
 1114SOL    HW2 4242   3.740   2.574   6.078
 1115SOL     OW 4243   3.241   4.156   5.706
 1115SOL    HW1 4244   3.242   4.080   5.771
 1115SOL    HW2 4245   3.244   4.120   5.613
 1116SOL     OW 4246   4.920   1.337   0.436
 1116SOL    HW1 4247   4.825   1.315   0.414
 1116SOL    HW2 4248   4.965   1.375   0.355
 1117SOL     OW 4249   1.235   2.433   1.459
 1117SOL    HW1 4250   1.192   2.511   1.413
 1117SOL    HW2 4251   1.200   2.348   1.419
 1118SOL     OW 4252   2.764   5.683   6.660
 1118SOL    HW1 4253   2.836   5.747   6.633
 1118SOL    HW2 4254   2.749   5.617   6.587
 1119SOL     OW 4255   3.955   4.797   3.136
 1119SOL    HW1 4256   4.046   4.782   3.176
 1119SOL    HW2 4257   3.886   4.790   3.208
 1120SOL     OW 4258   6.467   5.822   1.346
 1120SOL    HW1 4259   6.553   5.799   1.391
 1120SOL    HW2 4260   6.477   5.811   1.247
 1121SOL     OW 4261   0.820   5.342   4.275
 1121SOL    HW1 4262   0.723   5.349   4.254
 1121SOL    HW2 4263   0.867   5.297   4.200
 1122SOL     OW 4264   5.671   3.157   1.891
 1122SOL    HW1 4265   5.628   3.178   1.979
 1122SOL    HW2 4266   5.758   3.206   1.884
 1123SOL     OW 4267   4.299   2.082   2.959
 1123SOL    HW1 4268   4.254   2.167   2.932
 1123SOL    HW2 4269   4.325   2.030   2.878
 1124SOL     OW 4270   1.461   2.738   5.194
 1124SOL    HW1 4271   1.541   2.735   5.133
 1124SOL    HW2 4272   1.378   2.728   5.139
 1125SOL     OW 4273   1.768   3.746   4.738
 1125SOL    HW1 4274   1.720   3.669   4.695
 1125SOL    HW2 4275   1.715   3.779   4.816
 1126SOL     OW 4276   4.130   5.923   5.827
 1126SOL    HW1 4277   4.103   6.019   5.818
 1126SOL    HW2 4278   4.153   5.886   5.737
 1127SOL     OW 4279   5.241   6.280   3.722
 1127SOL    HW1 4280   5.173   6.354   3.725
 1127SOL    HW2 4281   5.277   6.263   3.813
 1128SOL     OW 4282   6.015   0.979   3.644
 1128SOL    HW1 4283   6.084   1.028   3.697
 1128SOL    HW2 4284   6.004   1.022   3.555
 1129SOL     OW 4285   1.664   6.448   1.201
 1129SOL    HW1 4286   1.639   6.535   1.157
 1129SOL    HW2 4287   1.602   6.376   1.170
 1130SOL     OW 4288   1.708   5.492   2.698
 1130SOL    HW1 4289   1.792   5.439   2.704
 1130SOL    HW2 4290   1.704   5.558   2.773
 1131SOL     OW 4291   1.125   6.993   3.964
 1131SOL    HW1 4292   1.149   6.896   3.958
 1131SOL    HW2 4293   1.159   0.017   3.882
 1132SOL     OW 4294   4.772   0.949   2.580
 1132SOL    HW1 4295   4.723   0.921   2.663
 1132SOL    HW2 4296   4.866   0.914   2.585
 1133SOL     OW 4297   1.502   0.240   5.050
 1133SOL    HW1 4298   1.451   0.296   4.985
 1133SOL    HW2 4299   1.532   0.156   5.005
 1134SOL     OW 4300   4.549   6.792   1.998
 1134SOL    HW1 4301   4.618   6.845   1.949
 1134SOL    HW2 4302   4.481   6.854   2.036
 1135SOL     OW 4303   2.588   6.437   3.905
 1135SOL    HW1 4304   2.687   6.425   3.900
 1135SOL    HW2 4305   2.543   6.358   3.864
 1136SOL     OW 4306   2.816   6.333   2.613
 1136SOL    HW1 4307   2.911   6.351   2.586
 1136SOL    HW2 4308   2.791   6.393   2.689
 1137SOL     OW 4309   0.717   6.527   6.729
 1137SOL    HW1 4310   0.628   6.493   6.700
 1137SOL    HW2 4311   0.737   6.495   6.821
 1138SOL     OW 4312   1.717   3.386   5.558
 1138SOL    HW1 4313   1.755   3.306   5.604
 1138SOL    HW2 4314   1.770   3.406   5.476
 1139SOL     OW 4315   2.417   4.436   4.138
 1139SOL    HW1 4316   2.374   4.523   4.118
 1139SOL    HW2 4317   2.413   4.377   4.058
 1140SOL     OW 4318   1.962   1.362   1.653
 1140SOL    HW1 4319   1.929   1.273   1.620
 1140SOL    HW2 4320   2.060   1.356   1.670
 1141SOL     OW 4321   6.120   5.394   5.980
 1141SOL    HW1 4322   6.027   5.357   5.979
 1141SOL    HW2 4323   6.120   5.486   5.940
 1142SOL     OW 4324   2.432   0.021   3.807
 1142SOL    HW1 4325   2.453   0.025   3.710
 1142SOL    HW2 4326   2.484   6.970   3.850
 1143SOL     OW 4327   1.193   3.667   1.813
 1143SOL    HW1 4328   1.281   3.687   1.857
 1143SOL    HW2 4329   1.120   3.720   1.857
 1144SOL     OW 4330   5.392   4.411   2.570
 1144SOL    HW1 4331   5.332   4.478   2.526
 1144SOL    HW2 4332   5.470   4.457   2.611
 1145SOL     OW 4333   1.382   2.426   0.895
 1145SOL    HW1 4334   1.378   2.339   0.944
 1145SOL    HW2 4335   1.414   2.498   0.957
 1146SOL     OW 4336   0.439   1.543   1.406
 1146SOL    HW1 4337   0.470   1.635   1.382
 1146SOL    HW2 4338   0.518   1.486   1.429
 1147SOL     OW 4339   3.073   5.612   1.389
 1147SOL    HW1 4340   3.138   5.575   1.456
 1147SOL    HW2 4341   3.100   5.705   1.365
 1148SOL     OW 4342   4.113   6.179   2.032
 1148SOL    HW1 4343   4.199   6.157   1.986
 1148SOL    HW2 4344   4.093   6.276   2.018
 1149SOL     OW 4345   6.325   3.117   1.689
 1149SOL    HW1 4346   6.372   3.186   1.635
 1149SOL    HW2 4347   6.380   3.034   1.693
 1150SOL     OW 4348   1.114   4.439   7.009
 1150SOL    HW1 4349   1.027   4.418   6.964
 1150SOL    HW2 4350   1.184   4.375   6.977
 1151SOL     OW 4351   6.499   5.683   4.090
 1151SOL    HW1 4352   6.598   5.690   4.083
 1151SOL    HW2 4353   6.473   5.588   4.104
 1152SOL     OW 4354   4.753   0.516   0.027
 1152SOL    HW1 4355   4.740   0.454   0.104
 1152SOL    HW2 4356   4.666   0.529   7.002
 1153SOL     OW 4357   0.057   0.017   1.482
 1153SOL    HW1 4358   0.142   0.065   1.459
 1153SOL    HW2 4359   0.034   6.977   1.408
 1154SOL     OW 4360   1.306   3.372   2.264
 1154SOL    HW1 4361   1.383   3.434   2.250
 1154SOL    HW2 4362   1.325   3.284   2.220
 1155SOL     OW 4363   2.371   6.586   4.802
 1155SOL    HW1 4364   2.281   6.628   4.793
 1155SOL    HW2 4365   2.438   6.656   4.826
 1156SOL     OW 4366   4.008   1.738   4.685
 1156SOL    HW1 4367   4.044   1.714   4.775
 1156SOL    HW2 4368   4.081   1.779   4.630
 1157SOL     OW 4369   4.255   0.478   5.373
 1157SOL    HW1 4370   4.219   0.569   5.393
 1157SOL    HW2 4371   4.200   0.410   5.420
 1158SOL     OW 4372   4.845   5.838   4.181
 1158SOL    HW1 4373   4.817   5.754   4.133
 1158SOL    HW2 4374   4.852   5.913   4.115
 1159SOL     OW 4375   6.393   6.488   3.059
 1159SOL    HW1 4376   6.356   6.501   2.967
 1159SOL    HW2 4377   6.420   6.392   3.071
 1160SOL     OW 4378   4.283   6.584   1.238
 1160SOL    HW1 4379   4.185   6.597   1.218
 1160SOL    HW2 4380   4.294   6.564   1.335
 1161SOL     OW 4381   6.461   5.209   6.108
 1161SOL    HW1 4382   6.430   5.179   6.018
 1161SOL    HW2 4383   6.425   5.301   6.127
 1162SOL     OW 4384   1.832   2.765   5.878
 1162SOL    HW1 4385   1.781   2.708   5.943
 1162SOL    HW2 4386   1.880   2.706   5.813
 1163SOL     OW 4387   5.939   4.033   1.924
 1163SOL    HW1 4388   5.841   4.035   1.906
 1163SOL    HW2 4389   5.973   4.127   1.936
 1164SOL     OW 4390   5.613   2.224   4.527
 1164SOL    HW1 4391   5.549   2.147   4.527
 1164SOL    HW2 4392   5.568   2.304   4.565
 1165SOL     OW 4393   4.640   6.003   3.439
 1165SOL    HW1 4394   4.648   6.076   3.372
 1165SOL    HW2 4395   4.723   6.001   3.495
 1166SOL     OW 4396   2.141   6.527   6.614
 1166SOL    HW1 4397   2.145   6.427   6.612
 1166SOL    HW2 4398   2.082   6.557   6.689
 1167SOL     OW 4399   4.899   3.729   1.984
 1167SOL    HW1 4400   4.950   3.810   2.013
 1167SOL    HW2 4401   4.842   3.751   1.906
 1168SOL     OW 4402   6.251   2.530   2.360
 1168SOL    HW1 4403   6.214   2.622   2.348
 1168SOL    HW2 4404   6.175   2.464   2.364
 1169SOL     OW 4405   5.976   1.381   5.433
 1169SOL    HW1 4406   6.003   1.453   5.370
 1169SOL    HW2 4407   5.993   1.411   5.527
 1170SOL     OW 4408   4.823   7.008   3.018
 1170SOL    HW1 4409   4.778   7.001   2.929
 1170SOL    HW2 4410   4.900   0.048   3.012
 1171SOL     OW 4411   2.078   0.125   0.355
 1171SOL    HW1 4412   1.980   0.141   0.342
 1171SOL    HW2 4413   2.093   0.081   0.444
 1172SOL     OW 4414   5.428   3.295   0.496
 1172SOL    HW1 4415   5.388   3.317   0.407
 1172SOL    HW2 4416   5.464   3.379   0.538
 1173SOL     OW 4417   2.499   0.420   1.229
 1173SOL    HW1 4418   2.400   0.406   1.235
 1173SOL    HW2 4419   2.520   0.473   1.146
 1174SOL     OW 4420   3.450   3.728   1.622
 1174SOL    HW1 4421   3.444   3.665   1.699
 1174SOL    HW2 4422   3.508   3.806   1.646
 1175SOL     OW 4423   4.542   3.115   5.606
 1175SOL    HW1 4424   4.512   3.117   5.510
 1175SOL    HW2 4425   4.507   3.033   5.651
 1176SOL     OW 4426   4.681   3.224   6.006
 1176SOL    HW1 4427   4.676   3.282   5.925
 1176SOL    HW2 4428   4.683   3.128   5.977
 1177SOL     OW 4429   6.197   2.576   5.289
 1177SOL    HW1 4430   6.120   2.581   5.353
 1177SOL    HW2 4431   6.268   2.517   5.327
 1178SOL     OW 4432   2.678   3.887   0.710
 1178SOL    HW1 4433   2.722   3.797   0.719
 1178SOL    HW2 4434   2.729   3.942   0.644
 1179SOL     OW 4435   1.931   6.121   0.381
 1179SOL    HW1 4436   2.004   6.157   0.324
 1179SOL    HW2 4437   1.954   6.134   0.477
 1180SOL     OW 4438   3.288   5.531   2.253
 1180SOL    HW1 4439   3.248   5.618   2.284
 1180SOL    HW2 4440   3.312   5.475   2.332
 1181SOL     OW 4441   0.548   5.486   6.340
 1181SOL    HW1 4442   0.472   5.455   6.284
 1181SOL    HW2 4443   0.561   5.423   6.417
 1182SOL     OW 4444   3.827   5.671   3.364
 1182SOL    HW1 4445   3.799   5.585   3.407
 1182SOL    HW2 4446   3.900   5.654   3.299
 1183SOL     OW 4447   1.864   4.833   0.434
 1183SOL    HW1 4448   1.838   4.811   0.529
 1183SOL    HW2 4449   1.801   4.787   0.371
 1184SOL     OW 4450   0.618   0.209   4.602
 1184SOL    HW1 4451   0.700   0.184   4.654
 1184SOL    HW2 4452   0.556   0.130   4.599
 1185SOL     OW 4453   0.423   0.836   6.647
 1185SOL    HW1 4454   0.514   0.877   6.658
 1185SOL    HW2 4455   0.429   0.737   6.662
 1186SOL     OW 4456   5.074   5.286   4.649
 1186SOL    HW1 4457   5.041   5.312   4.558
 1186SOL    HW2 4458   5.021   5.208   4.682
 1187SOL     OW 4459   6.404   6.509   7.003
 1187SOL    HW1 4460   6.418   6.608   7.004
 1187SOL    HW2 4461   6.478   6.464   0.030
 1188SOL     OW 4462   3.326   6.376   5.010
 1188SOL    HW1 4463   3.337   6.426   5.096
 1188SOL    HW2 4464   3.239   6.401   4.968
 1189SOL     OW 4465   6.821   3.016   2.791
 1189SOL    HW1 4466   6.773   3.098   2.758
 1189SOL    HW2 4467   6.831   2.951   2.716
 1190SOL     OW 4468   2.604   6.397   3.374
 1190SOL    HW1 4469   2.519   6.414   3.323
 1190SOL    HW2 4470   2.615   6.298   3.387
 1191SOL     OW 4471   4.764   4.965   3.166
 1191SOL    HW1 4472   4.666   4.971   3.148
 1191SOL    HW2 4473   4.788   4.870   3.188
 1192SOL     OW 4474   3.657   5.338   3.233
 1192SOL    HW1 4475   3.716   5.418   3.217
 1192SOL    HW2 4476   3.590   5.331   3.159
 1193SOL     OW 4477   5.982   4.116   4.647
 1193SOL    HW1 4478   6.072   4.126   4.691
 1193SOL    HW2 4479   5.969   4.191   4.583
 1194SOL     OW 4480   5.561   6.724   1.800
 1194SOL    HW1 4481   5.466   6.704   1.777
 1194SOL    HW2 4482   5.618   6.643   1.783
 1195SOL     OW 4483   6.081   4.308   1.730
 1195SOL    HW1 4484   6.091   4.229   1.670
 1195SOL    HW2 4485   6.024   4.377   1.685
 1196SOL     OW 4486   6.780   6.198   2.870
 1196SOL    HW1 4487   6.686   6.167   2.886
 1196SOL    HW2 4488   6.786   6.238   2.779
 1197SOL     OW 4489   3.528   1.045   6.384
 1197SOL    HW1 4490   3.565   0.984   6.314
 1197SOL    HW2 4491   3.586   1.040   6.466
 1198SOL     OW 4492   1.188   2.893   1.766
 1198SOL    HW1 4493   1.212   2.816   1.825
 1198SOL    HW2 4494   1.091   2.915   1.776
 1199SOL     OW 4495   4.562   4.774   1.793
 1199SOL    HW1 4496   4.601   4.682   1.796
 1199SOL    HW2 4497   4.462   4.766   1.787
 1200SOL     OW 4498   3.325   3.671   2.960
 1200SOL    HW1 4499   3.421   3.674   2.935
 1200SOL    HW2 4500   3.272   3.630   2.885
 1201SOL     OW 4501   1.254   1.005   4.151
 1201SOL    HW1 4502   1.335   1.027   4.097
 1201SOL    HW2 4503   1.281   0.969   4.240
 1202SOL     OW 4504   0.850   6.010   6.473
 1202SOL    HW1 4505   0.918   6.024   6.545
 1202SOL    HW2 4506   0.897   5.986   6.388
 1203SOL     OW 4507   5.785   6.131   6.612
 1203SOL    HW1 4508   5.734   6.202   6.660
 1203SOL    HW2 4509   5.878   6.127   6.648
 1204SOL     OW 4510   2.726   0.084   1.344
 1204SOL    HW1 4511   2.815   0.096   1.300
 1204SOL    HW2 4512   2.654   0.115   1.283
 1205SOL     OW 4513   5.372   3.982   1.499
 1205SOL    HW1 4514   5.352   3.970   1.596
 1205SOL    HW2 4515   5.387   3.892   1.458
 1206SOL     OW 4516   3.185   2.962   5.061
 1206SOL    HW1 4517   3.173   2.980   4.964
 1206SOL    HW2 4518   3.102   2.920   5.097
 1207SOL     OW 4519   1.836   0.038   0.907
 1207SOL    HW1 4520   1.864   6.982   0.962
 1207SOL    HW2 4521   1.902   0.112   0.920
 1208SOL     OW 4522   3.337   4.161   0.510
 1208SOL    HW1 4523   3.357   4.259   0.505
 1208SOL    HW2 4524   3.287   4.133   0.428
 1209SOL     OW 4525   3.719   0.812   5.290
 1209SOL    HW1 4526   3.737   0.911   5.291
 1209SOL    HW2 4527   3.699   0.784   5.196
 1210SOL     OW 4528   2.542   0.008   2.996
 1210SOL    HW1 4529   2.613   0.001   2.926
 1210SOL    HW2 4530   2.584   0.007   3.087
 1211SOL     OW 4531   1.887   3.510   1.336
 1211SOL    HW1 4532   1.940   3.587   1.301
 1211SOL    HW2 4533   1.914   3.426   1.287
 1212SOL     OW 4534   0.095   0.619   6.176
 1212SOL    HW1 4535   0.025   0.578   6.236
 1212SOL    HW2 4536   0.081   0.588   6.082
 1213SOL     OW 4537   6.126   2.420   0.279
 1213SOL    HW1 4538   6.174   2.506   0.263
 1213SOL    HW2 4539   6.141   2.390   0.373
 1214SOL     OW 4540   0.048   2.561   0.257
 1214SOL    HW1 4541   0.085   2.487   0.313
 1214SOL    HW2 4542   0.050   2.646   0.308
 1215SOL     OW 4543   1.634   4.105   4.205
 1215SOL    HW1 4544   1.718   4.051   4.214
 1215SOL    HW2 4545   1.596   4.091   4.114
 1216SOL     OW 4546   4.506   0.604   0.372
 1216SOL    HW1 4547   4.464   0.557   0.295
 1216SOL    HW2 4548   4.578   0.664   0.338
 1217SOL     OW 4549   1.093   5.537   0.939
 1217SOL    HW1 4550   0.993   5.528   0.937
 1217SOL    HW2 4551   1.120   5.589   1.020
 1218SOL     OW 4552   1.680   4.795   4.539
 1218SOL    HW1 4553   1.694   4.701   4.571
 1218SOL    HW2 4554   1.739   4.856   4.592
 1219SOL     OW 4555   5.205   5.779   2.117
 1219SOL    HW1 4556   5.114   5.763   2.155
 1219SOL    HW2 4557   5.198   5.831   2.032
 1220SOL     OW 4558   0.912   5.216   3.162
 1220SOL    HW1 4559   0.883   5.270   3.241
 1220SOL    HW2 4560   0.832   5.174   3.119
 1221SOL     OW 4561   5.075   2.774   5.571
 1221SOL    HW1 4562   4.983   2.737   5.588
 1221SOL    HW2 4563   5.143   2.704   5.592
 1222SOL     OW 4564   6.147   0.088   6.798
 1222SOL    HW1 4565   6.140   0.167   6.737
 1222SOL    HW2 4566   6.056   0.047   6.810
 1223SOL     OW 4567   3.967   0.480   0.887
 1223SOL    HW1 4568   3.995   0.451   0.795
 1223SOL    HW2 4569   3.912   0.564   0.880
 1224SOL     OW 4570   2.215   6.618   1.065
 1224SOL    HW1 4571   2.241   6.608   1.161
 1224SOL    HW2 4572   2.131   6.567   1.047
 1225SOL     OW 4573   3.427   4.235   6.279
 1225SOL    HW1 4574   3.465   4.318   6.238
 1225SOL    HW2 4575   3.330   4.228   6.255
 1226SOL     OW 4576   2.548   4.464   1.053
 1226SOL    HW1 4577   2.629   4.522   1.044
 1226SOL    HW2 4578   2.569   4.385   1.111
 1227SOL     OW 4579   6.957   3.414   6.707
 1227SOL    HW1 4580   6.920   3.496   6.750
 1227SOL    HW2 4581   7.016   3.439   6.631
 1228SOL     OW 4582   3.698   3.423   5.980
 1228SOL    HW1 4583   3.630   3.486   6.016
 1228SOL    HW2 4584   3.788   3.446   6.017
 1229SOL     OW 4585   4.066   4.623   6.077
 1229SOL    HW1 4586   4.113   4.696   6.028
 1229SOL    HW2 4587   4.092   4.534   6.038
 1230SOL     OW 4588   4.411   0.725   4.568
 1230SOL    HW1 4589   4.358   0.642   4.586
 1230SOL    HW2 4590   4.417   0.779   4.651
 1231SOL     OW 4591   1.167   4.001   5.335
 1231SOL    HW1 4592   1.194   3.973   5.427
 1231SOL    HW2 4593   1.187   3.927   5.270
 1232SOL     OW 4594   1.041   1.739   5.284
 1232SOL    HW1 4595   1.100   1.724   5.205
 1232SOL    HW2 4596   0.957   1.687   5.273
 1233SOL     OW 4597   2.036   3.137   5.152
 1233SOL    HW1 4598   2.071   3.134   5.059
 1233SOL    HW2 4599   2.049   3.229   5.190
 1234SOL     OW 4600   6.815   4.270   4.282
 1234SOL    HW1 4601   6.762   4.260   4.198
 1234SOL    HW2 4602   6.856   4.181   4.306
 1235SOL     OW 4603   6.876   6.120   2.259
 1235SOL    HW1 4604   6.971   6.113   2.227
 1235SOL    HW2 4605   6.873   6.168   2.346
 1236SOL     OW 4606   5.513   1.079   6.476
 1236SOL    HW1 4607   5.461   1.138   6.537
 1236SOL    HW2 4608   5.467   1.073   6.388
 1237SOL     OW 4609   2.317   5.171   6.242
 1237SOL    HW1 4610   2.266   5.205   6.163
 1237SOL    HW2 4611   2.263   5.184   6.325
 1238SOL     OW 4612   2.343   0.706   1.186
 1238SOL    HW1 4613   2.434   0.684   1.222
 1238SOL    HW2 4614   2.321   0.644   1.111
 1239SOL     OW 4615   6.495   6.200   6.463
 1239SOL    HW1 4616   6.518   6.104   6.478
 1239SOL    HW2 4617   6.422   6.207   6.395
 1240SOL     OW 4618   6.099   6.049   1.740
 1240SOL    HW1 4619   6.126   6.067   1.835
 1240SOL    HW2 4620   6.113   6.131   1.685
 1241SOL     OW 4621   6.065   3.350   4.069
 1241SOL    HW1 4622   6.079   3.405   4.151
 1241SOL    HW2 4623   5.968   3.348   4.046
 1242SOL     OW 4624   1.699   3.908   0.273
 1242SOL    HW1 4625   1.770   3.888   0.205
 1242SOL    HW2 4626   1.677   3.825   0.323
 1243SOL     OW 4627   1.733   5.773   5.644
 1243SOL    HW1 4628   1.758   5.809   5.734
 1243SOL    HW2 4629   1.752   5.675   5.641
 1244SOL     OW 4630   6.880   6.852   2.961
 1244SOL    HW1 4631   6.911   6.930   2.908
 1244SOL    HW2 4632   6.913   6.768   2.919
 1245SOL     OW 4633   3.737   3.584   6.328
 1245SOL    HW1 4634   3.676   3.626   6.395
 1245SOL    HW2 4635   3.798   3.653   6.289
 1246SOL     OW 4636   2.064   6.675   2.230
 1246SOL    HW1 4637   1.967   6.679   2.254
 1246SOL    HW2 4638   2.089   6.581   2.208
 1247SOL     OW 4639   2.706   0.652   6.885
 1247SOL    HW1 4640   2.725   0.599   6.967
 1247SOL    HW2 4641   2.630   0.610   6.835
 1248SOL     OW 4642   1.773   6.831   3.844
 1248SOL    HW1 4643   1.716   6.802   3.921
 1248SOL    HW2 4644   1.740   6.919   3.810
 1249SOL     OW 4645   5.536   2.909   2.293
 1249SOL    HW1 4646   5.580   2.856   2.220
 1249SOL    HW2 4647   5.444   2.934   2.264
 1250SOL     OW 4648   0.883   4.705   4.500
 1250SOL    HW1 4649   0.964   4.680   4.448
 1250SOL    HW2 4650   0.885   4.803   4.520
 1251SOL     OW 4651   4.182   0.277   4.528
 1251SOL    HW1 4652   4.222   0.365   4.553
 1251SOL    HW2 4653   4.114   0.250   4.596
 1252SOL     OW 4654   3.474   3.737   5.815
 1252SOL    HW1 4655   3.461   3.672   5.889
 1252SOL    HW2 4656   3.429   3.703   5.732
 1253SOL     OW 4657   3.798   5.722   1.874
 1253SOL    HW1 4658   3.714   5.712   1.927
 1253SOL    HW2 4659   3.869   5.663   1.913
 1254SOL     OW 4660   6.181   2.572   2.751
 1254SOL    HW1 4661   6.089   2.597   2.719
 1254SOL    HW2 4662   6.228   2.653   2.784
 1255SOL     OW 4663   6.588   0.710   5.276
 1255SOL    HW1 4664   6.559   0.805   5.290
 1255SOL    HW2 4665   6.514   0.649   5.304
 1256SOL     OW 4666   7.000   6.969   3.198
 1256SOL    HW1 4667   6.934   6.924   3.137
 1256SOL    HW2 4668   6.953   0.015   3.253
 1257SOL     OW 4669   0.113   0.366   3.148
 1257SOL    HW1 4670   0.062   0.373   3.234
 1257SOL    HW2 4671   0.105   0.274   3.112
 1258SOL     OW 4672   0.935   5.450   3.310
 1258SOL    HW1 4673   0.894   5.503   3.384
 1258SOL    HW2 4674   0.921   5.497   3.223
 1259SOL     OW 4675   4.065   1.530   4.868
 1259SOL    HW1 4676   4.126   1.554   4.943
 1259SOL    HW2 4677   4.070   1.432   4.849
 1260SOL     OW 4678   0.888   1.316   6.663
 1260SOL    HW1 4679   0.964   1.369   6.625
 1260SOL    HW2 4680   0.910   1.219   6.656
 1261SOL     OW 4681   0.078   5.506   0.248
 1261SOL    HW1 4682   0.128   5.425   0.280
 1261SOL    HW2 4683   7.020   5.477   0.197
 1262SOL     OW 4684   5.364   5.545   2.160
 1262SOL    HW1 4685   5.429   5.586   2.224
 1262SOL    HW2 4686   5.309   5.617   2.118
 1263SOL     OW 4687   0.795   1.588   2.315
 1263SOL    HW1 4688   0.865   1.643   2.269
 1263SOL    HW2 4689   0.762   1.636   2.397
 1264SOL     OW 4690   0.895   3.993   5.311
 1264SOL    HW1 4691   0.992   3.987   5.336
 1264SOL    HW2 4692   0.859   3.901   5.295
 1265SOL     OW 4693   6.401   5.746   4.819
 1265SOL    HW1 4694   6.393   5.680   4.743
 1265SOL    HW2 4695   6.496   5.750   4.850
 1266SOL     OW 4696   0.845   1.106   4.827
 1266SOL    HW1 4697   0.912   1.112   4.753
 1266SOL    HW2 4698   0.871   1.032   4.890
 1267SOL     OW 4699   4.861   0.573   2.007
 1267SOL    HW1 4700   4.770   0.533   2.013
 1267SOL    HW2 4701   4.928   0.501   1.990
 1268SOL     OW 4702   4.200   2.516   5.473
 1268SOL    HW1 4703   4.123   2.535   5.533
 1268SOL    HW2 4704   4.169   2.513   5.378
 1269SOL     OW 4705   5.108   2.221   4.123
 1269SOL    HW1 4706   5.018   2.256   4.097
 1269SOL    HW2 4707   5.144   2.276   4.199
 1270SOL     OW 4708   1.828   4.541   2.771
 1270SOL    HW1 4709   1.893   4.617   2.763
 1270SOL    HW2 4710   1.782   4.527   2.683
 1271SOL     OW 4711   2.220   0.866   0.976
 1271SOL    HW1 4712   2.272   0.947   0.949
 1271SOL    HW2 4713   2.265   0.822   1.054
 1272SOL     OW 4714   6.660   3.721   6.535
 1272SOL    HW1 4715   6.606   3.805   6.525
 1272SOL    HW2 4716   6.606   3.654   6.586
 1273SOL     OW 4717   1.466   4.536   5.004
 1273SOL    HW1 4718   1.416   4.587   4.933
 1273SOL    HW2 4719   1.436   4.441   5.002
 1274SOL     OW 4720   0.134   4.395   1.787
 1274SOL    HW1 4721   0.137   4.441   1.876
 1274SOL    HW2 4722   0.058   4.431   1.734
 1275SOL     OW 4723   3.663   0.977   3.780
 1275SOL    HW1 4724   3.730   0.906   3.758
 1275SOL    HW2 4725   3.618   1.007   3.696
 1276SOL     OW 4726   5.529   4.825   4.004
 1276SOL    HW1 4727   5.532   4.877   3.918
 1276SOL    HW2 4728   5.617   4.833   4.051
 1277SOL     OW 4729   0.651   6.005   0.017
 1277SOL    HW1 4730   0.672   6.023   6.944
 1277SOL    HW2 4731   0.736   5.982   0.065
 1278SOL     OW 4732   1.631   6.916   3.190
 1278SOL    HW1 4733   1.668   6.994   3.240
 1278SOL    HW2 4734   1.554   6.946   3.133
 1279SOL     OW 4735   2.935   3.781   6.393
 1279SOL    HW1 4736   2.869   3.843   6.349
 1279SOL    HW2 4737   2.943   3.698   6.338
 1280SOL     OW 4738   3.341   0.848   3.724
 1280SOL    HW1 4739   3.351   0.941   3.758
 1280SOL    HW2 4740   3.342   0.848   3.624
 1281SOL     OW 4741   3.640   6.112   3.715
 1281SOL    HW1 4742   3.673   6.188   3.771
 1281SOL    HW2 4743   3.656   6.025   3.762
 1282SOL     OW 4744   6.810   2.869   0.773
 1282SOL    HW1 4745   6.719   2.830   0.760
 1282SOL    HW2 4746   6.809   2.931   0.852
 1283SOL     OW 4747   6.418   3.796   5.406
 1283SOL    HW1 4748   6.463   3.843   5.482
 1283SOL    HW2 4749   6.430   3.697   5.416
 1284SOL     OW 4750   3.771   1.523   1.238
 1284SOL    HW1 4751   3.816   1.610   1.260
 1284SOL    HW2 4752   3.840   1.456   1.209
 1285SOL     OW 4753   3.425   1.541   4.868
 1285SOL    HW1 4754   3.495   1.567   4.801
 1285SOL    HW2 4755   3.334   1.547   4.826
 1286SOL     OW 4756   5.091   3.079   1.763
 1286SOL    HW1 4757   5.101   3.051   1.667
 1286SOL    HW2 4758   5.025   3.153   1.769
 1287SOL     OW 4759   5.986   4.677   5.010
 1287SOL    HW1 4760   6.071   4.630   4.989
 1287SOL    HW2 4761   6.003   4.753   5.073
 1288SOL     OW 4762   4.642   4.735   6.611
 1288SOL    HW1 4763   4.572   4.807   6.605
 1288SOL    HW2 4764   4.680   4.718   6.520
 1289SOL     OW 4765   6.316   0.967   1.028
 1289SOL    HW1 4766   6.245   1.026   0.990
 1289SOL    HW2 4767   6.353   1.008   1.112
 1290SOL     OW 4768   1.561   0.683   0.458
 1290SOL    HW1 4769   1.567   0.714   0.553
 1290SOL    HW2 4770   1.475   0.714   0.418
 1291SOL     OW 4771   6.676   4.945   3.262
 1291SOL    HW1 4772   6.620   5.028   3.264
 1291SOL    HW2 4773   6.628   4.873   3.213
 1292SOL     OW 4774   0.344   5.456   2.598
 1292SOL    HW1 4775   0.274   5.385   2.598
 1292SOL    HW2 4776   0.313   5.533   2.542
 1293SOL     OW 4777   2.362   1.738   6.715
 1293SOL    HW1 4778   2.347   1.726   6.617
 1293SOL    HW2 4779   2.392   1.651   6.754
 1294SOL     OW 4780   1.802   4.594   6.315
 1294SOL    HW1 4781   1.839   4.579   6.407
 1294SOL    HW2 4782   1.874   4.630   6.256
 1295SOL     OW 4783   0.333   3.673   0.815
 1295SOL    HW1 4784   0.409   3.652   0.877
 1295SOL    HW2 4785   0.316   3.594   0.756
 1296SOL     OW 4786   5.033   6.913   5.380
 1296SOL    HW1 4787   5.070   6.825   5.411
 1296SOL    HW2 4788   4.936   6.918   5.401
 1297SOL     OW 4789   0.889   0.366   2.915
 1297SOL    HW1 4790   0.805   0.385   2.966
 1297SOL    HW2 4791   0.968   0.394   2.970
 1298SOL     OW 4792   5.377   5.812   2.756
 1298SOL    HW1 4793   5.441   5.737   2.736
 1298SOL    HW2 4794   5.387   5.884   2.687
 1299SOL     OW 4795   2.199   3.088   4.293
 1299SOL    HW1 4796   2.256   3.015   4.331
 1299SOL    HW2 4797   2.156   3.140   4.367
 1300SOL     OW 4798   2.240   3.811   0.913
 1300SOL    HW1 4799   2.269   3.817   0.818
 1300SOL    HW2 4800   2.166   3.877   0.930
 1301SOL     OW 4801   0.665   0.608   1.641
 1301SOL    HW1 4802   0.723   0.528   1.629
 1301SOL    HW2 4803   0.707   0.670   1.708
 1302SOL     OW 4804   5.622   0.164   5.926
 1302SOL    HW1 4805   5.659   0.104   5.855
 1302SOL    HW2 4806   5.542   0.212   5.890
 1303SOL     OW 4807   4.114   6.471   2.049
 1303SOL    HW1 4808   4.141   6.535   1.978
 1303SOL    HW2 4809   4.016   6.452   2.041
 1304SOL     OW 4810   1.062   1.258   1.094
 1304SOL    HW1 4811   1.065   1.303   1.005
 1304SOL    HW2 4812   1.003   1.178   1.089
 1305SOL     OW 4813   5.054   4.609   6.336
 1305SOL    HW1 4814   5.048   4.510   6.331
 1305SOL    HW2 4815   4.963   4.648   6.320
 1306SOL     OW 4816   1.244   5.992   4.915
 1306SOL    HW1 4817   1.238   5.999   4.815
 1306SOL    HW2 4818   1.151   5.996   4.953
 1307SOL     OW 4819   1.641   3.051   3.863
 1307SOL    HW1 4820   1.582   3.132   3.864
 1307SOL    HW2 4821   1.736   3.079   3.848
 1308SOL     OW 4822   6.659   5.681   6.537
 1308SOL    HW1 4823   6.631   5.609   6.473
 1308SOL    HW2 4824   6.719   5.642   6.607
 1309SOL     OW 4825   5.025   4.714   5.961
 1309SOL    HW1 4826   5.123   4.699   5.966
 1309SOL    HW2 4827   4.976   4.644   6.013
 1310SOL     OW 4828   1.087   3.867   3.734
 1310SOL    HW1 4829   1.151   3.917   3.792
 1310SOL    HW2 4830   1.132   3.785   3.698
 1311SOL     OW 4831   6.367   5.763   0.070
 1311SOL    HW1 4832   6.451   5.727   0.029
 1311SOL    HW2 4833   6.327   5.694   0.130
 1312SOL     OW 4834   0.919   1.103   5.764
 1312SOL    HW1 4835   1.018   1.096   5.753
 1312SOL    HW2 4836   0.874   1.052   5.691
 1313SOL     OW 4837   5.957   5.078   3.688
 1313SOL    HW1 4838   5.977   5.174   3.673
 1313SOL    HW2 4839   5.950   5.061   3.787
 1314SOL     OW 4840   2.355   1.740   4.834
 1314SOL    HW1 4841   2.354   1.787   4.922
 1314SOL    HW2 4842   2.298   1.789   4.769
 1315SOL     OW 4843   6.697   0.758   3.990
 1315SOL    HW1 4844   6.607   0.723   4.014
 1315SOL    HW2 4845   6.753   0.684   3.952
 1316SOL     OW 4846   4.052   0.116   5.272
 1316SOL    HW1 4847   4.006   0.204   5.256
 1316SOL    HW2 4848   4.007   0.045   5.218
 1317SOL     OW 4849   2.899   3.921   6.154
 1317SOL    HW1 4850   2.829   3.860   6.117
 1317SOL    HW2 4851   2.970   3.934   6.085
 1318SOL     OW 4852   2.275   2.506   6.888
 1318SOL    HW1 4853   2.253   2.593   6.933
 1318SOL    HW2 4854   2.195   2.446   6.892
 1319SOL     OW 4855   0.039   6.121   0.343
 1319SOL    HW1 4856   6.977   6.070   0.333
 1319SOL    HW2 4857   0.097   6.105   0.263
 1320SOL     OW 4858   3.225   2.805   6.522
 1320SOL    HW1 4859   3.275   2.741   6.580
 1320SOL    HW2 4860   3.268   2.808   6.432
 1321SOL     OW 4861   5.142   1.682   6.943
 1321SOL    HW1 4862   5.049   1.663   6.973
 1321SOL    HW2 4863   5.151   1.658   6.846
 1322SOL     OW 4864   3.349   1.069   5.721
 1322SOL    HW1 4865   3.331   1.129   5.798
 1322SOL    HW2 4866   3.397   1.121   5.649
 1323SOL     OW 4867   3.251   6.617   0.727
 1323SOL    HW1 4868   3.299   6.705   0.730
 1323SOL    HW2 4869   3.190   6.610   0.806
 1324SOL     OW 4870   1.275   3.773   0.385
 1324SOL    HW1 4871   1.185   3.735   0.410
 1324SOL    HW2 4872   1.273   3.802   0.289
 1325SOL     OW 4873   2.637   6.228   5.636
 1325SOL    HW1 4874   2.594   6.310   5.599
 1325SOL    HW2 4875   2.566   6.162   5.661
 1326SOL     OW 4876   4.767   4.253   4.894
 1326SOL    HW1 4877   4.842   4.209   4.844
 1326SOL    HW2 4878   4.714   4.310   4.832
 1327SOL     OW 4879   0.701   6.833   1.091
 1327SOL    HW1 4880   0.730   6.847   1.186
 1327SOL    HW2 4881   0.601   6.826   1.087
 1328SOL     OW 4882   1.136   3.290   5.720
 1328SOL    HW1 4883   1.094   3.212   5.766
 1328SOL    HW2 4884   1.070   3.331   5.657
 1329SOL     OW 4885   0.575   2.066   2.673
 1329SOL    HW1 4886   0.523   2.129   2.731
 1329SOL    HW2 4887   0.520   1.986   2.653
 1330SOL     OW 4888   6.982   1.964   0.961
 1330SOL    HW1 4889   7.010   2.027   0.888
 1330SOL    HW2 4890   6.893   1.991   0.998
 1331SOL     OW 4891   4.901   2.449   2.578
 1331SOL    HW1 4892   4.849   2.469   2.661
 1331SOL    HW2 4893   4.966   2.523   2.561
 1332SOL     OW 4894   1.863   0.401   0.804
 1332SOL    HW1 4895   1.938   0.339   0.829
 1332SOL    HW2 4896   1.816   0.430   0.887
 1333SOL     OW 4897   3.871   3.904   3.097
 1333SOL    HW1 4898   3.920   3.858   3.171
 1333SOL    HW2 4899   3.816   3.837   3.047
 1334SOL     OW 4900   6.877   1.750   3.109
 1334SOL    HW1 4901   6.895   1.656   3.080
 1334SOL    HW2 4902   6.941   1.812   3.063
 1335SOL     OW 4903   1.924   3.605   1.654
 1335SOL    HW1 4904   1.937   3.518   1.703
 1335SOL    HW2 4905   1.987   3.673   1.690
 1336SOL     OW 4906   3.833   1.055   5.282
 1336SOL    HW1 4907   3.884   1.114   5.344
 1336SOL    HW2 4908   3.808   1.106   5.200
 1337SOL     OW 4909   6.265   1.386   3.129
 1337SOL    HW1 4910   6.321   1.456   3.085
 1337SOL    HW2 4911   6.300   1.296   3.104
 1338SOL     OW 4912   6.300   3.785   3.962
 1338SOL    HW1 4913   6.398   3.771   3.945
 1338SOL    HW2 4914   6.259   3.828   3.881
 1339SOL     OW 4915   0.401   0.346   0.170
 1339SOL    HW1 4916   0.387   0.248   0.188
 1339SOL    HW2 4917   0.403   0.362   0.072
 1340SOL     OW 4918   5.155   1.404   2.186
 1340SOL    HW1 4919   5.112   1.478   2.239
 1340SOL    HW2 4920   5.157   1.429   2.090
 1341SOL     OW 4921   4.530   6.948   0.118
 1341SOL    HW1 4922   4.625   6.917   0.121
 1341SOL    HW2 4923   4.511   6.987   0.027
 1342SOL     OW 4924   2.945   5.439   0.763
 1342SOL    HW1 4925   2.909   5.358   0.809
 1342SOL    HW2 4926   3.001   5.492   0.826
 1343SOL     OW 4927   5.486   5.095   2.796
 1343SOL    HW1 4928   5.388   5.112   2.807
 1343SOL    HW2 4929   5.508   5.092   2.698
 1344SOL     OW 4930   0.660   6.460   4.449
 1344SOL    HW1 4931   0.590   6.454   4.377
 1344SOL    HW2 4932   0.716   6.378   4.446
 1345SOL     OW 4933   0.429   5.123   1.820
 1345SOL    HW1 4934   0.384   5.046   1.865
 1345SOL    HW2 4935   0.382   5.144   1.734
 1346SOL     OW 4936   2.398   5.625   5.806
 1346SOL    HW1 4937   2.327   5.582   5.862
 1346SOL    HW2 4938   2.414   5.569   5.725
 1347SOL     OW 4939   1.518   0.161   5.896
 1347SOL    HW1 4940   1.501   0.255   5.864
 1347SOL    HW2 4941   1.592   0.162   5.963
 1348SOL     OW 4942   0.066   5.823   5.565
 1348SOL    HW1 4943   0.005   5.850   5.491
 1348SOL    HW2 4944   0.120   5.743   5.537
 1349SOL     OW 4945   5.559   2.924   3.786
 1349SOL    HW1 4946   5.620   2.969   3.852
 1349SOL    HW2 4947   5.466   2.922   3.822
 1350SOL     OW 4948   3.618   4.270   0.550
 1350SOL    HW1 4949   3.623   4.305   0.457
 1350SOL    HW2 4950   3.617   4.170   0.549
 1351SOL     OW 4951   5.913   1.891   3.849
 1351SOL    HW1 4952   5.824   1.862   3.885
 1351SOL    HW2 4953   5.950   1.818   3.791
 1352SOL     OW 4954   0.006   0.390   2.171
 1352SOL    HW1 4955   6.934   0.413   2.152
 1352SOL    HW2 4956   0.063   0.416   2.092
 1353SOL     OW 4957   0.484   1.789   0.479
 1353SOL    HW1 4958   0.420   1.818   0.550
 1353SOL    HW2 4959   0.550   1.724   0.517
 1354SOL     OW 4960   6.676   4.231   2.372
 1354SOL    HW1 4961   6.657   4.230   2.273
 1354SOL    HW2 4962   6.774   4.224   2.386
 1355SOL     OW 4963   5.634   3.328   4.157
 1355SOL    HW1 4964   5.557   3.307   4.096
 1355SOL    HW2 4965   5.719   3.332   4.105
 1356SOL     OW 4966   3.577   3.122   2.478
 1356SOL    HW1 4967   3.549   3.093   2.386
 1356SOL    HW2 4968   3.521   3.200   2.506
 1357SOL     OW 4969   6.657   3.453   6.047
 1357SOL    HW1 4970   6.582   3.516   6.025
 1357SOL    HW2 4971   6.634   3.401   6.129
 1358SOL     OW 4972   0.234   0.137   6.853
 1358SOL    HW1 4973   0.199   0.173   6.766
 1358SOL    HW2 4974   0.318   0.085   6.836
 1359SOL     OW 4975   6.256   4.388   1.376
 1359SOL    HW1 4976   6.319   4.398   1.453
 1359SOL    HW2 4977   6.189   4.462   1.379
 1360SOL     OW 4978   3.603   3.291   6.978
 1360SOL    HW1 4979   3.684   3.317   0.007
 1360SOL    HW2 4980   3.591   3.354   6.901
 1361SOL     OW 4981   0.303   4.747   4.701
 1361SOL    HW1 4982   0.257   4.730   4.788
 1361SOL    HW2 4983   0.373   4.678   4.687
 1362SOL     OW 4984   3.946   3.042   2.571
 1362SOL    HW1 4985   3.913   3.102   2.498
 1362SOL    HW2 4986   4.031   2.998   2.541
 1363SOL     OW 4987   6.933   5.399   5.293
 1363SOL    HW1 4988   7.016   5.455   5.285
 1363SOL    HW2 4989   6.883   5.426   5.375
 1364SOL     OW 4990   4.443   4.350   6.917
 1364SOL    HW1 4991   4.515   4.400   6.870
 1364SOL    HW2 4992   4.362   4.344   6.859
 1365SOL     OW 4993   0.698   3.752   6.391
 1365SOL    HW1 4994   0.707   3.654   6.374
 1365SOL    HW2 4995   0.747   3.776   6.475
 1366SOL     OW 4996   1.586   0.631   4.837
 1366SOL    HW1 4997   1.525   0.553   4.828
 1366SOL    HW2 4998   1.660   0.609   4.901
 1367SOL     OW 4999   1.791   1.553   2.548
 1367SOL    HW1 5000   1.784   1.454   2.561
 1367SOL    HW2 5001   1.857   1.590   2.613
 1368SOL     OW 5002   5.799   6.950   4.302
 1368SOL    HW1 5003   5.823   6.854   4.312
 1368SOL    HW2 5004   5.700   6.962   4.315
 1369SOL     OW 5005   0.604   6.530   3.265
 1369SOL    HW1 5006   0.674   6.500   3.329
 1369SOL    HW2 5007   0.640   6.604   3.208
 1370SOL     OW 5008   3.394   0.463   1.599
 1370SOL    HW1 5009   3.418   0.537   1.663
 1370SOL    HW2 5010   3.306   0.423   1.626
 1371SOL     OW 5011   4.046   0.336   5.790
 1371SOL    HW1 5012   4.140   0.303   5.787
 1371SOL    HW2 5013   4.032   0.391   5.872
 1372SOL     OW 5014   2.388   2.158   1.621
 1372SOL    HW1 5015   2.420   2.131   1.530
 1372SOL    HW2 5016   2.328   2.238   1.613
 1373SOL     OW 5017   0.468   5.148   1.254
 1373SOL    HW1 5018   0.436   5.242   1.246
 1373SOL    HW2 5019   0.483   5.126   1.350
 1374SOL     OW 5020   4.206   2.331   1.234
 1374SOL    HW1 5021   4.146   2.372   1.303
 1374SOL    HW2 5022   4.263   2.402   1.192
 1375SOL     OW 5023   0.187   5.054   6.157
 1375SOL    HW1 5024   0.191   5.117   6.080
 1375SOL    HW2 5025   0.211   4.962   6.126
 1376SOL     OW 5026   4.902   3.241   3.624
 1376SOL    HW1 5027   4.840   3.211   3.697
 1376SOL    HW2 5028   4.855   3.234   3.536
 1377SOL     OW 5029   7.002   5.114   5.293
 1377SOL    HW1 5030   6.964   5.206   5.292
 1377SOL    HW2 5031   6.943   5.055   5.349
 1378SOL     OW 5032   1.198   2.017   7.017
 1378SOL    HW1 5033   1.296   2.035   7.010
 1378SOL    HW2 5034   1.152   2.059   6.938
 1379SOL     OW 5035   3.830   6.640   2.822
 1379SOL    HW1 5036   3.782   6.629   2.909
 1379SOL    HW2 5037   3.905   6.574   2.818
 1380SOL     OW 5038   6.571   6.917   2.483
 1380SOL    HW1 5039   6.576   6.937   2.385
 1380SOL    HW2 5040   6.653   6.868   2.511
 1381SOL     OW 5041   6.298   2.261   6.992
 1381SOL    HW1 5042   6.391   2.289   6.969
 1381SOL    HW2 5043   6.299   2.215   0.058
 1382SOL     OW 5044   5.462   5.117   6.550
 1382SOL    HW1 5045   5.477   5.020   6.567
 1382SOL    HW2 5046   5.533   5.152   6.489
 1383SOL     OW 5047   1.659   0.400   0.353
 1383SOL    HW1 5048   1.594   0.350   0.411
 1383SOL    HW2 5049   1.645   0.498   0.366
 1384SOL     OW 5050   3.806   1.476   2.907
 1384SOL    HW1 5051   3.799   1.389   2.956
 1384SOL    HW2 5052   3.888   1.525   2.937
 1385SOL     OW 5053   6.796   2.815   2.981
 1385SOL    HW1 5054   6.821   2.871   2.903
 1385SOL    HW2 5055   6.740   2.869   3.044
 1386SOL     OW 5056   2.016   3.190   4.504
 1386SOL    HW1 5057   2.003   3.096   4.535
 1386SOL    HW2 5058   1.970   3.252   4.568
 1387SOL     OW 5059   3.262   0.224   4.697
 1387SOL    HW1 5060   3.179   0.246   4.646
 1387SOL    HW2 5061   3.335   0.288   4.671
 1388SOL     OW 5062   6.631   0.999   3.890
 1388SOL    HW1 5063   6.651   1.080   3.945
 1388SOL    HW2 5064   6.654   0.917   3.941
 1389SOL     OW 5065   5.984   0.163   4.702
 1389SOL    HW1 5066   5.944   0.073   4.685
 1389SOL    HW2 5067   6.067   0.152   4.757
 1390SOL     OW 5068   4.402   1.751   1.895
 1390SOL    HW1 5069   4.382   1.733   1.992
 1390SOL    HW2 5070   4.353   1.833   1.866
 1391SOL     OW 5071   5.541   0.855   4.618
 1391SOL    HW1 5072   5.611   0.855   4.689
 1391SOL    HW2 5073   5.459   0.901   4.651
 1392SOL     OW 5074   5.406   5.817   6.159
 1392SOL    HW1 5075   5.346   5.835   6.081
 1392SOL    HW2 5076   5.367   5.744   6.215
 1393SOL     OW 5077   6.889   1.099   6.465
 1393SOL    HW1 5078   6.804   1.151   6.476
 1393SOL    HW2 5079   6.964   1.162   6.442
 1394SOL     OW 5080   4.577   6.823   3.513
 1394SOL    HW1 5081   4.589   6.723   3.510
 1394SOL    HW2 5082   4.567   6.853   3.608
 1395SOL     OW 5083   1.733   4.917   2.703
 1395SOL    HW1 5084   1.805   4.854   2.731
 1395SOL    HW2 5085   1.743   5.004   2.752
 1396SOL     OW 5086   2.428   1.187   4.303
 1396SOL    HW1 5087   2.414   1.276   4.346
 1396SOL    HW2 5088   2.366   1.177   4.226
 1397SOL     OW 5089   0.575   5.340   4.127
 1397SOL    HW1 5090   0.486   5.369   4.092
 1397SOL    HW2 5091   0.592   5.245   4.103
 1398SOL     OW 5092   0.579   1.461   1.074
 1398SOL    HW1 5093   0.502   1.398   1.078
 1398SOL    HW2 5094   0.635   1.450   1.156
 1399SOL     OW 5095   4.062   0.508   0.251
 1399SOL    HW1 5096   4.108   0.522   0.339
 1399SOL    HW2 5097   3.976   0.461   0.265
 1400SOL     OW 5098   6.243   0.318   4.294
 1400SOL    HW1 5099   6.329   0.320   4.345
 1400SOL    HW2 5100   6.170   0.284   4.354
 1401SOL     OW 5101   5.639   0.477   3.207
 1401SOL    HW1 5102   5.648   0.576   3.203
 1401SOL    HW2 5103   5.678   0.443   3.293
 1402SOL     OW 5104   6.176   3.755   1.988
 1402SOL    HW1 5105   6.174   3.804   1.901
 1402SOL    HW2 5106   6.270   3.744   2.019
 1403SOL     OW 5107   3.287   2.917   0.262
 1403SOL    HW1 5108   3.329   2.835   0.223
 1403SOL    HW2 5109   3.355   2.969   0.313
 1404SOL     OW 5110   4.352   6.668   0.894
 1404SOL    HW1 5111   4.371   6.701   0.802
 1404SOL    HW2 5112   4.286   6.592   0.890
 1405SOL     OW 5113   2.099   2.980   1.068
 1405SOL    HW1 5114   2.005   2.975   1.036
 1405SOL    HW2 5115   2.118   3.072   1.101
 1406SOL     OW 5116   2.857   3.249   1.205
 1406SOL    HW1 5117   2.917   3.329   1.204
 1406SOL    HW2 5118   2.903   3.172   1.161
 1407SOL     OW 5119   1.051   3.200   0.967
 1407SOL    HW1 5120   1.130   3.242   1.011
 1407SOL    HW2 5121   1.060   3.101   0.969
 1408SOL     OW 5122   5.997   6.208   6.771
 1408SOL    HW1 5123   6.088   6.203   6.730
 1408SOL    HW2 5124   5.996   6.157   6.857
 1409SOL     OW 5125   6.774   1.557   5.632
 1409SOL    HW1 5126   6.871   1.556   5.609
 1409SOL    HW2 5127   6.719   1.560   5.548
 1410SOL     OW 5128   3.559   2.217   6.461
 1410SOL    HW1 5129   3.638   2.270   6.492
 1410SOL    HW2 5130   3.576   2.120   6.475
 1411SOL     OW 5131   4.100   5.583   0.599
 1411SOL    HW1 5132   4.138   5.657   0.543
 1411SOL    HW2 5133   4.103   5.497   0.547
 1412SOL     OW 5134   1.955   2.930   0.719
 1412SOL    HW1 5135   1.936   2.845   0.769
 1412SOL    HW2 5136   1.980   2.907   0.625
 1413SOL     OW 5137   1.538   1.756   4.987
 1413SOL    HW1 5138   1.456   1.760   5.043
 1413SOL    HW2 5139   1.618   1.780   5.042
 1414SOL     OW 5140   1.285   3.969   2.076
 1414SOL    HW1 5141   1.382   3.972   2.050
 1414SOL    HW2 5142   1.265   3.881   2.120
 1415SOL     OW 5143   1.888   1.894   4.187
 1415SOL    HW1 5144   1.806   1.914   4.132
 1415SOL    HW2 5145   1.861   1.855   4.275
 1416SOL     OW 5146   4.147   0.221   5.504
 1416SOL    HW1 5147   4.060   0.225   5.552
 1416SOL    HW2 5148   4.137   0.170   5.419
 1417SOL     OW 5149   4.013   3.171   5.586
 1417SOL    HW1 5150   4.008   3.219   5.674
 1417SOL    HW2 5151   4.046   3.234   5.516
 1418SOL     OW 5152   3.529   4.396   6.545
 1418SOL    HW1 5153   3.474   4.480   6.545
 1418SOL    HW2 5154   3.479   4.324   6.498
 1419SOL     OW 5155   1.723   4.667   2.969
 1419SOL    HW1 5156   1.765   4.642   3.057
 1419SOL    HW2 5157   1.755   4.605   2.898
 1420SOL     OW 5158   3.136   5.750   3.057
 1420SOL    HW1 5159   3.074   5.710   2.990
 1420SOL    HW2 5160   3.140   5.849   3.045
 1421SOL     OW 5161   1.496   5.331   5.662
 1421SOL    HW1 5162   1.506   5.271   5.742
 1421SOL    HW2 5163   1.565   5.305   5.593
 1422SOL     OW 5164   2.416   3.852   5.781
 1422SOL    HW1 5165   2.342   3.906   5.742
 1422SOL    HW2 5166   2.482   3.829   5.709
 1423SOL     OW 5167   4.419   1.054   5.279
 1423SOL    HW1 5168   4.470   0.975   5.313
 1423SOL    HW2 5169   4.483   1.123   5.247
 1424SOL     OW 5170   5.512   2.662   6.770
 1424SOL    HW1 5171   5.450   2.692   6.842
 1424SOL    HW2 5172   5.475   2.581   6.725
 1425SOL     OW 5173   4.516   6.354   3.674
 1425SOL    HW1 5174   4.575   6.319   3.747
 1425SOL    HW2 5175   4.459   6.279   3.640
 1426SOL     OW 5176   3.500   2.319   6.903
 1426SOL    HW1 5177   3.488   2.253   6.978
 1426SOL    HW2 5178   3.575   2.288   6.844
 1427SOL     OW 5179   1.826   1.198   4.081
 1427SOL    HW1 5180   1.877   1.282   4.063
 1427SOL    HW2 5181   1.805   1.152   3.994
 1428SOL     OW 5182   0.203   3.531   3.667
 1428SOL    HW1 5183   0.115   3.493   3.695
 1428SOL    HW2 5184   0.258   3.461   3.624
 1429SOL     OW 5185   5.880   0.400   1.017
 1429SOL    HW1 5186   5.880   0.444   0.927
 1429SOL    HW2 5187   5.870   0.469   1.088
 1430SOL     OW 5188   1.642   3.872   3.300
 1430SOL    HW1 5189   1.684   3.940   3.360
 1430SOL    HW2 5190   1.711   3.837   3.236
 1431SOL     OW 5191   1.816   1.319   5.848
 1431SOL    HW1 5192   1.738   1.274   5.804
 1431SOL    HW2 5193   1.874   1.251   5.893
 1432SOL     OW 5194   2.853   1.604   2.385
 1432SOL    HW1 5195   2.786   1.532   2.406
 1432SOL    HW2 5196   2.806   1.691   2.372
 1433SOL     OW 5197   2.845   0.005   4.283
 1433SOL    HW1 5198   2.903   7.009   4.204
 1433SOL    HW2 5199   2.895   7.006   4.367
 1434SOL     OW 5200   0.572   3.010   0.110
 1434SOL    HW1 5201   0.496   3.072   0.129
 1434SOL    HW2 5202   0.609   3.029   0.019
 1435SOL     OW 5203   1.044   6.862   4.720
 1435SOL    HW1 5204   0.966   6.813   4.683
 1435SOL    HW2 5205   1.127   6.837   4.669
 1436SOL     OW 5206   5.591   1.722   0.908
 1436SOL    HW1 5207   5.578   1.780   0.988
 1436SOL    HW2 5208   5.506   1.673   0.888
 1437SOL     OW 5209   4.485   0.211   6.388
 1437SOL    HW1 5210   4.506   0.291   6.330
 1437SOL    HW2 5211   4.556   0.202   6.458
 1438SOL     OW 5212   2.686   0.016   1.871
 1438SOL    HW1 5213   2.721   0.109   1.867
 1438SOL    HW2 5214   2.670   7.005   1.778
 1439SOL     OW 5215   0.279   4.812   0.085
 1439SOL    HW1 5216   0.379   4.813   0.076
 1439SOL    HW2 5217   0.239   4.774   0.001
 1440SOL     OW 5218   2.933   3.365   3.813
 1440SOL    HW1 5219   2.924   3.392   3.717
 1440SOL    HW2 5220   2.910   3.443   3.872
 1441SOL     OW 5221   6.334   3.131   3.736
 1441SOL    HW1 5222   6.245   3.086   3.729
 1441SOL    HW2 5223   6.325   3.218   3.784
 1442SOL     OW 5224   4.824   4.475   0.508
 1442SOL    HW1 5225   4.824   4.528   0.593
 1442SOL    HW2 5226   4.908   4.421   0.503
 1443SOL     OW 5227   0.861   2.462   3.227
 1443SOL    HW1 5228   0.910   2.472   3.141
 1443SOL    HW2 5229   0.784   2.525   3.230
 1444SOL     OW 5230   4.380   1.004   3.567
 1444SOL    HW1 5231   4.283   1.016   3.544
 1444SOL    HW2 5232   4.394   1.024   3.664
 1445SOL     OW 5233   6.607   2.535   1.513
 1445SOL    HW1 5234   6.549   2.462   1.477
 1445SOL    HW2 5235   6.612   2.610   1.447
 1446SOL     OW 5236   4.003   0.828   1.499
 1446SOL    HW1 5237   4.021   0.816   1.402
 1446SOL    HW2 5238   4.003   0.738   1.544
 1447SOL     OW 5239   6.431   0.449   4.727
 1447SOL    HW1 5240   6.351   0.481   4.675
 1447SOL    HW2 5241   6.412   0.455   4.825
 1448SOL     OW 5242   5.440   0.907   6.724
 1448SOL    HW1 5243   5.483   0.990   6.689
 1448SOL    HW2 5244   5.393   0.860   6.649
 1449SOL     OW 5245   5.089   5.948   1.131
 1449SOL    HW1 5246   5.057   5.853   1.136
 1449SOL    HW2 5247   5.012   6.010   1.149
 1450SOL     OW 5248   5.741   2.903   3.225
 1450SOL    HW1 5249   5.726   2.807   3.247
 1450SOL    HW2 5250   5.683   2.929   3.148
 1451SOL     OW 5251   1.210   6.358   2.929
 1451SOL    HW1 5252   1.141   6.403   2.986
 1451SOL    HW2 5253   1.165   6.315   2.851
 1452SOL     OW 5254   4.487   1.297   5.655
 1452SOL    HW1 5255   4.556   1.365   5.678
 1452SOL    HW2 5256   4.486   1.282   5.557
 1453SOL     OW 5257   5.292   4.643   5.145
 1453SOL    HW1 5258   5.292   4.547   5.173
 1453SOL    HW2 5259   5.325   4.651   5.051
 1454SOL     OW 5260   4.521   3.614   1.323
 1454SOL    HW1 5261   4.443   3.676   1.316
 1454SOL    HW2 5262   4.586   3.635   1.249
 1455SOL     OW 5263   1.781   2.015   1.955
 1455SOL    HW1 5264   1.731   2.087   2.002
 1455SOL    HW2 5265   1.717   1.942   1.929
 1456SOL     OW 5266   6.025   6.304   4.070
 1456SOL    HW1 5267   6.087   6.378   4.096
 1456SOL    HW2 5268   5.950   6.341   4.015
 1457SOL     OW 5269   1.532   0.630   2.932
 1457SOL    HW1 5270   1.589   0.560   2.890
 1457SOL    HW2 5271   1.440   0.593   2.948
 1458SOL     OW 5272   5.753   5.566   6.673
 1458SOL    HW1 5273   5.831   5.591   6.731
 1458SOL    HW2 5274   5.670   5.607   6.710
 1459SOL     OW 5275   2.286   6.753   6.485
 1459SOL    HW1 5276   2.239   6.671   6.518
 1459SOL    HW2 5277   2.231   6.834   6.505
 1460SOL     OW 5278   1.578   0.088   6.874
 1460SOL    HW1 5279   1.517   0.106   6.797
 1460SOL    HW2 5280   1.579   0.168   6.935
 1461SOL     OW 5281   5.223   4.668   1.835
 1461SOL    HW1 5282   5.287   4.622   1.897
 1461SOL    HW2 5283   5.165   4.731   1.887
 1462SOL     OW 5284   5.793   1.146   0.022
 1462SOL    HW1 5285   5.754   1.144   0.114
 1462SOL    HW2 5286   5.796   1.053   7.009
 1463SOL     OW 5287   0.921   0.942   5.041
 1463SOL    HW1 5288   0.884   0.912   5.129
 1463SOL    HW2 5289   0.979   1.023   5.056
 1464SOL     OW 5290   0.062   6.521   1.001
 1464SOL    HW1 5291   0.159   6.500   0.986
 1464SOL    HW2 5292   0.037   6.497   1.095
 1465SOL     OW 5293   0.041   6.879   4.741
 1465SOL    HW1 5294   6.997   6.807   4.723
 1465SOL    HW2 5295   0.055   6.932   4.658
 1466SOL     OW 5296   5.632   4.772   3.492
 1466SOL    HW1 5297   5.704   4.799   3.556
 1466SOL    HW2 5298   5.543   4.773   3.539
 1467SOL     OW 5299   1.018   2.062   2.948
 1467SOL    HW1 5300   0.954   2.044   3.023
 1467SOL    HW2 5301   0.969   2.056   2.861
 1468SOL     OW 5302   5.543   5.914   3.286
 1468SOL    HW1 5303   5.485   5.899   3.206
 1468SOL    HW2 5304   5.504   5.866   3.365
 1469SOL     OW 5305   1.023   1.376   2.564
 1469SOL    HW1 5306   0.950   1.370   2.496
 1469SOL    HW2 5307   0.986   1.410   2.651
 1470SOL     OW 5308   0.956   1.102   2.869
 1470SOL    HW1 5309   0.896   1.114   2.790
 1470SOL    HW2 5310   1.014   1.183   2.879
 1471SOL     OW 5311   0.674   0.177   0.286
 1471SOL    HW1 5312   0.590   0.125   0.266
 1471SOL    HW2 5313   0.691   0.177   0.384
 1472SOL     OW 5314   4.320   0.639   5.977
 1472SOL    HW1 5315   4.221   0.634   5.993
 1472SOL    HW2 5316   4.338   0.624   5.880
 1473SOL     OW 5317   6.254   3.935   3.286
 1473SOL    HW1 5318   6.235   3.865   3.218
 1473SOL    HW2 5319   6.331   3.908   3.343
 1474SOL     OW 5320   4.389   5.580   4.395
 1474SOL    HW1 5321   4.305   5.529   4.412
 1474SOL    HW2 5322   4.414   5.573   4.299
 1475SOL     OW 5323   0.371   1.491   2.857
 1475SOL    HW1 5324   0.274   1.487   2.880
 1475SOL    HW2 5325   0.418   1.411   2.896
 1476SOL     OW 5326   0.024   1.868   1.845
 1476SOL    HW1 5327   0.070   1.930   1.909
 1476SOL    HW2 5328   7.019   1.920   1.764
 1477SOL     OW 5329   3.046   5.735   4.492
 1477SOL    HW1 5330   3.130   5.784   4.468
 1477SOL    HW2 5331   3.056   5.638   4.470
 1478SOL     OW 5332   6.216   4.171   0.284
 1478SOL    HW1 5333   6.236   4.234   0.208
 1478SOL    HW2 5334   6.275   4.091   0.276
 1479SOL     OW 5335   1.481   5.078   0.321
 1479SOL    HW1 5336   1.566   5.059   0.273
 1479SOL    HW2 5337   1.431   5.150   0.274
 1480SOL     OW 5338   2.751   0.786   0.452
 1480SOL    HW1 5339   2.685   0.834   0.394
 1480SOL    HW2 5340   2.810   0.853   0.497
 1481SOL     OW 5341   5.517   2.413   6.156
 1481SOL    HW1 5342   5.512   2.353   6.235
 1481SOL    HW2 5343   5.601   2.394   6.105
 1482SOL     OW 5344   6.726   0.311   6.633
 1482SOL    HW1 5345   6.653   0.272   6.690
 1482SOL    HW2 5346   6.787   0.367   6.689
 1483SOL     OW 5347   6.016   1.921   0.486
 1483SOL    HW1 5348   6.038   1.873   0.401
 1483SOL    HW2 5349   5.938   1.981   0.471
 1484SOL     OW 5350   6.383   5.272   2.696
 1484SOL    HW1 5351   6.407   5.268   2.599
 1484SOL    HW2 5352   6.316   5.344   2.712
 1485SOL     OW 5353   5.364   2.529   3.894
 1485SOL    HW1 5354   5.362   2.628   3.904
 1485SOL    HW2 5355   5.332   2.504   3.802
 1486SOL     OW 5356   4.847   1.824   2.307
 1486SOL    HW1 5357   4.766   1.826   2.248
 1486SOL    HW2 5358   4.824   1.862   2.396
 1487SOL     OW 5359   6.384   1.400   5.510
 1487SOL    HW1 5360   6.331   1.475   5.470
 1487SOL    HW2 5361   6.372   1.317   5.456
 1488SOL     OW 5362   4.615   1.772   2.954
 1488SOL    HW1 5363   4.585   1.773   2.859
 1488SOL    HW2 5364   4.593   1.859   2.997
 1489SOL     OW 5365   3.933   5.495   5.056
 1489SOL    HW1 5366   3.897   5.403   5.068
 1489SOL    HW2 5367   4.030   5.490   5.029
 1490SOL     OW 5368   1.743   2.551   0.401
 1490SOL    HW1 5369   1.817   2.523   0.461
 1490SOL    HW2 5370   1.772   2.545   0.306
 1491SOL     OW 5371   6.982   3.259   4.077
 1491SOL    HW1 5372   6.915   3.214   4.136
 1491SOL    HW2 5373   0.032   3.194   4.055
 1492SOL     OW 5374   4.864   2.173   1.412
 1492SOL    HW1 5375   4.898   2.097   1.467
 1492SOL    HW2 5376   4.809   2.137   1.336
 1493SOL     OW 5377   5.076   0.357   5.261
 1493SOL    HW1 5378   5.075   0.327   5.165
 1493SOL    HW2 5379   4.982   0.373   5.292
 1494SOL     OW 5380   4.237   2.508   6.080
 1494SOL    HW1 5381   4.207   2.587   6.134
 1494SOL    HW2 5382   4.337   2.509   6.074
 1495SOL     OW 5383   1.754   3.069   2.471
 1495SOL    HW1 5384   1.723   3.016   2.392
 1495SOL    HW2 5385   1.828   3.131   2.443
 1496SOL     OW 5386   0.368   0.134   2.479
 1496SOL    HW1 5387   0.339   0.098   2.568
 1496SOL    HW2 5388   0.350   0.066   2.408
 1497SOL     OW 5389   6.058   5.065   4.637
 1497SOL    HW1 5390   6.085   4.969   4.629
 1497SOL    HW2 5391   5.961   5.070   4.661
 1498SOL     OW 5392   2.176   5.646   0.080
 1498SOL    HW1 5393   2.135   5.713   0.141
 1498SOL    HW2 5394   2.208   5.692   7.020
 1499SOL     OW 5395   1.314   3.670   5.408
 1499SOL    HW1 5396   1.366   3.715   5.336
 1499SOL    HW2 5397   1.256   3.737   5.454
 1500SOL     OW 5398   4.959   6.694   6.783
 1500SOL    HW1 5399   4.985   6.658   6.693
 1500SOL    HW2 5400   4.862   6.718   6.782
 1501SOL     OW 5401   3.947   6.473   6.282
 1501SOL    HW1 5402   3.868   6.478   6.344
 1501SOL    HW2 5403   3.986   6.564   6.271
 1502SOL     OW 5404   6.237   6.628   0.600
 1502SOL    HW1 5405   6.176   6.554   0.573
 1502SOL    HW2 5406   6.317   6.591   0.647
 1503SOL     OW 5407   3.424   2.886   6.304
 1503SOL    HW1 5408   3.439   2.944   6.385
 1503SOL    HW2 5409   3.427   2.943   6.222
 1504SOL     OW 5410   3.484   6.610   4.877
 1504SOL    HW1 5411   3.460   6.516   4.902
 1504SOL    HW2 5412   3.431   6.674   4.934
 1505SOL     OW 5413   5.846   5.533   0.076
 1505SOL    HW1 5414   5.756   5.526   0.034
 1505SOL    HW2 5415   5.837   5.545   0.175
 1506SOL     OW 5416   0.846   6.214   4.438
 1506SOL    HW1 5417   0.835   6.163   4.523
 1506SOL    HW2 5418   0.912   6.288   4.451
 1507SOL     OW 5419   1.737   1.449   5.419
 1507SOL    HW1 5420   1.743   1.401   5.331
 1507SOL    HW2 5421   1.738   1.548   5.402
 1508SOL     OW 5422   4.734   0.049   0.444
 1508SOL    HW1 5423   4.674   0.022   0.369
 1508SOL    HW2 5424   4.679   0.091   0.516
 1509SOL     OW 5425   4.476   2.957   0.542
 1509SOL    HW1 5426   4.483   3.009   0.457
 1509SOL    HW2 5427   4.559   2.903   0.555
 1510SOL     OW 5428   6.943   1.604   3.928
 1510SOL    HW1 5429   6.867   1.606   3.864
 1510SOL    HW2 5430   6.984   1.696   3.934
 1511SOL     OW 5431   2.615   3.403   1.128
 1511SOL    HW1 5432   2.694   3.345   1.143
 1511SOL    HW2 5433   2.581   3.437   1.216
 1512SOL     OW 5434   0.204   0.821   1.914
 1512SOL    HW1 5435   0.188   0.833   1.816
 1512SOL    HW2 5436   0.299   0.844   1.936
 1513SOL     OW 5437   3.671   1.183   3.483
 1513SOL    HW1 5438   3.679   1.086   3.462
 1513SOL    HW2 5439   3.595   1.222   3.431
 1514SOL     OW 5440   5.667   1.432   5.036
 1514SOL    HW1 5441   5.608   1.373   4.981
 1514SOL    HW2 5442   5.747   1.380   5.066
 1515SOL     OW 5443   0.513   4.645   4.424
 1515SOL    HW1 5444   0.435   4.593   4.391
 1515SOL    HW2 5445   0.506   4.739   4.393
 1516SOL     OW 5446   0.780   1.229   0.584
 1516SOL    HW1 5447   0.767   1.276   0.671
 1516SOL    HW2 5448   0.727   1.275   0.512
 1517SOL     OW 5449   4.634   5.613   3.562
 1517SOL    HW1 5450   4.706   5.590   3.497
 1517SOL    HW2 5451   4.553   5.558   3.544
 1518SOL     OW 5452   0.341   4.024   1.007
 1518SOL    HW1 5453   0.393   4.010   0.923
 1518SOL    HW2 5454   0.344   4.121   1.032
 1519SOL     OW 5455   5.915   4.578   0.029
 1519SOL    HW1 5456   5.877   4.616   6.968
 1519SOL    HW2 5457   5.947   4.485   0.011
 1520SOL     OW 5458   1.615   3.577   3.056
 1520SOL    HW1 5459   1.702   3.612   3.021
 1520SOL    HW2 5460   1.598   3.616   3.147
 1521SOL     OW 5461   2.769   3.706   6.745
 1521SOL    HW1 5462   2.812   3.647   6.814
 1521SOL    HW2 5463   2.806   3.799   6.753
 1522SOL     OW 5464   6.018   1.793   6.949
 1522SOL    HW1 5465   5.963   1.792   0.009
 1522SOL    HW2 5466   5.967   1.748   6.875
 1523SOL     OW 5467   7.011   2.262   1.005
 1523SOL    HW1 5468   6.920   2.291   0.976
 1523SOL    HW2 5469   0.046   2.342   1.018
 1524SOL     OW 5470   0.049   0.960   2.103
 1524SOL    HW1 5471   0.079   0.914   2.019
 1524SOL    HW2 5472   7.006   0.902   2.151
 1525SOL     OW 5473   4.609   1.924   6.318
 1525SOL    HW1 5474   4.590   1.844   6.260
 1525SOL    HW2 5475   4.630   1.893   6.411
 1526SOL     OW 5476   6.833   2.589   1.644
 1526SOL    HW1 5477   6.910   2.575   1.581
 1526SOL    HW2 5478   6.748   2.560   1.600
 1527SOL     OW 5479   3.390   2.031   5.841
 1527SOL    HW1 5480   3.447   2.069   5.915
 1527SOL    HW2 5481   3.295   2.027   5.871
 1528SOL     OW 5482   4.968   5.970   3.684
 1528SOL    HW1 5483   4.891   5.981   3.746
 1528SOL    HW2 5484   4.958   6.032   3.607
 1529SOL     OW 5485   3.566   0.131   5.687
 1529SOL    HW1 5486   3.511   0.066   5.739
 1529SOL    HW2 5487   3.521   0.220   5.687
 1530SOL     OW 5488   3.637   6.720   2.272
 1530SOL    HW1 5489   3.699   6.776   2.327
 1530SOL    HW2 5490   3.612   6.638   2.323
 1531SOL     OW 5491   6.256   0.117   4.802
 1531SOL    HW1 5492   6.255   0.069   4.889
 1531SOL    HW2 5493   6.347   0.156   4.787
 1532SOL     OW 5494   3.284   2.058   5.125
 1532SOL    HW1 5495   3.240   2.013   5.202
 1532SOL    HW2 5496   3.268   2.156   5.130
 1533SOL     OW 5497   6.156   3.098   6.573
 1533SOL    HW1 5498   6.074   3.046   6.598
 1533SOL    HW2 5499   6.180   3.079   6.478
 1534SOL     OW 5500   6.937   5.921   1.281
 1534SOL    HW1 5501   6.842   5.912   1.311
 1534SOL    HW2 5502   6.996   5.927   1.361
 1535SOL     OW 5503   4.373   5.018   3.887
 1535SOL    HW1 5504   4.461   4.992   3.927
 1535SOL    HW2 5505   4.325   4.935   3.858
 1536SOL     OW 5506   3.007   5.876   5.148
 1536SOL    HW1 5507   3.084   5.848   5.090
 1536SOL    HW2 5508   2.932   5.907   5.090
 1537SOL     OW 5509   1.845   5.576   4.448
 1537SOL    HW1 5510   1.865   5.523   4.531
 1537SOL    HW2 5511   1.776   5.528   4.394
 1538SOL     OW 5512   2.453   5.528   6.676
 1538SOL    HW1 5513   2.510   5.510   6.596
 1538SOL    HW2 5514   2.358   5.501   6.656
 1539SOL     OW 5515   3.567   4.563   1.645
 1539SOL    HW1 5516   3.642   4.497   1.650
 1539SOL    HW2 5517   3.546   4.596   1.737
 1540SOL     OW 5518   0.836   0.216   4.821
 1540SOL    HW1 5519   0.853   0.118   4.830
 1540SOL    HW2 5520   0.894   0.266   4.886
 1541SOL     OW 5521   5.000   2.484   1.046
 1541SOL    HW1 5522   4.947   2.474   1.130
 1541SOL    HW2 5523   4.960   2.556   0.990
 1542SOL     OW 5524   0.790   6.907   1.597
 1542SOL    HW1 5525   0.706   6.962   1.606
 1542SOL    HW2 5526   0.842   6.912   1.682
 1543SOL     OW 5527   3.475   3.900   4.039
 1543SOL    HW1 5528   3.410   3.824   4.043
 1543SOL    HW2 5529   3.535   3.896   4.119
 1544SOL     OW 5530   3.214   4.094   2.787
 1544SOL    HW1 5531   3.173   4.123   2.700
 1544SOL    HW2 5532   3.313   4.100   2.781
 1545SOL     OW 5533   5.594   0.008   5.123
 1545SOL    HW1 5534   5.540   0.090   5.100
 1545SOL    HW2 5535   5.668   7.020   5.057
 1546SOL     OW 5536   0.037   6.658   6.259
 1546SOL    HW1 5537   0.124   6.632   6.218
 1546SOL    HW2 5538   6.985   6.630   6.199
 1547SOL     OW 5539   3.055   5.881   1.334
 1547SOL    HW1 5540   3.064   5.936   1.417
 1547SOL    HW2 5541   2.963   5.892   1.296
 1548SOL     OW 5542   4.933   4.117   4.765
 1548SOL    HW1 5543   4.948   4.026   4.804
 1548SOL    HW2 5544   4.992   4.128   4.685
 1549SOL     OW 5545   6.742   2.031   1.070
 1549SOL    HW1 5546   6.737   2.107   1.006
 1549SOL    HW2 5547   6.650   1.996   1.088
 1550SOL     OW 5548   2.140   5.855   3.972
 1550SOL    HW1 5549   2.223   5.799   3.962
 1550SOL    HW2 5550   2.099   5.838   4.061
 1551SOL     OW 5551   1.946   2.414   0.534
 1551SOL    HW1 5552   1.901   2.370   0.612
 1551SOL    HW2 5553   2.024   2.466   0.566
 1552SOL     OW 5554   0.941   0.772   1.070
 1552SOL    HW1 5555   1.011   0.713   1.030
 1552SOL    HW2 5556   0.896   0.724   1.145
 1553SOL     OW 5557   5.925   1.939   5.991
 1553SOL    HW1 5558   5.911   2.013   6.057
 1553SOL    HW2 5559   5.970   1.862   6.036
 1554SOL     OW 5560   4.044   1.937   1.909
 1554SOL    HW1 5561   3.964   1.890   1.872
 1554SOL    HW2 5562   4.024   2.034   1.922
 1555SOL     OW 5563   3.466   1.659   5.578
 1555SOL    HW1 5564   3.437   1.564   5.566
 1555SOL    HW2 5565   3.553   1.674   5.531
 1556SOL     OW 5566   3.896   1.100   0.939
 1556SOL    HW1 5567   3.796   1.102   0.934
 1556SOL    HW2 5568   3.933   1.053   0.858
 1557SOL     OW 5569   2.070   1.847   1.060
 1557SOL    HW1 5570   2.054   1.774   1.127
 1557SOL    HW2 5571   2.056   1.936   1.104
 1558SOL     OW 5572   6.337   3.395   5.986
 1558SOL    HW1 5573   6.243   3.369   5.964
 1558SOL    HW2 5574   6.344   3.494   5.990
 1559SOL     OW 5575   1.465   4.690   2.908
 1559SOL    HW1 5576   1.422   4.600   2.915
 1559SOL    HW2 5577   1.563   4.681   2.924
 1560SOL     OW 5578   3.990   1.497   1.495
 1560SOL    HW1 5579   3.911   1.558   1.505
 1560SOL    HW2 5580   4.059   1.521   1.564
 1561SOL     OW 5581   6.210   5.868   1.615
 1561SOL    HW1 5582   6.173   5.941   1.672
 1561SOL    HW2 5583   6.216   5.899   1.521
 1562SOL     OW 5584   3.566   6.471   2.400
 1562SOL    HW1 5585   3.573   6.374   2.426
 1562SOL    HW2 5586   3.480   6.486   2.351
 1563SOL     OW 5587   3.983   2.144   4.196
 1563SOL    HW1 5588   3.894   2.187   4.205
 1563SOL    HW2 5589   4.052   2.199   4.244
 1564SOL     OW 5590   1.671   2.160   2.336
 1564SOL    HW1 5591   1.763   2.149   2.297
 1564SOL    HW2 5592   1.676   2.219   2.416
 1565SOL     OW 5593   3.965   0.698   4.234
 1565SOL    HW1 5594   3.906   0.734   4.162
 1565SOL    HW2 5595   4.000   0.608   4.207
 1566SOL     OW 5596   4.510   4.421   2.909
 1566SOL    HW1 5597   4.594   4.367   2.904
 1566SOL    HW2 5598   4.494   4.465   2.820
 1567SOL     OW 5599   4.873   6.245   5.114
 1567SOL    HW1 5600   4.848   6.292   5.199
 1567SOL    HW2 5601   4.874   6.311   5.039
 1568SOL     OW 5602   2.592   6.153   2.888
 1568SOL    HW1 5603   2.665   6.094   2.923
 1568SOL    HW2 5604   2.538   6.103   2.821
 1569SOL     OW 5605   2.791   6.838   3.518
 1569SOL    HW1 5606   2.858   6.860   3.447
 1569SOL    HW2 5607   2.813   6.888   3.601
 1570SOL     OW 5608   3.336   6.876   0.170
 1570SOL    HW1 5609   3.298   6.800   0.222
 1570SOL    HW2 5610   3.407   6.841   0.108
 1571SOL     OW 5611   1.088   2.782   4.020
 1571SOL    HW1 5612   1.176   2.737   4.010
 1571SOL    HW2 5613   1.072   2.803   4.116
 1572SOL     OW 5614   1.833   4.579   1.860
 1572SOL    HW1 5615   1.788   4.640   1.794
 1572SOL    HW2 5616   1.864   4.632   1.939
 1573SOL     OW 5617   5.195   5.228   0.523
 1573SOL    HW1 5618   5.239   5.184   0.601
 1573SOL    HW2 5619   5.173   5.323   0.545
 1574SOL     OW 5620   6.945   3.657   2.873
 1574SOL    HW1 5621   6.898   3.600   2.805
 1574SOL    HW2 5622   6.987   3.735   2.827
 1575SOL     OW 5623   0.466   1.133   0.366
 1575SOL    HW1 5624   0.367   1.137   0.349
 1575SOL    HW2 5625   0.509   1.077   0.296
 1576SOL     OW 5626   0.421   6.647   2.739
 1576SOL    HW1 5627   0.459   6.734   2.772
 1576SOL    HW2 5628   0.356   6.665   2.666
 1577SOL     OW 5629   4.921   0.356   6.098
 1577SOL    HW1 5630   4.964   0.308   6.022
 1577SOL    HW2 5631   4.913   0.453   6.076
 1578SOL     OW 5632   5.452   0.858   0.221
 1578SOL    HW1 5633   5.486   0.871   0.128
 1578SOL    HW2 5634   5.364   0.904   0.232
 1579SOL     OW 5635   1.630   2.795   1.266
 1579SOL    HW1 5636   1.573   2.732   1.317
 1579SOL    HW2 5637   1.589   2.813   1.176
 1580SOL     OW 5638   3.502   3.869   3.142
 1580SOL    HW1 5639   3.530   3.806   3.068
 1580SOL    HW2 5640   3.405   3.857   3.160
 1581SOL     OW 5641   6.685   4.105   5.579
 1581SOL    HW1 5642   6.722   4.155   5.501
 1581SOL    HW2 5643   6.585   4.106   5.576
 1582SOL     OW 5644   4.835   6.487   5.523
 1582SOL    HW1 5645   4.878   6.401   5.494
 1582SOL    HW2 5646   4.799   6.534   5.442
 1583SOL     OW 5647   1.369   5.798   5.188
 1583SOL    HW1 5648   1.389   5.868   5.119
 1583SOL    HW2 5649   1.440   5.801   5.259
 1584SOL     OW 5650   0.640   5.081   6.701
 1584SOL    HW1 5651   0.550   5.084   6.746
 1584SOL    HW2 5652   0.646   4.999   6.645
 1585SOL     OW 5653   4.053   0.281   3.149
 1585SOL    HW1 5654   3.963   0.291   3.192
 1585SOL    HW2 5655   4.045   0.217   3.072
 1586SOL     OW 5656   2.685   5.449   3.814
 1586SOL    HW1 5657   2.732   5.364   3.839
 1586SOL    HW2 5658   2.678   5.455   3.715
 1587SOL     OW 5659   2.360   6.294   5.847
 1587SOL    HW1 5660   2.379   6.300   5.945
 1587SOL    HW2 5661   2.398   6.209   5.810
 1588SOL     OW 5662   6.105   7.015   2.499
 1588SOL    HW1 5663   6.014   0.033   2.493
 1588SOL    HW2 5664   6.167   0.040   2.437
 1589SOL     OW 5665   6.714   4.558   3.256
 1589SOL    HW1 5666   6.643   4.610   3.304
 1589SOL    HW2 5667   6.804   4.587   3.289
 1590SOL     OW 5668   0.214   1.374   3.524
 1590SOL    HW1 5669   0.157   1.429   3.585
 1590SOL    HW2 5670   0.250   1.432   3.451
 1591SOL     OW 5671   0.709   6.022   1.683
 1591SOL    HW1 5672   0.659   5.936   1.697
 1591SOL    HW2 5673   0.746   6.024   1.590
 1592SOL     OW 5674   0.591   3.965   0.009
 1592SOL    HW1 5675   0.565   3.906   6.955
 1592SOL    HW2 5676   0.625   3.908   0.084
 1593SOL     OW 5677   1.472   0.601   6.942
 1593SOL    HW1 5678   1.398   0.542   6.973
 1593SOL    HW2 5679   1.444   0.697   6.950
 1594SOL     OW 5680   6.896   0.593   1.755
 1594SOL    HW1 5681   6.856   0.683   1.736
 1594SOL    HW2 5682   6.823   0.529   1.778
 1595SOL     OW 5683   0.860   4.412   6.879
 1595SOL    HW1 5684   0.818   4.469   6.809
 1595SOL    HW2 5685   0.820   4.320   6.875
 1596SOL     OW 5686   5.625   4.550   2.219
 1596SOL    HW1 5687   5.627   4.615   2.295
 1596SOL    HW2 5688   5.667   4.464   2.247
 1597SOL     OW 5689   3.485   6.337   0.301
 1597SOL    HW1 5690   3.573   6.337   0.253
 1597SOL    HW2 5691   3.472   6.425   0.347
 1598SOL     OW 5692   1.221   5.747   6.676
 1598SOL    HW1 5693   1.297   5.707   6.625
 1598SOL    HW2 5694   1.231   5.727   6.773
 1599SOL     OW 5695   4.471   4.921   3.621
 1599SOL    HW1 5696   4.428   4.948   3.708
 1599SOL    HW2 5697   4.567   4.899   3.637
 1600SOL     OW 5698   3.554   0.118   2.859
 1600SOL    HW1 5699   3.549   0.218   2.861
 1600SOL    HW2 5700   3.645   0.091   2.827
 1601SOL     OW 5701   5.502   6.320   3.622
 1601SOL    HW1 5702   5.411   6.278   3.615
 1601SOL    HW2 5703   5.563   6.279   3.554
 1602SOL     OW 5704   4.479   5.320   3.660
 1602SOL    HW1 5705   4.532   5.244   3.624
 1602SOL    HW2 5706   4.476   5.315   3.760
 1603SOL     OW 5707   3.009   5.503   3.797
 1603SOL    HW1 5708   3.079   5.545   3.854
 1603SOL    HW2 5709   2.986   5.564   3.721
 1604SOL     OW 5710   3.828   4.845   2.198
 1604SOL    HW1 5711   3.759   4.800   2.140
 1604SOL    HW2 5712   3.782   4.888   2.276
 1605SOL     OW 5713   4.732   5.141   1.497
 1605SOL    HW1 5714   4.740   5.042   1.503
 1605SOL    HW2 5715   4.823   5.182   1.488
 1606SOL     OW 5716   4.057   6.351   4.816
 1606SOL    HW1 5717   4.063   6.418   4.742
 1606SOL    HW2 5718   3.966   6.355   4.857
 1607SOL     OW 5719   4.868   5.755   2.963
 1607SOL    HW1 5720   4.862   5.845   3.005
 1607SOL    HW2 5721   4.958   5.744   2.920
 1608SOL     OW 5722   6.323   0.479   2.696
 1608SOL    HW1 5723   6.234   0.525   2.695
 1608SOL    HW2 5724   6.334   0.428   2.610
 1609SOL     OW 5725   3.218   6.079   1.029
 1609SOL    HW1 5726   3.269   6.077   1.115
 1609SOL    HW2 5727   3.137   6.137   1.040
 1610SOL     OW 5728   4.766   0.366   0.262
 1610SOL    HW1 5729   4.822   0.400   0.338
 1610SOL    HW2 5730   4.671   0.360   0.290
 1611SOL     OW 5731   1.203   3.704   1.069
 1611SOL    HW1 5732   1.140   3.629   1.090
 1611SOL    HW2 5733   1.232   3.697   0.974
 1612SOL     OW 5734   3.436   6.612   1.638
 1612SOL    HW1 5735   3.383   6.598   1.721
 1612SOL    HW2 5736   3.374   6.627   1.561
 1613SOL     OW 5737   6.878   5.620   2.636
 1613SOL    HW1 5738   6.906   5.572   2.719
 1613SOL    HW2 5739   6.951   5.682   2.607
 1614SOL     OW 5740   5.992   2.784   6.200
 1614SOL    HW1 5741   5.934   2.827   6.269
 1614SOL    HW2 5742   6.080   2.760   6.241
 1615SOL     OW 5743   0.588   5.171   6.040
 1615SOL    HW1 5744   0.646   5.221   5.976
 1615SOL    HW2 5745   0.637   5.158   6.126
 1616SOL     OW 5746   2.408   1.353   4.794
 1616SOL    HW1 5747   2.486   1.406   4.828
 1616SOL    HW2 5748   2.352   1.324   4.872
 1617SOL     OW 5749   5.256   6.071   3.492
 1617SOL    HW1 5750   5.328   6.006   3.470
 1617SOL    HW2 5751   5.260   6.094   3.590
 1618SOL     OW 5752   2.647   5.704   3.135
 1618SOL    HW1 5753   2.609   5.612   3.146
 1618SOL    HW2 5754   2.743   5.704   3.160
 1619SOL     OW 5755   1.047   5.237   0.113
 1619SOL    HW1 5756   1.110   5.275   0.181
 1619SOL    HW2 5757   0.953   5.254   0.142
 1620SOL     OW 5758   3.465   5.282   0.226
 1620SOL    HW1 5759   3.468   5.314   0.131
 1620SOL    HW2 5760   3.556   5.249   0.252
 1621SOL     OW 5761   5.827   6.593   1.058
 1621SOL    HW1 5762   5.897   6.551   1.116
 1621SOL    HW2 5763   5.785   6.523   1.001
 1622SOL     OW 5764   0.393   4.168   4.942
 1622SOL    HW1 5765   0.415   4.223   4.862
 1622SOL    HW2 5766   0.374   4.227   5.020
 1623SOL     OW 5767   0.657   2.318   4.784
 1623SOL    HW1 5768   0.577   2.270   4.748
 1623SOL    HW2 5769   0.734   2.305   4.721
 1624SOL     OW 5770   4.358   0.964   0.992
 1624SOL    HW1 5771   4.312   1.033   0.937
 1624SOL    HW2 5772   4.298   0.884   1.001
 1625SOL     OW 5773   1.814   5.137   0.820
 1625SOL    HW1 5774   1.909   5.167   0.810
 1625SOL    HW2 5775   1.756   5.189   0.759
 1626SOL     OW 5776   3.182   1.685   1.244
 1626SOL    HW1 5777   3.157   1.692   1.341
 1626SOL    HW2 5778   3.134   1.607   1.204
 1627SOL     OW 5779   4.375   1.866   3.840
 1627SOL    HW1 5780   4.298   1.817   3.881
 1627SOL    HW2 5781   4.454   1.863   3.902
 1628SOL     OW 5782   5.716   6.266   6.380
 1628SOL    HW1 5783   5.744   6.191   6.440
 1628SOL    HW2 5784   5.788   6.336   6.378
 1629SOL     OW 5785   2.263   1.454   2.929
 1629SOL    HW1 5786   2.195   1.489   2.863
 1629SOL    HW2 5787   2.291   1.529   2.989
 1630SOL     OW 5788   0.796   4.122   0.148
 1630SOL    HW1 5789   0.724   4.068   0.106
 1630SOL    HW2 5790   0.761   4.214   0.169
 1631SOL     OW 5791   0.525   3.393   0.317
 1631SOL    HW1 5792   0.617   3.360   0.337
 1631SOL    HW2 5793   0.504   3.470   0.377
 1632SOL     OW 5794   6.517   4.683   2.538
 1632SOL    HW1 5795   6.580   4.674   2.615
 1632SOL    HW2 5796   6.504   4.593   2.495
 1633SOL     OW 5797   4.897   3.399   3.935
 1633SOL    HW1 5798   4.926   3.372   4.027
 1633SOL    HW2 5799   4.900   3.499   3.928
 1634SOL     OW 5800   5.262   0.335   4.828
 1634SOL    HW1 5801   5.357   0.320   4.800
 1634SOL    HW2 5802   5.240   0.433   4.819
 1635SOL     OW 5803   3.293   5.452   4.825
 1635SOL    HW1 5804   3.199   5.476   4.801
 1635SOL    HW2 5805   3.309   5.355   4.809
 1636SOL     OW 5806   5.457   5.733   1.274
 1636SOL    HW1 5807   5.432   5.697   1.184
 1636SOL    HW2 5808   5.478   5.830   1.267
 1637SOL     OW 5809   0.210   0.105   2.110
 1637SOL    HW1 5810   0.255   0.021   2.142
 1637SOL    HW2 5811   0.218   0.176   2.180
 1638SOL     OW 5812   0.017   3.234   1.668
 1638SOL    HW1 5813   0.117   3.242   1.667
 1638SOL    HW2 5814   7.006   3.261   1.758
 1639SOL     OW 5815   5.429   3.314   2.371
 1639SOL    HW1 5816   5.459   3.407   2.351
 1639SOL    HW2 5817   5.331   3.315   2.392
 1640SOL     OW 5818   6.248   0.475   0.508
 1640SOL    HW1 5819   6.206   0.457   0.597
 1640SOL    HW2 5820   6.176   0.493   0.440
 1641SOL     OW 5821   6.779   2.277   2.804
 1641SOL    HW1 5822   6.725   2.332   2.868
 1641SOL    HW2 5823   6.717   2.217   2.752
 1642SOL     OW 5824   5.277   2.560   5.595
 1642SOL    HW1 5825   5.238   2.495   5.660
 1642SOL    HW2 5826   5.329   2.510   5.526
 1643SOL     OW 5827   3.129   5.209   4.435
 1643SOL    HW1 5828   3.200   5.149   4.474
 1643SOL    HW2 5829   3.050   5.153   4.409
 1644SOL     OW 5830   5.961   3.038   0.966
 1644SOL    HW1 5831   5.954   2.985   1.051
 1644SOL    HW2 5832   5.963   3.136   0.988
 1645SOL     OW 5833   2.473   0.921   5.445
 1645SOL    HW1 5834   2.567   0.953   5.428
 1645SOL    HW2 5835   2.448   0.938   5.540
 1646SOL     OW 5836   0.790   5.819   0.437
 1646SOL    HW1 5837   0.724   5.880   0.481
 1646SOL    HW2 5838   0.881   5.834   0.476
 1647SOL     OW 5839   6.281   2.659   4.586
 1647SOL    HW1 5840   6.259   2.735   4.647
 1647SOL    HW2 5841   6.226   2.665   4.503
 1648SOL     OW 5842   5.671   6.420   0.805
 1648SOL    HW1 5843   5.624   6.414   0.892
 1648SOL    HW2 5844   5.625   6.363   0.737
 1649SOL     OW 5845   3.124   0.293   3.133
 1649SOL    HW1 5846   3.128   0.379   3.082
 1649SOL    HW2 5847   3.213   0.273   3.173
 1650SOL     OW 5848   2.945   5.559   6.857
 1650SOL    HW1 5849   2.881   5.609   6.799
 1650SOL    HW2 5850   3.030   5.612   6.867
 1651SOL     OW 5851   0.894   2.908   3.855
 1651SOL    HW1 5852   0.951   2.875   3.930
 1651SOL    HW2 5853   0.841   2.987   3.886
 1652SOL     OW 5854   1.052   2.572   1.312
 1652SOL    HW1 5855   1.031   2.664   1.347
 1652SOL    HW2 5856   0.967   2.519   1.305
 1653SOL     OW 5857   0.242   4.887   3.183
 1653SOL    HW1 5858   0.184   4.927   3.254
 1653SOL    HW2 5859   0.321   4.946   3.168
 1654SOL     OW 5860   0.511   3.147   1.953
 1654SOL    HW1 5861   0.506   3.144   2.053
 1654SOL    HW2 5862   0.425   3.182   1.916
 1655SOL     OW 5863   6.708   0.464   4.690
 1655SOL    HW1 5864   6.609   0.460   4.703
 1655SOL    HW2 5865   6.751   0.390   4.742
 1656SOL     OW 5866   2.294   4.919   3.937
 1656SOL    HW1 5867   2.219   4.963   3.987
 1656SOL    HW2 5868   2.271   4.914   3.840
 1657SOL     OW 5869   0.416   0.172   5.773
 1657SOL    HW1 5870   0.467   0.100   5.819
 1657SOL    HW2 5871   0.435   0.260   5.817
 1658SOL     OW 5872   6.809   0.022   7.014
 1658SOL    HW1 5873   6.909   0.028   7.011
 1658SOL    HW2 5874   6.781   6.980   0.061
 1659SOL     OW 5875   4.463   6.897   6.683
 1659SOL    HW1 5876   4.405   6.963   6.635
 1659SOL    HW2 5877   4.522   6.850   6.617
 1660SOL     OW 5878   1.385   6.738   1.849
 1660SOL    HW1 5879   1.353   6.825   1.887
 1660SOL    HW2 5880   1.379   6.740   1.750
 1661SOL     OW 5881   3.850   5.002   2.653
 1661SOL    HW1 5882   3.927   5.065   2.667
 1661SOL    HW2 5883   3.848   4.935   2.727
 1662SOL     OW 5884   0.331   1.402   4.843
 1662SOL    HW1 5885   0.318   1.333   4.772
 1662SOL    HW2 5886   0.275   1.482   4.821
 1663SOL     OW 5887   4.422   4.420   1.256
 1663SOL    HW1 5888   4.447   4.484   1.329
 1663SOL    HW2 5889   4.327   4.392   1.268
 1664SOL     OW 5890   0.717   0.307   5.145
 1664SOL    HW1 5891   0.680   0.234   5.203
 1664SOL    HW2 5892   0.811   0.283   5.119
 1665SOL     OW 5893   2.042   4.018   1.302
 1665SOL    HW1 5894   2.073   4.048   1.212
 1665SOL    HW2 5895   1.942   4.019   1.304
 1666SOL     OW 5896   5.310   0.522   6.335
 1666SOL    HW1 5897   5.316   0.609   6.385
 1666SOL    HW2 5898   5.402   0.487   6.317
 1667SOL     OW 5899   0.391   6.730   1.514
 1667SOL    HW1 5900   0.383   6.784   1.598
 1667SOL    HW2 5901   0.330   6.766   1.445
 1668SOL     OW 5902   5.189   4.117   3.575
 1668SOL    HW1 5903   5.168   4.068   3.490
 1668SOL    HW2 5904   5.172   4.057   3.653
 1669SOL     OW 5905   0.188   3.698   5.118
 1669SOL    HW1 5906   0.172   3.643   5.035
 1669SOL    HW2 5907   0.259   3.766   5.100
 1670SOL     OW 5908   2.416   4.579   5.996
 1670SOL    HW1 5909   2.411   4.605   5.900
 1670SOL    HW2 5910   2.373   4.490   6.009
 1671SOL     OW 5911   4.937   1.740   1.808
 1671SOL    HW1 5912   4.950   1.805   1.883
 1671SOL    HW2 5913   4.851   1.691   1.821
 1672SOL     OW 5914   0.816   3.037   6.925
 1672SOL    HW1 5915   0.826   3.100   6.848
 1672SOL    HW2 5916   0.879   2.960   6.913
 1673SOL     OW 5917   2.296   1.730   4.452
 1673SOL    HW1 5918   2.383   1.769   4.422
 1673SOL    HW2 5919   2.228   1.803   4.460
 1674SOL     OW 5920   4.679   2.692   3.249
 1674SOL    HW1 5921   4.610   2.659   3.314
 1674SOL    HW2 5922   4.666   2.645   3.162
 1675SOL     OW 5923   5.175   0.659   1.128
 1675SOL    HW1 5924   5.160   0.576   1.075
 1675SOL    HW2 5925   5.118   0.733   1.091
 1676SOL     OW 5926   1.809   1.691   2.883
 1676SOL    HW1 5927   1.762   1.674   2.970
 1676SOL    HW2 5928   1.780   1.778   2.846
 1677SOL     OW 5929   4.071   3.548   3.407
 1677SOL    HW1 5930   4.114   3.541   3.497
 1677SOL    HW2 5931   4.100   3.470   3.351
 1678SOL     OW 5932   0.424   6.771   0.906
 1678SOL    HW1 5933   0.495   6.793   0.839
 1678SOL    HW2 5934   0.432   6.833   0.984
 1679SOL     OW 5935   1.777   1.719   5.407
 1679SOL    HW1 5936   1.871   1.747   5.428
 1679SOL    HW2 5937   1.713   1.771   5.464
 1680SOL     OW 5938   4.678   2.734   4.363
 1680SOL    HW1 5939   4.710   2.713   4.455
 1680SOL    HW2 5940   4.613   2.664   4.333
 1681SOL     OW 5941   1.950   6.031   3.584
 1681SOL    HW1 5942   2.008   6.037   3.665
 1681SOL    HW2 5943   1.984   6.094   3.514
 1682SOL     OW 5944   2.677   6.994   5.676
 1682SOL    HW1 5945   2.729   0.056   5.673
 1682SOL    HW2 5946   2.581   7.013   5.696
 1683SOL     OW 5947   6.185   4.621   2.488
 1683SOL    HW1 5948   6.233   4.699   2.449
 1683SOL    HW2 5949   6.209   4.612   2.585
 1684SOL     OW 5950   1.991   4.733   1.589
 1684SOL    HW1 5951   2.033   4.805   1.645
 1684SOL    HW2 5952   2.063   4.677   1.548
 1685SOL     OW 5953   0.238   1.129   5.312
 1685SOL    HW1 5954   0.293   1.211   5.295
 1685SOL    HW2 5955   0.286   1.049   5.278
 1686SOL     OW 5956   4.769   5.158   2.948
 1686SOL    HW1 5957   4.867   5.153   2.926
 1686SOL    HW2 5958   4.752   5.109   3.033
 1687SOL     OW 5959   6.606   3.683   2.902
 1687SOL    HW1 5960   6.676   3.755   2.902
 1687SOL    HW2 5961   6.629   3.613   2.970
 1688SOL     OW 5962   1.946   1.938   3.808
 1688SOL    HW1 5963   1.853   1.935   3.846
 1688SOL    HW2 5964   1.944   1.978   3.717
 1689SOL     OW 5965   5.893   0.907   1.821
 1689SOL    HW1 5966   5.988   0.932   1.800
 1689SOL    HW2 5967   5.888   0.873   1.915
 1690SOL     OW 5968   0.714   4.309   4.435
 1690SOL    HW1 5969   0.788   4.245   4.417
 1690SOL    HW2 5970   0.732   4.359   4.520
 1691SOL     OW 5971   5.244   2.860   5.151
 1691SOL    HW1 5972   5.180   2.937   5.149
 1691SOL    HW2 5973   5.201   2.783   5.199
 1692SOL     OW 5974   5.846   5.317   1.731
 1692SOL    HW1 5975   5.848   5.415   1.752
 1692SOL    HW2 5976   5.939   5.285   1.711
 1693SOL     OW 5977   6.232   0.885   5.796
 1693SOL    HW1 5978   6.195   0.796   5.771
 1693SOL    HW2 5979   6.156   0.946   5.820
 1694SOL     OW 5980   5.345   0.888   5.019
 1694SOL    HW1 5981   5.367   0.942   4.939
 1694SOL    HW2 5982   5.285   0.940   5.080
 1695SOL     OW 5983   3.632   0.721   6.658
 1695SOL    HW1 5984   3.532   0.716   6.668
 1695SOL    HW2 5985   3.675   0.661   6.725
 1696SOL     OW 5986   4.588   5.760   6.971
 1696SOL    HW1 5987   4.626   5.715   0.029
 1696SOL    HW2 5988   4.645   5.737   6.892
 1697SOL     OW 5989   5.654   2.137   1.246
 1697SOL    HW1 5990   5.637   2.116   1.343
 1697SOL    HW2 5991   5.724   2.208   1.240
 1698SOL     OW 5992   3.470   0.934   2.385
 1698SOL    HW1 5993   3.394   0.870   2.394
 1698SOL    HW2 5994   3.443   1.023   2.421
 1699SOL     OW 5995   2.427   0.937   7.021
 1699SOL    HW1 5996   2.509   0.948   0.054
 1699SOL    HW2 5997   2.371   1.020   0.004
 1700SOL     OW 5998   5.958   3.460   2.953
 1700SOL    HW1 5999   6.055   3.435   2.943
 1700SOL    HW2 6000   5.949   3.526   3.027
 1701SOL     OW 6001   6.744   4.724   4.840
 1701SOL    HW1 6002   6.741   4.627   4.813
 1701SOL    HW2 6003   6.836   4.748   4.870
 1702SOL     OW 6004   1.979   2.659   5.648
 1702SOL    HW1 6005   1.924   2.587   5.606
 1702SOL    HW2 6006   2.075   2.645   5.623
 1703SOL     OW 6007   3.258   1.858   6.928
 1703SOL    HW1 6008   3.303   1.769   6.912
 1703SOL    HW2 6009   3.163   1.853   6.898
 1704SOL     OW 6010   2.772   1.596   0.822
 1704SOL    HW1 6011   2.790   1.506   0.861
 1704SOL    HW2 6012   2.852   1.655   0.838
 1705SOL     OW 6013   3.795   1.553   1.703
 1705SOL    HW1 6014   3.838   1.607   1.775
 1705SOL    HW2 6015   3.779   1.460   1.736
 1706SOL     OW 6016   4.034   2.103   0.601
 1706SOL    HW1 6017   3.938   2.116   0.576
 1706SOL    HW2 6018   4.069   2.186   0.644
 1707SOL     OW 6019   4.740   1.481   2.520
 1707SOL    HW1 6020   4.643   1.484   2.544
 1707SOL    HW2 6021   4.769   1.386   2.512
 1708SOL     OW 6022   3.368   5.318   1.811
 1708SOL    HW1 6023   3.366   5.346   1.907
 1708SOL    HW2 6024   3.385   5.219   1.805
 1709SOL     OW 6025   5.112   5.805   0.734
 1709SOL    HW1 6026   5.053   5.756   0.669
 1709SOL    HW2 6027   5.169   5.871   0.685
 1710SOL     OW 6028   4.380   5.131   2.818
 1710SOL    HW1 6029   4.408   5.064   2.886
 1710SOL    HW2 6030   4.299   5.179   2.849
 1711SOL     OW 6031   3.300   5.804   6.404
 1711SOL    HW1 6032   3.319   5.902   6.414
 1711SOL    HW2 6033   3.293   5.781   6.307
 1712SOL     OW 6034   0.477   2.076   4.279
 1712SOL    HW1 6035   0.440   2.001   4.334
 1712SOL    HW2 6036   0.442   2.070   4.186
 1713SOL     OW 6037   4.216   0.974   2.753
 1713SOL    HW1 6038   4.292   0.909   2.751
 1713SOL    HW2 6039   4.186   0.992   2.659
 1714SOL     OW 6040   3.714   2.708   6.681
 1714SOL    HW1 6041   3.622   2.673   6.700
 1714SOL    HW2 6042   3.781   2.636   6.697
 1715SOL     OW 6043   0.981   6.401   2.346
 1715SOL    HW1 6044   1.054   6.412   2.278
 1715SOL    HW2 6045   1.014   6.430   2.436
 1716SOL     OW 6046   4.489   0.285   4.287
 1716SOL    HW1 6047   4.559   0.294   4.216
 1716SOL    HW2 6048   4.477   0.189   4.310
 1717SOL     OW 6049   3.775   6.131   5.749
 1717SOL    HW1 6050   3.691   6.137   5.696
 1717SOL    HW2 6051   3.753   6.127   5.847
 1718SOL     OW 6052   2.104   2.595   1.853
 1718SOL    HW1 6053   2.099   2.503   1.890
 1718SOL    HW2 6054   2.014   2.621   1.817
 1719SOL     OW 6055   0.744   5.124   1.662
 1719SOL    HW1 6056   0.757   5.215   1.702
 1719SOL    HW2 6057   0.833   5.080   1.650
 1720SOL     OW 6058   6.355   2.931   5.509
 1720SOL    HW1 6059   6.273   2.889   5.547
 1720SOL    HW2 6060   6.368   3.022   5.548
 1721SOL     OW 6061   1.561   1.444   1.830
 1721SOL    HW1 6062   1.636   1.444   1.897
 1721SOL    HW2 6063   1.578   1.514   1.760
 1722SOL     OW 6064   3.068   2.192   3.208
 1722SOL    HW1 6065   2.976   2.223   3.232
 1722SOL    HW2 6066   3.074   2.175   3.110
 1723SOL     OW 6067   5.406   3.045   0.401
 1723SOL    HW1 6068   5.383   3.120   0.463
 1723SOL    HW2 6069   5.349   3.051   0.318
 1724SOL     OW 6070   6.589   2.455   1.184
 1724SOL    HW1 6071   6.542   2.539   1.212
 1724SOL    HW2 6072   6.686   2.461   1.208
 1725SOL     OW 6073   2.059   5.650   6.758
 1725SOL    HW1 6074   2.018   5.741   6.769
 1725SOL    HW2 6075   1.996   5.581   6.792
 1726SOL     OW 6076   5.791   3.783   4.069
 1726SOL    HW1 6077   5.831   3.874   4.061
 1726SOL    HW2 6078   5.693   3.791   4.088
 1727SOL     OW 6079   3.276   3.553   3.209
 1727SOL    HW1 6080   3.281   3.586   3.114
 1727SOL    HW2 6081   3.284   3.631   3.271
 1728SOL     OW 6082   5.051   2.357   5.113
 1728SOL    HW1 6083   5.005   2.425   5.171
 1728SOL    HW2 6084   5.030   2.266   5.147
 1729SOL     OW 6085   1.911   4.114   1.679
 1729SOL    HW1 6086   1.909   4.214   1.678
 1729SOL    HW2 6087   1.825   4.080   1.718
 1730SOL     OW 6088   2.434   4.932   6.169
 1730SOL    HW1 6089   2.388   5.016   6.198
 1730SOL    HW2 6090   2.500   4.905   6.240
 1731SOL     OW 6091   5.888   4.054   4.057
 1731SOL    HW1 6092   5.973   4.093   4.094
 1731SOL    HW2 6093   5.820   4.126   4.046
 1732SOL     OW 6094   1.743   4.974   6.290
 1732SOL    HW1 6095   1.764   4.919   6.209
 1732SOL    HW2 6096   1.828   4.996   6.338
 1733SOL     OW 6097   3.164   4.061   0.302
 1733SOL    HW1 6098   3.121   3.985   0.350
 1733SOL    HW2 6099   3.153   4.050   0.204
 1734SOL     OW 6100   0.234   2.873   1.201
 1734SOL    HW1 6101   0.287   2.788   1.200
 1734SOL    HW2 6102   0.248   2.920   1.289
 1735SOL     OW 6103   4.007   5.418   6.331
 1735SOL    HW1 6104   4.084   5.374   6.285
 1735SOL    HW2 6105   3.924   5.363   6.317
 1736SOL     OW 6106   4.932   3.257   0.718
 1736SOL    HW1 6107   4.999   3.208   0.774
 1736SOL    HW2 6108   4.858   3.196   0.693
 1737SOL     OW 6109   4.692   1.101   5.005
 1737SOL    HW1 6110   4.727   1.180   5.055
 1737SOL    HW2 6111   4.649   1.132   4.920
 1738SOL     OW 6112   1.069   3.588   4.196
 1738SOL    HW1 6113   1.059   3.491   4.219
 1738SOL    HW2 6114   0.978   3.627   4.179
 1739SOL     OW 6115   5.233   0.093   3.982
 1739SOL    HW1 6116   5.149   0.094   4.036
 1739SOL    HW2 6117   5.212   0.107   3.886
 1740SOL     OW 6118   6.915   2.346   4.498
 1740SOL    HW1 6119   6.963   2.285   4.561
 1740SOL    HW2 6120   6.968   2.353   4.413
 1741SOL     OW 6121   1.041   1.908   4.570
 1741SOL    HW1 6122   0.945   1.882   4.560
 1741SOL    HW2 6123   1.089   1.894   4.483
 1742SOL     OW 6124   6.288   5.778   6.428
 1742SOL    HW1 6125   6.209   5.762   6.486
 1742SOL    HW2 6126   6.344   5.695   6.423
 1743SOL     OW 6127   1.736   1.033   2.955
 1743SOL    HW1 6128   1.794   0.952   2.958
 1743SOL    HW2 6129   1.650   1.011   2.910
 1744SOL     OW 6130   4.799   2.156   3.799
 1744SOL    HW1 6131   4.700   2.144   3.786
 1744SOL    HW2 6132   4.848   2.085   3.748
 1745SOL     OW 6133   7.020   6.433   1.632
 1745SOL    HW1 6134   6.961   6.507   1.664
 1745SOL    HW2 6135   0.063   6.469   1.567
 1746SOL     OW 6136   1.749   4.150   3.388
 1746SOL    HW1 6137   1.779   4.243   3.366
 1746SOL    HW2 6138   1.654   4.153   3.419
 1747SOL     OW 6139   3.463   1.252   2.533
 1747SOL    HW1 6140   3.401   1.330   2.523
 1747SOL    HW2 6141   3.432   1.194   2.607
 1748SOL     OW 6142   6.763   2.072   4.755
 1748SOL    HW1 6143   6.726   1.993   4.803
 1748SOL    HW2 6144   6.777   2.049   4.659
 1749SOL     OW 6145   2.298   5.236   1.140
 1749SOL    HW1 6146   2.223   5.183   1.180
 1749SOL    HW2 6147   2.279   5.334   1.151
 1750SOL     OW 6148   4.420   0.358   5.643
 1750SOL    HW1 6149   4.500   0.303   5.666
 1750SOL    HW2 6150   4.361   0.307   5.581
 1751SOL     OW 6151   5.942   2.517   4.950
 1751SOL    HW1 6152   6.023   2.468   4.981
 1751SOL    HW2 6153   5.948   2.613   4.979
 1752SOL     OW 6154   6.767   0.788   1.335
 1752SOL    HW1 6155   6.853   0.835   1.313
 1752SOL    HW2 6156   6.700   0.856   1.365
 1753SOL     OW 6157   6.190   1.237   1.845
 1753SOL    HW1 6158   6.230   1.148   1.863
 1753SOL    HW2 6159   6.227   1.273   1.759
 1754SOL     OW 6160   3.104   5.700   5.896
 1754SOL    HW1 6161   3.024   5.710   5.955
 1754SOL    HW2 6162   3.100   5.611   5.850
 1755SOL     OW 6163   6.292   6.982   5.041
 1755SOL    HW1 6164   6.390   6.977   5.019
 1755SOL    HW2 6165   6.259   6.890   5.063
 1756SOL     OW 6166   5.797   0.752   6.156
 1756SOL    HW1 6167   5.755   0.835   6.119
 1756SOL    HW2 6168   5.746   0.720   6.235
 1757SOL     OW 6169   2.481   5.125   4.891
 1757SOL    HW1 6170   2.496   5.222   4.913
 1757SOL    HW2 6171   2.540   5.069   4.949
 1758SOL     OW 6172   2.207   6.155   4.595
 1758SOL    HW1 6173   2.166   6.235   4.638
 1758SOL    HW2 6174   2.134   6.092   4.567
 1759SOL     OW 6175   1.426   6.570   6.890
 1759SOL    HW1 6176   1.338   6.525   6.875
 1759SOL    HW2 6177   1.432   6.651   6.833
 1760SOL     OW 6178   6.179   0.938   5.279
 1760SOL    HW1 6179   6.204   1.034   5.274
 1760SOL    HW2 6180   6.100   0.927   5.339
 1761SOL     OW 6181   6.501   1.639   2.130
 1761SOL    HW1 6182   6.600   1.637   2.142
 1761SOL    HW2 6183   6.472   1.558   2.077
 1762SOL     OW 6184   0.244   1.693   5.299
 1762SOL    HW1 6185   0.321   1.695   5.235
 1762SOL    HW2 6186   0.276   1.718   5.391
 1763SOL     OW 6187   0.618   4.026   4.434
 1763SOL    HW1 6188   0.662   4.103   4.481
 1763SOL    HW2 6189   0.519   4.035   4.441
 1764SOL     OW 6190   1.339   5.058   2.484
 1764SOL    HW1 6191   1.394   4.980   2.453
 1764SOL    HW2 6192   1.244   5.029   2.497
 1765SOL     OW 6193   5.677   3.508   2.044
 1765SOL    HW1 6194   5.721   3.574   1.983
 1765SOL    HW2 6195   5.731   3.498   2.127
 1766SOL     OW 6196   4.121   4.929   4.547
 1766SOL    HW1 6197   4.185   4.867   4.503
 1766SOL    HW2 6198   4.133   4.924   4.646
 1767SOL     OW 6199   0.623   4.840   2.184
 1767SOL    HW1 6200   0.664   4.787   2.259
 1767SOL    HW2 6201   0.668   4.929   2.177
 1768SOL     OW 6202   5.218   6.421   2.328
 1768SOL    HW1 6203   5.178   6.422   2.419
 1768SOL    HW2 6204   5.148   6.397   2.261
 1769SOL     OW 6205   5.477   0.402   6.738
 1769SOL    HW1 6206   5.427   0.411   6.824
 1769SOL    HW2 6207   5.511   0.492   6.709
 1770SOL     OW 6208   1.996   5.027   6.392
 1770SOL    HW1 6209   2.021   5.122   6.408
 1770SOL    HW2 6210   2.069   4.967   6.425
 1771SOL     OW 6211   0.879   3.791   6.081
 1771SOL    HW1 6212   0.881   3.777   6.180
 1771SOL    HW2 6213   0.787   3.772   6.047
 1772SOL     OW 6214   2.264   4.320   3.652
 1772SOL    HW1 6215   2.342   4.352   3.598
 1772SOL    HW2 6216   2.189   4.294   3.592
 1773SOL     OW 6217   0.825   6.515   5.200
 1773SOL    HW1 6218   0.849   6.428   5.244
 1773SOL    HW2 6219   0.811   6.585   5.270
 1774SOL     OW 6220   6.071   5.091   1.337
 1774SOL    HW1 6221   6.102   5.140   1.255
 1774SOL    HW2 6222   5.971   5.094   1.341
 1775SOL     OW 6223   2.238   5.670   6.189
 1775SOL    HW1 6224   2.320   5.727   6.188
 1775SOL    HW2 6225   2.157   5.728   6.177
 1776SOL     OW 6226   4.247   1.138   6.193
 1776SOL    HW1 6227   4.292   1.220   6.160
 1776SOL    HW2 6228   4.238   1.072   6.119
 1777SOL     OW 6229   4.676   6.772   6.786
 1777SOL    HW1 6230   4.656   6.683   6.744
 1777SOL    HW2 6231   4.597   6.833   6.774
 1778SOL     OW 6232   5.923   0.112   4.159
 1778SOL    HW1 6233   5.901   0.201   4.199
 1778SOL    HW2 6234   5.877   0.040   4.211
 1779SOL     OW 6235   5.415   5.795   3.491
 1779SOL    HW1 6236   5.322   5.799   3.526
 1779SOL    HW2 6237   5.446   5.700   3.487
 1780SOL     OW 6238   2.342   5.685   5.242
 1780SOL    HW1 6239   2.418   5.630   5.278
 1780SOL    HW2 6240   2.375   5.778   5.222
 1781SOL     OW 6241   4.348   0.361   3.936
 1781SOL    HW1 6242   4.365   0.285   3.873
 1781SOL    HW2 6243   4.300   0.326   4.017
 1782SOL     OW 6244   1.669   1.740   2.397
 1782SOL    HW1 6245   1.687   1.667   2.463
 1782SOL    HW2 6246   1.697   1.828   2.435
 1783SOL     OW 6247   1.893   4.303   6.516
 1783SOL    HW1 6248   1.927   4.396   6.527
 1783SOL    HW2 6249   1.932   4.263   6.433
 1784SOL     OW 6250   2.588   0.329   0.775
 1784SOL    HW1 6251   2.494   0.295   0.766
 1784SOL    HW2 6252   2.633   0.324   0.686
 1785SOL     OW 6253   0.878   6.975   4.143
 1785SOL    HW1 6254   0.800   6.942   4.090
 1785SOL    HW2 6255   0.945   7.018   4.081
 1786SOL     OW 6256   0.653   5.996   0.601
 1786SOL    HW1 6257   0.682   6.057   0.526
 1786SOL    HW2 6258   0.660   6.045   0.688
 1787SOL     OW 6259   2.061   3.885   5.892
 1787SOL    HW1 6260   2.115   3.878   5.808
 1787SOL    HW2 6261   1.990   3.815   5.891
 1788SOL     OW 6262   4.790   3.578   0.859
 1788SOL    HW1 6263   4.770   3.616   0.768
 1788SOL    HW2 6264   4.886   3.594   0.881
 1789SOL     OW 6265   6.648   4.011   1.705
 1789SOL    HW1 6266   6.712   3.952   1.655
 1789SOL    HW2 6267   6.556   3.973   1.697
 1790SOL     OW 6268   2.682   2.298   4.367
 1790SOL    HW1 6269   2.749   2.371   4.378
 1790SOL    HW2 6270   2.591   2.331   4.394
 1791SOL     OW 6271   5.351   6.668   3.168
 1791SOL    HW1 6272   5.436   6.676   3.220
 1791SOL    HW2 6273   5.291   6.744   3.190
 1792SOL     OW 6274   0.143   1.432   5.415
 1792SOL    HW1 6275   0.106   1.355   5.364
 1792SOL    HW2 6276   0.162   1.508   5.352
 1793SOL     OW 6277   6.995   1.379   5.867
 1793SOL    HW1 6278   0.039   1.316   5.827
 1793SOL    HW2 6279   6.983   1.358   5.964
 1794SOL     OW 6280   0.857   6.925   6.153
 1794SOL    HW1 6281   0.852   6.936   6.253
 1794SOL    HW2 6282   0.764   6.915   6.117
 1795SOL     OW 6283   6.191   4.814   0.190
 1795SOL    HW1 6284   6.226   4.806   0.284
 1795SOL    HW2 6285   6.268   4.830   0.127
 1796SOL     OW 6286   1.153   6.545   6.122
 1796SOL    HW1 6287   1.104   6.537   6.209
 1796SOL    HW2 6288   1.144   6.639   6.088
 1797SOL     OW 6289   2.797   5.599   4.870
 1797SOL    HW1 6290   2.779   5.516   4.816
 1797SOL    HW2 6291   2.804   5.575   4.967
 1798SOL     OW 6292   3.083   3.835   4.242
 1798SOL    HW1 6293   3.080   3.909   4.174
 1798SOL    HW2 6294   2.994   3.789   4.245
 1799SOL     OW 6295   3.470   1.170   0.386
 1799SOL    HW1 6296   3.522   1.222   0.318
 1799SOL    HW2 6297   3.531   1.109   0.436
 1800SOL     OW 6298   5.500   3.357   4.607
 1800SOL    HW1 6299   5.577   3.321   4.555
 1800SOL    HW2 6300   5.473   3.291   4.677
 1801SOL     OW 6301   1.000   1.629   2.123
 1801SOL    HW1 6302   1.052   1.555   2.081
 1801SOL    HW2 6303   0.965   1.690   2.051
 1802SOL     OW 6304   6.815   5.046   3.587
 1802SOL    HW1 6305   6.829   4.990   3.669
 1802SOL    HW2 6306   6.719   5.073   3.581
 1803SOL     OW 6307   0.893   0.021   3.488
 1803SOL    HW1 6308   0.885   0.061   3.579
 1803SOL    HW2 6309   0.989   0.016   3.461
 1804SOL     OW 6310   2.415   3.538   5.686
 1804SOL    HW1 6311   2.436   3.539   5.588
 1804SOL    HW2 6312   2.317   3.521   5.698
 1805SOL     OW 6313   0.501   6.411   6.652
 1805SOL    HW1 6314   0.469   6.330   6.702
 1805SOL    HW2 6315   0.451   6.419   6.566
 1806SOL     OW 6316   6.993   2.181   2.326
 1806SOL    HW1 6317   6.981   2.087   2.358
 1806SOL    HW2 6318   0.058   2.190   2.280
 1807SOL     OW 6319   6.545   3.279   2.022
 1807SOL    HW1 6320   6.554   3.179   2.027
 1807SOL    HW2 6321   6.460   3.302   1.974
 1808SOL     OW 6322   4.921   2.138   6.009
 1808SOL    HW1 6323   5.009   2.170   6.044
 1808SOL    HW2 6324   4.936   2.081   5.928
 1809SOL     OW 6325   3.731   1.500   5.752
 1809SOL    HW1 6326   3.635   1.526   5.763
 1809SOL    HW2 6327   3.766   1.467   5.839
 1810SOL     OW 6328   0.327   0.332   4.209
 1810SOL    HW1 6329   0.375   0.354   4.124
 1810SOL    HW2 6330   0.390   0.336   4.286
 1811SOL     OW 6331   4.369   5.624   2.182
 1811SOL    HW1 6332   4.374   5.525   2.195
 1811SOL    HW2 6333   4.448   5.668   2.224
 1812SOL     OW 6334   4.617   6.773   5.021
 1812SOL    HW1 6335   4.593   6.806   4.930
 1812SOL    HW2 6336   4.715   6.751   5.025
 1813SOL     OW 6337   4.536   4.428   2.400
 1813SOL    HW1 6338   4.532   4.409   2.302
 1813SOL    HW2 6339   4.589   4.356   2.445
 1814SOL     OW 6340   7.020   6.395   0.442
 1814SOL    HW1 6341   7.022   6.300   0.410
 1814SOL    HW2 6342   0.037   6.401   0.533
 1815SOL     OW 6343   5.969   6.532   1.721
 1815SOL    HW1 6344   6.015   6.620   1.706
 1815SOL    HW2 6345   6.029   6.457   1.694
 1816SOL     OW 6346   4.692   5.082   6.358
 1816SOL    HW1 6347   4.652   5.082   6.267
 1816SOL    HW2 6348   4.627   5.045   6.424
 1817SOL     OW 6349   1.026   1.582   3.614
 1817SOL    HW1 6350   1.094   1.592   3.541
 1817SOL    HW2 6351   1.068   1.607   3.702
 1818SOL     OW 6352   1.630   6.725   1.055
 1818SOL    HW1 6353   1.619   6.734   0.956
 1818SOL    HW2 6354   1.718   6.763   1.082
 1819SOL     OW 6355   2.214   4.999   3.274
 1819SOL    HW1 6356   2.209   5.066   3.348
 1819SOL    HW2 6357   2.233   5.046   3.188
 1820SOL     OW 6358   4.011   0.268   4.281
 1820SOL    HW1 6359   3.998   0.170   4.297
 1820SOL    HW2 6360   4.076   0.304   4.347
 1821SOL     OW 6361   3.711   2.126   2.538
 1821SOL    HW1 6362   3.713   2.225   2.520
 1821SOL    HW2 6363   3.685   2.077   2.455
 1822SOL     OW 6364   7.008   2.838   2.233
 1822SOL    HW1 6365   6.981   2.890   2.152
 1822SOL    HW2 6366   0.066   2.880   2.274
 1823SOL     OW 6367   3.573   6.589   2.660
 1823SOL    HW1 6368   3.671   6.584   2.679
 1823SOL    HW2 6369   3.557   6.569   2.563
 1824SOL     OW 6370   3.579   2.661   1.388
 1824SOL    HW1 6371   3.666   2.676   1.435
 1824SOL    HW2 6372   3.589   2.588   1.320
 1825SOL     OW 6373   1.901   1.585   4.954
 1825SOL    HW1 6374   1.998   1.563   4.964
 1825SOL    HW2 6375   1.856   1.513   4.902
 1826SOL     OW 6376   3.670   2.130   1.671
 1826SOL    HW1 6377   3.717   2.170   1.751
 1826SOL    HW2 6378   3.698   2.179   1.589
 1827SOL     OW 6379   5.423   3.937   1.121
 1827SOL    HW1 6380   5.465   3.848   1.102
 1827SOL    HW2 6381   5.493   3.999   1.158
 1828SOL     OW 6382   1.630   3.349   5.239
 1828SOL    HW1 6383   1.711   3.391   5.280
 1828SOL    HW2 6384   1.587   3.287   5.305
 1829SOL     OW 6385   3.690   0.653   3.507
 1829SOL    HW1 6386   3.678   0.558   3.480
 1829SOL    HW2 6387   3.782   0.666   3.546
 1830SOL     OW 6388   4.895   6.769   5.075
 1830SOL    HW1 6389   4.908   6.837   5.003
 1830SOL    HW2 6390   4.953   6.792   5.154
 1831SOL     OW 6391   4.567   5.591   1.511
 1831SOL    HW1 6392   4.529   5.559   1.598
 1831SOL    HW2 6393   4.548   5.689   1.500
 1832SOL     OW 6394   2.529   3.472   0.414
 1832SOL    HW1 6395   2.609   3.526   0.391
 1832SOL    HW2 6396   2.518   3.467   0.513
 1833SOL     OW 6397   4.821   0.082   0.780
 1833SOL    HW1 6398   4.861   0.013   0.841
 1833SOL    HW2 6399   4.851   0.065   0.686
 1834SOL     OW 6400   2.349   2.316   6.368
 1834SOL    HW1 6401   2.307   2.248   6.307
 1834SOL    HW2 6402   2.292   2.327   6.449
 1835SOL     OW 6403   6.554   5.828   0.746
 1835SOL    HW1 6404   6.636   5.827   0.688
 1835SOL    HW2 6405   6.502   5.744   0.731
 1836SOL     OW 6406   5.256   2.015   1.832
 1836SOL    HW1 6407   5.249   1.949   1.906
 1836SOL    HW2 6408   5.185   2.085   1.843
 1837SOL     OW 6409   3.103   2.105   6.604
 1837SOL    HW1 6410   3.081   2.201   6.623
 1837SOL    HW2 6411   3.060   2.078   6.518
 1838SOL     OW 6412   6.524   1.112   0.403
 1838SOL    HW1 6413   6.551   1.193   0.454
 1838SOL    HW2 6414   6.599   1.084   0.342
 1839SOL     OW 6415   0.317   1.174   0.002
 1839SOL    HW1 6416   0.290   1.142   0.093
 1839SOL    HW2 6417   0.345   1.269   0.008
 1840SOL     OW 6418   4.762   6.553   3.309
 1840SOL    HW1 6419   4.833   6.613   3.346
 1840SOL    HW2 6420   4.679   6.562   3.363
 1841SOL     OW 6421   2.377   1.189   2.204
 1841SOL    HW1 6422   2.326   1.130   2.142
 1841SOL    HW2 6423   2.354   1.285   2.185
 1842SOL     OW 6424   1.342   5.240   0.130
 1842SOL    HW1 6425   1.254   5.194   0.117
 1842SOL    HW2 6426   1.366   5.289   0.047
 1843SOL     OW 6427   3.521   1.219   4.725
 1843SOL    HW1 6428   3.499   1.160   4.803
 1843SOL    HW2 6429   3.459   1.198   4.649
 1844SOL     OW 6430   5.456   1.957   6.791
 1844SOL    HW1 6431   5.415   2.048   6.789
 1844SOL    HW2 6432   5.476   1.931   6.885
 1845SOL     OW 6433   1.455   1.189   2.812
 1845SOL    HW1 6434   1.392   1.184   2.735
 1845SOL    HW2 6435   1.491   1.098   2.832
 1846SOL     OW 6436   4.254   1.395   2.204
 1846SOL    HW1 6437   4.308   1.327   2.252
 1846SOL    HW2 6438   4.210   1.456   2.270
 1847SOL     OW 6439   2.050   7.003   5.376
 1847SOL    HW1 6440   2.048   6.931   5.307
 1847SOL    HW2 6441   2.099   6.970   5.457
 1848SOL     OW 6442   2.762   5.624   4.277
 1848SOL    HW1 6443   2.780   5.590   4.185
 1848SOL    HW2 6444   2.702   5.704   4.272
 1849SOL     OW 6445   4.575   2.734   1.788
 1849SOL    HW1 6446   4.622   2.662   1.839
 1849SOL    HW2 6447   4.588   2.822   1.834
 1850SOL     OW 6448   5.022   1.394   1.445
 1850SOL    HW1 6449   4.963   1.473   1.463
 1850SOL    HW2 6450   5.031   1.381   1.346
 1851SOL     OW 6451   6.912   3.771   5.095
 1851SOL    HW1 6452   6.903   3.861   5.139
 1851SOL    HW2 6453   6.837   3.759   5.029
 1852SOL     OW 6454   1.454   5.915   2.346
 1852SOL    HW1 6455   1.406   5.828   2.342
 1852SOL    HW2 6456   1.545   5.902   2.386
 1853SOL     OW 6457   0.250   2.678   4.538
 1853SOL    HW1 6458   0.152   2.660   4.529
 1853SOL    HW2 6459   0.264   2.775   4.561
 1854SOL     OW 6460   0.029   6.921   3.764
 1854SOL    HW1 6461   0.027   6.885   3.671
 1854SOL    HW2 6462   0.123   6.918   3.799
 1855SOL     OW 6463   4.815   2.991   4.830
 1855SOL    HW1 6464   4.891   3.049   4.800
 1855SOL    HW2 6465   4.791   3.013   4.924
 1856SOL     OW 6466   3.885   2.481   6.830
 1856SOL    HW1 6467   3.970   2.445   6.868
 1856SOL    HW2 6468   3.881   2.461   6.732
 1857SOL     OW 6469   4.400   1.505   1.213
 1857SOL    HW1 6470   4.351   1.430   1.257
 1857SOL    HW2 6471   4.498   1.495   1.231
 1858SOL     OW 6472   4.125   2.284   4.389
 1858SOL    HW1 6473   4.160   2.247   4.475
 1858SOL    HW2 6474   4.203   2.309   4.330
 1859SOL     OW 6475   5.898   2.157   3.861
 1859SOL    HW1 6476   5.916   2.185   3.956
 1859SOL    HW2 6477   5.928   2.062   3.848
 1860SOL     OW 6478   1.038   1.391   4.799
 1860SOL    HW1 6479   0.965   1.458   4.782
 1860SOL    HW2 6480   1.009   1.327   4.869
 1861SOL     OW 6481   6.620   0.099   3.354
 1861SOL    HW1 6482   6.662   0.026   3.409
 1861SOL    HW2 6483   6.522   0.081   3.344
 1862SOL     OW 6484   2.724   5.940   6.509
 1862SOL    HW1 6485   2.650   5.874   6.496
 1862SOL    HW2 6486   2.705   5.995   6.590
 1863SOL     OW 6487   1.026   2.901   0.928
 1863SOL    HW1 6488   1.029   2.844   0.846
 1863SOL    HW2 6489   1.073   2.855   1.002
 1864SOL     OW 6490   3.733   5.492   2.782
 1864SOL    HW1 6491   3.696   5.544   2.859
 1864SOL    HW2 6492   3.756   5.400   2.812
 1865SOL     OW 6493   5.197   1.539   6.484
 1865SOL    HW1 6494   5.099   1.543   6.467
 1865SOL    HW2 6495   5.214   1.510   6.579
 1866SOL     OW 6496   0.414   4.687   3.339
 1866SOL    HW1 6497   0.505   4.718   3.368
 1866SOL    HW2 6498   0.394   4.721   3.247
 1867SOL     OW 6499   2.391   2.190   1.338
 1867SOL    HW1 6500   2.470   2.227   1.290
 1867SOL    HW2 6501   2.324   2.263   1.353
 1868SOL     OW 6502   5.797   4.368   5.683
 1868SOL    HW1 6503   5.812   4.457   5.640
 1868SOL    HW2 6504   5.750   4.381   5.771
 1869SOL     OW 6505   5.097   1.670   4.158
 1869SOL    HW1 6506   5.110   1.733   4.235
 1869SOL    HW2 6507   5.002   1.639   4.156
 1870SOL     OW 6508   7.019   5.668   4.408
 1870SOL    HW1 6509   6.939   5.719   4.438
 1870SOL    HW2 6510   0.064   5.733   4.373
 1871SOL     OW 6511   0.547   6.415   0.873
 1871SOL    HW1 6512   0.646   6.417   0.856
 1871SOL    HW2 6513   0.526   6.463   0.958
 1872SOL     OW 6514   2.632   2.755   1.182
 1872SOL    HW1 6515   2.702   2.724   1.247
 1872SOL    HW2 6516   2.670   2.753   1.089
 1873SOL     OW 6517   0.102   1.665   0.311
 1873SOL    HW1 6518   0.007   1.656   0.282
 1873SOL    HW2 6519   0.149   1.731   0.252
 1874SOL     OW 6520   0.790   6.632   0.074
 1874SOL    HW1 6521   0.697   6.666   0.081
 1874SOL    HW2 6522   0.854   6.703   0.103
 1875SOL     OW 6523   6.407   4.816   0.386
 1875SOL    HW1 6524   6.350   4.809   0.468
 1875SOL    HW2 6525   6.443   4.909   0.378
 1876SOL     OW 6526   0.048   6.132   0.012
 1876SOL    HW1 6527   0.075   6.101   6.944
 1876SOL    HW2 6528   0.007   6.056   0.063
 1877SOL     OW 6529   0.339   0.962   2.481
 1877SOL    HW1 6530   0.277   0.889   2.451
 1877SOL    HW2 6531   0.412   0.973   2.414
 1878SOL     OW 6532   6.473   4.216   3.550
 1878SOL    HW1 6533   6.531   4.292   3.581
 1878SOL    HW2 6534   6.465   4.220   3.450
 1879SOL     OW 6535   4.298   5.589   4.728
 1879SOL    HW1 6536   4.232   5.624   4.662
 1879SOL    HW2 6537   4.351   5.665   4.766
 1880SOL     OW 6538   0.669   1.457   4.086
 1880SOL    HW1 6539   0.668   1.556   4.070
 1880SOL    HW2 6540   0.762   1.423   4.074
 1881SOL     OW 6541   1.148   1.272   4.306
 1881SOL    HW1 6542   1.111   1.180   4.311
 1881SOL    HW2 6543   1.233   1.277   4.358
 1882SOL     OW 6544   1.392   5.354   6.572
 1882SOL    HW1 6545   1.397   5.276   6.510
 1882SOL    HW2 6546   1.472   5.354   6.632
 1883SOL     OW 6547   1.590   3.123   2.677
 1883SOL    HW1 6548   1.639   3.174   2.748
 1883SOL    HW2 6549   1.655   3.096   2.606
 1884SOL     OW 6550   3.092   1.085   0.332
 1884SOL    HW1 6551   3.065   1.052   0.241
 1884SOL    HW2 6552   3.077   1.184   0.337
 1885SOL     OW 6553   0.078   2.177   1.286
 1885SOL    HW1 6554   0.047   2.208   1.196
 1885SOL    HW2 6555   0.039   2.237   1.357
 1886SOL     OW 6556   3.025   3.145   6.187
 1886SOL    HW1 6557   3.015   3.059   6.136
 1886SOL    HW2 6558   3.109   3.142   6.240
 1887SOL     OW 6559   0.508   6.720   5.314
 1887SOL    HW1 6560   0.434   6.653   5.315
 1887SOL    HW2 6561   0.483   6.799   5.369
 1888SOL     OW 6562   2.145   2.153   5.819
 1888SOL    HW1 6563   2.092   2.207   5.885
 1888SOL    HW2 6564   2.235   2.195   5.806
 1889SOL     OW 6565   4.129   2.803   0.281
 1889SOL    HW1 6566   4.080   2.877   0.328
 1889SOL    HW2 6567   4.188   2.756   0.346
 1890SOL     OW 6568   6.527   5.007   6.456
 1890SOL    HW1 6569   6.493   5.029   6.548
 1890SOL    HW2 6570   6.590   4.930   6.461
 1891SOL     OW 6571   6.151   3.781   5.337
 1891SOL    HW1 6572   6.097   3.843   5.394
 1891SOL    HW2 6573   6.247   3.810   5.339
 1892SOL     OW 6574   4.145   5.767   1.406
 1892SOL    HW1 6575   4.095   5.853   1.403
 1892SOL    HW2 6576   4.154   5.738   1.502
 1893SOL     OW 6577   3.931   1.905   4.329
 1893SOL    HW1 6578   3.840   1.882   4.293
 1893SOL    HW2 6579   3.947   2.003   4.317
 1894SOL     OW 6580   4.123   4.016   0.976
 1894SOL    HW1 6581   4.214   4.054   0.994
 1894SOL    HW2 6582   4.130   3.918   0.960
 1895SOL     OW 6583   5.278   0.418   3.439
 1895SOL    HW1 6584   5.329   0.497   3.473
 1895SOL    HW2 6585   5.330   0.372   3.368
 1896SOL     OW 6586   6.774   1.275   5.712
 1896SOL    HW1 6587   6.836   1.352   5.730
 1896SOL    HW2 6588   6.685   1.294   5.753
 1897SOL     OW 6589   5.794   4.849   3.675
 1897SOL    HW1 6590   5.846   4.766   3.693
 1897SOL    HW2 6591   5.855   4.928   3.673
 1898SOL     OW 6592   5.931   4.700   0.278
 1898SOL    HW1 6593   6.027   4.728   0.280
 1898SOL    HW2 6594   5.913   4.651   0.193
 1899SOL     OW 6595   1.242   3.287   2.716
 1899SOL    HW1 6596   1.226   3.302   2.814
 1899SOL    HW2 6597   1.287   3.198   2.703
 1900SOL     OW 6598   2.256   5.469   6.003
 1900SOL    HW1 6599   2.173   5.413   6.001
 1900SOL    HW2 6600   2.257   5.523   6.087
 1901SOL     OW 6601   1.431   1.070   6.775
 1901SOL    HW1 6602   1.393   1.128   6.703
 1901SOL    HW2 6603   1.529   1.087   6.783
 1902SOL     OW 6604   0.860   3.229   4.539
 1902SOL    HW1 6605   0.786   3.258   4.600
 1902SOL    HW2 6606   0.946   3.226   4.589
 1903SOL     OW 6607   6.019   2.828   3.830
 1903SOL    HW1 6608   6.078   2.750   3.853
 1903SOL    HW2 6609   6.041   2.860   3.737
 1904SOL     OW 6610   6.419   6.613   3.691
 1904SOL    HW1 6611   6.455   6.627   3.599
 1904SOL    HW2 6612   6.374   6.696   3.722
 1905SOL     OW 6613   6.548   2.920   3.653
 1905SOL    HW1 6614   6.639   2.936   3.691
 1905SOL    HW2 6615   6.486   2.992   3.684
 1906SOL     OW 6616   2.711   0.565   0.154
 1906SOL    HW1 6617   2.797   0.608   0.183
 1906SOL    HW2 6618   2.634   0.611   0.197
 1907SOL     OW 6619   3.890   5.742   3.631
 1907SOL    HW1 6620   3.983   5.747   3.666
 1907SOL    HW2 6621   3.891   5.716   3.535
 1908SOL     OW 6622   4.375   1.415   6.551
 1908SOL    HW1 6623   4.310   1.352   6.593
 1908SOL    HW2 6624   4.335   1.507   6.547
 1909SOL     OW 6625   2.625   5.101   4.559
 1909SOL    HW1 6626   2.674   5.125   4.475
 1909SOL    HW2 6627   2.683   5.041   4.615
 1910SOL     OW 6628   4.963   1.670   5.577
 1910SOL    HW1 6629   4.910   1.753   5.594
 1910SOL    HW2 6630   4.928   1.595   5.633
 1911SOL     OW 6631   6.373   3.276   4.933
 1911SOL    HW1 6632   6.320   3.340   4.989
 1911SOL    HW2 6633   6.414   3.207   4.991
 1912SOL     OW 6634   3.821   0.268   3.283
 1912SOL    HW1 6635   3.758   0.215   3.226
 1912SOL    HW2 6636   3.775   0.352   3.313
 1913SOL     OW 6637   1.781   4.793   5.463
 1913SOL    HW1 6638   1.710   4.857   5.435
 1913SOL    HW2 6639   1.869   4.823   5.425
 1914SOL     OW 6640   3.624   2.090   6.042
 1914SOL    HW1 6641   3.683   2.143   5.980
 1914SOL    HW2 6642   3.650   1.994   6.038
 1915SOL     OW 6643   3.294   6.987   5.631
 1915SOL    HW1 6644   3.295   0.028   5.708
 1915SOL    HW2 6645   3.261   6.898   5.663
 1916SOL     OW 6646   3.328   6.272   1.594
 1916SOL    HW1 6647   3.400   6.247   1.659
 1916SOL    HW2 6648   3.345   6.227   1.507
 1917SOL     OW 6649   2.912   3.600   3.987
 1917SOL    HW1 6650   2.946   3.683   3.943
 1917SOL    HW2 6651   2.967   3.580   4.068
 1918SOL     OW 6652   5.587   6.601   4.430
 1918SOL    HW1 6653   5.518   6.673   4.419
 1918SOL    HW2 6654   5.541   6.513   4.443
 1919SOL     OW 6655   6.534   0.173   1.786
 1919SOL    HW1 6656   6.501   0.089   1.743
 1919SOL    HW2 6657   6.627   0.160   1.819
 1920SOL     OW 6658   6.706   6.033   4.370
 1920SOL    HW1 6659   6.682   6.117   4.323
 1920SOL    HW2 6660   6.640   6.016   4.443
 1921SOL     OW 6661   1.197   6.682   6.620
 1921SOL    HW1 6662   1.183   6.609   6.687
 1921SOL    HW2 6663   1.108   6.717   6.590
 1922SOL     OW 6664   3.816   4.128   0.909
 1922SOL    HW1 6665   3.840   4.185   0.831
 1922SOL    HW2 6666   3.900   4.089   0.948
 1923SOL     OW 6667   1.930   1.804   0.824
 1923SOL    HW1 6668   1.853   1.868   0.821
 1923SOL    HW2 6669   1.979   1.815   0.910
 1924SOL     OW 6670   0.336   4.593   1.605
 1924SOL    HW1 6671   0.432   4.564   1.613
 1924SOL    HW2 6672   0.278   4.527   1.652
 1925SOL     OW 6673   3.124   4.116   1.178
 1925SOL    HW1 6674   3.201   4.094   1.237
 1925SOL    HW2 6675   3.133   4.065   1.092
 1926SOL     OW 6676   1.299   6.823   3.769
 1926SOL    HW1 6677   1.255   6.911   3.754
 1926SOL    HW2 6678   1.337   6.789   3.683
 1927SOL     OW 6679   3.979   3.693   6.590
 1927SOL    HW1 6680   3.902   3.706   6.529
 1927SOL    HW2 6681   3.984   3.597   6.618
 1928SOL     OW 6682   6.201   4.455   5.825
 1928SOL    HW1 6683   6.276   4.494   5.879
 1928SOL    HW2 6684   6.197   4.356   5.839
 1929SOL     OW 6685   1.233   6.955   1.896
 1929SOL    HW1 6686   1.148   6.905   1.917
 1929SOL    HW2 6687   1.237   0.014   1.953
 1930SOL     OW 6688   5.768   4.096   5.949
 1930SOL    HW1 6689   5.758   4.062   6.043
 1930SOL    HW2 6690   5.719   4.036   5.886
 1931SOL     OW 6691   0.771   2.905   4.197
 1931SOL    HW1 6692   0.765   2.976   4.127
 1931SOL    HW2 6693   0.713   2.828   4.171
 1932SOL     OW 6694   5.963   3.794   1.257
 1932SOL    HW1 6695   5.960   3.815   1.160
 1932SOL    HW2 6696   5.873   3.807   1.298
 1933SOL     OW 6697   3.235   4.340   1.084
 1933SOL    HW1 6698   3.184   4.267   1.130
 1933SOL    HW2 6699   3.203   4.348   0.989
 1934SOL     OW 6700   0.888   6.416   5.588
 1934SOL    HW1 6701   0.944   6.367   5.655
 1934SOL    HW2 6702   0.887   6.513   5.611
 1935SOL     OW 6703   2.602   0.774   3.835
 1935SOL    HW1 6704   2.531   0.717   3.877
 1935SOL    HW2 6705   2.630   0.845   3.899
 1936SOL     OW 6706   6.310   5.747   5.417
 1936SOL    HW1 6707   6.244   5.808   5.374
 1936SOL    HW2 6708   6.399   5.758   5.373
 1937SOL     OW 6709   3.946   6.352   1.762
 1937SOL    HW1 6710   3.909   6.286   1.827
 1937SOL    HW2 6711   4.017   6.307   1.706
 1938SOL     OW 6712   4.432   0.970   3.856
 1938SOL    HW1 6713   4.527   0.951   3.883
 1938SOL    HW2 6714   4.372   0.960   3.936
 1939SOL     OW 6715   1.902   1.097   3.587
 1939SOL    HW1 6716   1.993   1.065   3.557
 1939SOL    HW2 6717   1.834   1.071   3.518
 1940SOL     OW 6718   6.956   5.158   0.287
 1940SOL    HW1 6719   6.962   5.212   0.371
 1940SOL    HW2 6720   0.025   5.144   0.250
 1941SOL     OW 6721   5.265   3.889   2.231
 1941SOL    HW1 6722   5.304   3.802   2.203
 1941SOL    HW2 6723   5.251   3.947   2.150
 1942SOL     OW 6724   6.398   5.234   2.437
 1942SOL    HW1 6725   6.436   5.142   2.442
 1942SOL    HW2 6726   6.357   5.249   2.347
 1943SOL     OW 6727   2.691   4.673   3.319
 1943SOL    HW1 6728   2.735   4.638   3.402
 1943SOL    HW2 6729   2.679   4.772   3.328
 1944SOL     OW 6730   6.515   1.122   0.856
 1944SOL    HW1 6731   6.588   1.075   0.905
 1944SOL    HW2 6732   6.439   1.059   0.841
 1945SOL     OW 6733   3.385   4.973   3.719
 1945SOL    HW1 6734   3.377   5.028   3.802
 1945SOL    HW2 6735   3.301   4.983   3.665
 1946SOL     OW 6736   1.312   0.275   0.004
 1946SOL    HW1 6737   1.313   0.268   6.927
 1946SOL    HW2 6738   1.300   0.370   0.031
 1947SOL     OW 6739   5.529   5.550   3.449
 1947SOL    HW1 6740   5.495   5.463   3.485
 1947SOL    HW2 6741   5.533   5.545   3.349
 1948SOL     OW 6742   6.663   5.567   4.504
 1948SOL    HW1 6743   6.705   5.507   4.572
 1948SOL    HW2 6744   6.695   5.661   4.518
 1949SOL     OW 6745   3.904   4.190   6.552
 1949SOL    HW1 6746   3.889   4.178   6.650
 1949SOL    HW2 6747   3.885   4.285   6.526
 1950SOL     OW 6748   3.169   4.020   6.548
 1950SOL    HW1 6749   3.173   4.000   6.450
 1950SOL    HW2 6750   3.240   4.087   6.571
 1951SOL     OW 6751   5.961   1.504   6.486
 1951SOL    HW1 6752   5.980   1.500   6.584
 1951SOL    HW2 6753   5.870   1.544   6.472
 1952SOL     OW 6754   4.029   2.252   0.216
 1952SOL    HW1 6755   4.129   2.260   0.212
 1952SOL    HW2 6756   3.988   2.343   0.216
 1953SOL     OW 6757   0.052   2.556   6.169
 1953SOL    HW1 6758   0.087   2.466   6.194
 1953SOL    HW2 6759   0.018   2.553   6.075
 1954SOL     OW 6760   3.468   2.051   4.158
 1954SOL    HW1 6761   3.540   2.120   4.164
 1954SOL    HW2 6762   3.384   2.092   4.123
 1955SOL     OW 6763   0.182   6.288   2.759
 1955SOL    HW1 6764   0.272   6.288   2.802
 1955SOL    HW2 6765   0.168   6.202   2.710
 1956SOL     OW 6766   5.916   5.502   2.784
 1956SOL    HW1 6767   6.013   5.480   2.796
 1956SOL    HW2 6768   5.867   5.419   2.756
 1957SOL     OW 6769   0.081   6.473   5.269
 1957SOL    HW1 6770   7.005   6.462   5.273
 1957SOL    HW2 6771   0.105   6.569   5.282
 1958SOL     OW 6772   5.164   3.367   5.821
 1958SOL    HW1 6773   5.178   3.388   5.918
 1958SOL    HW2 6774   5.250   3.379   5.772
 1959SOL     OW 6775   1.641   2.099   6.425
 1959SOL    HW1 6776   1.585   2.063   6.351
 1959SOL    HW2 6777   1.609   2.061   6.512
 1960SOL     OW 6778   5.714   5.477   0.772
 1960SOL    HW1 6779   5.767   5.393   0.767
 1960SOL    HW2 6780   5.616   5.456   0.762
 1961SOL     OW 6781   5.941   4.176   3.584
 1961SOL    HW1 6782   5.932   4.088   3.630
 1961SOL    HW2 6783   6.007   4.169   3.509
 1962SOL     OW 6784   1.340   6.081   3.323
 1962SOL    HW1 6785   1.303   6.021   3.394
 1962SOL    HW2 6786   1.359   6.027   3.241
 1963SOL     OW 6787   1.105   0.371   2.651
 1963SOL    HW1 6788   1.134   0.419   2.568
 1963SOL    HW2 6789   1.184   0.328   2.695
 1964SOL     OW 6790   4.825   3.066   2.891
 1964SOL    HW1 6791   4.815   2.987   2.952
 1964SOL    HW2 6792   4.872   3.140   2.940
 1965SOL     OW 6793   1.058   3.708   3.232
 1965SOL    HW1 6794   1.010   3.630   3.273
 1965SOL    HW2 6795   1.054   3.786   3.294
 1966SOL     OW 6796   6.631   5.555   5.465
 1966SOL    HW1 6797   6.549   5.506   5.494
 1966SOL    HW2 6798   6.676   5.595   5.545
 1967SOL     OW 6799   4.595   2.834   5.267
 1967SOL    HW1 6800   4.508   2.784   5.262
 1967SOL    HW2 6801   4.583   2.925   5.226
 1968SOL     OW 6802   2.569   6.065   0.320
 1968SOL    HW1 6803   2.516   5.982   0.298
 1968SOL    HW2 6804   2.667   6.043   0.319
 1969SOL     OW 6805   6.963   2.353   1.489
 1969SOL    HW1 6806   0.029   2.329   1.527
 1969SOL    HW2 6807   6.891   2.307   1.541
 1970SOL     OW 6808   1.534   6.930   4.666
 1970SOL    HW1 6809   1.502   0.001   4.660
 1970SOL    HW2 6810   1.624   6.923   4.623
 1971SOL     OW 6811   0.568   6.773   0.041
 1971SOL    HW1 6812   0.512   6.759   6.982
 1971SOL    HW2 6813   0.605   6.866   0.041
 1972SOL     OW 6814   0.827   4.643   3.734
 1972SOL    HW1 6815   0.858   4.650   3.829
 1972SOL    HW2 6816   0.777   4.726   3.709
 1973SOL     OW 6817   3.468   2.616   1.623
 1973SOL    HW1 6818   3.395   2.548   1.619
 1973SOL    HW2 6819   3.506   2.631   1.531
 1974SOL     OW 6820   5.496   0.585   4.052
 1974SOL    HW1 6821   5.444   0.654   4.000
 1974SOL    HW2 6822   5.433   0.531   4.107
 1975SOL     OW 6823   3.421   0.375   3.822
 1975SOL    HW1 6824   3.516   0.402   3.803
 1975SOL    HW2 6825   3.420   0.311   3.899
 1976SOL     OW 6826   0.383   6.026   0.508
 1976SOL    HW1 6827   0.292   5.985   0.509
 1976SOL    HW2 6828   0.444   5.973   0.566
 1977SOL     OW 6829   1.052   2.533   4.828
 1977SOL    HW1 6830   0.997   2.611   4.858
 1977SOL    HW2 6831   1.136   2.566   4.786
 1978SOL     OW 6832   6.709   2.133   4.345
 1978SOL    HW1 6833   6.782   2.071   4.372
 1978SOL    HW2 6834   6.748   2.221   4.317
 1979SOL     OW 6835   6.463   4.671   4.020
 1979SOL    HW1 6836   6.369   4.669   3.987
 1979SOL    HW2 6837   6.525   4.640   3.947
 1980SOL     OW 6838   3.783   0.299   1.417
 1980SOL    HW1 6839   3.873   0.286   1.460
 1980SOL    HW2 6840   3.790   0.277   1.319
 1981SOL     OW 6841   4.936   2.868   1.899
 1981SOL    HW1 6842   5.013   2.928   1.878
 1981SOL    HW2 6843   4.855   2.924   1.918
 1982SOL     OW 6844   5.626   5.466   4.724
 1982SOL    HW1 6845   5.700   5.440   4.662
 1982SOL    HW2 6846   5.543   5.482   4.671
 1983SOL     OW 6847   1.270   2.919   3.252
 1983SOL    HW1 6848   1.344   2.978   3.218
 1983SOL    HW2 6849   1.198   2.976   3.291
 1984SOL     OW 6850   3.621   1.823   5.808
 1984SOL    HW1 6851   3.527   1.855   5.802
 1984SOL    HW2 6852   3.664   1.828   5.717
 1985SOL     OW 6853   1.125   1.016   1.515
 1985SOL    HW1 6854   1.122   0.924   1.552
 1985SOL    HW2 6855   1.134   1.082   1.590
 1986SOL     OW 6856   1.480   2.084   6.935
 1986SOL    HW1 6857   1.492   2.180   6.962
 1986SOL    HW2 6858   1.513   2.024   7.007
 1987SOL     OW 6859   2.570   3.540   1.370
 1987SOL    HW1 6860   2.548   3.485   1.450
 1987SOL    HW2 6861   2.655   3.591   1.387
 1988SOL     OW 6862   4.622   3.705   6.745
 1988SOL    HW1 6863   4.552   3.652   6.696
 1988SOL    HW2 6864   4.672   3.644   6.807
 1989SOL     OW 6865   2.328   0.421   4.344
 1989SOL    HW1 6866   2.299   0.509   4.381
 1989SOL    HW2 6867   2.255   0.384   4.287
 1990SOL     OW 6868   3.119   0.640   1.074
 1990SOL    HW1 6869   3.198   0.628   1.013
 1990SOL    HW2 6870   3.149   0.636   1.169
 1991SOL     OW 6871   3.463   5.664   4.736
 1991SOL    HW1 6872   3.423   5.754   4.721
 1991SOL    HW2 6873   3.390   5.599   4.758
 1992SOL     OW 6874   2.400   6.893   5.142
 1992SOL    HW1 6875   2.328   6.829   5.170
 1992SOL    HW2 6876   2.442   6.934   5.223
 1993SOL     OW 6877   3.640   3.788   5.327
 1993SOL    HW1 6878   3.623   3.695   5.295
 1993SOL    HW2 6879   3.559   3.845   5.310
 1994SOL     OW 6880   6.883   2.007   2.118
 1994SOL    HW1 6881   6.906   2.102   2.100
 1994SOL    HW2 6882   6.871   1.994   2.217
 1995SOL     OW 6883   6.024   1.728   1.485
 1995SOL    HW1 6884   5.961   1.801   1.511
 1995SOL    HW2 6885   6.019   1.714   1.386
 1996SOL     OW 6886   3.237   4.399   0.191
 1996SOL    HW1 6887   3.217   4.353   0.104
 1996SOL    HW2 6888   3.284   4.486   0.172
 1997SOL     OW 6889   5.110   6.877   4.274
 1997SOL    HW1 6890   5.103   6.975   4.296
 1997SOL    HW2 6891   5.052   6.856   4.195
 1998SOL     OW 6892   2.526   4.287   6.690
 1998SOL    HW1 6893   2.527   4.226   6.610
 1998SOL    HW2 6894   2.457   4.255   6.755
 1999SOL     OW 6895   2.671   6.901   2.113
 1999SOL    HW1 6896   2.678   6.966   2.038
 1999SOL    HW2 6897   2.576   6.892   2.142
 2000SOL     OW 6898   3.687   0.905   4.720
 2000SOL    HW1 6899   3.713   0.822   4.670
 2000SOL    HW2 6900   3.754   0.977   4.702
 2001SOL     OW 6901   2.656   1.210   1.174
 2001SOL    HW1 6902   2.604   1.144   1.228
 2001SOL    HW2 6903   2.740   1.234   1.223
 2002SOL     OW 6904   2.121   5.705   5.837
 2002SOL    HW1 6905   2.131   5.683   5.934
 2002SOL    HW2 6906   2.147   5.625   5.783
 2003SOL     OW 6907   5.809   6.309   3.589
 2003SOL    HW1 6908   5.791   6.261   3.674
 2003SOL    HW2 6909   5.769   6.258   3.513
 2004SOL     OW 6910   3.150   0.907   5.829
 2004SOL    HW1 6911   3.152   0.832   5.763
 2004SOL    HW2 6912   3.226   0.970   5.810
 2005SOL     OW 6913   2.229   6.074   6.181
 2005SOL    HW1 6914   2.167   6.153   6.186
 2005SOL    HW2 6915   2.313   6.094   6.232
 2006SOL     OW 6916   4.482   4.981   4.521
 2006SOL    HW1 6917   4.545   4.921   4.471
 2006SOL    HW2 6918   4.482   5.072   4.480
 2007SOL     OW 6919   5.103   5.754   0.322
 2007SOL    HW1 6920   5.072   5.848   0.334
 2007SOL    HW2 6921   5.203   5.752   0.319
 2008SOL     OW 6922   6.666   6.342   3.131
 2008SOL    HW1 6923   6.613   6.367   3.213
 2008SOL    HW2 6924   6.757   6.311   3.159
 2009SOL     OW 6925   0.244   0.633   2.088
 2009SOL    HW1 6926   0.235   0.706   2.021
 2009SOL    HW2 6927   0.221   0.546   2.047
 2010SOL     OW 6928   0.707   0.467   1.058
 2010SOL    HW1 6929   0.647   0.537   1.017
 2010SOL    HW2 6930   0.731   0.399   0.990
 2011SOL     OW 6931   6.498   2.023   4.798
 2011SOL    HW1 6932   6.572   2.088   4.786
 2011SOL    HW2 6933   6.413   2.072   4.817
 2012SOL     OW 6934   1.246   4.364   1.387
 2012SOL    HW1 6935   1.337   4.342   1.351
 2012SOL    HW2 6936   1.189   4.401   1.313
 2013SOL     OW 6937   5.766   2.251   2.756
 2013SOL    HW1 6938   5.856   2.289   2.734
 2013SOL    HW2 6939   5.766   2.153   2.738
 2014SOL     OW 6940   1.620   6.002   3.849
 2014SOL    HW1 6941   1.603   5.952   3.935
 2014SOL    HW2 6942   1.644   6.097   3.870
 2015SOL     OW 6943   3.479   0.440   0.100
 2015SOL    HW1 6944   3.543   0.369   0.130
 2015SOL    HW2 6945   3.396   0.397   0.064
 2016SOL     OW 6946   0.915   5.637   4.293
 2016SOL    HW1 6947   0.882   5.678   4.208
 2016SOL    HW2 6948   0.895   5.539   4.293
 2017SOL     OW 6949   2.430   5.821   3.011
 2017SOL    HW1 6950   2.505   5.777   3.059
 2017SOL    HW2 6951   2.386   5.888   3.070
 2018SOL     OW 6952   0.273   5.816   5.975
 2018SOL    HW1 6953   0.314   5.795   5.886
 2018SOL    HW2 6954   0.285   5.738   6.036
 2019SOL     OW 6955   6.254   2.341   1.408
 2019SOL    HW1 6956   6.257   2.245   1.379
 2019SOL    HW2 6957   6.235   2.399   1.329
 2020SOL     OW 6958   2.029   4.998   3.766
 2020SOL    HW1 6959   2.052   4.994   3.863
 2020SOL    HW2 6960   2.111   4.984   3.712
 2021SOL     OW 6961   1.756   0.656   2.650
 2021SOL    HW1 6962   1.832   0.638   2.588
 2021SOL    HW2 6963   1.728   0.752   2.642
 2022SOL     OW 6964   2.258   3.664   1.699
 2022SOL    HW1 6965   2.262   3.735   1.770
 2022SOL    HW2 6966   2.277   3.575   1.741
 2023SOL     OW 6967   6.685   1.251   6.539
 2023SOL    HW1 6968   6.716   1.324   6.600
 2023SOL    HW2 6969   6.588   1.235   6.553
 2024SOL     OW 6970   6.055   0.441   3.715
 2024SOL    HW1 6971   6.025   0.526   3.672
 2024SOL    HW2 6972   5.980   0.403   3.769
 2025SOL     OW 6973   0.397   1.879   1.577
 2025SOL    HW1 6974   0.418   1.888   1.674
 2025SOL    HW2 6975   0.335   1.801   1.563
 2026SOL     OW 6976   2.344   2.117   5.424
 2026SOL    HW1 6977   2.253   2.141   5.457
 2026SOL    HW2 6978   2.412   2.175   5.470
 2027SOL     OW 6979   1.408   1.126   2.255
 2027SOL    HW1 6980   1.317   1.089   2.275
 2027SOL    HW2 6981   1.401   1.225   2.238
 2028SOL     OW 6982   3.555   1.956   0.571
 2028SOL    HW1 6983   3.626   1.886   0.578
 2028SOL    HW2 6984   3.477   1.931   0.629
 2029SOL     OW 6985   1.089   1.351   6.447
 2029SOL    HW1 6986   1.045   1.381   6.362
 2029SOL    HW2 6987   1.074   1.253   6.458
 2030SOL     OW 6988   1.697   2.236   3.774
 2030SOL    HW1 6989   1.666   2.320   3.729
 2030SOL    HW2 6990   1.752   2.183   3.710
 2031SOL     OW 6991   5.905   6.260   1.944
 2031SOL    HW1 6992   5.954   6.240   1.859
 2031SOL    HW2 6993   5.960   6.321   2.001
 2032SOL     OW 6994   5.214   5.948   7.002
 2032SOL    HW1 6995   5.196   5.910   6.911
 2032SOL    HW2 6996   5.153   5.905   0.046
 2033SOL     OW 6997   5.179   4.789   6.657
 2033SOL    HW1 6998   5.152   4.847   6.581
 2033SOL    HW2 6999   5.114   4.801   6.733
 2034SOL     OW 7000   2.510   6.581   3.117
 2034SOL    HW1 7001   2.508   6.511   3.045
 2034SOL    HW2 7002   2.569   6.657   3.088
 2035SOL     OW 7003   0.701   1.727   2.534
 2035SOL    HW1 7004   0.618   1.781   2.519
 2035SOL    HW2 7005   0.682   1.653   2.598
 2036SOL     OW 7006   0.380   5.293   0.859
 2036SOL    HW1 7007   0.478   5.272   0.853
 2036SOL    HW2 7008   0.330   5.213   0.891
 2037SOL     OW 7009   6.399   2.392   5.313
 2037SOL    HW1 7010   6.459   2.431   5.243
 2037SOL    HW2 7011   6.403   2.292   5.308
 2038SOL     OW 7012   0.632   1.442   4.743
 2038SOL    HW1 7013   0.602   1.347   4.730
 2038SOL    HW2 7014   0.593   1.478   4.828
 2039SOL     OW 7015   6.465   5.597   3.610
 2039SOL    HW1 7016   6.483   5.695   3.597
 2039SOL    HW2 7017   6.453   5.579   3.708
 2040SOL     OW 7018   3.811   3.276   4.499
 2040SOL    HW1 7019   3.886   3.217   4.469
 2040SOL    HW2 7020   3.816   3.363   4.451
 2041SOL     OW 7021   5.855   4.827   5.861
 2041SOL    HW1 7022   5.763   4.792   5.842
 2041SOL    HW2 7023   5.923   4.761   5.830
 2042SOL     OW 7024   5.030   5.025   0.401
 2042SOL    HW1 7025   4.933   5.002   0.412
 2042SOL    HW2 7026   5.059   5.085   0.476
 2043SOL     OW 7027   5.623   4.770   2.443
 2043SOL    HW1 7028   5.723   4.777   2.438
 2043SOL    HW2 7029   5.589   4.830   2.515
 2044SOL     OW 7030   5.900   0.133   2.010
 2044SOL    HW1 7031   5.879   0.049   1.961
 2044SOL    HW2 7032   5.978   0.178   1.966
 2045SOL     OW 7033   2.286   4.726   6.282
 2045SOL    HW1 7034   2.340   4.760   6.204
 2045SOL    HW2 7035   2.308   4.630   6.297
 2046SOL     OW 7036   6.305   0.753   4.189
 2046SOL    HW1 7037   6.350   0.698   4.119
 2046SOL    HW2 7038   6.367   0.765   4.267
 2047SOL     OW 7039   4.904   2.496   1.293
 2047SOL    HW1 7040   4.836   2.547   1.346
 2047SOL    HW2 7041   4.944   2.425   1.350
 2048SOL     OW 7042   3.859   0.304   0.068
 2048SOL    HW1 7043   3.884   0.286   0.164
 2048SOL    HW2 7044   3.917   0.376   0.031
 2049SOL     OW 7045   4.599   1.075   0.150
 2049SOL    HW1 7046   4.596   1.011   0.072
 2049SOL    HW2 7047   4.534   1.149   0.135
 2050SOL     OW 7048   6.171   2.584   3.864
 2050SOL    HW1 7049   6.252   2.631   3.828
 2050SOL    HW2 7050   6.143   2.513   3.799
 2051SOL     OW 7051   1.121   5.970   6.968
 2051SOL    HW1 7052   1.220   5.969   6.973
 2051SOL    HW2 7053   1.089   6.064   6.953
 2052SOL     OW 7054   1.105   3.118   6.555
 2052SOL    HW1 7055   1.081   3.212   6.581
 2052SOL    HW2 7056   1.034   3.081   6.496
 2053SOL     OW 7057   6.329   0.927   0.101
 2053SOL    HW1 7058   6.284   1.015   0.084
 2053SOL    HW2 7059   6.259   0.857   0.117
 2054SOL     OW 7060   6.189   2.753   0.686
 2054SOL    HW1 7061   6.233   2.712   0.606
 2054SOL    HW2 7062   6.186   2.852   0.675
 2055SOL     OW 7063   5.268   2.537   3.270
 2055SOL    HW1 7064   5.292   2.601   3.344
 2055SOL    HW2 7065   5.321   2.453   3.280
 2056SOL     OW 7066   2.152   1.312   3.154
 2056SOL    HW1 7067   2.190   1.222   3.131
 2056SOL    HW2 7068   2.148   1.369   3.072
 2057SOL     OW 7069   6.073   2.447   4.106
 2057SOL    HW1 7070   6.090   2.527   4.049
 2057SOL    HW2 7071   6.129   2.371   4.073
 2058SOL     OW 7072   0.564   2.083   2.985
 2058SOL    HW1 7073   0.505   2.123   2.915
 2058SOL    HW2 7074   0.612   2.156   3.034
 2059SOL     OW 7075   2.179   1.109   6.762
 2059SOL    HW1 7076   2.261   1.162   6.784
 2059SOL    HW2 7077   2.201   1.041   6.692
 2060SOL     OW 7078   0.063   4.570   1.981
 2060SOL    HW1 7079   0.019   4.529   2.061
 2060SOL    HW2 7080   7.021   4.630   1.934
 2061SOL     OW 7081   0.159   1.255   2.648
 2061SOL    HW1 7082   0.204   1.176   2.690
 2061SOL    HW2 7083   0.122   1.315   2.719
 2062SOL     OW 7084   4.381   6.943   2.340
 2062SOL    HW1 7085   4.396   6.844   2.349
 2062SOL    HW2 7086   4.349   6.979   2.428
 2063SOL     OW 7087   1.795   2.653   6.328
 2063SOL    HW1 7088   1.816   2.749   6.311
 2063SOL    HW2 7089   1.818   2.630   6.422
 2064SOL     OW 7090   0.780   2.352   5.629
 2064SOL    HW1 7091   0.686   2.332   5.600
 2064SOL    HW2 7092   0.782   2.362   5.729
 2065SOL     OW 7093   6.337   3.320   2.215
 2065SOL    HW1 7094   6.421   3.292   2.169
 2065SOL    HW2 7095   6.258   3.291   2.160
 2066SOL     OW 7096   0.208   6.459   4.995
 2066SOL    HW1 7097   0.188   6.442   5.092
 2066SOL    HW2 7098   0.122   6.473   4.946
 2067SOL     OW 7099   6.627   6.759   0.787
 2067SOL    HW1 7100   6.565   6.838   0.787
 2067SOL    HW2 7101   6.709   6.782   0.735
 2068SOL     OW 7102   2.031   1.410   5.337
 2068SOL    HW1 7103   2.056   1.505   5.320
 2068SOL    HW2 7104   2.029   1.394   5.435
 2069SOL     OW 7105   0.650   2.901   2.280
 2069SOL    HW1 7106   0.672   2.820   2.226
 2069SOL    HW2 7107   0.718   2.972   2.262
 2070SOL     OW 7108   1.518   0.679   2.490
 2070SOL    HW1 7109   1.464   0.669   2.574
 2070SOL    HW2 7110   1.590   0.609   2.488
 2071SOL     OW 7111   0.545   6.491   3.747
 2071SOL    HW1 7112   0.517   6.484   3.651
 2071SOL    HW2 7113   0.464   6.511   3.803
 2072SOL     OW 7114   4.741   6.220   1.802
 2072SOL    HW1 7115   4.659   6.209   1.746
 2072SOL    HW2 7116   4.809   6.272   1.751
 2073SOL     OW 7117   3.730   6.782   5.106
 2073SOL    HW1 7118   3.756   6.704   5.049
 2073SOL    HW2 7119   3.698   6.749   5.195
 2074SOL     OW 7120   6.849   1.650   0.733
 2074SOL    HW1 7121   6.897   1.704   0.664
 2074SOL    HW2 7122   6.851   1.698   0.821
 2075SOL     OW 7123   4.201   2.968   0.993
 2075SOL    HW1 7124   4.163   2.921   0.914
 2075SOL    HW2 7125   4.234   3.058   0.966
 2076SOL     OW 7126   5.363   5.790   0.249
 2076SOL    HW1 7127   5.455   5.766   0.279
 2076SOL    HW2 7128   5.363   5.883   0.212
 2077SOL     OW 7129   5.813   1.575   2.458
 2077SOL    HW1 7130   5.792   1.480   2.480
 2077SOL    HW2 7131   5.910   1.592   2.475
 2078SOL     OW 7132   2.866   5.659   6.397
 2078SOL    HW1 7133   2.893   5.678   6.302
 2078SOL    HW2 7134   2.948   5.636   6.450
 2079SOL     OW 7135   5.680   0.737   3.782
 2079SOL    HW1 7136   5.707   0.647   3.746
 2079SOL    HW2 7137   5.648   0.727   3.876
 2080SOL     OW 7138   2.468   2.099   5.000
 2080SOL    HW1 7139   2.490   2.195   4.988
 2080SOL    HW2 7140   2.550   2.044   4.987
 2081SOL     OW 7141   1.054   6.648   5.085
 2081SOL    HW1 7142   0.957   6.623   5.075
 2081SOL    HW2 7143   1.068   6.692   5.173
 2082SOL     OW 7144   5.417   0.582   1.191
 2082SOL    HW1 7145   5.420   0.484   1.173
 2082SOL    HW2 7146   5.327   0.618   1.167
 2083SOL     OW 7147   3.573   5.587   6.974
 2083SOL    HW1 7148   3.623   5.580   6.888
 2083SOL    HW2 7149   3.528   5.499   6.994
 2084SOL     OW 7150   0.019   2.305   3.349
 2084SOL    HW1 7151   0.109   2.295   3.307
 2084SOL    HW2 7152   6.979   2.240   3.308
 2085SOL     OW 7153   4.375   1.068   6.432
 2085SOL    HW1 7154   4.450   1.134   6.427
 2085SOL    HW2 7155   4.311   1.084   6.357
 2086SOL     OW 7156   3.555   4.326   0.066
 2086SOL    HW1 7157   3.523   4.364   7.002
 2086SOL    HW2 7158   3.645   4.286   0.054
 2087SOL     OW 7159   5.551   6.293   2.885
 2087SOL    HW1 7160   5.478   6.260   2.944
 2087SOL    HW2 7161   5.585   6.218   2.828
 2088SOL     OW 7162   3.372   6.486   1.240
 2088SOL    HW1 7163   3.400   6.480   1.144
 2088SOL    HW2 7164   3.358   6.582   1.264
 2089SOL     OW 7165   4.725   1.355   0.094
 2089SOL    HW1 7166   4.769   1.279   0.047
 2089SOL    HW2 7167   4.675   1.320   0.173
 2090SOL     OW 7168   3.932   3.833   4.384
 2090SOL    HW1 7169   3.957   3.929   4.396
 2090SOL    HW2 7170   3.998   3.775   4.432
 2091SOL     OW 7171   0.289   5.729   0.752
 2091SOL    HW1 7172   0.308   5.707   0.656
 2091SOL    HW2 7173   0.274   5.827   0.762
 2092SOL     OW 7174   5.740   5.988   0.895
 2092SOL    HW1 7175   5.716   6.054   0.965
 2092SOL    HW2 7176   5.719   6.025   0.804
 2093SOL     OW 7177   1.158   2.819   2.048
 2093SOL    HW1 7178   1.246   2.796   2.092
 2093SOL    HW2 7179   1.152   2.918   2.035
 2094SOL     OW 7180   5.867   0.489   2.037
 2094SOL    HW1 7181   5.822   0.399   2.034
 2094SOL    HW2 7182   5.839   0.542   1.957
 2095SOL     OW 7183   5.303   5.963   3.963
 2095SOL    HW1 7184   5.331   6.049   3.922
 2095SOL    HW2 7185   5.239   5.917   3.901
 2096SOL     OW 7186   4.819   4.046   2.332
 2096SOL    HW1 7187   4.777   4.106   2.400
 2096SOL    HW2 7188   4.828   3.954   2.371
 2097SOL     OW 7189   1.026   2.724   6.637
 2097SOL    HW1 7190   0.951   2.765   6.689
 2097SOL    HW2 7191   1.094   2.793   6.615
 2098SOL     OW 7192   4.454   5.988   3.756
 2098SOL    HW1 7193   4.407   5.930   3.690
 2098SOL    HW2 7194   4.387   6.045   3.804
 2099SOL     OW 7195   3.004   1.039   4.774
 2099SOL    HW1 7196   3.039   1.006   4.687
 2099SOL    HW2 7197   3.021   1.137   4.782
 2100SOL     OW 7198   4.151   3.880   6.718
 2100SOL    HW1 7199   4.106   3.796   6.688
 2100SOL    HW2 7200   4.165   3.941   6.639
 2101SOL     OW 7201   0.459   0.291   3.203
 2101SOL    HW1 7202   0.396   0.368   3.219
 2101SOL    HW2 7203   0.530   0.291   3.274
 2102SOL     OW 7204   0.284   5.840   2.755
 2102SOL    HW1 7205   0.380   5.858   2.732
 2102SOL    HW2 7206   0.245   5.921   2.798
 2103SOL     OW 7207   3.323   3.462   6.768
 2103SOL    HW1 7208   3.298   3.531   6.701
 2103SOL    HW2 7209   3.281   3.485   6.856
 2104SOL     OW 7210   1.587   3.197   5.874
 2104SOL    HW1 7211   1.540   3.214   5.960
 2104SOL    HW2 7212   1.524   3.154   5.809
 2105SOL     OW 7213   5.465   5.405   2.544
 2105SOL    HW1 7214   5.502   5.327   2.493
 2105SOL    HW2 7215   5.365   5.404   2.539
 2106SOL     OW 7216   4.609   5.130   6.703
 2106SOL    HW1 7217   4.615   5.216   6.653
 2106SOL    HW2 7218   4.550   5.141   6.783
 2107SOL     OW 7219   3.719   4.243   5.785
 2107SOL    HW1 7220   3.752   4.202   5.700
 2107SOL    HW2 7221   3.774   4.209   5.861
 2108SOL     OW 7222   6.218   5.216   5.382
 2108SOL    HW1 7223   6.136   5.239   5.435
 2108SOL    HW2 7224   6.268   5.144   5.429
 2109SOL     OW 7225   5.503   5.926   2.997
 2109SOL    HW1 7226   5.595   5.964   3.004
 2109SOL    HW2 7227   5.489   5.891   2.904
 2110SOL     OW 7228   2.902   4.806   6.615
 2110SOL    HW1 7229   2.875   4.875   6.548
 2110SOL    HW2 7230   2.860   4.718   6.592
 2111SOL     OW 7231   0.719   2.508   6.224
 2111SOL    HW1 7232   0.627   2.508   6.263
 2111SOL    HW2 7233   0.787   2.510   6.297
 2112SOL     OW 7234   3.991   2.847   1.691
 2112SOL    HW1 7235   3.981   2.874   1.787
 2112SOL    HW2 7236   4.053   2.911   1.645
 2113SOL     OW 7237   1.885   0.254   2.777
 2113SOL    HW1 7238   1.855   0.174   2.829
 2113SOL    HW2 7239   1.980   0.276   2.800
 2114SOL     OW 7240   1.442   4.257   0.479
 2114SOL    HW1 7241   1.344   4.260   0.458
 2114SOL    HW2 7242   1.459   4.312   0.561
 2115SOL     OW 7243   2.484   4.429   2.968
 2115SOL    HW1 7244   2.409   4.364   2.955
 2115SOL    HW2 7245   2.513   4.465   2.880
 2116SOL     OW 7246   6.798   3.843   3.008
 2116SOL    HW1 7247   6.829   3.938   3.008
 2116SOL    HW2 7248   6.872   3.784   2.976
 2117SOL     OW 7249   6.930   4.487   1.662
 2117SOL    HW1 7250   6.909   4.582   1.642
 2117SOL    HW2 7251   6.888   4.427   1.594
 2118SOL     OW 7252   6.972   3.646   2.441
 2118SOL    HW1 7253   6.922   3.575   2.489
 2118SOL    HW2 7254   6.939   3.652   2.347
 2119SOL     OW 7255   1.824   5.701   0.865
 2119SOL    HW1 7256   1.911   5.662   0.897
 2119SOL    HW2 7257   1.842   5.784   0.813
 2120SOL     OW 7258   6.192   4.299   2.590
 2120SOL    HW1 7259   6.235   4.375   2.639
 2120SOL    HW2 7260   6.262   4.237   2.555
 2121SOL     OW 7261   0.331   5.723   5.279
 2121SOL    HW1 7262   0.376   5.670   5.208
 2121SOL    HW2 7263   0.400   5.766   5.337
 2122SOL     OW 7264   5.629   4.191   5.482
 2122SOL    HW1 7265   5.681   4.233   5.557
 2122SOL    HW2 7266   5.590   4.262   5.425
 2123SOL     OW 7267   6.999   4.492   2.618
 2123SOL    HW1 7268   6.916   4.529   2.660
 2123SOL    HW2 7269   0.049   4.489   2.686
 2124SOL     OW 7270   1.640   1.170   1.463
 2124SOL    HW1 7271   1.685   1.245   1.415
 2124SOL    HW2 7272   1.633   1.191   1.560
 2125SOL     OW 7273   2.040   1.218   0.108
 2125SOL    HW1 7274   2.090   1.275   0.174
 2125SOL    HW2 7275   2.028   1.126   0.146
 2126SOL     OW 7276   2.592   1.175   7.020
 2126SOL    HW1 7277   2.524   1.175   6.946
 2126SOL    HW2 7278   2.636   1.264   0.002
 2127SOL     OW 7279   5.892   2.754   4.381
 2127SOL    HW1 7280   5.917   2.841   4.422
 2127SOL    HW2 7281   5.970   2.691   4.385
 2128SOL     OW 7282   0.841   4.759   4.801
 2128SOL    HW1 7283   0.879   4.667   4.801
 2128SOL    HW2 7284   0.816   4.784   4.895
 2129SOL     OW 7285   4.598   2.836   5.737
 2129SOL    HW1 7286   4.520   2.777   5.719
 2129SOL    HW2 7287   4.663   2.830   5.661
 2130SOL     OW 7288   5.241   6.744   2.616
 2130SOL    HW1 7289   5.262   6.764   2.712
 2130SOL    HW2 7290   5.148   6.776   2.595
 2131SOL     OW 7291   6.824   1.225   0.639
 2131SOL    HW1 7292   6.842   1.237   0.542
 2131SOL    HW2 7293   6.893   1.163   0.678
 2132SOL     OW 7294   2.934   2.978   1.095
 2132SOL    HW1 7295   2.942   2.896   1.151
 2132SOL    HW2 7296   3.024   3.001   1.057
 2133SOL     OW 7297   2.595   2.479   6.013
 2133SOL    HW1 7298   2.511   2.499   5.964
 2133SOL    HW2 7299   2.576   2.477   6.111
 2134SOL     OW 7300   6.560   1.881   1.255
 2134SOL    HW1 7301   6.511   1.817   1.314
 2134SOL    HW2 7302   6.619   1.939   1.310
 2135SOL     OW 7303   0.929   4.159   4.353
 2135SOL    HW1 7304   0.915   4.095   4.277
 2135SOL    HW2 7305   1.024   4.191   4.352
 2136SOL     OW 7306   2.461   5.643   1.425
 2136SOL    HW1 7307   2.412   5.557   1.445
 2136SOL    HW2 7308   2.548   5.622   1.381
 2137SOL     OW 7309   3.262   5.790   5.069
 2137SOL    HW1 7310   3.247   5.693   5.050
 2137SOL    HW2 7311   3.357   5.804   5.097
 2138SOL     OW 7312   6.166   1.052   3.025
 2138SOL    HW1 7313   6.073   1.076   3.053
 2138SOL    HW2 7314   6.196   1.115   2.953
 2139SOL     OW 7315   3.112   0.973   5.412
 2139SOL    HW1 7316   3.150   1.055   5.453
 2139SOL    HW2 7317   3.162   0.951   5.328
 2140SOL     OW 7318   2.897   0.917   4.984
 2140SOL    HW1 7319   2.891   0.975   5.065
 2140SOL    HW2 7320   2.940   0.968   4.910
 2141SOL     OW 7321   6.192   4.408   2.303
 2141SOL    HW1 7322   6.213   4.481   2.369
 2141SOL    HW2 7323   6.251   4.330   2.320
 2142SOL     OW 7324   1.630   3.011   4.156
 2142SOL    HW1 7325   1.723   3.031   4.186
 2142SOL    HW2 7326   1.632   2.978   4.061
 2143SOL     OW 7327   2.555   5.524   1.035
 2143SOL    HW1 7328   2.591   5.436   1.004
 2143SOL    HW2 7329   2.584   5.596   0.972
 2144SOL     OW 7330   0.050   5.479   4.594
 2144SOL    HW1 7331   6.987   5.445   4.633
 2144SOL    HW2 7332   0.030   5.554   4.531
 2145SOL     OW 7333   3.854   6.525   4.251
 2145SOL    HW1 7334   3.938   6.479   4.279
 2145SOL    HW2 7335   3.851   6.534   4.152
 2146SOL     OW 7336   2.192   2.715   1.042
 2146SOL    HW1 7337   2.163   2.811   1.043
 2146SOL    HW2 7338   2.215   2.686   1.136
 2147SOL     OW 7339   6.488   1.731   5.345
 2147SOL    HW1 7340   6.562   1.666   5.330
 2147SOL    HW2 7341   6.419   1.689   5.404
 2148SOL     OW 7342   0.033   2.830   6.395
 2148SOL    HW1 7343   0.027   2.859   6.299
 2148SOL    HW2 7344   6.982   2.765   6.415
 2149SOL     OW 7345   0.924   0.759   0.792
 2149SOL    HW1 7346   0.880   0.812   0.865
 2149SOL    HW2 7347   0.884   0.784   0.704
 2150SOL     OW 7348   2.491   2.711   1.790
 2150SOL    HW1 7349   2.472   2.624   1.836
 2150SOL    HW2 7350   2.413   2.772   1.799
 2151SOL     OW 7351   1.005   6.449   0.007
 2151SOL    HW1 7352   1.011   6.414   0.100
 2151SOL    HW2 7353   0.938   6.523   0.003
 2152SOL     OW 7354   4.046   5.613   2.429
 2152SOL    HW1 7355   4.005   5.673   2.361
 2152SOL    HW2 7356   4.130   5.574   2.393
 2153SOL     OW 7357   4.388   0.752   2.754
 2153SOL    HW1 7358   4.484   0.777   2.767
 2153SOL    HW2 7359   4.370   0.740   2.657
 2154SOL     OW 7360   3.541   6.398   3.640
 2154SOL    HW1 7361   3.536   6.370   3.544
 2154SOL    HW2 7362   3.449   6.396   3.679
 2155SOL     OW 7363   3.977   6.936   1.350
 2155SOL    HW1 7364   4.030   7.014   1.315
 2155SOL    HW2 7365   4.029   6.852   1.337
 2156SOL     OW 7366   6.246   1.494   3.525
 2156SOL    HW1 7367   6.256   1.412   3.468
 2156SOL    HW2 7368   6.208   1.569   3.471
 2157SOL     OW 7369   4.163   5.251   3.744
 2157SOL    HW1 7370   4.195   5.171   3.795
 2157SOL    HW2 7371   4.067   5.238   3.719
 2158SOL     OW 7372   4.059   0.337   0.646
 2158SOL    HW1 7373   4.045   0.337   0.546
 2158SOL    HW2 7374   4.154   0.359   0.666
 2159SOL     OW 7375   1.340   0.378   5.556
 2159SOL    HW1 7376   1.428   0.425   5.567
 2159SOL    HW2 7377   1.303   0.356   5.646
 2160SOL     OW 7378   5.290   5.662   0.006
 2160SOL    HW1 7379   5.309   5.706   0.093
 2160SOL    HW2 7380   5.252   5.571   0.022
 2161SOL     OW 7381   0.951   3.795   2.337
 2161SOL    HW1 7382   1.038   3.805   2.386
 2161SOL    HW2 7383   0.943   3.701   2.303
 2162SOL     OW 7384   2.657   7.020   3.242
 2162SOL    HW1 7385   2.727   0.057   3.281
 2162SOL    HW2 7386   2.591   6.996   3.313
 2163SOL     OW 7387   1.848   3.339   0.265
 2163SOL    HW1 7388   1.791   3.388   0.331
 2163SOL    HW2 7389   1.925   3.396   0.238
 2164SOL     OW 7390   2.082   2.470   0.988
 2164SOL    HW1 7391   2.146   2.543   1.009
 2164SOL    HW2 7392   2.129   2.398   0.937
 2165SOL     OW 7393   0.193   1.678   3.736
 2165SOL    HW1 7394   0.102   1.677   3.693
 2165SOL    HW2 7395   0.259   1.717   3.672
 2166SOL     OW 7396   0.544   4.103   3.911
 2166SOL    HW1 7397   0.548   4.011   3.950
 2166SOL    HW2 7398   0.577   4.169   3.978
 2167SOL     OW 7399   1.461   2.815   4.196
 2167SOL    HW1 7400   1.462   2.804   4.097
 2167SOL    HW2 7401   1.522   2.889   4.222
 2168SOL     OW 7402   1.248   1.933   2.880
 2168SOL    HW1 7403   1.227   1.846   2.923
 2168SOL    HW2 7404   1.175   1.998   2.899
 2169SOL     OW 7405   0.402   0.822   1.286
 2169SOL    HW1 7406   0.462   0.751   1.322
 2169SOL    HW2 7407   0.373   0.797   1.193
 2170SOL     OW 7408   1.050   4.368   5.083
 2170SOL    HW1 7409   0.972   4.330   5.132
 2170SOL    HW2 7410   1.124   4.301   5.080
 2171SOL     OW 7411   0.338   5.417   1.404
 2171SOL    HW1 7412   0.399   5.468   1.465
 2171SOL    HW2 7413   0.364   5.434   1.309
 2172SOL     OW 7414   0.048   1.876   5.215
 2172SOL    HW1 7415   6.983   1.868   5.262
 2172SOL    HW2 7416   0.109   1.803   5.245
 2173SOL     OW 7417   5.759   0.567   5.487
 2173SOL    HW1 7418   5.679   0.516   5.455
 2173SOL    HW2 7419   5.733   0.662   5.505
 2174SOL     OW 7420   0.292   6.001   5.131
 2174SOL    HW1 7421   0.318   5.904   5.132
 2174SOL    HW2 7422   0.369   6.055   5.096
 2175SOL     OW 7423   2.584   2.849   5.606
 2175SOL    HW1 7424   2.660   2.912   5.589
 2175SOL    HW2 7425   2.508   2.872   5.545
 2176SOL     OW 7426   5.177   2.707   1.290
 2176SOL    HW1 7427   5.247   2.733   1.356
 2176SOL    HW2 7428   5.194   2.614   1.258
 2177SOL     OW 7429   6.990   0.829   3.166
 2177SOL    HW1 7430   6.978   0.761   3.238
 2177SOL    HW2 7431   6.904   0.841   3.116
 2178SOL     OW 7432   1.276   1.230   1.985
 2178SOL    HW1 7433   1.367   1.273   1.986
 2178SOL    HW2 7434   1.259   1.186   2.073
 2179SOL     OW 7435   1.948   4.563   6.562
 2179SOL    HW1 7436   1.910   4.550   6.654
 2179SOL    HW2 7437   2.032   4.617   6.567
 2180SOL     OW 7438   1.382   4.495   2.030
 2180SOL    HW1 7439   1.344   4.403   2.019
 2180SOL    HW2 7440   1.385   4.540   1.941
 2181SOL     OW 7441   4.966   4.490   4.675
 2181SOL    HW1 7442   5.022   4.505   4.594
 2181SOL    HW2 7443   5.020   4.511   4.757
 2182SOL     OW 7444   0.972   4.466   3.343
 2182SOL    HW1 7445   0.982   4.526   3.422
 2182SOL    HW2 7446   0.995   4.372   3.368
 2183SOL     OW 7447   3.676   3.730   6.859
 2183SOL    HW1 7448   3.765   3.773   6.844
 2183SOL    HW2 7449   3.638   3.760   6.946
 2184SOL     OW 7450   6.053   0.540   0.322
 2184SOL    HW1 7451   6.101   0.511   0.239
 2184SOL    HW2 7452   5.961   0.501   0.323
 2185SOL     OW 7453   0.418   1.523   6.565
 2185SOL    HW1 7454   0.497   1.585   6.565
 2185SOL    HW2 7455   0.340   1.569   6.522
 2186SOL     OW 7456   6.296   4.786   5.077
 2186SOL    HW1 7457   6.324   4.844   5.000
 2186SOL    HW2 7458   6.234   4.838   5.136
 2187SOL     OW 7459   0.500   5.284   2.842
 2187SOL    HW1 7460   0.537   5.302   2.933
 2187SOL    HW2 7461   0.406   5.250   2.850
 2188SOL     OW 7462   2.095   6.011   0.025
 2188SOL    HW1 7463   2.142   5.963   0.099
 2188SOL    HW2 7464   2.161   6.034   6.977
 2189SOL     OW 7465   2.326   1.311   1.922
 2189SOL    HW1 7466   2.302   1.329   1.827
 2189SOL    HW2 7467   2.275   1.374   1.981
 2190SOL     OW 7468   6.686   3.711   2.566
 2190SOL    HW1 7469   6.725   3.628   2.606
 2190SOL    HW2 7470   6.620   3.686   2.496
 2191SOL     OW 7471   1.727   1.218   5.217
 2191SOL    HW1 7472   1.793   1.165   5.165
 2191SOL    HW2 7473   1.716   1.308   5.174
 2192SOL     OW 7474   5.220   0.588   2.099
 2192SOL    HW1 7475   5.197   0.543   2.013
 2192SOL    HW2 7476   5.137   0.605   2.152
 2193SOL     OW 7477   6.286   6.981   6.531
 2193SOL    HW1 7478   6.275   6.920   6.610
 2193SOL    HW2 7479   6.383   7.003   6.520
 2194SOL     OW 7480   0.507   4.306   5.356
 2194SOL    HW1 7481   0.606   4.317   5.355
 2194SOL    HW2 7482   0.482   4.227   5.411
 2195SOL     OW 7483   0.376   5.293   6.219
 2195SOL    HW1 7484   0.396   5.195   6.229
 2195SOL    HW2 7485   0.290   5.314   6.266
 2196SOL     OW 7486   2.738   6.726   5.294
 2196SOL    HW1 7487   2.659   6.689   5.245
 2196SOL    HW2 7488   2.768   6.811   5.250
 2197SOL     OW 7489   2.723   3.062   6.163
 2197SOL    HW1 7490   2.727   2.963   6.176
 2197SOL    HW2 7491   2.758   3.086   6.072
 2198SOL     OW 7492   0.042   0.121   0.011
 2198SOL    HW1 7493   0.118   0.126   6.970
 2198SOL    HW2 7494   0.002   0.212   0.023
 2199SOL     OW 7495   5.027   6.747   4.518
 2199SOL    HW1 7496   5.062   6.777   4.429
 2199SOL    HW2 7497   5.100   6.700   4.568
 2200SOL     OW 7498   3.639   1.076   4.010
 2200SOL    HW1 7499   3.545   1.093   4.038
 2200SOL    HW2 7500   3.642   1.053   3.913
 2201SOL     OW 7501   6.501   2.871   3.162
 2201SOL    HW1 7502   6.499   2.780   3.120
 2201SOL    HW2 7503   6.539   2.864   3.255
 2202SOL     OW 7504   3.471   5.329   3.010
 2202SOL    HW1 7505   3.417   5.245   3.006
 2202SOL    HW2 7506   3.418   5.404   2.970
 2203SOL     OW 7507   2.648   4.301   1.285
 2203SOL    HW1 7508   2.735   4.264   1.252
 2203SOL    HW2 7509   2.597   4.228   1.332
 2204SOL     OW 7510   4.093   2.628   1.088
 2204SOL    HW1 7511   4.081   2.682   1.172
 2204SOL    HW2 7512   4.190   2.619   1.068
 2205SOL     OW 7513   1.608   6.730   0.771
 2205SOL    HW1 7514   1.562   6.660   0.718
 2205SOL    HW2 7515   1.694   6.755   0.728
 2206SOL     OW 7516   2.644   3.992   6.281
 2206SOL    HW1 7517   2.628   3.895   6.261
 2206SOL    HW2 7518   2.733   4.019   6.247
 2207SOL     OW 7519   3.757   5.780   0.679
 2207SOL    HW1 7520   3.852   5.812   0.676
 2207SOL    HW2 7521   3.726   5.775   0.774
 2208SOL     OW 7522   1.143   5.816   3.353
 2208SOL    HW1 7523   1.050   5.789   3.378
 2208SOL    HW2 7524   1.195   5.838   3.435
 2209SOL     OW 7525   2.726   5.387   4.722
 2209SOL    HW1 7526   2.629   5.369   4.740
 2209SOL    HW2 7527   2.743   5.381   4.624
 2210SOL     OW 7528   6.357   5.825   2.208
 2210SOL    HW1 7529   6.434   5.822   2.271
 2210SOL    HW2 7530   6.352   5.740   2.155
 2211SOL     OW 7531   6.016   0.762   0.757
 2211SOL    HW1 7532   6.004   0.806   0.668
 2211SOL    HW2 7533   5.960   0.809   0.826
 2212SOL     OW 7534   1.933   5.904   6.822
 2212SOL    HW1 7535   1.896   5.982   6.772
 2212SOL    HW2 7536   1.985   5.938   6.901
 2213SOL     OW 7537   4.679   2.764   4.627
 2213SOL    HW1 7538   4.711   2.822   4.701
 2213SOL    HW2 7539   4.596   2.801   4.587
 2214SOL     OW 7540   3.912   2.902   5.588
 2214SOL    HW1 7541   3.868   2.898   5.498
 2214SOL    HW2 7542   3.968   2.985   5.593
 2215SOL     OW 7543   5.557   1.756   6.183
 2215SOL    HW1 7544   5.574   1.854   6.174
 2215SOL    HW2 7545   5.485   1.740   6.250
 2216SOL     OW 7546   0.420   6.271   6.003
 2216SOL    HW1 7547   0.338   6.277   5.946
 2216SOL    HW2 7548   0.475   6.353   5.990
 2217SOL     OW 7549   4.533   0.585   3.935
 2217SOL    HW1 7550   4.500   0.642   3.860
 2217SOL    HW2 7551   4.470   0.510   3.951
 2218SOL     OW 7552   0.408   5.432   6.779
 2218SOL    HW1 7553   0.415   5.532   6.785
 2218SOL    HW2 7554   0.374   5.396   6.866
 2219SOL     OW 7555   5.959   1.976   1.185
 2219SOL    HW1 7556   5.943   2.047   1.115
 2219SOL    HW2 7557   6.007   2.016   1.263
 2220SOL     OW 7558   2.108   6.318   5.341
 2220SOL    HW1 7559   2.057   6.263   5.407
 2220SOL    HW2 7560   2.202   6.331   5.374
 2221SOL     OW 7561   6.515   1.527   4.724
 2221SOL    HW1 7562   6.430   1.494   4.684
 2221SOL    HW2 7563   6.550   1.460   4.790
 2222SOL     OW 7564   6.265   6.992   0.984
 2222SOL    HW1 7565   6.194   6.924   0.965
 2222SOL    HW2 7566   6.228   0.061   0.970
 2223SOL     OW 7567   6.796   0.987   5.787
 2223SOL    HW1 7568   6.800   1.087   5.778
 2223SOL    HW2 7569   6.710   0.953   5.749
 2224SOL     OW 7570   6.109   3.537   2.120
 2224SOL    HW1 7571   6.116   3.456   2.062
 2224SOL    HW2 7572   6.124   3.619   2.065
 2225SOL     OW 7573   0.026   6.510   3.445
 2225SOL    HW1 7574   6.956   6.535   3.472
 2225SOL    HW2 7575   0.038   6.526   3.348
 2226SOL     OW 7576   3.515   5.357   0.629
 2226SOL    HW1 7577   3.467   5.436   0.590
 2226SOL    HW2 7578   3.529   5.371   0.727
 2227SOL     OW 7579   4.331   2.863   1.438
 2227SOL    HW1 7580   4.296   2.773   1.411
 2227SOL    HW2 7581   4.425   2.853   1.473
 2228SOL     OW 7582   4.735   5.201   0.286
 2228SOL    HW1 7583   4.690   5.232   0.202
 2228SOL    HW2 7584   4.673   5.217   0.364
 2229SOL     OW 7585   3.525   3.500   4.704
 2229SOL    HW1 7586   3.613   3.531   4.740
 2229SOL    HW2 7587   3.540   3.452   4.618
 2230SOL     OW 7588   5.207   6.212   1.487
 2230SOL    HW1 7589   5.227   6.154   1.408
 2230SOL    HW2 7590   5.128   6.271   1.467
 2231SOL     OW 7591   0.751   1.227   6.115
 2231SOL    HW1 7592   0.754   1.165   6.193
 2231SOL    HW2 7593   0.803   1.309   6.136
 2232SOL     OW 7594   0.269   0.520   4.987
 2232SOL    HW1 7595   0.328   0.440   4.996
 2232SOL    HW2 7596   0.305   0.594   5.043
 2233SOL     OW 7597   3.623   3.435   0.708
 2233SOL    HW1 7598   3.619   3.524   0.752
 2233SOL    HW2 7599   3.570   3.369   0.761
 2234SOL     OW 7600   3.578   1.529   0.763
 2234SOL    HW1 7601   3.559   1.533   0.861
 2234SOL    HW2 7602   3.493   1.546   0.712
 2235SOL     OW 7603   2.586   0.441   2.426
 2235SOL    HW1 7604   2.517   0.493   2.476
 2235SOL    HW2 7605   2.663   0.500   2.402
 2236SOL     OW 7606   2.214   4.020   5.633
 2236SOL    HW1 7607   2.153   4.004   5.555
 2236SOL    HW2 7608   2.159   4.045   5.713
 2237SOL     OW 7609   6.014   5.193   4.341
 2237SOL    HW1 7610   6.077   5.161   4.411
 2237SOL    HW2 7611   6.032   5.289   4.320
 2238SOL     OW 7612   4.721   4.786   2.612
 2238SOL    HW1 7613   4.638   4.823   2.571
 2238SOL    HW2 7614   4.783   4.861   2.636
 2239SOL     OW 7615   3.849   5.204   4.299
 2239SOL    HW1 7616   3.854   5.220   4.200
 2239SOL    HW2 7617   3.940   5.182   4.333
 2240SOL     OW 7618   3.709   5.623   2.318
 2240SOL    HW1 7619   3.639   5.679   2.274
 2240SOL    HW2 7620   3.800   5.654   2.289
 2241SOL     OW 7621   6.706   6.889   1.936
 2241SOL    HW1 7622   6.720   6.985   1.912
 2241SOL    HW2 7623   6.752   6.831   1.869
 2242SOL     OW 7624   5.598   3.254   2.129
 2242SOL    HW1 7625   5.589   3.344   2.085
 2242SOL    HW2 7626   5.532   3.248   2.204
 2243SOL     OW 7627   2.495   6.481   6.968
 2243SOL    HW1 7628   2.417   6.433   7.008
 2243SOL    HW2 7629   2.554   6.515   0.018
 2244SOL     OW 7630   3.015   0.151   1.313
 2244SOL    HW1 7631   3.113   0.139   1.298
 2244SOL    HW2 7632   3.000   0.192   1.403
 2245SOL     OW 7633   0.283   1.498   0.600
 2245SOL    HW1 7634   0.245   1.466   0.686
 2245SOL    HW2 7635   0.376   1.533   0.616
 2246SOL     OW 7636   1.699   0.217   4.051
 2246SOL    HW1 7637   1.716   0.286   3.980
 2246SOL    HW2 7638   1.647   0.258   4.125
 2247SOL     OW 7639   3.243   3.620   2.378
 2247SOL    HW1 7640   3.332   3.590   2.411
 2247SOL    HW2 7641   3.254   3.671   2.293
 2248SOL     OW 7642   6.712   4.190   4.007
 2248SOL    HW1 7643   6.636   4.227   3.954
 2248SOL    HW2 7644   6.682   4.108   4.057
 2249SOL     OW 7645   3.795   6.604   3.958
 2249SOL    HW1 7646   3.852   6.642   3.885
 2249SOL    HW2 7647   3.714   6.661   3.969
 2250SOL     OW 7648   3.260   3.887   5.544
 2250SOL    HW1 7649   3.304   3.807   5.586
 2250SOL    HW2 7650   3.298   3.901   5.453
 2251SOL     OW 7651   5.253   0.271   6.068
 2251SOL    HW1 7652   5.247   0.250   6.165
 2251SOL    HW2 7653   5.191   0.211   6.017
 2252SOL     OW 7654   5.166   1.687   2.911
 2252SOL    HW1 7655   5.091   1.664   2.973
 2252SOL    HW2 7656   5.147   1.649   2.821
 2253SOL     OW 7657   0.498   3.145   6.907
 2253SOL    HW1 7658   0.521   3.230   6.860
 2253SOL    HW2 7659   0.402   3.123   6.891
 2254SOL     OW 7660   3.615   3.503   3.196
 2254SOL    HW1 7661   3.677   3.512   3.274
 2254SOL    HW2 7662   3.520   3.497   3.229
 2255SOL     OW 7663   2.971   3.504   5.591
 2255SOL    HW1 7664   2.921   3.454   5.520
 2255SOL    HW2 7665   3.001   3.592   5.555
 2256SOL     OW 7666   4.203   6.543   2.311
 2256SOL    HW1 7667   4.147   6.526   2.230
 2256SOL    HW2 7668   4.290   6.586   2.284
 2257SOL     OW 7669   0.620   1.318   4.327
 2257SOL    HW1 7670   0.665   1.375   4.258
 2257SOL    HW2 7671   0.560   1.374   4.383
 2258SOL     OW 7672   2.027   6.068   3.854
 2258SOL    HW1 7673   2.052   5.983   3.901
 2258SOL    HW2 7674   2.004   6.138   3.922
 2259SOL     OW 7675   5.408   2.654   4.564
 2259SOL    HW1 7676   5.435   2.572   4.615
 2259SOL    HW2 7677   5.487   2.692   4.516
 2260SOL     OW 7678   0.815   3.683   1.282
 2260SOL    HW1 7679   0.810   3.593   1.238
 2260SOL    HW2 7680   0.908   3.719   1.273
 2261SOL     OW 7681   6.508   4.367   0.702
 2261SOL    HW1 7682   6.473   4.287   0.752
 2261SOL    HW2 7683   6.543   4.434   0.767
 2262SOL     OW 7684   6.424   0.580   2.913
 2262SOL    HW1 7685   6.382   0.548   2.828
 2262SOL    HW2 7686   6.352   0.596   2.981
 2263SOL     OW 7687   1.770   5.952   0.666
 2263SOL    HW1 7688   1.731   6.011   0.595
 2263SOL    HW2 7689   1.824   5.880   0.623
 2264SOL     OW 7690   2.763   0.279   6.785
 2264SOL    HW1 7691   2.822   0.352   6.751
 2264SOL    HW2 7692   2.672   0.288   6.746
 2265SOL     OW 7693   1.957   0.621   4.071
 2265SOL    HW1 7694   1.996   0.704   4.110
 2265SOL    HW2 7695   2.018   0.584   4.001
 2266SOL     OW 7696   4.566   1.264   6.451
 2266SOL    HW1 7697   4.514   1.328   6.508
 2266SOL    HW2 7698   4.612   1.314   6.378
 2267SOL     OW 7699   4.842   2.777   5.076
 2267SOL    HW1 7700   4.839   2.771   4.976
 2267SOL    HW2 7701   4.797   2.862   5.105
 2268SOL     OW 7702   6.055   3.580   6.201
 2268SOL    HW1 7703   5.998   3.636   6.140
 2268SOL    HW2 7704   6.005   3.563   6.285
 2269SOL     OW 7705   0.949   3.543   4.796
 2269SOL    HW1 7706   0.903   3.489   4.726
 2269SOL    HW2 7707   0.968   3.635   4.760
 2270SOL     OW 7708   4.089   3.259   6.232
 2270SOL    HW1 7709   4.025   3.328   6.266
 2270SOL    HW2 7710   4.128   3.290   6.145
 2271SOL     OW 7711   5.508   4.626   6.981
 2271SOL    HW1 7712   5.456   4.610   0.041
 2271SOL    HW2 7713   5.453   4.603   6.901
 2272SOL     OW 7714   7.001   1.641   6.400
 2272SOL    HW1 7715   7.016   1.740   6.410
 2272SOL    HW2 7716   6.909   1.625   6.364
 2273SOL     OW 7717   1.673   2.297   2.590
 2273SOL    HW1 7718   1.716   2.385   2.573
 2273SOL    HW2 7719   1.595   2.309   2.651
 2274SOL     OW 7720   0.761   1.587   6.419
 2274SOL    HW1 7721   0.725   1.621   6.505
 2274SOL    HW2 7722   0.704   1.620   6.343
 2275SOL     OW 7723   5.948   5.746   2.675
 2275SOL    HW1 7724   5.922   5.826   2.729
 2275SOL    HW2 7725   5.929   5.663   2.727
 2276SOL     OW 7726   1.477   6.037   1.705
 2276SOL    HW1 7727   1.394   6.055   1.758
 2276SOL    HW2 7728   1.555   6.028   1.768
 2277SOL     OW 7729   3.308   3.635   4.536
 2277SOL    HW1 7730   3.368   3.703   4.580
 2277SOL    HW2 7731   3.351   3.545   4.539
 2278SOL     OW 7732   6.365   2.730   3.773
 2278SOL    HW1 7733   6.443   2.727   3.710
 2278SOL    HW2 7734   6.301   2.801   3.743
 2279SOL     OW 7735   6.383   6.645   6.009
 2279SOL    HW1 7736   6.427   6.608   5.928
 2279SOL    HW2 7737   6.402   6.743   6.017
 2280SOL     OW 7738   6.245   0.890   4.709
 2280SOL    HW1 7739   6.337   0.898   4.672
 2280SOL    HW2 7740   6.243   0.926   4.803
 2281SOL     OW 7741   3.609   0.592   2.096
 2281SOL    HW1 7742   3.593   0.690   2.079
 2281SOL    HW2 7743   3.704   0.578   2.124
 2282SOL     OW 7744   5.025   6.065   5.597
 2282SOL    HW1 7745   4.939   6.078   5.547
 2282SOL    HW2 7746   5.041   6.144   5.657
 2283SOL     OW 7747   1.733   0.652   1.980
 2283SOL    HW1 7748   1.764   0.557   1.981
 2283SOL    HW2 7749   1.723   0.685   2.074
 2284SOL     OW 7750   1.029   3.533   6.004
 2284SOL    HW1 7751   0.987   3.610   6.053
 2284SOL    HW2 7752   0.956   3.472   5.971
 2285SOL     OW 7753   1.491   3.193   0.346
 2285SOL    HW1 7754   1.556   3.181   0.421
 2285SOL    HW2 7755   1.515   3.274   0.292
 2286SOL     OW 7756   5.483   0.144   3.521
 2286SOL    HW1 7757   5.390   0.118   3.496
 2286SOL    HW2 7758   5.520   0.078   3.586
 2287SOL     OW 7759   2.983   0.882   3.697
 2287SOL    HW1 7760   3.062   0.905   3.754
 2287SOL    HW2 7761   3.009   0.888   3.601
 2288SOL     OW 7762   0.523   5.672   4.067
 2288SOL    HW1 7763   0.528   5.691   4.165
 2288SOL    HW2 7764   0.568   5.586   4.047
 2289SOL     OW 7765   6.673   4.950   0.945
 2289SOL    HW1 7766   6.621   5.009   1.007
 2289SOL    HW2 7767   6.681   4.859   0.985
 2290SOL     OW 7768   0.625   4.208   1.301
 2290SOL    HW1 7769   0.570   4.182   1.381
 2290SOL    HW2 7770   0.667   4.126   1.262
 2291SOL     OW 7771   2.378   2.309   5.763
 2291SOL    HW1 7772   2.376   2.394   5.815
 2291SOL    HW2 7773   2.404   2.327   5.668
 2292SOL     OW 7774   1.618   1.092   4.709
 2292SOL    HW1 7775   1.609   1.181   4.666
 2292SOL    HW2 7776   1.694   1.093   4.774
 2293SOL     OW 7777   5.596   5.817   2.142
 2293SOL    HW1 7778   5.589   5.784   2.236
 2293SOL    HW2 7779   5.516   5.874   2.121
 2294SOL     OW 7780   3.363   7.010   0.403
 2294SOL    HW1 7781   3.356   6.971   0.311
 2294SOL    HW2 7782   3.273   7.003   0.448
 2295SOL     OW 7783   0.410   1.475   2.447
 2295SOL    HW1 7784   0.355   1.546   2.492
 2295SOL    HW2 7785   0.495   1.462   2.498
 2296SOL     OW 7786   3.140   6.597   0.995
 2296SOL    HW1 7787   3.137   6.692   1.025
 2296SOL    HW2 7788   3.205   6.546   1.051
 2297SOL     OW 7789   3.746   4.164   5.368
 2297SOL    HW1 7790   3.773   4.141   5.461
 2297SOL    HW2 7791   3.828   4.182   5.313
 2298SOL     OW 7792   3.423   2.277   1.485
 2298SOL    HW1 7793   3.381   2.366   1.502
 2298SOL    HW2 7794   3.426   2.224   1.570
 2299SOL     OW 7795   5.888   0.637   6.767
 2299SOL    HW1 7796   5.931   0.716   6.724
 2299SOL    HW2 7797   5.788   0.646   6.762
 2300SOL     OW 7798   1.946   5.153   1.730
 2300SOL    HW1 7799   1.908   5.243   1.747
 2300SOL    HW2 7800   2.015   5.159   1.657
 2301SOL     OW 7801   2.970   3.698   3.000
 2301SOL    HW1 7802   2.941   3.607   2.969
 2301SOL    HW2 7803   3.009   3.749   2.923
 2302SOL     OW 7804   3.809   0.036   2.532
 2302SOL    HW1 7805   3.722   0.021   2.485
 2302SOL    HW2 7806   3.847   0.124   2.503
 2303SOL     OW 7807   1.609   3.663   5.493
 2303SOL    HW1 7808   1.509   3.665   5.485
 2303SOL    HW2 7809   1.637   3.584   5.547
 2304SOL     OW 7810   2.660   0.345   3.623
 2304SOL    HW1 7811   2.637   0.433   3.582
 2304SOL    HW2 7812   2.733   0.358   3.691
 2305SOL     OW 7813   3.644   5.876   3.315
 2305SOL    HW1 7814   3.553   5.840   3.337
 2305SOL    HW2 7815   3.713   5.811   3.344
 2306SOL     OW 7816   2.244   5.825   1.453
 2306SOL    HW1 7817   2.302   5.744   1.444
 2306SOL    HW2 7818   2.156   5.799   1.492
 2307SOL     OW 7819   2.259   4.157   2.645
 2307SOL    HW1 7820   2.227   4.237   2.695
 2307SOL    HW2 7821   2.281   4.183   2.551
 2308SOL     OW 7822   1.340   0.243   6.740
 2308SOL    HW1 7823   1.350   0.169   6.674
 2308SOL    HW2 7824   1.332   0.330   6.692
 2309SOL     OW 7825   2.683   6.594   0.329
 2309SOL    HW1 7826   2.775   6.595   0.289
 2309SOL    HW2 7827   2.668   6.677   0.382
 2310SOL     OW 7828   6.428   6.865   1.373
 2310SOL    HW1 7829   6.467   6.773   1.368
 2310SOL    HW2 7830   6.437   6.909   1.284
 2311SOL     OW 7831   2.495   6.823   2.376
 2311SOL    HW1 7832   2.576   6.801   2.431
 2311SOL    HW2 7833   2.467   6.917   2.394
 2312SOL     OW 7834   3.152   6.790   3.540
 2312SOL    HW1 7835   3.082   6.755   3.602
 2312SOL    HW2 7836   3.109   6.816   3.453
 2313SOL     OW 7837   4.653   5.121   2.033
 2313SOL    HW1 7838   4.698   5.033   2.049
 2313SOL    HW2 7839   4.658   5.144   1.936
 2314SOL     OW 7840   5.728   0.740   3.137
 2314SOL    HW1 7841   5.802   0.689   3.182
 2314SOL    HW2 7842   5.720   0.831   3.178
 2315SOL     OW 7843   5.100   3.545   5.159
 2315SOL    HW1 7844   5.091   3.639   5.127
 2315SOL    HW2 7845   5.009   3.504   5.169
 2316SOL     OW 7846   2.492   1.499   5.443
 2316SOL    HW1 7847   2.434   1.424   5.474
 2316SOL    HW2 7848   2.570   1.509   5.505
 2317SOL     OW 7849   6.357   6.364   3.791
 2317SOL    HW1 7850   6.381   6.441   3.733
 2317SOL    HW2 7851   6.292   6.394   3.861
 2318SOL     OW 7852   2.151   3.445   4.493
 2318SOL    HW1 7853   2.153   3.349   4.464
 2318SOL    HW2 7854   2.136   3.449   4.592
 2319SOL     OW 7855   3.290   5.324   5.266
 2319SOL    HW1 7856   3.283   5.372   5.353
 2319SOL    HW2 7857   3.310   5.227   5.283
 2320SOL     OW 7858   0.678   1.957   5.005
 2320SOL    HW1 7859   0.741   1.999   4.940
 2320SOL    HW2 7860   0.661   1.862   4.979
 2321SOL     OW 7861   2.400   6.059   6.647
 2321SOL    HW1 7862   2.400   6.059   6.547
 2321SOL    HW2 7863   2.493   6.077   6.680
 2322SOL     OW 7864   2.031   4.370   2.048
 2322SOL    HW1 7865   2.052   4.380   1.951
 2322SOL    HW2 7866   1.935   4.345   2.060
 2323SOL     OW 7867   3.324   4.789   1.756
 2323SOL    HW1 7868   3.403   4.750   1.803
 2323SOL    HW2 7869   3.304   4.735   1.675
 2324SOL     OW 7870   6.590   5.743   1.097
 2324SOL    HW1 7871   6.661   5.747   1.168
 2324SOL    HW2 7872   6.586   5.830   1.048
 2325SOL     OW 7873   0.172   4.761   1.262
 2325SOL    HW1 7874   0.127   4.832   1.317
 2325SOL    HW2 7875   0.124   4.674   1.275
 2326SOL     OW 7876   1.510   6.469   6.242
 2326SOL    HW1 7877   1.589   6.441   6.297
 2326SOL    HW2 7878   1.509   6.416   6.157
 2327SOL     OW 7879   0.579   1.013   3.184
 2327SOL    HW1 7880   0.668   0.980   3.155
 2327SOL    HW2 7881   0.547   1.085   3.121
 2328SOL     OW 7882   1.714   1.969   2.830
 2328SOL    HW1 7883   1.720   1.995   2.927
 2328SOL    HW2 7884   1.622   1.990   2.796
 2329SOL     OW 7885   0.738   5.046   4.806
 2329SOL    HW1 7886   0.755   4.951   4.780
 2329SOL    HW2 7887   0.744   5.104   4.725
 2330SOL     OW 7888   0.404   2.517   0.307
 2330SOL    HW1 7889   0.488   2.468   0.332
 2330SOL    HW2 7890   0.396   2.600   0.362
 2331SOL     OW 7891   3.722   5.247   0.314
 2331SOL    HW1 7892   3.766   5.330   0.349
 2331SOL    HW2 7893   3.722   5.177   0.385
 2332SOL     OW 7894   6.933   6.868   5.989
 2332SOL    HW1 7895   7.003   6.927   6.030
 2332SOL    HW2 7896   6.976   6.787   5.949
 2333SOL     OW 7897   0.136   4.884   2.805
 2333SOL    HW1 7898   0.105   4.841   2.890
 2333SOL    HW2 7899   0.200   4.823   2.757
 2334SOL     OW 7900   1.708   1.075   6.711
 2334SOL    HW1 7901   1.725   1.168   6.744
 2334SOL    HW2 7902   1.786   1.017   6.734
 2335SOL     OW 7903   5.649   6.872   3.924
 2335SOL    HW1 7904   5.612   6.787   3.961
 2335SOL    HW2 7905   5.600   6.950   3.965
 2336SOL     OW 7906   3.431   1.295   4.216
 2336SOL    HW1 7907   3.383   1.371   4.172
 2336SOL    HW2 7908   3.405   1.209   4.173
 2337SOL     OW 7909   3.962   0.581   1.614
 2337SOL    HW1 7910   3.968   0.491   1.659
 2337SOL    HW2 7911   3.889   0.579   1.546
 2338SOL     OW 7912   0.512   3.348   4.135
 2338SOL    HW1 7913   0.575   3.396   4.074
 2338SOL    HW2 7914   0.564   3.307   4.210
 2339SOL     OW 7915   3.794   4.071   3.472
 2339SOL    HW1 7916   3.704   4.071   3.428
 2339SOL    HW2 7917   3.847   3.993   3.439
 2340SOL     OW 7918   0.239   4.386   6.880
 2340SOL    HW1 7919   0.205   4.357   6.791
 2340SOL    HW2 7920   0.220   4.315   6.948
 2341SOL     OW 7921   2.993   4.804   2.213
 2341SOL    HW1 7922   2.923   4.754   2.264
 2341SOL    HW2 7923   2.965   4.813   2.117
 2342SOL     OW 7924   1.740   0.246   4.834
 2342SOL    HW1 7925   1.677   0.174   4.861
 2342SOL    HW2 7926   1.834   0.212   4.837
 2343SOL     OW 7927   1.527   5.644   2.548
 2343SOL    HW1 7928   1.607   5.598   2.588
 2343SOL    HW2 7929   1.458   5.576   2.523
 2344SOL     OW 7930   0.378   6.040   6.966
 2344SOL    HW1 7931   0.469   6.060   7.003
 2344SOL    HW2 7932   0.368   6.083   6.876
 2345SOL     OW 7933   2.463   5.417   4.874
 2345SOL    HW1 7934   2.367   5.444   4.879
 2345SOL    HW2 7935   2.521   5.495   4.896
 2346SOL     OW 7936   3.601   3.256   5.657
 2346SOL    HW1 7937   3.655   3.237   5.575
 2346SOL    HW2 7938   3.519   3.199   5.657
 2347SOL     OW 7939   2.566   2.532   1.576
 2347SOL    HW1 7940   2.658   2.571   1.572
 2347SOL    HW2 7941   2.503   2.599   1.615
 2348SOL     OW 7942   1.720   6.298   3.573
 2348SOL    HW1 7943   1.799   6.343   3.615
 2348SOL    HW2 7944   1.695   6.346   3.489
 2349SOL     OW 7945   0.963   4.730   5.721
 2349SOL    HW1 7946   0.987   4.760   5.629
 2349SOL    HW2 7947   1.042   4.687   5.764
 2350SOL     OW 7948   6.284   5.381   6.223
 2350SOL    HW1 7949   6.211   5.399   6.158
 2350SOL    HW2 7950   6.268   5.293   6.268
 2351SOL     OW 7951   3.201   4.879   4.326
 2351SOL    HW1 7952   3.110   4.864   4.365
 2351SOL    HW2 7953   3.257   4.930   4.392
 2352SOL     OW 7954   0.156   3.586   2.682
 2352SOL    HW1 7955   0.086   3.612   2.616
 2352SOL    HW2 7956   0.233   3.649   2.675
 2353SOL     OW 7957   3.333   5.033   4.535
 2353SOL    HW1 7958   3.414   5.091   4.529
 2353SOL    HW2 7959   3.327   4.992   4.626
 2354SOL     OW 7960   2.334   2.088   4.555
 2354SOL    HW1 7961   2.261   2.056   4.495
 2354SOL    HW2 7962   2.313   2.061   4.649
 2355SOL     OW 7963   1.810   6.775   5.706
 2355SOL    HW1 7964   1.896   6.727   5.691
 2355SOL    HW2 7965   1.755   6.723   5.772
 2356SOL     OW 7966   1.183   3.069   6.180
 2356SOL    HW1 7967   1.278   3.041   6.176
 2356SOL    HW2 7968   1.127   2.994   6.216
 2357SOL     OW 7969   4.530   0.360   2.452
 2357SOL    HW1 7970   4.523   0.395   2.545
 2357SOL    HW2 7971   4.570   0.430   2.393
 2358SOL     OW 7972   3.254   5.441   5.522
 2358SOL    HW1 7973   3.353   5.451   5.529
 2358SOL    HW2 7974   3.211   5.476   5.605
 2359SOL     OW 7975   6.715   1.149   5.451
 2359SOL    HW1 7976   6.625   1.112   5.475
 2359SOL    HW2 7977   6.759   1.186   5.533
 2360SOL     OW 7978   5.712   3.233   6.714
 2360SOL    HW1 7979   5.808   3.260   6.705
 2360SOL    HW2 7980   5.677   3.203   6.625
 2361SOL     OW 7981   2.065   0.590   6.483
 2361SOL    HW1 7982   1.995   0.659   6.502
 2361SOL    HW2 7983   2.125   0.623   6.410
 2362SOL     OW 7984   2.543   5.826   3.730
 2362SOL    HW1 7985   2.444   5.812   3.741
 2362SOL    HW2 7986   2.573   5.782   3.645
 2363SOL     OW 7987   4.519   2.072   4.682
 2363SOL    HW1 7988   4.566   1.985   4.668
 2363SOL    HW2 7989   4.582   2.138   4.722
 2364SOL     OW 7990   1.057   2.677   2.288
 2364SOL    HW1 7991   1.051   2.737   2.208
 2364SOL    HW2 7992   0.965   2.650   2.317
 2365SOL     OW 7993   6.555   2.472   6.931
 2365SOL    HW1 7994   6.534   2.531   7.008
 2365SOL    HW2 7995   6.495   2.494   6.854
 2366SOL     OW 7996   2.198   5.469   6.620
 2366SOL    HW1 7997   2.143   5.543   6.660
 2366SOL    HW2 7998   2.184   5.466   6.521
 2367SOL     OW 7999   2.394   3.962   1.081
 2367SOL    HW1 8000   2.391   3.895   1.156
 2367SOL    HW2 8001   2.369   3.917   0.995
 2368SOL     OW 8002   4.523   6.488   4.473
 2368SOL    HW1 8003   4.533   6.444   4.384
 2368SOL    HW2 8004   4.610   6.531   4.499
 2369SOL     OW 8005   2.236   0.985   4.686
 2369SOL    HW1 8006   2.168   1.016   4.753
 2369SOL    HW2 8007   2.276   0.899   4.717
 2370SOL     OW 8008   5.105   3.060   0.215
 2370SOL    HW1 8009   5.180   3.009   0.172
 2370SOL    HW2 8010   5.021   3.007   0.209
 2371SOL     OW 8011   1.269   6.963   1.535
 2371SOL    HW1 8012   1.323   0.024   1.537
 2371SOL    HW2 8013   1.313   6.894   1.592
 2372SOL     OW 8014   0.073   2.906   1.838
 2372SOL    HW1 8015   7.017   2.874   1.889
 2372SOL    HW2 8016   0.121   2.828   1.797
 2373SOL     OW 8017   0.958   2.840   5.935
 2373SOL    HW1 8018   0.897   2.826   6.013
 2373SOL    HW2 8019   1.042   2.787   5.948
 2374SOL     OW 8020   6.152   1.598   4.004
 2374SOL    HW1 8021   6.164   1.698   4.008
 2374SOL    HW2 8022   6.056   1.577   3.986
 2375SOL     OW 8023   3.089   6.268   4.673
 2375SOL    HW1 8024   3.068   6.170   4.677
 2375SOL    HW2 8025   3.113   6.301   4.764
 2376SOL     OW 8026   6.286   2.882   4.329
 2376SOL    HW1 8027   6.213   2.943   4.299
 2376SOL    HW2 8028   6.353   2.933   4.383
 2377SOL     OW 8029   3.735   3.708   3.637
 2377SOL    HW1 8030   3.826   3.748   3.646
 2377SOL    HW2 8031   3.668   3.766   3.685
 2378SOL     OW 8032   4.820   1.354   0.945
 2378SOL    HW1 8033   4.760   1.307   1.010
 2378SOL    HW2 8034   4.789   1.334   0.852
 2379SOL     OW 8035   0.080   1.419   0.414
 2379SOL    HW1 8036   0.067   1.514   0.385
 2379SOL    HW2 8037   0.144   1.416   0.490
 2380SOL     OW 8038   0.391   1.862   6.476
 2380SOL    HW1 8039   0.362   1.903   6.562
 2380SOL    HW2 8040   0.342   1.776   6.462
 2381SOL     OW 8041   1.817   5.002   4.666
 2381SOL    HW1 8042   1.819   5.071   4.738
 2381SOL    HW2 8043   1.911   4.971   4.646
 2382SOL     OW 8044   2.136   3.855   4.538
 2382SOL    HW1 8045   2.146   3.940   4.485
 2382SOL    HW2 8046   2.172   3.869   4.630
 2383SOL     OW 8047   4.971   6.528   0.371
 2383SOL    HW1 8048   5.047   6.462   0.373
 2383SOL    HW2 8049   5.005   6.618   0.344
 2384SOL     OW 8050   5.728   1.017   2.797
 2384SOL    HW1 8051   5.730   1.051   2.891
 2384SOL    HW2 8052   5.707   0.919   2.797
 2385SOL     OW 8053   1.205   6.978   0.469
 2385SOL    HW1 8054   1.298   6.980   0.506
 2385SOL    HW2 8055   1.177   0.048   0.447
 2386SOL     OW 8056   6.159   5.826   4.177
 2386SOL    HW1 8057   6.114   5.913   4.198
 2386SOL    HW2 8058   6.140   5.801   4.082
 2387SOL     OW 8059   1.294   1.981   4.027
 2387SOL    HW1 8060   1.355   1.997   3.949
 2387SOL    HW2 8061   1.202   1.960   3.994
 2388SOL     OW 8062   0.463   1.986   3.728
 2388SOL    HW1 8063   0.383   1.969   3.785
 2388SOL    HW2 8064   0.443   2.062   3.665
 2389SOL     OW 8065   4.759   4.265   2.479
 2389SOL    HW1 8066   4.791   4.360   2.481
 2389SOL    HW2 8067   4.797   4.216   2.557
 2390SOL     OW 8068   3.554   2.861   3.477
 2390SOL    HW1 8069   3.652   2.847   3.461
 2390SOL    HW2 8070   3.537   2.867   3.575
 2391SOL     OW 8071   5.349   4.074   5.484
 2391SOL    HW1 8072   5.436   4.114   5.513
 2391SOL    HW2 8073   5.275   4.140   5.499
 2392SOL     OW 8074   3.853   6.350   5.097
 2392SOL    HW1 8075   3.799   6.382   5.175
 2392SOL    HW2 8076   3.808   6.270   5.056
 2393SOL     OW 8077   5.014   4.009   5.997
 2393SOL    HW1 8078   5.097   4.065   5.988
 2393SOL    HW2 8079   5.011   3.942   5.922
 2394SOL     OW 8080   0.949   4.199   4.659
 2394SOL    HW1 8081   0.996   4.155   4.583
 2394SOL    HW2 8082   0.937   4.296   4.639
 2395SOL     OW 8083   4.708   1.425   5.735
 2395SOL    HW1 8084   4.799   1.389   5.714
 2395SOL    HW2 8085   4.705   1.453   5.831
 2396SOL     OW 8086   3.688   5.045   1.165
 2396SOL    HW1 8087   3.768   5.061   1.222
 2396SOL    HW2 8088   3.612   5.012   1.222
 2397SOL     OW 8089   0.027   3.621   5.935
 2397SOL    HW1 8090   0.096   3.549   5.937
 2397SOL    HW2 8091   7.015   3.630   5.842
 2398SOL     OW 8092   3.847   4.234   6.840
 2398SOL    HW1 8093   3.835   4.140   6.871
 2398SOL    HW2 8094   3.897   4.285   6.910
 2399SOL     OW 8095   4.215   1.061   1.623
 2399SOL    HW1 8096   4.221   1.031   1.719
 2399SOL    HW2 8097   4.159   0.996   1.572
 2400SOL     OW 8098   2.781   4.264   0.906
 2400SOL    HW1 8099   2.703   4.202   0.921
 2400SOL    HW2 8100   2.857   4.212   0.866
 2401SOL     OW 8101   5.428   6.149   6.603
 2401SOL    HW1 8102   5.511   6.185   6.645
 2401SOL    HW2 8103   5.433   6.159   6.504
 2402SOL     OW 8104   0.558   0.865   3.421
 2402SOL    HW1 8105   0.481   0.863   3.485
 2402SOL    HW2 8106   0.559   0.953   3.374
 2403SOL     OW 8107   2.201   2.255   6.621
 2403SOL    HW1 8108   2.123   2.194   6.609
 2403SOL    HW2 8109   2.286   2.203   6.615
 2404SOL     OW 8110   2.863   0.744   1.115
 2404SOL    HW1 8111   2.823   0.732   1.025
 2404SOL    HW2 8112   2.962   0.752   1.107
 2405SOL     OW 8113   3.730   3.594   2.450
 2405SOL    HW1 8114   3.822   3.624   2.426
 2405SOL    HW2 8115   3.692   3.655   2.520
 2406SOL     OW 8116   2.796   0.194   2.139
 2406SOL    HW1 8117   2.810   0.204   2.041
 2406SOL    HW2 8118   2.698   0.192   2.159
 2407SOL     OW 8119   5.799   1.645   2.891
 2407SOL    HW1 8120   5.820   1.592   2.973
 2407SOL    HW2 8121   5.701   1.638   2.871
 2408SOL     OW 8122   4.723   4.225   3.491
 2408SOL    HW1 8123   4.785   4.238   3.568
 2408SOL    HW2 8124   4.645   4.287   3.499
 2409SOL     OW 8125   2.361   4.920   1.503
 2409SOL    HW1 8126   2.370   4.998   1.564
 2409SOL    HW2 8127   2.342   4.838   1.558
 2410SOL     OW 8128   3.888   3.421   5.105
 2410SOL    HW1 8129   3.977   3.404   5.063
 2410SOL    HW2 8130   3.816   3.410   5.035
 2411SOL     OW 8131   4.806   5.749   4.605
 2411SOL    HW1 8132   4.753   5.668   4.632
 2411SOL    HW2 8133   4.872   5.723   4.534
 2412SOL     OW 8134   5.486   4.366   1.029
 2412SOL    HW1 8135   5.483   4.316   1.115
 2412SOL    HW2 8136   5.569   4.423   1.026
 2413SOL     OW 8137   6.353   0.906   0.768
 2413SOL    HW1 8138   6.292   0.876   0.842
 2413SOL    HW2 8139   6.422   0.835   0.752
 2414SOL     OW 8140   4.806   4.359   2.832
 2414SOL    HW1 8141   4.834   4.282   2.775
 2414SOL    HW2 8142   4.852   4.442   2.801
 2415SOL     OW 8143   6.426   1.171   3.122
 2415SOL    HW1 8144   6.459   1.126   3.205
 2415SOL    HW2 8145   6.371   1.107   3.069
 2416SOL     OW 8146   5.106   2.569   4.934
 2416SOL    HW1 8147   5.078   2.496   4.996
 2416SOL    HW2 8148   5.033   2.587   4.868
 2417SOL     OW 8149   3.861   3.560   4.652
 2417SOL    HW1 8150   3.859   3.538   4.554
 2417SOL    HW2 8151   3.938   3.621   4.671
 2418SOL     OW 8152   3.862   2.970   4.973
 2418SOL    HW1 8153   3.928   2.899   4.947
 2418SOL    HW2 8154   3.896   3.019   5.053
 2419SOL     OW 8155   6.763   0.263   4.064
 2419SOL    HW1 8156   6.817   0.287   4.144
 2419SOL    HW2 8157   6.705   0.184   4.085
 2420SOL     OW 8158   3.430   0.687   3.042
 2420SOL    HW1 8159   3.341   0.641   3.044
 2420SOL    HW2 8160   3.424   0.775   3.089
 2421SOL     OW 8161   2.070   2.637   5.209
 2421SOL    HW1 8162   2.104   2.731   5.220
 2421SOL    HW2 8163   2.103   2.600   5.122
 2422SOL     OW 8164   5.428   1.409   1.077
 2422SOL    HW1 8165   5.525   1.429   1.090
 2422SOL    HW2 8166   5.417   1.337   1.009
 2423SOL     OW 8167   1.676   6.029   2.658
 2423SOL    HW1 8168   1.672   5.962   2.584
 2423SOL    HW2 8169   1.738   6.104   2.632
 2424SOL     OW 8170   6.317   6.809   6.298
 2424SOL    HW1 8171   6.254   6.732   6.286
 2424SOL    HW2 8172   6.295   6.857   6.383
 2425SOL     OW 8173   5.878   0.375   4.250
 2425SOL    HW1 8174   5.932   0.455   4.225
 2425SOL    HW2 8175   5.812   0.401   4.321
 2426SOL     OW 8176   1.655   5.977   5.192
 2426SOL    HW1 8177   1.688   5.966   5.286
 2426SOL    HW2 8178   1.665   5.891   5.143
 2427SOL     OW 8179   5.387   6.236   5.359
 2427SOL    HW1 8180   5.418   6.296   5.433
 2427SOL    HW2 8181   5.342   6.155   5.399
 2428SOL     OW 8182   0.139   0.348   2.431
 2428SOL    HW1 8183   0.213   0.326   2.368
 2428SOL    HW2 8184   0.055   0.367   2.379
 2429SOL     OW 8185   5.739   5.282   2.628
 2429SOL    HW1 8186   5.677   5.287   2.707
 2429SOL    HW2 8187   5.724   5.196   2.579
 2430SOL     OW 8188   6.308   0.979   1.786
 2430SOL    HW1 8189   6.405   0.992   1.808
 2430SOL    HW2 8190   6.292   0.884   1.758
 2431SOL     OW 8191   3.959   0.328   2.088
 2431SOL    HW1 8192   3.864   0.299   2.091
 2431SOL    HW2 8193   3.995   0.317   1.995
 2432SOL     OW 8194   3.976   6.309   2.835
 2432SOL    HW1 8195   4.064   6.339   2.796
 2432SOL    HW2 8196   3.963   6.353   2.924
 2433SOL     OW 8197   3.961   1.742   0.407
 2433SOL    HW1 8198   3.896   1.814   0.384
 2433SOL    HW2 8199   4.053   1.779   0.410
 2434SOL     OW 8200   3.805   1.464   6.004
 2434SOL    HW1 8201   3.758   1.466   6.092
 2434SOL    HW2 8202   3.879   1.396   6.007
 2435SOL     OW 8203   5.126   5.447   5.275
 2435SOL    HW1 8204   5.133   5.519   5.206
 2435SOL    HW2 8205   5.148   5.485   5.365
 2436SOL     OW 8206   1.573   5.207   6.396
 2436SOL    HW1 8207   1.581   5.303   6.369
 2436SOL    HW2 8208   1.643   5.186   6.464
 2437SOL     OW 8209   5.876   6.948   6.828
 2437SOL    HW1 8210   5.860   6.945   6.729
 2437SOL    HW2 8211   5.821   6.878   6.873
 2438SOL     OW 8212   3.321   1.805   0.172
 2438SOL    HW1 8213   3.292   1.885   0.226
 2438SOL    HW2 8214   3.298   1.820   0.076
 2439SOL     OW 8215   0.825   4.485   6.450
 2439SOL    HW1 8216   0.850   4.450   6.360
 2439SOL    HW2 8217   0.780   4.413   6.503
 2440SOL     OW 8218   4.692   5.678   5.954
 2440SOL    HW1 8219   4.733   5.769   5.952
 2440SOL    HW2 8220   4.625   5.670   5.880
 2441SOL     OW 8221   6.830   2.456   6.844
 2441SOL    HW1 8222   6.852   2.509   6.925
 2441SOL    HW2 8223   6.733   2.430   6.846
 2442SOL     OW 8224   1.167   3.831   5.563
 2442SOL    HW1 8225   1.075   3.860   5.586
 2442SOL    HW2 8226   1.205   3.774   5.637
 2443SOL     OW 8227   3.311   4.877   6.269
 2443SOL    HW1 8228   3.221   4.918   6.260
 2443SOL    HW2 8229   3.353   4.908   6.354
 2444SOL     OW 8230   2.812   5.007   6.454
 2444SOL    HW1 8231   2.744   4.994   6.381
 2444SOL    HW2 8232   2.838   5.103   6.457
 2445SOL     OW 8233   0.129   1.008   1.018
 2445SOL    HW1 8234   0.203   1.007   0.951
 2445SOL    HW2 8235   0.166   1.026   1.109
 2446SOL     OW 8236   6.072   3.995   4.319
 2446SOL    HW1 8237   6.020   3.989   4.404
 2446SOL    HW2 8238   6.079   3.904   4.278
 2447SOL     OW 8239   2.023   2.360   6.831
 2447SOL    HW1 8240   2.033   2.272   6.877
 2447SOL    HW2 8241   2.060   2.354   6.738
 2448SOL     OW 8242   0.431   0.803   4.428
 2448SOL    HW1 8243   0.469   0.888   4.391
 2448SOL    HW2 8244   0.505   0.740   4.448
 2449SOL     OW 8245   0.130   3.688   0.056
 2449SOL    HW1 8246   0.209   3.693   0.118
 2449SOL    HW2 8247   0.160   3.701   6.985
 2450SOL     OW 8248   2.757   4.703   3.059
 2450SOL    HW1 8249   2.693   4.687   2.984
 2450SOL    HW2 8250   2.709   4.692   3.146
 2451SOL     OW 8251   1.899   6.534   4.073
 2451SOL    HW1 8252   1.917   6.565   3.979
 2451SOL    HW2 8253   1.980   6.548   4.129
 2452SOL     OW 8254   1.379   3.565   2.900
 2452SOL    HW1 8255   1.400   3.565   2.802
 2452SOL    HW2 8256   1.462   3.546   2.952
 2453SOL     OW 8257   6.578   4.242   0.971
 2453SOL    HW1 8258   6.533   4.161   0.934
 2453SOL    HW2 8259   6.534   4.270   1.056
 2454SOL     OW 8260   3.139   0.798   2.634
 2454SOL    HW1 8261   3.081   0.728   2.593
 2454SOL    HW2 8262   3.234   0.766   2.636
 2455SOL     OW 8263   5.255   5.363   1.082
 2455SOL    HW1 8264   5.267   5.308   1.164
 2455SOL    HW2 8265   5.331   5.428   1.074
 2456SOL     OW 8266   5.305   6.324   1.912
 2456SOL    HW1 8267   5.365   6.328   1.992
 2456SOL    HW2 8268   5.254   6.410   1.904
 2457SOL     OW 8269   5.909   0.025   0.763
 2457SOL    HW1 8270   5.944   0.094   0.826
 2457SOL    HW2 8271   5.908   6.959   0.808
 2458SOL     OW 8272   2.402   6.235   3.172
 2458SOL    HW1 8273   2.416   6.294   3.092
 2458SOL    HW2 8274   2.333   6.166   3.150
 2459SOL     OW 8275   2.420   0.286   0.317
 2459SOL    HW1 8276   2.424   0.187   0.302
 2459SOL    HW2 8277   2.349   0.326   0.259
 2460SOL     OW 8278   2.775   5.741   2.175
 2460SOL    HW1 8279   2.800   5.770   2.082
 2460SOL    HW2 8280   2.688   5.691   2.172
 2461SOL     OW 8281   5.549   0.325   2.007
 2461SOL    HW1 8282   5.578   0.252   1.945
 2461SOL    HW2 8283   5.598   0.318   2.093
 2462SOL     OW 8284   2.410   5.113   6.796
 2462SOL    HW1 8285   2.477   5.089   6.725
 2462SOL    HW2 8286   2.389   5.033   6.851
 2463SOL     OW 8287   6.471   1.841   3.513
 2463SOL    HW1 8288   6.545   1.800   3.461
 2463SOL    HW2 8289   6.462   1.938   3.488
 2464SOL     OW 8290   1.029   3.486   1.082
 2464SOL    HW1 8291   1.112   3.445   1.121
 2464SOL    HW2 8292   0.966   3.414   1.055
 2465SOL     OW 8293   0.413   5.712   2.201
 2465SOL    HW1 8294   0.420   5.790   2.264
 2465SOL    HW2 8295   0.491   5.712   2.139
 2466SOL     OW 8296   3.992   1.996   2.735
 2466SOL    HW1 8297   4.055   1.931   2.777
 2466SOL    HW2 8298   4.044   2.071   2.694
 2467SOL     OW 8299   6.998   0.803   5.843
 2467SOL    HW1 8300   6.973   0.707   5.860
 2467SOL    HW2 8301   6.920   0.850   5.801
 2468SOL     OW 8302   6.769   6.263   1.526
 2468SOL    HW1 8303   6.746   6.239   1.620
 2468SOL    HW2 8304   6.844   6.330   1.526
 2469SOL     OW 8305   2.838   3.869   5.245
 2469SOL    HW1 8306   2.851   3.838   5.150
 2469SOL    HW2 8307   2.888   3.809   5.307
 2470SOL     OW 8308   3.945   3.416   6.678
 2470SOL    HW1 8309   3.934   3.434   6.775
 2470SOL    HW2 8310   4.035   3.375   6.661
 2471SOL     OW 8311   0.355   6.327   2.976
 2471SOL    HW1 8312   0.343   6.420   3.010
 2471SOL    HW2 8313   0.408   6.273   3.041
 2472SOL     OW 8314   5.444   2.531   4.248
 2472SOL    HW1 8315   5.512   2.545   4.319
 2472SOL    HW2 8316   5.446   2.607   4.183
 2473SOL     OW 8317   0.978   5.842   4.458
 2473SOL    HW1 8318   0.943   5.881   4.374
 2473SOL    HW2 8319   0.964   5.743   4.458
 2474SOL     OW 8320   6.682   4.708   5.429
 2474SOL    HW1 8321   6.624   4.667   5.358
 2474SOL    HW2 8322   6.772   4.728   5.390
 2475SOL     OW 8323   4.383   2.538   0.581
 2475SOL    HW1 8324   4.316   2.487   0.526
 2475SOL    HW2 8325   4.472   2.494   0.574
 2476SOL     OW 8326   0.851   1.783   3.565
 2476SOL    HW1 8327   0.784   1.770   3.638
 2476SOL    HW2 8328   0.912   1.704   3.562
 2477SOL     OW 8329   5.550   5.363   1.450
 2477SOL    HW1 8330   5.598   5.292   1.500
 2477SOL    HW2 8331   5.609   5.443   1.438
 2478SOL     OW 8332   5.870   6.645   2.481
 2478SOL    HW1 8333   5.783   6.686   2.508
 2478SOL    HW2 8334   5.927   6.631   2.561
 2479SOL     OW 8335   0.488   2.156   0.780
 2479SOL    HW1 8336   0.522   2.250   0.780
 2479SOL    HW2 8337   0.400   2.152   0.828
 2480SOL     OW 8338   0.505   3.583   1.208
 2480SOL    HW1 8339   0.448   3.501   1.202
 2480SOL    HW2 8340   0.583   3.565   1.268
 2481SOL     OW 8341   4.259   5.431   2.388
 2481SOL    HW1 8342   4.348   5.387   2.381
 2481SOL    HW2 8343   4.205   5.389   2.461
 2482SOL     OW 8344   5.226   2.874   4.857
 2482SOL    HW1 8345   5.159   2.820   4.806
 2482SOL    HW2 8346   5.219   2.852   4.954
 2483SOL     OW 8347   1.029   1.314   6.933
 2483SOL    HW1 8348   0.951   1.305   6.872
 2483SOL    HW2 8349   1.041   1.410   6.959
 2484SOL     OW 8350   3.287   1.290   0.564
 2484SOL    HW1 8351   3.348   1.247   0.497
 2484SOL    HW2 8352   3.314   1.385   0.577
 2485SOL     OW 8353   0.586   5.448   2.475
 2485SOL    HW1 8354   0.647   5.527   2.467
 2485SOL    HW2 8355   0.531   5.456   2.558
 2486SOL     OW 8356   1.665   5.922   2.924
 2486SOL    HW1 8357   1.631   5.993   2.986
 2486SOL    HW2 8358   1.649   5.950   2.829
 2487SOL     OW 8359   4.044   0.142   1.014
 2487SOL    HW1 8360   4.075   0.106   0.926
 2487SOL    HW2 8361   4.064   0.075   1.086
 2488SOL     OW 8362   2.593   5.292   1.357
 2488SOL    HW1 8363   2.591   5.236   1.275
 2488SOL    HW2 8364   2.668   5.263   1.416
 2489SOL     OW 8365   1.713   5.500   4.819
 2489SOL    HW1 8366   1.792   5.448   4.851
 2489SOL    HW2 8367   1.697   5.481   4.723
 2490SOL     OW 8368   5.905   3.841   0.989
 2490SOL    HW1 8369   5.828   3.884   0.940
 2490SOL    HW2 8370   5.965   3.795   0.923
 2491SOL     OW 8371   2.755   5.337   3.153
 2491SOL    HW1 8372   2.795   5.331   3.245
 2491SOL    HW2 8373   2.766   5.249   3.106
 2492SOL     OW 8374   5.186   3.438   6.486
 2492SOL    HW1 8375   5.188   3.430   6.585
 2492SOL    HW2 8376   5.176   3.534   6.460
 2493SOL     OW 8377   5.829   1.875   3.071
 2493SOL    HW1 8378   5.810   1.802   3.006
 2493SOL    HW2 8379   5.874   1.951   3.024
 2494SOL     OW 8380   4.812   2.993   2.368
 2494SOL    HW1 8381   4.798   3.013   2.465
 2494SOL    HW2 8382   4.815   3.079   2.317
 2495SOL     OW 8383   5.431   1.270   4.949
 2495SOL    HW1 8384   5.487   1.192   4.978
 2495SOL    HW2 8385   5.362   1.290   5.018
 2496SOL     OW 8386   0.981   6.191   6.900
 2496SOL    HW1 8387   0.984   6.240   6.812
 2496SOL    HW2 8388   0.964   6.257   6.973
 2497SOL     OW 8389   6.834   1.514   6.624
 2497SOL    HW1 8390   6.796   1.607   6.617
 2497SOL    HW2 8391   6.890   1.507   6.706
 2498SOL     OW 8392   1.909   3.095   4.826
 2498SOL    HW1 8393   2.006   3.115   4.832
 2498SOL    HW2 8394   1.892   3.002   4.858
 2499SOL     OW 8395   5.510   0.557   4.580
 2499SOL    HW1 8396   5.527   0.520   4.671
 2499SOL    HW2 8397   5.509   0.657   4.584
 2500SOL     OW 8398   4.907   2.825   6.535
 2500SOL    HW1 8399   4.860   2.738   6.552
 2500SOL    HW2 8400   4.931   2.867   6.622
 2501SOL     OW 8401   6.648   4.566   7.004
 2501SOL    HW1 8402   6.577   4.500   0.005
 2501SOL    HW2 8403   6.687   4.604   0.065
 2502SOL     OW 8404   2.882   6.921   2.829
 2502SOL    HW1 8405   2.863   7.009   2.871
 2502SOL    HW2 8406   2.805   6.896   2.769
 2503SOL     OW 8407   4.184   4.946   5.573
 2503SOL    HW1 8408   4.156   4.852   5.552
 2503SOL    HW2 8409   4.281   4.957   5.552
 2504SOL     OW 8410   1.536   4.836   4.299
 2504SOL    HW1 8411   1.486   4.754   4.270
 2504SOL    HW2 8412   1.574   4.821   4.390
 2505SOL     OW 8413   4.662   5.191   4.275
 2505SOL    HW1 8414   4.608   5.261   4.229
 2505SOL    HW2 8415   4.638   5.190   4.372
 2506SOL     OW 8416   6.901   2.584   6.366
 2506SOL    HW1 8417   6.879   2.490   6.394
 2506SOL    HW2 8418   6.946   2.583   6.277
 2507SOL     OW 8419   6.865   5.936   0.381
 2507SOL    HW1 8420   6.916   5.890   0.454
 2507SOL    HW2 8421   6.768   5.937   0.405
 2508SOL     OW 8422   2.637   2.080   2.260
 2508SOL    HW1 8423   2.641   1.991   2.305
 2508SOL    HW2 8424   2.711   2.138   2.294
 2509SOL     OW 8425   4.844   3.136   3.918
 2509SOL    HW1 8426   4.856   3.235   3.908
 2509SOL    HW2 8427   4.832   3.114   4.015
 2510SOL     OW 8428   3.893   5.533   0.802
 2510SOL    HW1 8429   3.937   5.545   0.713
 2510SOL    HW2 8430   3.962   5.508   0.870
 2511SOL     OW 8431   0.807   0.636   4.943
 2511SOL    HW1 8432   0.783   0.696   5.020
 2511SOL    HW2 8433   0.904   0.615   4.947
 2512SOL     OW 8434   5.154   3.700   4.734
 2512SOL    HW1 8435   5.186   3.682   4.642
 2512SOL    HW2 8436   5.211   3.771   4.776
 2513SOL     OW 8437   0.922   2.870   0.159
 2513SOL    HW1 8438   0.983   2.799   0.123
 2513SOL    HW2 8439   0.976   2.943   0.201
 2514SOL     OW 8440   1.444   0.778   3.684
 2514SOL    HW1 8441   1.448   0.872   3.719
 2514SOL    HW2 8442   1.536   0.741   3.680
 2515SOL     OW 8443   0.775   5.462   0.649
 2515SOL    HW1 8444   0.723   5.532   0.600
 2515SOL    HW2 8445   0.785   5.488   0.745
 2516SOL     OW 8446   5.395   6.573   3.554
 2516SOL    HW1 8447   5.363   6.485   3.520
 2516SOL    HW2 8448   5.494   6.581   3.539
 2517SOL     OW 8449   2.107   4.695   0.259
 2517SOL    HW1 8450   2.033   4.640   0.297
 2517SOL    HW2 8451   2.069   4.780   0.223
 2518SOL     OW 8452   2.733   2.548   6.826
 2518SOL    HW1 8453   2.767   2.538   6.733
 2518SOL    HW2 8454   2.634   2.563   6.825
 2519SOL     OW 8455   4.766   4.692   4.719
 2519SOL    HW1 8456   4.826   4.614   4.700
 2519SOL    HW2 8457   4.689   4.661   4.775
 2520SOL     OW 8458   2.319   4.196   1.826
 2520SOL    HW1 8459   2.411   4.180   1.791
 2520SOL    HW2 8460   2.265   4.245   1.757
 2521SOL     OW 8461   5.721   0.047   5.395
 2521SOL    HW1 8462   5.712   0.022   5.299
 2521SOL    HW2 8463   5.810   0.090   5.411
 2522SOL     OW 8464   0.715   3.326   4.332
 2522SOL    HW1 8465   0.758   3.261   4.395
 2522SOL    HW2 8466   0.735   3.419   4.361
 2523SOL     OW 8467   1.003   3.711   0.019
 2523SOL    HW1 8468   1.006   3.617   0.053
 2523SOL    HW2 8469   0.923   3.757   0.057
 2524SOL     OW 8470   1.650   6.724   4.066
 2524SOL    HW1 8471   1.737   6.683   4.095
 2524SOL    HW2 8472   1.578   6.696   4.130
 2525SOL     OW 8473   1.277   3.662   3.694
 2525SOL    HW1 8474   1.347   3.600   3.658
 2525SOL    HW2 8475   1.265   3.645   3.792
 2526SOL     OW 8476   6.736   1.729   4.640
 2526SOL    HW1 8477   6.690   1.640   4.644
 2526SOL    HW2 8478   6.748   1.764   4.733
 2527SOL     OW 8479   5.542   6.477   3.866
 2527SOL    HW1 8480   5.555   6.406   3.797
 2527SOL    HW2 8481   5.451   6.517   3.856
 2528SOL     OW 8482   6.638   5.708   7.016
 2528SOL    HW1 8483   6.724   5.759   7.004
 2528SOL    HW2 8484   6.649   5.642   0.068
 2529SOL     OW 8485   4.963   4.288   4.254
 2529SOL    HW1 8486   4.906   4.297   4.172
 2529SOL    HW2 8487   5.048   4.339   4.241
 2530SOL     OW 8488   0.927   0.842   3.900
 2530SOL    HW1 8489   0.842   0.867   3.854
 2530SOL    HW2 8490   1.000   0.830   3.832
 2531SOL     OW 8491   3.871   1.602   6.789
 2531SOL    HW1 8492   3.848   1.610   6.886
 2531SOL    HW2 8493   3.963   1.638   6.774
 2532SOL     OW 8494   1.105   4.804   6.774
 2532SOL    HW1 8495   1.100   4.711   6.739
 2532SOL    HW2 8496   1.049   4.812   6.857
 2533SOL     OW 8497   5.742   6.901   5.997
 2533SOL    HW1 8498   5.826   6.880   6.046
 2533SOL    HW2 8499   5.688   6.967   6.049
 2534SOL     OW 8500   1.095   1.208   3.358
 2534SOL    HW1 8501   1.166   1.184   3.291
 2534SOL    HW2 8502   1.080   1.131   3.420
 2535SOL     OW 8503   2.416   1.385   3.877
 2535SOL    HW1 8504   2.430   1.465   3.819
 2535SOL    HW2 8505   2.319   1.362   3.879
 2536SOL     OW 8506   5.734   1.074   3.779
 2536SOL    HW1 8507   5.765   0.983   3.808
 2536SOL    HW2 8508   5.636   1.083   3.794
 2537SOL     OW 8509   5.105   5.559   1.522
 2537SOL    HW1 8510   5.188   5.511   1.552
 2537SOL    HW2 8511   5.127   5.656   1.506
 2538SOL     OW 8512   2.213   4.544   4.350
 2538SOL    HW1 8513   2.158   4.625   4.373
 2538SOL    HW2 8514   2.237   4.547   4.253
 2539SOL     OW 8515   4.149   6.899   5.527
 2539SOL    HW1 8516   4.198   6.920   5.612
 2539SOL    HW2 8517   4.063   6.950   5.525
 2540SOL     OW 8518   5.741   1.532   2.185
 2540SOL    HW1 8519   5.793   1.551   2.268
 2540SOL    HW2 8520   5.684   1.611   2.162
 2541SOL     OW 8521   1.239   6.393   6.399
 2541SOL    HW1 8522   1.226   6.311   6.455
 2541SOL    HW2 8523   1.283   6.369   6.313
 2542SOL     OW 8524   3.199   2.049   4.653
 2542SOL    HW1 8525   3.256   2.034   4.573
 2542SOL    HW2 8526   3.253   2.037   4.736
 2543SOL     OW 8527   0.625   1.471   3.698
 2543SOL    HW1 8528   0.609   1.570   3.707
 2543SOL    HW2 8529   0.565   1.422   3.760
 2544SOL     OW 8530   6.610   4.977   1.532
 2544SOL    HW1 8531   6.639   4.884   1.509
 2544SOL    HW2 8532   6.577   4.980   1.626
 2545SOL     OW 8533   0.522   1.815   1.290
 2545SOL    HW1 8534   0.615   1.851   1.279
 2545SOL    HW2 8535   0.458   1.891   1.302
 2546SOL     OW 8536   6.929   3.911   2.065
 2546SOL    HW1 8537   6.867   3.974   2.018
 2546SOL    HW2 8538   7.023   3.927   2.035
 2547SOL     OW 8539   5.573   3.539   0.583
 2547SOL    HW1 8540   5.495   3.599   0.603
 2547SOL    HW2 8541   5.657   3.594   0.584
 2548SOL     OW 8542   7.022   6.948   5.144
 2548SOL    HW1 8543   0.070   6.947   5.074
 2548SOL    HW2 8544   0.032   6.999   5.224
 2549SOL     OW 8545   2.561   2.516   0.857
 2549SOL    HW1 8546   2.633   2.585   0.851
 2549SOL    HW2 8547   2.475   2.554   0.823
 2550SOL     OW 8548   4.484   6.937   6.276
 2550SOL    HW1 8549   4.464   6.917   6.180
 2550SOL    HW2 8550   4.461   0.010   6.295
 2551SOL     OW 8551   3.010   5.867   0.131
 2551SOL    HW1 8552   3.110   5.859   0.125
 2551SOL    HW2 8553   2.968   5.785   0.091
 2552SOL     OW 8554   1.881   6.113   0.927
 2552SOL    HW1 8555   1.867   6.091   0.831
 2552SOL    HW2 8556   1.801   6.163   0.961
 2553SOL     OW 8557   4.323   1.483   6.854
 2553SOL    HW1 8558   4.261   1.425   6.801
 2553SOL    HW2 8559   4.411   1.488   6.807
 2554SOL     OW 8560   1.532   5.823   1.540
 2554SOL    HW1 8561   1.521   5.904   1.598
 2554SOL    HW2 8562   1.474   5.832   1.459
 2555SOL     OW 8563   5.741   5.957   5.429
 2555SOL    HW1 8564   5.699   5.887   5.370
 2555SOL    HW2 8565   5.732   6.047   5.386
 2556SOL     OW 8566   4.003   6.483   1.526
 2556SOL    HW1 8567   3.927   6.475   1.461
 2556SOL    HW2 8568   3.970   6.462   1.618
 2557SOL     OW 8569   3.938   6.930   0.006
 2557SOL    HW1 8570   3.922   6.833   0.027
 2557SOL    HW2 8571   4.020   6.938   6.973
 2558SOL     OW 8572   5.959   3.995   6.183
 2558SOL    HW1 8573   5.865   4.013   6.212
 2558SOL    HW2 8574   6.016   4.075   6.203
 2559SOL     OW 8575   0.871   4.674   4.015
 2559SOL    HW1 8576   0.872   4.757   4.070
 2559SOL    HW2 8577   0.856   4.595   4.074
 2560SOL     OW 8578   4.933   2.006   3.270
 2560SOL    HW1 8579   5.012   1.952   3.242
 2560SOL    HW2 8580   4.935   2.020   3.369
 2561SOL     OW 8581   3.596   0.580   4.306
 2561SOL    HW1 8582   3.555   0.526   4.233
 2561SOL    HW2 8583   3.659   0.524   4.358
 2562SOL     OW 8584   3.276   0.069   3.448
 2562SOL    HW1 8585   3.235   7.005   3.476
 2562SOL    HW2 8586   3.204   0.134   3.424
 2563SOL     OW 8587   3.736   1.306   0.561
 2563SOL    HW1 8588   3.730   1.349   0.651
 2563SOL    HW2 8589   3.691   1.217   0.562
 2564SOL     OW 8590   1.552   1.187   0.383
 2564SOL    HW1 8591   1.647   1.193   0.352
 2564SOL    HW2 8592   1.508   1.276   0.374
 2565SOL     OW 8593   1.585   2.302   6.722
 2565SOL    HW1 8594   1.598   2.204   6.712
 2565SOL    HW2 8595   1.506   2.331   6.667
 2566SOL     OW 8596   2.623   0.724   1.263
 2566SOL    HW1 8597   2.713   0.747   1.227
 2566SOL    HW2 8598   2.632   0.652   1.332
 2567SOL     OW 8599   1.443   0.278   0.495
 2567SOL    HW1 8600   1.440   0.179   0.499
 2567SOL    HW2 8601   1.435   0.316   0.587
 2568SOL     OW 8602   2.774   6.475   1.469
 2568SOL    HW1 8603   2.685   6.429   1.463
 2568SOL    HW2 8604   2.798   6.486   1.565
 2569SOL     OW 8605   0.504   0.815   1.614
 2569SOL    HW1 8606   0.558   0.731   1.615
 2569SOL    HW2 8607   0.536   0.874   1.540
 2570SOL     OW 8608   5.508   6.440   6.374
 2570SOL    HW1 8609   5.573   6.366   6.389
 2570SOL    HW2 8610   5.476   6.438   6.280
 2571SOL     OW 8611   3.597   2.967   4.873
 2571SOL    HW1 8612   3.696   2.973   4.885
 2571SOL    HW2 8613   3.554   3.049   4.911
 2572SOL     OW 8614   2.083   6.170   1.667
 2572SOL    HW1 8615   2.089   6.153   1.568
 2572SOL    HW2 8616   2.030   6.253   1.684
 2573SOL     OW 8617   6.905   2.145   3.789
 2573SOL    HW1 8618   6.907   2.235   3.747
 2573SOL    HW2 8619   6.828   2.093   3.753
 2574SOL     OW 8620   0.771   4.034   1.517
 2574SOL    HW1 8621   0.781   4.088   1.434
 2574SOL    HW2 8622   0.840   4.063   1.584
 2575SOL     OW 8623   5.879   3.992   0.288
 2575SOL    HW1 8624   5.812   4.011   0.216
 2575SOL    HW2 8625   5.971   3.991   0.249
 2576SOL     OW 8626   2.297   6.986   3.115
 2576SOL    HW1 8627   2.221   0.021   3.087
 2576SOL    HW2 8628   2.370   6.992   3.047
 2577SOL     OW 8629   2.491   6.400   2.899
 2577SOL    HW1 8630   2.416   6.431   2.840
 2577SOL    HW2 8631   2.511   6.304   2.879
 2578SOL     OW 8632   5.270   3.070   4.413
 2578SOL    HW1 8633   5.366   3.078   4.439
 2578SOL    HW2 8634   5.252   2.976   4.381
 2579SOL     OW 8635   0.320   2.529   6.655
 2579SOL    HW1 8636   0.293   2.540   6.560
 2579SOL    HW2 8637   0.238   2.516   6.712
 2580SOL     OW 8638   1.698   2.652   6.792
 2580SOL    HW1 8639   1.696   2.561   6.834
 2580SOL    HW2 8640   1.743   2.716   6.854
 2581SOL     OW 8641   6.268   6.190   2.874
 2581SOL    HW1 8642   6.242   6.099   2.906
 2581SOL    HW2 8643   6.348   6.182   2.814
 2582SOL     OW 8644   0.886   5.265   2.249
 2582SOL    HW1 8645   0.943   5.320   2.188
 2582SOL    HW2 8646   0.930   5.257   2.338
 2583SOL     OW 8647   1.457   0.006   0.544
 2583SOL    HW1 8648   1.454   7.002   0.641
 2583SOL    HW2 8649   1.552   0.009   0.513
 2584SOL     OW 8650   3.737   6.153   0.984
 2584SOL    HW1 8651   3.783   6.075   1.027
 2584SOL    HW2 8652   3.705   6.216   1.055
 2585SOL     OW 8653   3.596   0.272   1.625
 2585SOL    HW1 8654   3.521   0.335   1.601
 2585SOL    HW2 8655   3.669   0.280   1.557
 2586SOL     OW 8656   6.336   1.939   3.815
 2586SOL    HW1 8657   6.298   1.907   3.901
 2586SOL    HW2 8658   6.402   1.872   3.780
 2587SOL     OW 8659   5.859   6.064   3.959
 2587SOL    HW1 8660   5.912   6.146   3.938
 2587SOL    HW2 8661   5.907   6.010   4.027
 2588SOL     OW 8662   5.259   0.431   1.723
 2588SOL    HW1 8663   5.330   0.469   1.663
 2588SOL    HW2 8664   5.263   0.331   1.720
 2589SOL     OW 8665   6.554   6.444   5.833
 2589SOL    HW1 8666   6.596   6.370   5.780
 2589SOL    HW2 8667   6.525   6.409   5.922
 2590SOL     OW 8668   5.025   6.699   2.896
 2590SOL    HW1 8669   4.991   6.651   2.977
 2590SOL    HW2 8670   5.115   6.739   2.916
 2591SOL     OW 8671   5.314   6.131   1.730
 2591SOL    HW1 8672   5.301   6.199   1.802
 2591SOL    HW2 8673   5.284   6.169   1.642
 2592SOL     OW 8674   3.667   5.428   2.010
 2592SOL    HW1 8675   3.568   5.417   2.018
 2592SOL    HW2 8676   3.713   5.374   2.081
 2593SOL     OW 8677   3.160   6.365   2.680
 2593SOL    HW1 8678   3.188   6.461   2.682
 2593SOL    HW2 8679   3.121   6.343   2.591
 2594SOL     OW 8680   0.530   6.973   6.466
 2594SOL    HW1 8681   0.464   0.025   6.472
 2594SOL    HW2 8682   0.535   6.926   6.554
 2595SOL     OW 8683   6.162   3.451   4.702
 2595SOL    HW1 8684   6.195   3.479   4.612
 2595SOL    HW2 8685   6.236   3.405   4.751
 2596SOL     OW 8686   3.985   2.216   1.926
 2596SOL    HW1 8687   4.021   2.252   2.012
 2596SOL    HW2 8688   3.892   2.249   1.913
 2597SOL     OW 8689   2.282   3.777   0.638
 2597SOL    HW1 8690   2.278   3.703   0.570
 2597SOL    HW2 8691   2.278   3.865   0.592
 2598SOL     OW 8692   6.641   3.132   3.264
 2598SOL    HW1 8693   6.728   3.086   3.253
 2598SOL    HW2 8694   6.633   3.168   3.357
 2599SOL     OW 8695   3.861   5.484   0.370
 2599SOL    HW1 8696   3.949   5.438   0.384
 2599SOL    HW2 8697   3.854   5.514   0.275
 2600SOL     OW 8698   5.915   3.566   3.200
 2600SOL    HW1 8699   5.816   3.579   3.194
 2600SOL    HW2 8700   5.935   3.484   3.253
 2601SOL     OW 8701   3.536   3.823   6.189
 2601SOL    HW1 8702   3.579   3.766   6.259
 2601SOL    HW2 8703   3.447   3.785   6.165
 2602SOL     OW 8704   6.655   5.299   4.028
 2602SOL    HW1 8705   6.687   5.325   4.119
 2602SOL    HW2 8706   6.572   5.244   4.036
 2603SOL     OW 8707   2.837   1.782   1.340
 2603SOL    HW1 8708   2.797   1.873   1.329
 2603SOL    HW2 8709   2.923   1.788   1.390
 2604SOL     OW 8710   5.596   0.705   1.353
 2604SOL    HW1 8711   5.528   0.667   1.290
 2604SOL    HW2 8712   5.550   0.769   1.415
 2605SOL     OW 8713   4.379   4.963   4.777
 2605SOL    HW1 8714   4.334   5.046   4.810
 2605SOL    HW2 8715   4.425   4.984   4.690
 2606SOL     OW 8716   6.490   4.483   0.267
 2606SOL    HW1 8717   6.460   4.454   0.177
 2606SOL    HW2 8718   6.575   4.535   0.259
 2607SOL     OW 8719   0.994   0.397   3.309
 2607SOL    HW1 8720   0.955   0.488   3.299
 2607SOL    HW2 8721   1.045   0.374   3.226
 2608SOL     OW 8722   4.872   0.583   1.126
 2608SOL    HW1 8723   4.959   0.581   1.175
 2608SOL    HW2 8724   4.829   0.672   1.138
 2609SOL     OW 8725   0.746   2.235   2.522
 2609SOL    HW1 8726   0.774   2.197   2.434
 2609SOL    HW2 8727   0.703   2.163   2.577
 2610SOL     OW 8728   6.203   5.750   5.000
 2610SOL    HW1 8729   6.180   5.827   5.059
 2610SOL    HW2 8730   6.288   5.771   4.950
 2611SOL     OW 8731   5.378   6.488   1.447
 2611SOL    HW1 8732   5.385   6.412   1.382
 2611SOL    HW2 8733   5.303   6.549   1.418
 2612SOL     OW 8734   5.581   6.685   3.286
 2612SOL    HW1 8735   5.642   6.631   3.228
 2612SOL    HW2 8736   5.594   6.658   3.382
 2613SOL     OW 8737   3.917   0.275   2.417
 2613SOL    HW1 8738   3.836   0.269   2.357
 2613SOL    HW2 8739   3.965   0.361   2.400
 2614SOL     OW 8740   6.352   6.468   6.252
 2614SOL    HW1 8741   6.391   6.530   6.183
 2614SOL    HW2 8742   6.262   6.502   6.278
 2615SOL     OW 8743   5.028   5.199   2.582
 2615SOL    HW1 8744   5.037   5.124   2.647
 2615SOL    HW2 8745   4.951   5.257   2.609
 2616SOL     OW 8746   3.889   3.051   3.032
 2616SOL    HW1 8747   3.933   3.078   3.118
 2616SOL    HW2 8748   3.826   3.123   3.003
 2617SOL     OW 8749   3.723   6.305   1.207
 2617SOL    HW1 8750   3.655   6.354   1.261
 2617SOL    HW2 8751   3.809   6.355   1.206
 2618SOL     OW 8752   0.080   0.537   0.882
 2618SOL    HW1 8753   0.063   0.483   0.800
 2618SOL    HW2 8754   0.003   0.526   0.946
 2619SOL     OW 8755   4.480   2.165   2.229
 2619SOL    HW1 8756   4.439   2.156   2.138
 2619SOL    HW2 8757   4.580   2.169   2.220
 2620SOL     OW 8758   0.765   5.336   3.740
 2620SOL    HW1 8759   0.863   5.354   3.731
 2620SOL    HW2 8760   0.750   5.238   3.756
 2621SOL     OW 8761   0.758   5.546   3.543
 2621SOL    HW1 8762   0.676   5.514   3.496
 2621SOL    HW2 8763   0.783   5.480   3.615
 2622SOL     OW 8764   2.819   2.710   0.034
 2622SOL    HW1 8765   2.885   2.776   7.021
 2622SOL    HW2 8766   2.809   2.634   6.994
 2623SOL     OW 8767   3.594   1.230   5.459
 2623SOL    HW1 8768   3.665   1.168   5.494
 2623SOL    HW2 8769   3.632   1.284   5.383
 2624SOL     OW 8770   5.710   2.640   3.293
 2624SOL    HW1 8771   5.790   2.592   3.257
 2624SOL    HW2 8772   5.676   2.591   3.373
 2625SOL     OW 8773   2.831   2.405   5.532
 2625SOL    HW1 8774   2.912   2.435   5.483
 2625SOL    HW2 8775   2.761   2.476   5.529
 2626SOL     OW 8776   2.125   6.332   3.177
 2626SOL    HW1 8777   2.131   6.296   3.084
 2626SOL    HW2 8778   2.202   6.394   3.194
 2627SOL     OW 8779   0.289   0.202   4.779
 2627SOL    HW1 8780   0.344   0.138   4.726
 2627SOL    HW2 8781   0.274   0.285   4.726
 2628SOL     OW 8782   3.987   6.445   6.985
 2628SOL    HW1 8783   3.887   6.439   6.983
 2628SOL    HW2 8784   4.023   6.379   0.028
 2629SOL     OW 8785   3.890   4.188   1.469
 2629SOL    HW1 8786   3.946   4.123   1.417
 2629SOL    HW2 8787   3.848   4.253   1.406
 2630SOL     OW 8788   3.484   1.614   2.311
 2630SOL    HW1 8789   3.445   1.700   2.278
 2630SOL    HW2 8790   3.584   1.621   2.314
 2631SOL     OW 8791   4.650   6.663   4.037
 2631SOL    HW1 8792   4.653   6.695   4.132
 2631SOL    HW2 8793   4.560   6.679   3.999
 2632SOL     OW 8794   3.600   1.599   7.021
 2632SOL    HW1 8795   3.603   1.695   0.026
 2632SOL    HW2 8796   3.523   1.586   6.958
 2633SOL     OW 8797   6.011   2.551   6.786
 2633SOL    HW1 8798   5.917   2.516   6.787
 2633SOL    HW2 8799   6.053   2.536   6.875
 2634SOL     OW 8800   1.776   3.968   1.464
 2634SOL    HW1 8801   1.807   3.894   1.524
 2634SOL    HW2 8802   1.817   4.054   1.492
 2635SOL     OW 8803   5.573   4.843   4.494
 2635SOL    HW1 8804   5.591   4.757   4.543
 2635SOL    HW2 8805   5.606   4.835   4.400
 2636SOL     OW 8806   5.135   0.396   5.688
 2636SOL    HW1 8807   5.231   0.414   5.711
 2636SOL    HW2 8808   5.118   0.298   5.692
 2637SOL     OW 8809   5.356   6.302   3.327
 2637SOL    HW1 8810   5.274   6.357   3.315
 2637SOL    HW2 8811   5.337   6.225   3.388
 2638SOL     OW 8812   5.480   6.167   0.950
 2638SOL    HW1 8813   5.491   6.094   1.018
 2638SOL    HW2 8814   5.475   6.255   0.997
 2639SOL     OW 8815   6.023   6.503   1.196
 2639SOL    HW1 8816   6.060   6.539   1.282
 2639SOL    HW2 8817   5.959   6.428   1.216
 2640SOL     OW 8818   6.978   6.273   5.480
 2640SOL    HW1 8819   6.915   6.303   5.409
 2640SOL    HW2 8820   0.044   6.251   5.439
 2641SOL     OW 8821   5.169   4.186   6.182
 2641SOL    HW1 8822   5.246   4.197   6.246
 2641SOL    HW2 8823   5.083   4.188   6.233
 2642SOL     OW 8824   5.012   0.317   4.052
 2642SOL    HW1 8825   4.930   0.277   4.012
 2642SOL    HW2 8826   5.028   0.407   4.012
 2643SOL     OW 8827   0.160   6.776   3.129
 2643SOL    HW1 8828   0.134   6.680   3.140
 2643SOL    HW2 8829   0.084   6.834   3.158
 2644SOL     OW 8830   0.571   4.973   5.658
 2644SOL    HW1 8831   0.631   4.910   5.608
 2644SOL    HW2 8832   0.542   4.930   5.743
 2645SOL     OW 8833   5.339   6.204   5.965
 2645SOL    HW1 8834   5.439   6.208   5.967
 2645SOL    HW2 8835   5.302   6.238   6.052
 2646SOL     OW 8836   0.007   6.914   6.354
 2646SOL    HW1 8837   6.934   6.921   6.381
 2646SOL    HW2 8838   0.029   6.819   6.333
 2647SOL     OW 8839   4.236   1.821   1.171
 2647SOL    HW1 8840   4.246   1.920   1.168
 2647SOL    HW2 8841   4.164   1.792   1.108
 2648SOL     OW 8842   5.894   0.085   2.280
 2648SOL    HW1 8843   5.918   7.012   2.267
 2648SOL    HW2 8844   5.882   0.129   2.191
 2649SOL     OW 8845   3.289   1.476   6.285
 2649SOL    HW1 8846   3.294   1.475   6.185
 2649SOL    HW2 8847   3.274   1.570   6.316
 2650SOL     OW 8848   0.578   5.431   3.383
 2650SOL    HW1 8849   0.479   5.437   3.366
 2650SOL    HW2 8850   0.606   5.336   3.389
 2651SOL     OW 8851   0.125   1.237   1.908
 2651SOL    HW1 8852   0.139   1.159   1.969
 2651SOL    HW2 8853   0.030   1.267   1.912
 2652SOL     OW 8854   2.948   3.388   3.102
 2652SOL    HW1 8855   2.901   3.413   3.017
 2652SOL    HW2 8856   2.993   3.468   3.140
 2653SOL     OW 8857   5.619   0.132   6.186
 2653SOL    HW1 8858   5.612   0.163   6.092
 2653SOL    HW2 8859   5.670   0.199   6.240
 2654SOL     OW 8860   4.899   1.985   6.412
 2654SOL    HW1 8861   4.839   1.913   6.448
 2654SOL    HW2 8862   4.843   2.061   6.380
 2655SOL     OW 8863   4.268   6.135   4.783
 2655SOL    HW1 8864   4.348   6.181   4.744
 2655SOL    HW2 8865   4.206   6.202   4.821
 2656SOL     OW 8866   5.440   3.781   3.348
 2656SOL    HW1 8867   5.347   3.766   3.314
 2656SOL    HW2 8868   5.452   3.877   3.373
 2657SOL     OW 8869   1.911   4.568   6.828
 2657SOL    HW1 8870   1.829   4.593   6.880
 2657SOL    HW2 8871   1.978   4.526   6.890
 2658SOL     OW 8872   6.017   4.085   5.819
 2658SOL    HW1 8873   5.922   4.090   5.849
 2658SOL    HW2 8874   6.068   4.025   5.880
 2659SOL     OW 8875   0.009   2.557   4.589
 2659SOL    HW1 8876   6.978   2.596   4.664
 2659SOL    HW2 8877   6.994   2.468   4.564
 2660SOL     OW 8878   6.437   2.162   2.473
 2660SOL    HW1 8879   6.409   2.071   2.503
 2660SOL    HW2 8880   6.421   2.171   2.375
 2661SOL     OW 8881   3.747   5.796   1.295
 2661SOL    HW1 8882   3.775   5.886   1.261
 2661SOL    HW2 8883   3.667   5.807   1.355
 2662SOL     OW 8884   4.305   6.599   4.840
 2662SOL    HW1 8885   4.222   6.652   4.859
 2662SOL    HW2 8886   4.293   6.505   4.872
 2663SOL     OW 8887   2.016   5.068   2.207
 2663SOL    HW1 8888   2.067   5.144   2.245
 2663SOL    HW2 8889   1.953   5.102   2.137
 2664SOL     OW 8890   4.111   3.640   2.874
 2664SOL    HW1 8891   4.119   3.660   2.972
 2664SOL    HW2 8892   4.145   3.548   2.855
 2665SOL     OW 8893   3.708   1.405   5.261
 2665SOL    HW1 8894   3.801   1.441   5.253
 2665SOL    HW2 8895   3.650   1.446   5.191
 2666SOL     OW 8896   5.037   4.362   0.978
 2666SOL    HW1 8897   5.085   4.309   1.048
 2666SOL    HW2 8898   5.075   4.340   0.888
 2667SOL     OW 8899   2.016   6.110   4.915
 2667SOL    HW1 8900   2.018   6.188   4.978
 2667SOL    HW2 8901   2.104   6.063   4.916
 2668SOL     OW 8902   6.776   3.143   5.112
 2668SOL    HW1 8903   6.698   3.128   5.174
 2668SOL    HW2 8904   6.743   3.186   5.028
 2669SOL     OW 8905   4.430   5.549   5.502
 2669SOL    HW1 8906   4.368   5.580   5.431
 2669SOL    HW2 8907   4.519   5.529   5.462
 2670SOL     OW 8908   0.826   1.088   0.006
 2670SOL    HW1 8909   0.738   1.056   6.992
 2670SOL    HW2 8910   0.811   1.172   0.058
 2671SOL     OW 8911   2.460   4.084   6.492
 2671SOL    HW1 8912   2.367   4.048   6.490
 2671SOL    HW2 8913   2.508   4.058   6.407
 2672SOL     OW 8914   1.980   5.531   0.354
 2672SOL    HW1 8915   1.962   5.612   0.298
 2672SOL    HW2 8916   2.078   5.527   0.374
 2673SOL     OW 8917   4.168   2.297   3.297
 2673SOL    HW1 8918   4.222   2.212   3.294
 2673SOL    HW2 8919   4.071   2.275   3.289
 2674SOL     OW 8920   0.333   5.528   4.385
 2674SOL    HW1 8921   0.318   5.627   4.381
 2674SOL    HW2 8922   0.406   5.508   4.450
 2675SOL     OW 8923   0.497   4.557   5.494
 2675SOL    HW1 8924   0.498   4.466   5.453
 2675SOL    HW2 8925   0.582   4.605   5.471
 2676SOL     OW 8926   4.728   1.598   1.880
 2676SOL    HW1 8927   4.631   1.613   1.897
 2676SOL    HW2 8928   4.751   1.502   1.897
 2677SOL     OW 8929   1.856   4.629   1.313
 2677SOL    HW1 8930   1.937   4.573   1.296
 2677SOL    HW2 8931   1.789   4.577   1.365
 2678SOL     OW 8932   1.154   5.167   6.068
 2678SOL    HW1 8933   1.108   5.246   6.109
 2678SOL    HW2 8934   1.226   5.136   6.130
 2679SOL     OW 8935   3.240   5.179   0.872
 2679SOL    HW1 8936   3.177   5.109   0.836
 2679SOL    HW2 8937   3.322   5.135   0.907
 2680SOL     OW 8938   2.332   1.913   0.981
 2680SOL    HW1 8939   2.239   1.885   1.004
 2680SOL    HW2 8940   2.350   1.892   0.885
 2681SOL     OW 8941   1.067   3.314   4.240
 2681SOL    HW1 8942   1.164   3.333   4.254
 2681SOL    HW2 8943   1.025   3.290   4.328
 2682SOL     OW 8944   5.259   3.049   2.170
 2682SOL    HW1 8945   5.271   3.089   2.261
 2682SOL    HW2 8946   5.176   2.992   2.169
 2683SOL     OW 8947   0.793   5.554   0.924
 2683SOL    HW1 8948   0.729   5.504   0.983
 2683SOL    HW2 8949   0.822   5.638   0.970
 2684SOL     OW 8950   3.314   6.628   3.002
 2684SOL    HW1 8951   3.367   6.682   2.937
 2684SOL    HW2 8952   3.216   6.638   2.981
 2685SOL     OW 8953   5.022   5.841   4.795
 2685SOL    HW1 8954   4.929   5.869   4.818
 2685SOL    HW2 8955   5.021   5.747   4.760
 2686SOL     OW 8956   2.319   2.848   4.378
 2686SOL    HW1 8957   2.302   2.832   4.476
 2686SOL    HW2 8958   2.380   2.777   4.343
 2687SOL     OW 8959   3.966   5.165   2.195
 2687SOL    HW1 8960   3.930   5.228   2.263
 2687SOL    HW2 8961   3.900   5.091   2.179
 2688SOL     OW 8962   4.926   4.870   6.489
 2688SOL    HW1 8963   5.009   4.924   6.479
 2688SOL    HW2 8964   4.883   4.890   6.577
 2689SOL     OW 8965   1.097   2.475   3.375
 2689SOL    HW1 8966   1.012   2.439   3.337
 2689SOL    HW2 8967   1.140   2.407   3.434
 2690SOL     OW 8968   3.926   3.103   3.913
 2690SOL    HW1 8969   3.964   3.031   3.855
 2690SOL    HW2 8970   3.829   3.114   3.894
 2691SOL     OW 8971   1.487   5.227   2.278
 2691SOL    HW1 8972   1.579   5.221   2.316
 2691SOL    HW2 8973   1.434   5.147   2.305
 2692SOL     OW 8974   0.349   5.710   3.630
 2692SOL    HW1 8975   0.315   5.726   3.538
 2692SOL    HW2 8976   0.402   5.625   3.632
 2693SOL     OW 8977   1.624   3.543   3.670
 2693SOL    HW1 8978   1.693   3.589   3.614
 2693SOL    HW2 8979   1.562   3.492   3.610
 2694SOL     OW 8980   2.989   6.863   3.307
 2694SOL    HW1 8981   3.040   6.929   3.252
 2694SOL    HW2 8982   2.987   6.775   3.261
 2695SOL     OW 8983   5.112   2.279   2.529
 2695SOL    HW1 8984   5.022   2.323   2.523
 2695SOL    HW2 8985   5.165   2.322   2.602
 2696SOL     OW 8986   3.816   3.832   5.587
 2696SOL    HW1 8987   3.834   3.749   5.640
 2696SOL    HW2 8988   3.747   3.813   5.517
 2697SOL     OW 8989   3.895   2.211   3.788
 2697SOL    HW1 8990   3.966   2.175   3.726
 2697SOL    HW2 8991   3.822   2.252   3.734
 2698SOL     OW 8992   0.721   3.974   0.601
 2698SOL    HW1 8993   0.794   4.026   0.558
 2698SOL    HW2 8994   0.633   4.012   0.574
 2699SOL     OW 8995   3.762   5.463   1.544
 2699SOL    HW1 8996   3.783   5.385   1.602
 2699SOL    HW2 8997   3.845   5.496   1.499
 2700SOL     OW 8998   1.806   3.525   2.839
 2700SOL    HW1 8999   1.758   3.590   2.780
 2700SOL    HW2 9000   1.887   3.570   2.879
 2701SOL     OW 9001   3.477   0.192   6.325
 2701SOL    HW1 9002   3.490   0.273   6.382
 2701SOL    HW2 9003   3.499   0.110   6.377
 2702SOL     OW 9004   6.819   1.433   3.145
 2702SOL    HW1 9005   6.870   1.357   3.104
 2702SOL    HW2 9006   6.846   1.443   3.241
 2703SOL     OW 9007   2.476   1.686   2.608
 2703SOL    HW1 9008   2.573   1.672   2.628
 2703SOL    HW2 9009   2.438   1.604   2.566
 2704SOL     OW 9010   2.951   5.222   1.721
 2704SOL    HW1 9011   2.956   5.278   1.804
 2704SOL    HW2 9012   3.032   5.238   1.665
 2705SOL     OW 9013   6.113   5.879   3.714
 2705SOL    HW1 9014   6.037   5.869   3.650
 2705SOL    HW2 9015   6.115   5.973   3.749
 2706SOL     OW 9016   6.706   1.276   2.361
 2706SOL    HW1 9017   6.760   1.217   2.422
 2706SOL    HW2 9018   6.736   1.371   2.371
 2707SOL     OW 9019   1.625   2.012   6.707
 2707SOL    HW1 9020   1.650   1.917   6.686
 2707SOL    HW2 9021   1.558   2.013   6.781
 2708SOL     OW 9022   2.263   2.725   2.081
 2708SOL    HW1 9023   2.240   2.715   1.984
 2708SOL    HW2 9024   2.292   2.636   2.117
 2709SOL     OW 9025   5.268   6.067   1.269
 2709SOL    HW1 9026   5.353   6.019   1.248
 2709SOL    HW2 9027   5.190   6.010   1.244
 2710SOL     OW 9028   6.859   3.902   2.490
 2710SOL    HW1 9029   6.924   3.836   2.452
 2710SOL    HW2 9030   6.783   3.852   2.532
 2711SOL     OW 9031   0.910   0.467   1.623
 2711SOL    HW1 9032   0.926   0.529   1.700
 2711SOL    HW2 9033   0.920   0.373   1.654
 2712SOL     OW 9034   2.497   4.410   0.547
 2712SOL    HW1 9035   2.482   4.491   0.604
 2712SOL    HW2 9036   2.481   4.433   0.451
 2713SOL     OW 9037   2.137   3.381   5.232
 2713SOL    HW1 9038   2.225   3.384   5.279
 2713SOL    HW2 9039   2.133   3.456   5.165
 2714SOL     OW 9040   5.000   0.829   5.896
 2714SOL    HW1 9041   4.955   0.740   5.904
 2714SOL    HW2 9042   5.062   0.829   5.817
 2715SOL     OW 9043   5.472   1.781   0.123
 2715SOL    HW1 9044   5.472   1.879   0.105
 2715SOL    HW2 9045   5.556   1.756   0.172
 2716SOL     OW 9046   6.831   5.555   2.356
 2716SOL    HW1 9047   6.830   5.579   2.454
 2716SOL    HW2 9048   6.894   5.617   2.308
 2717SOL     OW 9049   0.825   6.662   2.511
 2717SOL    HW1 9050   0.827   6.754   2.471
 2717SOL    HW2 9051   0.751   6.609   2.470
 2718SOL     OW 9052   1.885   3.958   4.203
 2718SOL    HW1 9053   1.880   3.863   4.172
 2718SOL    HW2 9054   1.980   3.982   4.222
 2719SOL     OW 9055   4.545   5.356   2.393
 2719SOL    HW1 9056   4.518   5.339   2.298
 2719SOL    HW2 9057   4.619   5.293   2.418
 2720SOL     OW 9058   1.948   6.265   4.046
 2720SOL    HW1 9059   2.015   6.251   4.119
 2720SOL    HW2 9060   1.937   6.363   4.029
 2721SOL     OW 9061   2.865   0.056   4.676
 2721SOL    HW1 9062   2.848   0.126   4.607
 2721SOL    HW2 9063   2.898   0.099   4.760
 2722SOL     OW 9064   0.268   5.720   3.355
 2722SOL    HW1 9065   0.208   5.655   3.307
 2722SOL    HW2 9066   0.214   5.797   3.387
 2723SOL     OW 9067   1.937   1.048   5.704
 2723SOL    HW1 9068   2.036   1.059   5.714
 2723SOL    HW2 9069   1.913   1.042   5.607
 2724SOL     OW 9070   3.907   5.662   6.769
 2724SOL    HW1 9071   3.812   5.658   6.738
 2724SOL    HW2 9072   3.968   5.646   6.692
 2725SOL     OW 9073   4.314   4.606   3.055
 2725SOL    HW1 9074   4.411   4.620   3.073
 2725SOL    HW2 9075   4.296   4.621   2.958
 2726SOL     OW 9076   4.809   4.615   1.557
 2726SOL    HW1 9077   4.715   4.580   1.550
 2726SOL    HW2 9078   4.873   4.538   1.558
 2727SOL     OW 9079   0.901   4.773   2.683
 2727SOL    HW1 9080   0.844   4.692   2.671
 2727SOL    HW2 9081   0.854   4.853   2.647
 2728SOL     OW 9082   2.752   6.724   5.572
 2728SOL    HW1 9083   2.765   6.820   5.596
 2728SOL    HW2 9084   2.758   6.713   5.473
 2729SOL     OW 9085   6.422   4.793   3.115
 2729SOL    HW1 9086   6.407   4.882   3.072
 2729SOL    HW2 9087   6.509   4.755   3.083
 2730SOL     OW 9088   2.329   0.037   0.245
 2730SOL    HW1 9089   2.239   0.080   0.256
 2730SOL    HW2 9090   2.338   6.985   0.310
 2731SOL     OW 9091   2.956   3.752   1.773
 2731SOL    HW1 9092   2.932   3.840   1.814
 2731SOL    HW2 9093   3.008   3.697   1.839
 2732SOL     OW 9094   5.622   2.568   2.374
 2732SOL    HW1 9095   5.708   2.535   2.413
 2732SOL    HW2 9096   5.574   2.624   2.441
 2733SOL     OW 9097   1.131   6.748   5.344
 2733SOL    HW1 9098   1.155   6.704   5.430
 2733SOL    HW2 9099   1.081   6.832   5.362
 2734SOL     OW 9100   1.964   6.478   3.621
 2734SOL    HW1 9101   1.956   6.564   3.571
 2734SOL    HW2 9102   1.997   6.496   3.713
 2735SOL     OW 9103   1.509   4.500   2.501
 2735SOL    HW1 9104   1.457   4.558   2.437
 2735SOL    HW2 9105   1.558   4.558   2.566
 2736SOL     OW 9106   3.954   0.377   5.233
 2736SOL    HW1 9107   3.974   0.417   5.323
 2736SOL    HW2 9108   4.020   0.412   5.166
 2737SOL     OW 9109   3.956   3.559   6.056
 2737SOL    HW1 9110   4.034   3.591   6.004
 2737SOL    HW2 9111   3.924   3.631   6.117
 2738SOL     OW 9112   5.613   5.167   4.921
 2738SOL    HW1 9113   5.554   5.123   4.989
 2738SOL    HW2 9114   5.581   5.144   4.829
 2739SOL     OW 9115   5.533   3.710   0.839
 2739SOL    HW1 9116   5.607   3.775   0.852
 2739SOL    HW2 9117   5.482   3.733   0.757
 2740SOL     OW 9118   6.064   2.303   2.771
 2740SOL    HW1 9119   6.127   2.376   2.799
 2740SOL    HW2 9120   6.095   2.265   2.684
 2741SOL     OW 9121   0.090   1.901   5.591
 2741SOL    HW1 9122   0.052   1.843   5.519
 2741SOL    HW2 9123   0.016   1.941   5.645
 2742SOL     OW 9124   1.518   5.739   6.498
 2742SOL    HW1 9125   1.596   5.686   6.530
 2742SOL    HW2 9126   1.449   5.678   6.460
 2743SOL     OW 9127   5.503   4.752   1.420
 2743SOL    HW1 9128   5.459   4.675   1.467
 2743SOL    HW2 9129   5.591   4.724   1.383
 2744SOL     OW 9130   4.069   2.337   6.405
 2744SOL    HW1 9131   4.157   2.333   6.454
 2744SOL    HW2 9132   4.061   2.259   6.344
 2745SOL     OW 9133   2.225   6.278   1.115
 2745SOL    HW1 9134   2.170   6.234   1.187
 2745SOL    HW2 9135   2.179   6.269   1.027
 2746SOL     OW 9136   1.983   1.889   5.508
 2746SOL    HW1 9137   1.901   1.911   5.561
 2746SOL    HW2 9138   2.063   1.892   5.568
 2747SOL     OW 9139   5.520   6.342   4.369
 2747SOL    HW1 9140   5.592   6.318   4.304
 2747SOL    HW2 9141   5.431   6.325   4.327
 2748SOL     OW 9142   4.293   1.487   3.031
 2748SOL    HW1 9143   4.391   1.481   3.016
 2748SOL    HW2 9144   4.267   1.429   3.108
 2749SOL     OW 9145   4.549   4.369   4.169
 2749SOL    HW1 9146   4.521   4.419   4.251
 2749SOL    HW2 9147   4.476   4.307   4.141
 2750SOL     OW 9148   0.806   5.648   2.431
 2750SOL    HW1 9149   0.822   5.681   2.524
 2750SOL    HW2 9150   0.816   5.724   2.367
 2751SOL     OW 9151   2.107   6.969   6.480
 2751SOL    HW1 9152   2.142   7.008   6.565
 2751SOL    HW2 9153   2.009   6.951   6.489
 2752SOL     OW 9154   5.912   6.172   5.233
 2752SOL    HW1 9155   5.936   6.220   5.317
 2752SOL    HW2 9156   5.879   6.237   5.165
 2753SOL     OW 9157   3.903   6.018   6.553
 2753SOL    HW1 9158   3.994   5.976   6.547
 2753SOL    HW2 9159   3.888   6.075   6.472
 2754SOL     OW 9160   0.533   0.370   4.384
 2754SOL    HW1 9161   0.527   0.467   4.408
 2754SOL    HW2 9162   0.570   0.319   4.461
 2755SOL     OW 9163   3.021   6.208   2.183
 2755SOL    HW1 9164   3.106   6.192   2.234
 2755SOL    HW2 9165   2.966   6.125   2.184
 2756SOL     OW 9166   6.382   3.189   5.649
 2756SOL    HW1 9167   6.357   3.185   5.746
 2756SOL    HW2 9168   6.467   3.240   5.638
 2757SOL     OW 9169   4.445   2.574   7.018
 2757SOL    HW1 9170   4.363   2.629   7.002
 2757SOL    HW2 9171   4.503   2.620   0.063
 2758SOL     OW 9172   5.650   4.895   2.682
 2758SOL    HW1 9173   5.644   4.906   2.782
 2758SOL    HW2 9174   5.739   4.857   2.658
 2759SOL     OW 9175   3.085   4.470   6.403
 2759SOL    HW1 9176   3.175   4.469   6.361
 2759SOL    HW2 9177   3.036   4.553   6.376
 2760SOL     OW 9178   5.138   5.540   3.645
 2760SOL    HW1 9179   5.163   5.495   3.560
 2760SOL    HW2 9180   5.157   5.638   3.639
 2761SOL     OW 9181   2.136   3.509   2.589
 2761SOL    HW1 9182   2.153   3.411   2.603
 2761SOL    HW2 9183   2.139   3.556   2.677
 2762SOL     OW 9184   1.908   1.828   0.417
 2762SOL    HW1 9185   1.993   1.803   0.464
 2762SOL    HW2 9186   1.880   1.753   0.358
 2763SOL     OW 9187   4.381   1.548   5.424
 2763SOL    HW1 9188   4.388   1.643   5.393
 2763SOL    HW2 9189   4.458   1.496   5.389
 2764SOL     OW 9190   1.011   4.013   2.055
 2764SOL    HW1 9191   0.978   4.081   1.988
 2764SOL    HW2 9192   1.110   4.002   2.044
 2765SOL     OW 9193   6.118   6.753   6.892
 2765SOL    HW1 9194   6.057   6.824   6.858
 2765SOL    HW2 9195   6.193   6.740   6.827
 2766SOL     OW 9196   5.803   0.896   6.945
 2766SOL    HW1 9197   5.881   0.896   6.882
 2766SOL    HW2 9198   5.814   0.825   7.014
 2767SOL     OW 9199   6.875   4.782   6.377
 2767SOL    HW1 9200   6.789   4.733   6.367
 2767SOL    HW2 9201   6.903   4.817   6.287
 2768SOL     OW 9202   4.563   7.008   1.056
 2768SOL    HW1 9203   4.540   7.007   1.154
 2768SOL    HW2 9204   4.636   0.050   1.040
 2769SOL     OW 9205   2.065   4.504   5.724
 2769SOL    HW1 9206   2.025   4.426   5.675
 2769SOL    HW2 9207   2.042   4.589   5.677
 2770SOL     OW 9208   2.413   6.597   0.314
 2770SOL    HW1 9209   2.509   6.571   0.320
 2770SOL    HW2 9210   2.356   6.516   0.325
 2771SOL     OW 9211   4.531   0.205   4.737
 2771SOL    HW1 9212   4.432   0.191   4.739
 2771SOL    HW2 9213   4.552   0.278   4.672
 2772SOL     OW 9214   4.001   0.873   2.921
 2772SOL    HW1 9215   4.073   0.906   2.860
 2772SOL    HW2 9216   4.002   0.773   2.921
 2773SOL     OW 9217   5.806   2.632   3.872
 2773SOL    HW1 9218   5.815   2.591   3.962
 2773SOL    HW2 9219   5.876   2.703   3.860
 2774SOL     OW 9220   5.244   1.561   3.586
 2774SOL    HW1 9221   5.146   1.577   3.575
 2774SOL    HW2 9222   5.263   1.530   3.679
 2775SOL     OW 9223   0.869   4.455   4.615
 2775SOL    HW1 9224   0.848   4.542   4.570
 2775SOL    HW2 9225   0.899   4.472   4.709
 2776SOL     OW 9226   5.107   4.402   5.949
 2776SOL    HW1 9227   5.177   4.337   5.978
 2776SOL    HW2 9228   5.017   4.365   5.972
 2777SOL     OW 9229   3.052   2.494   6.347
 2777SOL    HW1 9230   2.981   2.499   6.276
 2777SOL    HW2 9231   3.142   2.501   6.305
 2778SOL     OW 9232   2.834   6.312   6.562
 2778SOL    HW1 9233   2.911   6.341   6.619
 2778SOL    HW2 9234   2.753   6.301   6.618
 2779SOL     OW 9235   6.095   6.428   2.069
 2779SOL    HW1 9236   6.110   6.502   2.004
 2779SOL    HW2 9237   6.101   6.463   2.163
 2780SOL     OW 9238   0.243   1.996   5.816
 2780SOL    HW1 9239   0.342   1.993   5.801
 2780SOL    HW2 9240   0.196   1.950   5.740
 2781SOL     OW 9241   6.555   0.149   2.601
 2781SOL    HW1 9242   6.465   0.166   2.562
 2781SOL    HW2 9243   6.599   0.073   2.553
 2782SOL     OW 9244   4.273   1.001   6.965
 2782SOL    HW1 9245   4.205   0.950   7.017
 2782SOL    HW2 9246   4.237   1.022   6.874
 2783SOL     OW 9247   5.586   3.723   1.810
 2783SOL    HW1 9248   5.685   3.737   1.810
 2783SOL    HW2 9249   5.563   3.644   1.753
 2784SOL     OW 9250   1.311   1.713   0.800
 2784SOL    HW1 9251   1.331   1.808   0.777
 2784SOL    HW2 9252   1.300   1.704   0.899
 2785SOL     OW 9253   5.466   3.008   1.622
 2785SOL    HW1 9254   5.408   2.933   1.590
 2785SOL    HW2 9255   5.517   2.979   1.702
 2786SOL     OW 9256   6.965   5.918   0.128
 2786SOL    HW1 9257   6.924   5.908   0.219
 2786SOL    HW2 9258   6.935   5.843   0.070
 2787SOL     OW 9259   6.190   4.926   6.122
 2787SOL    HW1 9260   6.208   4.974   6.208
 2787SOL    HW2 9261   6.099   4.951   6.088
 2788SOL     OW 9262   3.519   6.134   5.603
 2788SOL    HW1 9263   3.479   6.135   5.511
 2788SOL    HW2 9264   3.486   6.053   5.652
 2789SOL     OW 9265   0.886   2.518   5.110
 2789SOL    HW1 9266   0.843   2.435   5.073
 2789SOL    HW2 9267   0.986   2.507   5.108
 2790SOL     OW 9268   1.782   5.901   1.144
 2790SOL    HW1 9269   1.776   5.866   1.050
 2790SOL    HW2 9270   1.858   5.856   1.191
 2791SOL     OW 9271   0.007   3.851   3.329
 2791SOL    HW1 9272   6.954   3.808   3.376
 2791SOL    HW2 9273   0.088   3.793   3.335
 2792SOL     OW 9274   3.032   1.623   5.300
 2792SOL    HW1 9275   3.011   1.586   5.390
 2792SOL    HW2 9276   3.015   1.722   5.300
 2793SOL     OW 9277   3.545   4.296   1.373
 2793SOL    HW1 9278   3.633   4.344   1.372
 2793SOL    HW2 9279   3.476   4.356   1.413
 2794SOL     OW 9280   0.452   2.188   5.989
 2794SOL    HW1 9281   0.456   2.221   6.083
 2794SOL    HW2 9282   0.370   2.225   5.945
 2795SOL     OW 9283   1.290   4.929   1.771
 2795SOL    HW1 9284   1.333   5.012   1.806
 2795SOL    HW2 9285   1.355   4.877   1.716
 2796SOL     OW 9286   1.460   6.132   5.314
 2796SOL    HW1 9287   1.438   6.089   5.402
 2796SOL    HW2 9288   1.515   6.068   5.259
 2797SOL     OW 9289   5.600   6.958   3.656
 2797SOL    HW1 9290   5.505   6.928   3.644
 2797SOL    HW2 9291   5.635   6.923   3.742
 2798SOL     OW 9292   5.944   6.924   1.809
 2798SOL    HW1 9293   5.865   6.877   1.770
 2798SOL    HW2 9294   5.976   6.872   1.889
 2799SOL     OW 9295   3.731   6.077   5.013
 2799SOL    HW1 9296   3.633   6.094   5.021
 2799SOL    HW2 9297   3.757   6.003   5.076
 2800SOL     OW 9298   6.598   0.863   6.868
 2800SOL    HW1 9299   6.501   0.885   6.877
 2800SOL    HW2 9300   6.608   0.767   6.843
 2801SOL     OW 9301   0.667   5.014   5.230
 2801SOL    HW1 9302   0.597   4.992   5.298
 2801SOL    HW2 9303   0.646   5.102   5.187
 2802SOL     OW 9304   6.741   5.679   5.680
 2802SOL    HW1 9305   6.762   5.603   5.741
 2802SOL    HW2 9306   6.827   5.719   5.646
 2803SOL     OW 9307   3.925   3.066   6.848
 2803SOL    HW1 9308   3.955   3.031   6.760
 2803SOL    HW2 9309   4.003   3.068   6.912
 2804SOL     OW 9310   0.024   2.719   3.571
 2804SOL    HW1 9311   7.002   2.641   3.528
 2804SOL    HW2 9312   0.123   2.708   3.566
 2805SOL     OW 9313   4.111   3.338   1.134
 2805SOL    HW1 9314   4.078   3.256   1.181
 2805SOL    HW2 9315   4.137   3.314   1.040
 2806SOL     OW 9316   0.470   4.905   6.007
 2806SOL    HW1 9317   0.507   4.998   6.006
 2806SOL    HW2 9318   0.508   4.855   6.085
 2807SOL     OW 9319   3.116   0.312   3.430
 2807SOL    HW1 9320   3.079   0.341   3.342
 2807SOL    HW2 9321   3.199   0.364   3.451
 2808SOL     OW 9322   6.647   4.917   6.924
 2808SOL    HW1 9323   6.675   5.011   6.946
 2808SOL    HW2 9324   6.726   4.865   6.893
 2809SOL     OW 9325   6.649   4.953   2.168
 2809SOL    HW1 9326   6.651   4.961   2.268
 2809SOL    HW2 9327   6.559   4.981   2.133
 2810SOL     OW 9328   2.445   5.283   3.429
 2810SOL    HW1 9329   2.362   5.340   3.429
 2810SOL    HW2 9330   2.467   5.257   3.335
 2811SOL     OW 9331   0.938   0.609   1.874
 2811SOL    HW1 9332   1.012   0.673   1.895
 2811SOL    HW2 9333   0.851   0.646   1.907
 2812SOL     OW 9334   0.745   3.041   1.071
 2812SOL    HW1 9335   0.787   2.951   1.059
 2812SOL    HW2 9336   0.667   3.050   1.009
 2813SOL     OW 9337   0.827   2.144   1.663
 2813SOL    HW1 9338   0.826   2.194   1.577
 2813SOL    HW2 9339   0.880   2.060   1.653
 2814SOL     OW 9340   1.945   4.281   0.263
 2814SOL    HW1 9341   1.894   4.210   0.312
 2814SOL    HW2 9342   1.921   4.280   0.166
 2815SOL     OW 9343   0.460   5.757   5.778
 2815SOL    HW1 9344   0.449   5.659   5.789
 2815SOL    HW2 9345   0.480   5.778   5.682
 2816SOL     OW 9346   0.202   6.032   6.092
 2816SOL    HW1 9347   0.271   6.102   6.076
 2816SOL    HW2 9348   0.223   5.952   6.036
 2817SOL     OW 9349   4.416   0.704   1.977
 2817SOL    HW1 9350   4.368   0.616   1.970
 2817SOL    HW2 9351   4.408   0.738   2.071
 2818SOL     OW 9352   1.128   0.213   1.254
 2818SOL    HW1 9353   1.113   0.307   1.223
 2818SOL    HW2 9354   1.115   0.150   1.177
 2819SOL     OW 9355   0.598   0.369   0.623
 2819SOL    HW1 9356   0.540   0.450   0.625
 2819SOL    HW2 9357   0.668   0.379   0.553
 2820SOL     OW 9358   1.247   2.928   1.405
 2820SOL    HW1 9359   1.273   3.023   1.396
 2820SOL    HW2 9360   1.309   2.881   1.468
 2821SOL     OW 9361   3.020   4.184   6.696
 2821SOL    HW1 9362   3.070   4.232   6.768
 2821SOL    HW2 9363   3.084   4.128   6.643
 2822SOL     OW 9364   4.665   2.722   0.761
 2822SOL    HW1 9365   4.571   2.705   0.789
 2822SOL    HW2 9366   4.669   2.736   0.662
 2823SOL     OW 9367   5.366   2.067   1.200
 2823SOL    HW1 9368   5.457   2.108   1.208
 2823SOL    HW2 9369   5.307   2.101   1.273
 2824SOL     OW 9370   1.068   3.543   5.350
 2824SOL    HW1 9371   1.164   3.572   5.352
 2824SOL    HW2 9372   1.019   3.593   5.279
 2825SOL     OW 9373   5.389   1.696   6.387
 2825SOL    HW1 9374   5.422   1.748   6.466
 2825SOL    HW2 9375   5.321   1.629   6.417
 2826SOL     OW 9376   2.222   3.881   6.532
 2826SOL    HW1 9377   2.238   3.784   6.515
 2826SOL    HW2 9378   2.154   3.892   6.604
 2827SOL     OW 9379   6.791   0.914   6.300
 2827SOL    HW1 9380   6.746   0.976   6.235
 2827SOL    HW2 9381   6.845   0.968   6.365
 2828SOL     OW 9382   1.661   3.987   0.864
 2828SOL    HW1 9383   1.604   4.035   0.797
 2828SOL    HW2 9384   1.734   3.937   0.816
 2829SOL     OW 9385   3.989   3.874   3.375
 2829SOL    HW1 9386   4.045   3.956   3.382
 2829SOL    HW2 9387   3.988   3.826   3.463
 2830SOL     OW 9388   3.454   5.598   5.914
 2830SOL    HW1 9389   3.412   5.602   5.824
 2830SOL    HW2 9390   3.416   5.671   5.972
 2831SOL     OW 9391   6.393   1.834   2.300
 2831SOL    HW1 9392   6.448   1.785   2.232
 2831SOL    HW2 9393   6.300   1.846   2.266
 2832SOL     OW 9394   0.581   3.561   0.917
 2832SOL    HW1 9395   0.549   3.583   1.009
 2832SOL    HW2 9396   0.670   3.515   0.923
 2833SOL     OW 9397   1.616   2.295   1.704
 2833SOL    HW1 9398   1.669   2.234   1.645
 2833SOL    HW2 9399   1.575   2.242   1.779
 2834SOL     OW 9400   3.849   6.169   5.481
 2834SOL    HW1 9401   3.907   6.251   5.486
 2834SOL    HW2 9402   3.834   6.134   5.574
 2835SOL     OW 9403   0.212   6.685   0.744
 2835SOL    HW1 9404   0.229   6.728   0.655
 2835SOL    HW2 9405   0.284   6.712   0.808
 2836SOL     OW 9406   3.460   6.315   2.999
 2836SOL    HW1 9407   3.417   6.341   3.085
 2836SOL    HW2 9408   3.402   6.247   2.953
 2837SOL     OW 9409   5.373   4.282   2.242
 2837SOL    HW1 9410   5.319   4.322   2.317
 2837SOL    HW2 9411   5.317   4.216   2.192
 2838SOL     OW 9412   5.321   4.493   6.130
 2838SOL    HW1 9413   5.330   4.457   6.223
 2838SOL    HW2 9414   5.231   4.469   6.094
 2839SOL     OW 9415   5.941   2.870   4.923
 2839SOL    HW1 9416   5.940   2.946   4.988
 2839SOL    HW2 9417   5.858   2.872   4.867
 2840SOL     OW 9418   0.183   6.378   3.617
 2840SOL    HW1 9419   0.114   6.421   3.560
 2840SOL    HW2 9420   0.270   6.375   3.567
 2841SOL     OW 9421   6.031   2.799   2.030
 2841SOL    HW1 9422   6.008   2.824   2.124
 2841SOL    HW2 9423   6.130   2.786   2.021
 2842SOL     OW 9424   1.453   6.700   3.184
 2842SOL    HW1 9425   1.493   6.624   3.132
 2842SOL    HW2 9426   1.524   6.768   3.203
 2843SOL     OW 9427   2.379   2.794   3.406
 2843SOL    HW1 9428   2.383   2.777   3.505
 2843SOL    HW2 9429   2.459   2.754   3.362
 2844SOL     OW 9430   4.855   4.655   1.288
 2844SOL    HW1 9431   4.849   4.579   1.222
 2844SOL    HW2 9432   4.841   4.620   1.380
 2845SOL     OW 9433   3.646   1.933   2.981
 2845SOL    HW1 9434   3.689   1.965   2.897
 2845SOL    HW2 9435   3.636   1.834   2.978
 2846SOL     OW 9436   5.496   0.550   0.287
 2846SOL    HW1 9437   5.473   0.488   0.362
 2846SOL    HW2 9438   5.476   0.644   0.314
 2847SOL     OW 9439   5.067   4.477   2.437
 2847SOL    HW1 9440   5.051   4.380   2.421
 2847SOL    HW2 9441   5.120   4.515   2.361
 2848SOL     OW 9442   0.838   4.261   5.223
 2848SOL    HW1 9443   0.855   4.183   5.283
 2848SOL    HW2 9444   0.815   4.228   5.131
 2849SOL     OW 9445   4.842   0.619   2.493
 2849SOL    HW1 9446   4.855   0.554   2.568
 2849SOL    HW2 9447   4.747   0.650   2.492
 2850SOL     OW 9448   2.650   6.773   2.807
 2850SOL    HW1 9449   2.666   6.786   2.904
 2850SOL    HW2 9450   2.574   6.830   2.777
 2851SOL     OW 9451   3.900   3.322   0.851
 2851SOL    HW1 9452   3.906   3.334   0.951
 2851SOL    HW2 9453   3.873   3.409   0.809
 2852SOL     OW 9454   6.127   3.824   5.676
 2852SOL    HW1 9455   6.080   3.744   5.711
 2852SOL    HW2 9456   6.072   3.867   5.604
 2853SOL     OW 9457   0.523   3.939   6.743
 2853SOL    HW1 9458   0.480   3.992   6.670
 2853SOL    HW2 9459   0.530   3.843   6.715
 2854SOL     OW 9460   3.392   1.853   6.274
 2854SOL    HW1 9461   3.472   1.889   6.322
 2854SOL    HW2 9462   3.325   1.819   6.340
 2855SOL     OW 9463   2.055   1.736   4.785
 2855SOL    HW1 9464   2.113   1.665   4.745
 2855SOL    HW2 9465   1.996   1.696   4.855
 2856SOL     OW 9466   0.178   4.456   3.236
 2856SOL    HW1 9467   0.207   4.516   3.162
 2856SOL    HW2 9468   0.190   4.502   3.324
 2857SOL     OW 9469   0.042   3.282   0.492
 2857SOL    HW1 9470   0.054   3.290   0.393
 2857SOL    HW2 9471   0.061   3.187   0.519
 2858SOL     OW 9472   4.614   4.896   2.923
 2858SOL    HW1 9473   4.631   4.943   2.837
 2858SOL    HW2 9474   4.566   4.958   2.986
 2859SOL     OW 9475   5.470   4.573   1.678
 2859SOL    HW1 9476   5.455   4.481   1.642
 2859SOL    HW2 9477   5.390   4.602   1.730
 2860SOL     OW 9478   1.054   6.146   2.047
 2860SOL    HW1 9479   0.960   6.158   2.015
 2860SOL    HW2 9480   1.064   6.056   2.088
 2861SOL     OW 9481   4.642   5.295   0.035
 2861SOL    HW1 9482   4.592   5.226   7.007
 2861SOL    HW2 9483   4.722   5.324   7.006
 2862SOL     OW 9484   4.004   3.049   0.381
 2862SOL    HW1 9485   3.948   3.080   0.304
 2862SOL    HW2 9486   3.990   3.111   0.458
 2863SOL     OW 9487   5.929   0.320   5.539
 2863SOL    HW1 9488   5.902   0.414   5.520
 2863SOL    HW2 9489   5.982   0.317   5.625
 2864SOL     OW 9490   4.582   3.915   0.624
 2864SOL    HW1 9491   4.505   3.884   0.680
 2864SOL    HW2 9492   4.596   4.013   0.638
 2865SOL     OW 9493   5.111   5.364   4.908
 2865SOL    HW1 9494   5.071   5.322   4.827
 2865SOL    HW2 9495   5.195   5.412   4.883
 2866SOL     OW 9496   4.000   4.358   0.021
 2866SOL    HW1 9497   3.948   4.434   0.061
 2866SOL    HW2 9498   4.086   4.347   0.071
 2867SOL     OW 9499   5.688   6.095   1.736
 2867SOL    HW1 9500   5.664   6.098   1.833
 2867SOL    HW2 9501   5.679   6.186   1.696
 2868SOL     OW 9502   1.308   1.649   6.248
 2868SOL    HW1 9503   1.225   1.644   6.303
 2868SOL    HW2 9504   1.292   1.708   6.169
 2869SOL     OW 9505   5.501   5.577   4.204
 2869SOL    HW1 9506   5.489   5.645   4.276
 2869SOL    HW2 9507   5.555   5.616   4.130
 2870SOL     OW 9508   6.809   2.067   1.346
 2870SOL    HW1 9509   6.875   1.993   1.361
 2870SOL    HW2 9510   6.807   2.092   1.250
 2871SOL     OW 9511   5.154   1.869   1.416
 2871SOL    HW1 9512   5.168   1.821   1.330
 2871SOL    HW2 9513   5.057   1.865   1.442
 2872SOL     OW 9514   2.833   1.918   2.578
 2872SOL    HW1 9515   2.917   1.864   2.578
 2872SOL    HW2 9516   2.795   1.922   2.486
 2873SOL     OW 9517   0.941   6.327   1.304
 2873SOL    HW1 9518   0.905   6.249   1.252
 2873SOL    HW2 9519   1.015   6.370   1.252
 2874SOL     OW 9520   2.454   1.247   3.161
 2874SOL    HW1 9521   2.482   1.272   3.068
 2874SOL    HW2 9522   2.413   1.155   3.159
 2875SOL     OW 9523   3.329   6.577   3.443
 2875SOL    HW1 9524   3.412   6.628   3.462
 2875SOL    HW2 9525   3.249   6.633   3.465
 2876SOL     OW 9526   1.469   5.894   2.037
 2876SOL    HW1 9527   1.491   5.921   2.131
 2876SOL    HW2 9528   1.545   5.920   1.976
 2877SOL     OW 9529   1.196   1.438   6.092
 2877SOL    HW1 9530   1.127   1.502   6.058
 2877SOL    HW2 9531   1.251   1.482   6.162
 2878SOL     OW 9532   4.124   3.316   4.353
 2878SOL    HW1 9533   4.089   3.332   4.261
 2878SOL    HW2 9534   4.109   3.221   4.379
 2879SOL     OW 9535   4.530   4.247   0.311
 2879SOL    HW1 9536   4.497   4.240   0.405
 2879SOL    HW2 9537   4.452   4.268   0.251
 2880SOL     OW 9538   1.235   1.128   4.656
 2880SOL    HW1 9539   1.297   1.086   4.589
 2880SOL    HW2 9540   1.275   1.213   4.689
 2881SOL     OW 9541   3.962   6.329   6.624
 2881SOL    HW1 9542   3.915   6.242   6.612
 2881SOL    HW2 9543   3.898   6.405   6.612
 2882SOL     OW 9544   4.709   6.491   0.351
 2882SOL    HW1 9545   4.671   6.538   0.430
 2882SOL    HW2 9546   4.804   6.519   0.338
 2883SOL     OW 9547   6.486   6.151   3.652
 2883SOL    HW1 9548   6.463   6.212   3.728
 2883SOL    HW2 9549   6.565   6.187   3.603
 2884SOL     OW 9550   0.239   5.162   2.889
 2884SOL    HW1 9551   0.210   5.066   2.884
 2884SOL    HW2 9552   0.235   5.203   2.798
 2885SOL     OW 9553   0.800   2.591   2.847
 2885SOL    HW1 9554   0.819   2.684   2.815
 2885SOL    HW2 9555   0.871   2.562   2.911
 2886SOL     OW 9556   2.697   4.582   5.958
 2886SOL    HW1 9557   2.599   4.569   5.971
 2886SOL    HW2 9558   2.738   4.496   5.928
 2887SOL     OW 9559   1.526   5.521   3.380
 2887SOL    HW1 9560   1.541   5.583   3.302
 2887SOL    HW2 9561   1.614   5.492   3.417
 2888SOL     OW 9562   6.215   6.845   0.448
 2888SOL    HW1 9563   6.227   6.772   0.515
 2888SOL    HW2 9564   6.199   6.931   0.496
 2889SOL     OW 9565   3.526   6.313   3.384
 2889SOL    HW1 9566   3.595   6.250   3.421
 2889SOL    HW2 9567   3.441   6.263   3.368
 2890SOL     OW 9568   2.802   0.451   1.262
 2890SOL    HW1 9569   2.703   0.440   1.270
 2890SOL    HW2 9570   2.822   0.522   1.194
 2891SOL     OW 9571   0.288   2.658   3.536
 2891SOL    HW1 9572   0.327   2.749   3.526
 2891SOL    HW2 9573   0.356   2.596   3.576
 2892SOL     OW 9574   6.868   3.665   2.172
 2892SOL    HW1 9575   6.800   3.598   2.142
 2892SOL    HW2 9576   6.877   3.737   2.103
 2893SOL     OW 9577   0.132   5.245   4.446
 2893SOL    HW1 9578   0.119   5.325   4.504
 2893SOL    HW2 9579   0.068   5.249   4.370
 2894SOL     OW 9580   1.436   5.156   2.732
 2894SOL    HW1 9581   1.425   5.144   2.634
 2894SOL    HW2 9582   1.438   5.254   2.754
 2895SOL     OW 9583   4.040   6.714   6.220
 2895SOL    HW1 9584   4.006   6.753   6.134
 2895SOL    HW2 9585   4.126   6.758   6.244
 2896SOL     OW 9586   5.942   5.969   5.014
 2896SOL    HW1 9587   5.920   5.881   5.054
 2896SOL    HW2 9588   5.912   6.042   5.075
 2897SOL     OW 9589   3.871   4.817   2.855
 2897SOL    HW1 9590   3.878   4.724   2.820
 2897SOL    HW2 9591   3.905   4.820   2.949
 2898SOL     OW 9592   5.792   3.715   2.457
 2898SOL    HW1 9593   5.801   3.783   2.384
 2898SOL    HW2 9594   5.749   3.758   2.537
 2899SOL     OW 9595   0.381   3.093   0.855
 2899SOL    HW1 9596   0.306   3.029   0.868
 2899SOL    HW2 9597   0.364   3.177   0.907
 2900SOL     OW 9598   2.744   4.083   0.116
 2900SOL    HW1 9599   2.745   4.166   0.172
 2900SOL    HW2 9600   2.770   4.106   0.022
 2901SOL     OW 9601   1.503   4.073   3.485
 2901SOL    HW1 9602   1.447   4.111   3.560
 2901SOL    HW2 9603   1.448   4.069   3.402
 2902SOL     OW 9604   0.902   6.002   3.777
 2902SOL    HW1 9605   0.860   5.920   3.738
 2902SOL    HW2 9606   0.864   6.019   3.868
 2903SOL     OW 9607   4.822   5.517   0.797
 2903SOL    HW1 9608   4.807   5.602   0.748
 2903SOL    HW2 9609   4.905   5.525   0.853
 2904SOL     OW 9610   2.184   4.337   5.227
 2904SOL    HW1 9611   2.264   4.280   5.249
 2904SOL    HW2 9612   2.153   4.315   5.135
 2905SOL     OW 9613   0.554   4.883   1.674
 2905SOL    HW1 9614   0.576   4.865   1.578
 2905SOL    HW2 9615   0.594   4.970   1.702
 2906SOL     OW 9616   6.215   5.315   3.271
 2906SOL    HW1 9617   6.312   5.316   3.295
 2906SOL    HW2 9618   6.162   5.358   3.344
 2907SOL     OW 9619   0.689   0.711   3.624
 2907SOL    HW1 9620   0.705   0.776   3.699
 2907SOL    HW2 9621   0.666   0.761   3.541
 2908SOL     OW 9622   4.409   0.107   2.792
 2908SOL    HW1 9623   4.506   0.096   2.767
 2908SOL    HW2 9624   4.402   0.118   2.892
 2909SOL     OW 9625   1.115   5.843   2.363
 2909SOL    HW1 9626   1.117   5.835   2.264
 2909SOL    HW2 9627   1.061   5.924   2.389
 2910SOL     OW 9628   6.973   0.889   3.507
 2910SOL    HW1 9629   0.032   0.916   3.558
 2910SOL    HW2 9630   6.958   0.790   3.518
 2911SOL     OW 9631   6.691   4.066   4.535
 2911SOL    HW1 9632   6.710   4.027   4.444
 2911SOL    HW2 9633   6.750   4.146   4.549
 2912SOL     OW 9634   7.004   6.902   1.244
 2912SOL    HW1 9635   6.908   6.886   1.269
 2912SOL    HW2 9636   7.018   6.877   1.148
 2913SOL     OW 9637   2.109   6.018   1.050
 2913SOL    HW1 9638   2.036   6.066   1.002
 2913SOL    HW2 9639   2.071   5.940   1.099
 2914SOL     OW 9640   4.989   5.236   0.207
 2914SOL    HW1 9641   4.894   5.212   0.227
 2914SOL    HW2 9642   5.050   5.167   0.247
 2915SOL     OW 9643   3.022   1.188   3.026
 2915SOL    HW1 9644   3.066   1.234   2.948
 2915SOL    HW2 9645   3.010   1.091   3.005
 2916SOL     OW 9646   1.378   5.636   0.182
 2916SOL    HW1 9647   1.303   5.576   0.210
 2916SOL    HW2 9648   1.390   5.709   0.249
 2917SOL     OW 9649   2.985   6.807   4.103
 2917SOL    HW1 9650   3.084   6.802   4.108
 2917SOL    HW2 9651   2.945   6.754   4.178
 2918SOL     OW 9652   6.075   3.523   1.399
 2918SOL    HW1 9653   6.032   3.606   1.434
 2918SOL    HW2 9654   6.063   3.448   1.465
 2919SOL     OW 9655   1.223   5.629   4.223
 2919SOL    HW1 9656   1.318   5.658   4.215
 2919SOL    HW2 9657   1.165   5.709   4.236
 2920SOL     OW 9658   1.897   2.172   2.172
 2920SOL    HW1 9659   1.889   2.076   2.147
 2920SOL    HW2 9660   1.980   2.211   2.132
 2921SOL     OW 9661   0.460   0.291   5.509
 2921SOL    HW1 9662   0.517   0.245   5.441
 2921SOL    HW2 9663   0.414   0.223   5.566
 2922SOL     OW 9664   3.909   0.624   3.268
 2922SOL    HW1 9665   3.811   0.607   3.260
 2922SOL    HW2 9666   3.948   0.637   3.176
 2923SOL     OW 9667   5.804   5.375   4.498
 2923SOL    HW1 9668   5.761   5.350   4.412
 2923SOL    HW2 9669   5.902   5.354   4.493
 2924SOL     OW 9670   5.944   2.639   5.419
 2924SOL    HW1 9671   5.918   2.545   5.441
 2924SOL    HW2 9672   5.871   2.682   5.365
 2925SOL     OW 9673   5.236   0.236   6.341
 2925SOL    HW1 9674   5.313   0.203   6.395
 2925SOL    HW2 9675   5.239   0.336   6.338
 2926SOL     OW 9676   0.400   2.257   4.498
 2926SOL    HW1 9677   0.432   2.221   4.586
 2926SOL    HW2 9678   0.450   2.213   4.424
 2927SOL     OW 9679   1.283   2.495   1.923
 2927SOL    HW1 9680   1.229   2.475   2.005
 2927SOL    HW2 9681   1.379   2.505   1.948
 2928SOL     OW 9682   0.179   2.692   0.696
 2928SOL    HW1 9683   0.231   2.702   0.611
 2928SOL    HW2 9684   0.192   2.773   0.753
 2929SOL     OW 9685   1.640   2.585   4.992
 2929SOL    HW1 9686   1.701   2.541   5.059
 2929SOL    HW2 9687   1.693   2.610   4.911
 2930SOL     OW 9688   6.703   5.222   5.435
 2930SOL    HW1 9689   6.717   5.157   5.361
 2930SOL    HW2 9690   6.613   5.264   5.427
 2931SOL     OW 9691   4.779   4.164   5.778
 2931SOL    HW1 9692   4.748   4.132   5.867
 2931SOL    HW2 9693   4.873   4.133   5.762
 2932SOL     OW 9694   6.716   5.406   0.510
 2932SOL    HW1 9695   6.811   5.378   0.493
 2932SOL    HW2 9696   6.667   5.332   0.555
 2933SOL     OW 9697   1.468   0.376   0.747
 2933SOL    HW1 9698   1.543   0.404   0.807
 2933SOL    HW2 9699   1.390   0.347   0.803
 2934SOL     OW 9700   4.059   4.436   0.436
 2934SOL    HW1 9701   4.063   4.465   0.532
 2934SOL    HW2 9702   4.140   4.469   0.388
 2935SOL     OW 9703   6.803   2.378   5.799
 2935SOL    HW1 9704   6.775   2.296   5.848
 2935SOL    HW2 9705   6.879   2.422   5.847
 2936SOL     OW 9706   4.707   6.757   1.282
 2936SOL    HW1 9707   4.702   6.665   1.244
 2936SOL    HW2 9708   4.732   6.822   1.210
 2937SOL     OW 9709   4.753   5.353   2.187
 2937SOL    HW1 9710   4.732   5.290   2.113
 2937SOL    HW2 9711   4.761   5.302   2.273
 2938SOL     OW 9712   6.239   5.674   6.838
 2938SOL    HW1 9713   6.292   5.685   6.922
 2938SOL    HW2 9714   6.285   5.609   6.777
 2939SOL     OW 9715   0.096   5.851   1.096
 2939SOL    HW1 9716   0.034   5.862   1.174
 2939SOL    HW2 9717   0.042   5.831   1.014
 2940SOL     OW 9718   4.347   5.810   3.559
 2940SOL    HW1 9719   4.395   5.817   3.472
 2940SOL    HW2 9720   4.342   5.714   3.586
 2941SOL     OW 9721   1.783   3.370   4.127
 2941SOL    HW1 9722   1.756   3.290   4.180
 2941SOL    HW2 9723   1.804   3.446   4.188
 2942SOL     OW 9724   3.824   1.724   0.880
 2942SOL    HW1 9725   3.734   1.681   0.867
 2942SOL    HW2 9726   3.816   1.823   0.869
 2943SOL     OW 9727   6.058   4.146   3.328
 2943SOL    HW1 9728   6.096   4.055   3.340
 2943SOL    HW2 9729   6.104   4.192   3.252
 2944SOL     OW 9730   1.991   5.719   3.183
 2944SOL    HW1 9731   1.968   5.709   3.280
 2944SOL    HW2 9732   1.963   5.810   3.152
 2945SOL     OW 9733   5.214   4.544   1.385
 2945SOL    HW1 9734   5.207   4.625   1.444
 2945SOL    HW2 9735   5.212   4.572   1.289
 2946SOL     OW 9736   3.092   3.961   5.960
 2946SOL    HW1 9737   3.066   3.949   5.865
 2946SOL    HW2 9738   3.192   3.972   5.966
 2947SOL     OW 9739   5.714   0.073   0.584
 2947SOL    HW1 9740   5.753   0.094   0.494
 2947SOL    HW2 9741   5.788   0.064   0.651
 2948SOL     OW 9742   6.360   3.825   2.301
 2948SOL    HW1 9743   6.260   3.830   2.303
 2948SOL    HW2 9744   6.399   3.914   2.328
 2949SOL     OW 9745   1.401   6.905   0.797
 2949SOL    HW1 9746   1.471   6.833   0.786
 2949SOL    HW2 9747   1.311   6.862   0.810
 2950SOL     OW 9748   5.145   4.880   2.543
 2950SOL    HW1 9749   5.177   4.917   2.630
 2950SOL    HW2 9750   5.211   4.813   2.508
 2951SOL     OW 9751   6.219   1.747   1.725
 2951SOL    HW1 9752   6.211   1.815   1.797
 2951SOL    HW2 9753   6.142   1.756   1.662
 2952SOL     OW 9754   5.630   1.387   4.340
 2952SOL    HW1 9755   5.573   1.410   4.261
 2952SOL    HW2 9756   5.723   1.421   4.325
 2953SOL     OW 9757   0.817   5.752   4.059
 2953SOL    HW1 9758   0.745   5.801   4.009
 2953SOL    HW2 9759   0.835   5.665   4.014
 2954SOL     OW 9760   0.244   4.849   5.836
 2954SOL    HW1 9761   0.323   4.861   5.895
 2954SOL    HW2 9762   0.271   4.800   5.753
 2955SOL     OW 9763   1.916   4.776   0.083
 2955SOL    HW1 9764   1.852   4.746   0.013
 2955SOL    HW2 9765   1.989   4.708   0.093
 2956SOL     OW 9766   6.026   4.550   3.213
 2956SOL    HW1 9767   5.977   4.625   3.170
 2956SOL    HW2 9768   6.124   4.558   3.192
 2957SOL     OW 9769   2.418   5.385   1.527
 2957SOL    HW1 9770   2.472   5.356   1.448
 2957SOL    HW2 9771   2.479   5.406   1.603
 2958SOL     OW 9772   2.495   5.324   3.146
 2958SOL    HW1 9773   2.466   5.368   3.061
 2958SOL    HW2 9774   2.594   5.325   3.152
 2959SOL     OW 9775   6.848   2.725   3.297
 2959SOL    HW1 9776   6.873   2.811   3.252
 2959SOL    HW2 9777   6.757   2.734   3.338
 2960SOL     OW 9778   4.574   0.948   0.465
 2960SOL    HW1 9779   4.510   1.011   0.510
 2960SOL    HW2 9780   4.638   0.912   0.534
 2961SOL     OW 9781   5.858   3.934   2.273
 2961SOL    HW1 9782   5.768   3.927   2.230
 2961SOL    HW2 9783   5.893   4.027   2.262
 2962SOL     OW 9784   0.205   6.685   2.561
 2962SOL    HW1 9785   0.150   6.601   2.563
 2962SOL    HW2 9786   0.204   6.723   2.469
 2963SOL     OW 9787   1.777   1.365   4.811
 2963SOL    HW1 9788   1.829   1.377   4.727
 2963SOL    HW2 9789   1.697   1.425   4.810
 2964SOL     OW 9790   1.056   2.584   0.076
 2964SOL    HW1 9791   1.133   2.533   0.115
 2964SOL    HW2 9792   0.987   2.519   0.044
 2965SOL     OW 9793   1.171   0.070   4.790
 2965SOL    HW1 9794   1.205   0.099   4.701
 2965SOL    HW2 9795   1.105   7.019   4.778
 2966SOL     OW 9796   4.285   5.580   3.302
 2966SOL    HW1 9797   4.280   5.677   3.324
 2966SOL    HW2 9798   4.204   5.553   3.250
 2967SOL     OW 9799   6.433   0.123   5.337
 2967SOL    HW1 9800   6.435   0.170   5.426
 2967SOL    HW2 9801   6.484   0.037   5.344
 2968SOL     OW 9802   1.940   2.319   1.286
 2968SOL    HW1 9803   1.928   2.404   1.337
 2968SOL    HW2 9804   1.975   2.248   1.347
 2969SOL     OW 9805   5.205   3.265   4.556
 2969SOL    HW1 9806   5.275   3.337   4.548
 2969SOL    HW2 9807   5.229   3.189   4.496
 2970SOL     OW 9808   2.446   2.604   4.312
 2970SOL    HW1 9809   2.429   2.591   4.409
 2970SOL    HW2 9810   2.389   2.542   4.258
 2971SOL     OW 9811   5.359   3.120   6.232
 2971SOL    HW1 9812   5.281   3.137   6.171
 2971SOL    HW2 9813   5.362   3.023   6.256
 2972SOL     OW 9814   5.744   4.686   6.868
 2972SOL    HW1 9815   5.650   4.672   6.899
 2972SOL    HW2 9816   5.756   4.782   6.843
 2973SOL     OW 9817   4.817   0.276   2.471
 2973SOL    HW1 9818   4.752   0.200   2.478
 2973SOL    HW2 9819   4.771   0.356   2.432
 2974SOL     OW 9820   4.606   5.540   3.125
 2974SOL    HW1 9821   4.653   5.622   3.157
 2974SOL    HW2 9822   4.558   5.497   3.201
 2975SOL     OW 9823   4.982   4.576   3.944
 2975SOL    HW1 9824   4.911   4.506   3.951
 2975SOL    HW2 9825   5.055   4.543   3.884
 2976SOL     OW 9826   4.100   2.283   2.181
 2976SOL    HW1 9827   4.197   2.257   2.176
 2976SOL    HW2 9828   4.082   2.328   2.268
 2977SOL     OW 9829   1.103   0.802   1.725
 2977SOL    HW1 9830   1.112   0.846   1.814
 2977SOL    HW2 9831   1.181   0.741   1.710
 2978SOL     OW 9832   4.835   4.993   6.752
 2978SOL    HW1 9833   4.888   5.073   6.722
 2978SOL    HW2 9834   4.738   5.013   6.743
 2979SOL     OW 9835   3.431   0.792   4.190
 2979SOL    HW1 9836   3.462   0.773   4.097
 2979SOL    HW2 9837   3.471   0.725   4.253
 2980SOL     OW 9838   3.512   4.231   5.950
 2980SOL    HW1 9839   3.534   4.222   6.047
 2980SOL    HW2 9840   3.597   4.233   5.896
 2981SOL     OW 9841   1.335   1.104   0.845
 2981SOL    HW1 9842   1.422   1.092   0.797
 2981SOL    HW2 9843   1.344   1.179   0.911
 2982SOL     OW 9844   0.771   1.116   1.643
 2982SOL    HW1 9845   0.815   1.139   1.557
 2982SOL    HW2 9846   0.758   1.017   1.649
 2983SOL     OW 9847   5.692   2.932   6.298
 2983SOL    HW1 9848   5.694   2.857   6.364
 2983SOL    HW2 9849   5.606   2.931   6.248
 2984SOL     OW 9850   0.141   4.743   0.355
 2984SOL    HW1 9851   0.142   4.801   0.273
 2984SOL    HW2 9852   0.181   4.654   0.333
 2985SOL     OW 9853   0.067   6.542   4.580
 2985SOL    HW1 9854   0.143   6.482   4.604
 2985SOL    HW2 9855   0.099   6.617   4.523
 2986SOL     OW 9856   3.438   4.043   2.516
 2986SOL    HW1 9857   3.344   4.011   2.531
 2986SOL    HW2 9858   3.479   4.069   2.604
 2987SOL     OW 9859   2.074   0.854   4.149
 2987SOL    HW1 9860   2.106   0.898   4.233
 2987SOL    HW2 9861   2.111   0.904   4.070
 2988SOL     OW 9862   0.741   1.864   0.400
 2988SOL    HW1 9863   0.643   1.883   0.408
 2988SOL    HW2 9864   0.763   1.783   0.453
 2989SOL     OW 9865   5.508   3.828   4.062
 2989SOL    HW1 9866   5.494   3.769   3.983
 2989SOL    HW2 9867   5.432   3.892   4.071
 2990SOL     OW 9868   5.148   2.003   4.630
 2990SOL    HW1 9869   5.211   2.048   4.694
 2990SOL    HW2 9870   5.077   2.068   4.603
 2991SOL     OW 9871   6.019   3.854   0.662
 2991SOL    HW1 9872   5.971   3.930   0.618
 2991SOL    HW2 9873   6.064   3.887   0.745
 2992SOL     OW 9874   0.510   3.315   5.436
 2992SOL    HW1 9875   0.597   3.325   5.389
 2992SOL    HW2 9876   0.435   3.331   5.371
 2993SOL     OW 9877   1.182   4.257   0.387
 2993SOL    HW1 9878   1.147   4.174   0.344
 2993SOL    HW2 9879   1.148   4.262   0.481
 2994SOL     OW 9880   4.420   0.101   6.915
 2994SOL    HW1 9881   4.513   0.107   6.881
 2994SOL    HW2 9882   4.362   0.167   6.866
 2995SOL     OW 9883   5.155   0.057   1.270
 2995SOL    HW1 9884   5.149   0.055   1.370
 2995SOL    HW2 9885   5.074   0.102   1.232
 2996SOL     OW 9886   0.361   1.897   4.904
 2996SOL    HW1 9887   0.352   1.843   4.820
 2996SOL    HW2 9888   0.272   1.933   4.930
 2997SOL     OW 9889   5.179   0.316   3.788
 2997SOL    HW1 9890   5.176   0.331   3.887
 2997SOL    HW2 9891   5.261   0.361   3.751
 2998SOL     OW 9892   2.372   1.473   2.455
 2998SOL    HW1 9893   2.456   1.458   2.403
 2998SOL    HW2 9894   2.318   1.545   2.411
 2999SOL     OW 9895   2.525   4.477   0.281
 2999SOL    HW1 9896   2.535   4.383   0.249
 2999SOL    HW2 9897   2.465   4.527   0.219
 3000SOL     OW 9898   3.074   3.713   4.786
 3000SOL    HW1 9899   3.062   3.731   4.689
 3000SOL    HW2 9900   3.166   3.740   4.815
 3001SOL     OW 9901   6.229   0.503   5.727
 3001SOL    HW1 9902   6.172   0.556   5.663
 3001SOL    HW2 9903   6.325   0.514   5.702
 3002SOL     OW 9904   2.567   1.493   1.692
 3002SOL    HW1 9905   2.545   1.590   1.705
 3002SOL    HW2 9906   2.665   1.479   1.711
 3003SOL     OW 9907   1.530   6.347   7.003
 3003SOL    HW1 9908   1.489   6.435   6.978
 3003SOL    HW2 9909   1.628   6.361   7.022
 3004SOL     OW 9910   2.371   6.084   3.822
 3004SOL    HW1 9911   2.405   6.065   3.914
 3004SOL    HW2 9912   2.271   6.079   3.823
 3005SOL     OW 9913   0.864   2.587   5.527
 3005SOL    HW1 9914   0.851   2.497   5.569
 3005SOL    HW2 9915   0.810   2.592   5.443
 3006SOL     OW 9916   5.419   1.438   5.690
 3006SOL    HW1 9917   5.374   1.522   5.659
 3006SOL    HW2 9918   5.497   1.462   5.748
 3007SOL     OW 9919   5.133   4.158   6.507
 3007SOL    HW1 9920   5.042   4.117   6.514
 3007SOL    HW2 9921   5.149   4.216   6.587
 3008SOL     OW 9922   4.565   2.118   5.940
 3008SOL    HW1 9923   4.557   2.216   5.923
 3008SOL    HW2 9924   4.478   2.083   5.974
 3009SOL     OW 9925   0.382   3.422   2.283
 3009SOL    HW1 9926   0.334   3.375   2.208
 3009SOL    HW2 9927   0.421   3.507   2.249
 3010SOL     OW 9928   4.225   5.923   6.219
 3010SOL    HW1 9929   4.302   5.909   6.156
 3010SOL    HW2 9930   4.223   6.018   6.248
 3011SOL     OW 9931   6.730   0.144   0.980
 3011SOL    HW1 9932   6.798   0.142   1.052
 3011SOL    HW2 9933   6.677   0.229   0.986
 3012SOL     OW 9934   2.695   2.768   6.133
 3012SOL    HW1 9935   2.649   2.813   6.056
 3012SOL    HW2 9936   2.694   2.669   6.119
 3013SOL     OW 9937   0.512   5.476   4.846
 3013SOL    HW1 9938   0.497   5.512   4.754
 3013SOL    HW2 9939   0.436   5.415   4.870
 3014SOL     OW 9940   4.924   0.148   5.418
 3014SOL    HW1 9941   5.009   0.132   5.368
 3014SOL    HW2 9942   4.906   0.246   5.424
 3015SOL     OW 9943   1.368   1.436   0.359
 3015SOL    HW1 9944   1.346   1.462   0.265
 3015SOL    HW2 9945   1.404   1.516   0.407
 3016SOL     OW 9946   1.989   6.633   4.492
 3016SOL    HW1 9947   1.989   6.666   4.397
 3016SOL    HW2 9948   1.965   6.708   4.553
 3017SOL     OW 9949   0.079   5.339   1.046
 3017SOL    HW1 9950   0.117   5.418   0.998
 3017SOL    HW2 9951   0.014   5.292   0.986
 3018SOL     OW 9952   3.386   0.285   0.358
 3018SOL    HW1 9953   3.412   0.188   0.356
 3018SOL    HW2 9954   3.329   0.306   0.279
 3019SOL     OW 9955   2.181   0.601   4.971
 3019SOL    HW1 9956   2.167   0.503   4.958
 3019SOL    HW2 9957   2.116   0.652   4.914
 3020SOL     OW 9958   5.075   3.293   0.033
 3020SOL    HW1 9959   5.072   3.268   0.130
 3020SOL    HW2 9960   5.103   3.389   0.024
 3021SOL     OW 9961   3.706   6.170   4.766
 3021SOL    HW1 9962   3.723   6.110   4.844
 3021SOL    HW2 9963   3.733   6.124   4.681
 3022SOL     OW 9964   3.987   5.580   4.055
 3022SOL    HW1 9965   3.892   5.552   4.068
 3022SOL    HW2 9966   4.016   5.558   3.963
 3023SOL     OW 9967   4.735   6.558   3.030
 3023SOL    HW1 9968   4.764   6.515   3.116
 3023SOL    HW2 9969   4.705   6.652   3.048
 3024SOL     OW 9970   0.553   6.798   6.727
 3024SOL    HW1 9971   0.462   6.765   6.752
 3024SOL    HW2 9972   0.615   6.720   6.716
 3025SOL     OW 9973   3.670   6.317   0.524
 3025SOL    HW1 9974   3.649   6.276   0.613
 3025SOL    HW2 9975   3.588   6.316   0.467
 3026SOL     OW 9976   6.337   0.875   0.400
 3026SOL    HW1 9977   6.401   0.951   0.415
 3026SOL    HW2 9978   6.248   0.911   0.373
 3027SOL     OW 9979   4.626   1.465   1.352
 3027SOL    HW1 9980   4.686   1.532   1.306
 3027SOL    HW2 9981   4.659   1.450   1.445
 3028SOL     OW 9982   2.999   4.511   5.774
 3028SOL    HW1 9983   3.020   4.442   5.843
 3028SOL    HW2 9984   2.933   4.474   5.708
 3029SOL     OW 9985   0.616   2.644   4.233
 3029SOL    HW1 9986   0.665   2.558   4.221
 3029SOL    HW2 9987   0.598   2.659   4.331
 3030SOL     OW 9988   2.545   3.129   0.399
 3030SOL    HW1 9989   2.514   3.125   0.305
 3030SOL    HW2 9990   2.532   3.040   0.442
 3031SOL     OW 9991   0.937   6.627   1.290
 3031SOL    HW1 9992   0.907   6.711   1.336
 3031SOL    HW2 9993   0.938   6.552   1.356
 3032SOL     OW 9994   2.274   0.740   2.290
 3032SOL    HW1 9995   2.233   0.825   2.322
 3032SOL    HW2 9996   2.249   0.726   2.194
 3033SOL     OW 9997   6.857   1.876   4.462
 3033SOL    HW1 9998   6.810   1.817   4.528
 3033SOL    HW2 9999   6.830   1.850   4.369
 3034SOL     OW10000   0.309   5.394   3.345
 3034SOL    HW110001   0.291   5.333   3.268
 3034SOL    HW210002   0.226   5.407   3.398
 3035SOL     OW10003   1.232   2.906   6.631
 3035SOL    HW110004   1.205   3.000   6.613
 3035SOL    HW210005   1.331   2.898   6.624
 3036SOL     OW10006   3.365   2.428   6.475
 3036SOL    HW110007   3.414   2.346   6.445
 3036SOL    HW210008   3.340   2.482   6.394
 3037SOL     OW10009   0.224   5.613   0.042
 3037SOL    HW110010   0.148   5.578   0.096
 3037SOL    HW210011   0.276   5.536   0.005
 3038SOL     OW10012   5.336   3.962   6.522
 3038SOL    HW110013   5.337   3.934   6.618
 3038SOL    HW210014   5.269   4.036   6.509
 3039SOL     OW10015   6.714   3.968   6.771
 3039SOL    HW110016   6.703   3.906   6.693
 3039SOL    HW210017   6.658   4.049   6.757
 3040SOL     OW10018   4.642   3.807   5.765
 3040SOL    HW110019   4.724   3.751   5.776
 3040SOL    HW210020   4.631   3.865   5.845
 3041SOL     OW10021   2.172   4.245   4.983
 3041SOL    HW110022   2.244   4.180   5.007
 3041SOL    HW210023   2.132   4.220   4.895
 3042SOL     OW10024   0.172   5.253   3.150
 3042SOL    HW110025   0.086   5.205   3.163
 3042SOL    HW210026   0.202   5.242   3.055
 3043SOL     OW10027   3.082   4.883   0.595
 3043SOL    HW110028   3.139   4.804   0.574
 3043SOL    HW210029   3.086   4.949   0.520
 3044SOL     OW10030   3.371   3.418   5.087
 3044SOL    HW110031   3.324   3.356   5.150
 3044SOL    HW210032   3.333   3.510   5.096
 3045SOL     OW10033   4.946   1.308   1.975
 3045SOL    HW110034   4.918   1.371   2.048
 3045SOL    HW210035   4.948   1.215   2.011
 3046SOL     OW10036   5.724   5.558   1.053
 3046SOL    HW110037   5.779   5.514   1.124
 3046SOL    HW210038   5.720   5.499   0.972
 3047SOL     OW10039   6.208   1.143   6.404
 3047SOL    HW110040   6.233   1.047   6.398
 3047SOL    HW210041   6.290   1.200   6.399
 3048SOL     OW10042   3.882   3.636   0.799
 3048SOL    HW110043   3.883   3.679   0.708
 3048SOL    HW210044   3.795   3.657   0.844
 3049SOL     OW10045   1.489   0.801   4.028
 3049SOL    HW110046   1.507   0.789   4.126
 3049SOL    HW210047   1.412   0.743   4.001
 3050SOL     OW10048   2.902   2.401   1.507
 3050SOL    HW110049   2.941   2.359   1.589
 3050SOL    HW210050   2.831   2.341   1.470
 3051SOL     OW10051   2.365   6.138   5.386
 3051SOL    HW110052   2.405   6.221   5.348
 3051SOL    HW210053   2.272   6.157   5.417
 3052SOL     OW10054   6.586   6.395   2.355
 3052SOL    HW110055   6.683   6.397   2.380
 3052SOL    HW210056   6.573   6.337   2.274
 3053SOL     OW10057   1.577   4.431   0.237
 3053SOL    HW110058   1.535   4.363   0.298
 3053SOL    HW210059   1.550   4.412   0.143
 3054SOL     OW10060   5.701   1.347   2.556
 3054SOL    HW110061   5.618   1.399   2.573
 3054SOL    HW210062   5.678   1.251   2.542
 3055SOL     OW10063   6.100   5.649   6.187
 3055SOL    HW110064   6.028   5.717   6.202
 3055SOL    HW210065   6.187   5.685   6.221
 3056SOL     OW10066   4.488   1.362   6.058
 3056SOL    HW110067   4.569   1.402   6.014
 3056SOL    HW210068   4.490   1.263   6.048
 3057SOL     OW10069   5.688   4.985   2.945
 3057SOL    HW110070   5.682   5.074   2.900
 3057SOL    HW210071   5.598   4.961   2.982
 3058SOL     OW10072   0.144   4.636   6.862
 3058SOL    HW110073   0.101   4.649   6.772
 3058SOL    HW210074   0.202   4.554   6.860
 3059SOL     OW10075   2.268   2.310   4.298
 3059SOL    HW110076   2.312   2.311   4.388
 3059SOL    HW210077   2.290   2.224   4.251
 3060SOL     OW10078   5.121   4.931   5.251
 3060SOL    HW110079   5.035   4.931   5.303
 3060SOL    HW210080   5.151   4.837   5.236
 3061SOL     OW10081   5.455   5.508   5.158
 3061SOL    HW110082   5.385   5.554   5.104
 3061SOL    HW210083   5.531   5.482   5.098
 3062SOL     OW10084   4.902   4.469   1.852
 3062SOL    HW110085   4.913   4.491   1.755
 3062SOL    HW210086   4.817   4.417   1.864
 3063SOL     OW10087   0.224   4.315   1.547
 3063SOL    HW110088   0.181   4.321   1.637
 3063SOL    HW210089   0.178   4.377   1.484
 3064SOL     OW10090   4.392   1.733   6.783
 3064SOL    HW110091   4.349   1.649   6.815
 3064SOL    HW210092   4.457   1.766   6.852
 3065SOL     OW10093   0.318   1.275   6.371
 3065SOL    HW110094   0.316   1.209   6.295
 3065SOL    HW210095   0.411   1.310   6.383
 3066SOL     OW10096   5.276   5.936   5.945
 3066SOL    HW110097   5.177   5.924   5.935
 3066SOL    HW210098   5.296   6.033   5.961
 3067SOL     OW10099   2.102   2.594   6.326
 3067SOL    HW110100   2.115   2.577   6.423
 3067SOL    HW210101   2.010   2.628   6.309
 3068SOL     OW10102   0.623   1.027   1.124
 3068SOL    HW110103   0.716   1.044   1.091
 3068SOL    HW210104   0.610   0.929   1.137
 3069SOL     OW10105   5.037   0.055   2.725
 3069SOL    HW110106   5.083   0.143   2.712
 3069SOL    HW210107   5.075   0.009   2.805
 3070SOL     OW10108   2.944   0.783   1.366
 3070SOL    HW110109   3.033   0.739   1.375
 3070SOL    HW210110   2.908   0.768   1.274
 3071SOL     OW10111   7.002   3.259   3.796
 3071SOL    HW110112   6.998   3.284   3.893
 3071SOL    HW210113   6.957   3.330   3.742
 3072SOL     OW10114   2.162   6.783   6.008
 3072SOL    HW110115   2.168   6.874   6.050
 3072SOL    HW210116   2.066   6.754   6.007
 3073SOL     OW10117   6.161   5.185   0.722
 3073SOL    HW110118   6.214   5.249   0.667
 3073SOL    HW210119   6.128   5.111   0.664
 3074SOL     OW10120   2.319   3.380   0.992
 3074SOL    HW110121   2.255   3.456   0.996
 3074SOL    HW210122   2.296   3.314   1.065
 3075SOL     OW10123   2.396   5.280   2.298
 3075SOL    HW110124   2.309   5.232   2.310
 3075SOL    HW210125   2.442   5.287   2.386
 3076SOL     OW10126   7.018   0.329   4.627
 3076SOL    HW110127   6.936   0.329   4.684
 3076SOL    HW210128   0.071   0.370   4.678
 3077SOL     OW10129   6.466   3.683   1.954
 3077SOL    HW110130   6.415   3.666   1.869
 3077SOL    HW210131   6.464   3.780   1.976
 3078SOL     OW10132   6.800   2.855   1.719
 3078SOL    HW110133   6.869   2.892   1.656
 3078SOL    HW210134   6.785   2.759   1.699
 3079SOL     OW10135   2.558   3.367   5.316
 3079SOL    HW110136   2.511   3.309   5.383
 3079SOL    HW210137   2.613   3.310   5.256
 3080SOL     OW10138   4.391   5.200   0.930
 3080SOL    HW110139   4.306   5.152   0.950
 3080SOL    HW210140   4.417   5.258   1.007
 3081SOL     OW10141   1.728   4.225   0.611
 3081SOL    HW110142   1.653   4.159   0.604
 3081SOL    HW210143   1.696   4.308   0.656
 3082SOL     OW10144   4.262   5.212   4.818
 3082SOL    HW110145   4.283   5.179   4.910
 3082SOL    HW210146   4.165   5.198   4.799
 3083SOL     OW10147   2.687   5.455   2.452
 3083SOL    HW110148   2.641   5.524   2.508
 3083SOL    HW210149   2.774   5.491   2.419
 3084SOL     OW10150   0.579   3.231   3.833
 3084SOL    HW110151   0.558   3.328   3.833
 3084SOL    HW210152   0.590   3.199   3.739
 3085SOL     OW10153   5.293   4.382   0.810
 3085SOL    HW110154   5.349   4.391   0.892
 3085SOL    HW210155   5.271   4.473   0.774
 3086SOL     OW10156   6.090   0.821   6.531
 3086SOL    HW110157   6.181   0.862   6.536
 3086SOL    HW210158   6.090   0.748   6.462
 3087SOL     OW10159   2.742   0.324   2.678
 3087SOL    HW110160   2.830   0.339   2.722
 3087SOL    HW210161   2.740   0.373   2.591
 3088SOL     OW10162   1.348   2.759   5.453
 3088SOL    HW110163   1.257   2.721   5.438
 3088SOL    HW210164   1.400   2.755   5.367
 3089SOL     OW10165   4.606   6.821   4.755
 3089SOL    HW110166   4.563   6.757   4.692
 3089SOL    HW210167   4.705   6.807   4.755
 3090SOL     OW10168   1.475   2.222   1.962
 3090SOL    HW110169   1.392   2.194   2.009
 3090SOL    HW210170   1.514   2.301   2.008
 3091SOL     OW10171   1.080   2.324   0.944
 3091SOL    HW110172   0.986   2.348   0.919
 3091SOL    HW210173   1.127   2.288   0.864
 3092SOL     OW10174   6.771   0.114   2.340
 3092SOL    HW110175   6.825   0.098   2.258
 3092SOL    HW210176   6.832   0.134   2.417
 3093SOL     OW10177   4.990   4.781   6.861
 3093SOL    HW110178   4.942   4.694   6.874
 3093SOL    HW210179   4.924   4.856   6.862
 3094SOL     OW10180   3.461   1.509   5.874
 3094SOL    HW110181   3.498   1.528   5.965
 3094SOL    HW210182   3.361   1.519   5.876
 3095SOL     OW10183   1.882   3.434   5.338
 3095SOL    HW110184   1.914   3.507   5.398
 3095SOL    HW210185   1.960   3.395   5.289
 3096SOL     OW10186   0.337   3.951   4.379
 3096SOL    HW110187   0.282   3.895   4.317
 3096SOL    HW210188   0.357   3.898   4.462
 3097SOL     OW10189   5.174   2.176   6.118
 3097SOL    HW110190   5.258   2.141   6.076
 3097SOL    HW210191   5.197   2.238   6.193
 3098SOL     OW10192   2.050   2.599   2.542
 3098SOL    HW110193   2.132   2.654   2.560
 3098SOL    HW210194   1.974   2.660   2.520
 3099SOL     OW10195   0.032   6.119   3.965
 3099SOL    HW110196   0.048   6.214   3.990
 3099SOL    HW210197   0.008   6.067   4.047
 3100SOL     OW10198   0.065   5.404   2.422
 3100SOL    HW110199   6.996   5.424   2.389
 3100SOL    HW210200   0.060   5.360   2.512
 3101SOL     OW10201   4.040   6.187   5.717
 3101SOL    HW110202   3.954   6.140   5.738
 3101SOL    HW210203   4.030   6.284   5.737
 3102SOL     OW10204   0.236   4.816   0.765
 3102SOL    HW110205   0.200   4.741   0.820
 3102SOL    HW210206   0.170   4.892   0.765
 3103SOL     OW10207   3.397   0.221   1.800
 3103SOL    HW110208   3.475   0.235   1.740
 3103SOL    HW210209   3.313   0.251   1.755
 3104SOL     OW10210   4.737   0.133   6.506
 3104SOL    HW110211   4.821   0.148   6.454
 3104SOL    HW210212   4.712   0.036   6.502
 3105SOL     OW10213   5.797   3.331   0.127
 3105SOL    HW110214   5.760   3.415   0.168
 3105SOL    HW210215   5.805   3.261   0.197
 3106SOL     OW10216   5.965   0.245   5.014
 3106SOL    HW110217   5.986   0.341   4.994
 3106SOL    HW210218   5.961   0.232   5.113
 3107SOL     OW10219   3.830   1.021   6.167
 3107SOL    HW110220   3.740   1.027   6.124
 3107SOL    HW210221   3.900   1.012   6.096
 3108SOL     OW10222   1.843   4.363   3.973
 3108SOL    HW110223   1.838   4.434   4.043
 3108SOL    HW210224   1.938   4.337   3.957
 3109SOL     OW10225   6.707   5.916   3.874
 3109SOL    HW110226   6.737   5.821   3.881
 3109SOL    HW210227   6.611   5.919   3.845
 3110SOL     OW10228   1.595   4.626   3.731
 3110SOL    HW110229   1.520   4.670   3.683
 3110SOL    HW210230   1.625   4.685   3.806
 3111SOL     OW10231   5.916   4.387   4.209
 3111SOL    HW110232   5.993   4.333   4.174
 3111SOL    HW210233   5.833   4.362   4.159
 3112SOL     OW10234   3.928   2.138   6.987
 3112SOL    HW110235   3.986   2.168   0.039
 3112SOL    HW210236   3.946   2.041   6.968
 3113SOL     OW10237   2.079   5.521   3.608
 3113SOL    HW110238   2.042   5.608   3.643
 3113SOL    HW210239   2.101   5.461   3.685
 3114SOL     OW10240   4.237   0.678   7.020
 3114SOL    HW110241   4.198   0.720   0.079
 3114SOL    HW210242   4.167   0.674   6.949
 3115SOL     OW10243   4.445   4.927   5.472
 3115SOL    HW110244   4.505   4.979   5.411
 3115SOL    HW210245   4.499   4.864   5.528
 3116SOL     OW10246   0.632   2.051   1.128
 3116SOL    HW110247   0.642   2.010   1.038
 3116SOL    HW210248   0.536   2.069   1.147
 3117SOL     OW10249   4.836   1.413   5.353
 3117SOL    HW110250   4.907   1.420   5.423
 3117SOL    HW210251   4.772   1.489   5.361
 3118SOL     OW10252   1.679   1.175   3.214
 3118SOL    HW110253   1.685   1.113   3.136
 3118SOL    HW210254   1.762   1.231   3.219
 3119SOL     OW10255   4.520   4.360   5.994
 3119SOL    HW110256   4.476   4.277   5.959
 3119SOL    HW210257   4.584   4.395   5.926
 3120SOL     OW10258   2.087   6.402   4.621
 3120SOL    HW110259   2.066   6.492   4.583
 3120SOL    HW210260   2.040   6.391   4.709
 3121SOL     OW10261   4.551   1.168   4.762
 3121SOL    HW110262   4.622   1.135   4.698
 3121SOL    HW210263   4.461   1.149   4.724
 3122SOL     OW10264   3.847   5.194   5.077
 3122SOL    HW110265   3.910   5.183   5.153
 3122SOL    HW210266   3.781   5.119   5.077
 3123SOL     OW10267   2.750   1.715   3.792
 3123SOL    HW110268   2.798   1.791   3.750
 3123SOL    HW210269   2.666   1.749   3.835
 3124SOL     OW10270   5.009   0.238   3.557
 3124SOL    HW110271   4.942   0.164   3.555
 3124SOL    HW210272   5.061   0.233   3.642
 3125SOL     OW10273   1.453   2.323   5.411
 3125SOL    HW110274   1.364   2.337   5.367
 3125SOL    HW210275   1.503   2.252   5.363
 3126SOL     OW10276   5.851   4.857   4.797
 3126SOL    HW110277   5.878   4.850   4.701
 3126SOL    HW210278   5.911   4.799   4.852
 3127SOL     OW10279   0.216   1.624   4.717
 3127SOL    HW110280   0.142   1.584   4.663
 3127SOL    HW210281   0.266   1.690   4.661
 3128SOL     OW10282   4.657   0.780   0.219
 3128SOL    HW110283   4.627   0.778   0.124
 3128SOL    HW210284   4.626   0.864   0.263
 3129SOL     OW10285   4.670   3.327   0.690
 3129SOL    HW110286   4.768   3.345   0.685
 3129SOL    HW210287   4.650   3.270   0.770
 3130SOL     OW10288   0.991   4.612   1.533
 3130SOL    HW110289   0.915   4.551   1.558
 3130SOL    HW210290   0.954   4.698   1.499
 3131SOL     OW10291   6.597   3.924   2.690
 3131SOL    HW110292   6.670   3.970   2.638
 3131SOL    HW210293   6.613   3.826   2.688
 3132SOL     OW10294   4.048   4.840   0.105
 3132SOL    HW110295   4.132   4.797   0.072
 3132SOL    HW210296   4.010   4.898   0.033
 3133SOL     OW10297   4.096   0.827   3.869
 3133SOL    HW110298   4.137   0.738   3.888
 3133SOL    HW210299   4.128   0.860   3.780
 3134SOL     OW10300   4.202   5.081   2.606
 3134SOL    HW110301   4.189   5.180   2.597
 3134SOL    HW210302   4.275   5.063   2.672
 3135SOL     OW10303   5.322   6.792   6.093
 3135SOL    HW110304   5.367   6.786   6.004
 3135SOL    HW210305   5.392   6.802   6.164
 3136SOL     OW10306   6.118   1.506   2.890
 3136SOL    HW110307   6.038   1.471   2.841
 3136SOL    HW210308   6.104   1.494   2.989
 3137SOL     OW10309   6.695   6.813   6.922
 3137SOL    HW110310   6.736   6.737   6.872
 3137SOL    HW210311   6.747   6.896   6.904
 3138SOL     OW10312   5.610   5.157   3.927
 3138SOL    HW110313   5.541   5.173   3.998
 3138SOL    HW210314   5.573   5.096   3.858
 3139SOL     OW10315   2.532   4.818   0.829
 3139SOL    HW110316   2.630   4.797   0.836
 3139SOL    HW210317   2.493   4.826   0.921
 3140SOL     OW10318   6.819   6.675   6.538
 3140SOL    HW110319   6.804   6.582   6.505
 3140SOL    HW210320   6.890   6.675   6.609
 3141SOL     OW10321   6.390   2.390   6.500
 3141SOL    HW110322   6.407   2.468   6.560
 3141SOL    HW210323   6.328   2.416   6.426
 3142SOL     OW10324   5.075   0.935   2.805
 3142SOL    HW110325   5.072   0.861   2.738
 3142SOL    HW210326   5.153   0.994   2.785
 3143SOL     OW10327   6.443   1.667   0.255
 3143SOL    HW110328   6.496   1.741   0.213
 3143SOL    HW210329   6.401   1.701   0.339
 3144SOL     OW10330   3.956   3.763   6.256
 3144SOL    HW110331   3.914   3.838   6.308
 3144SOL    HW210332   4.038   3.731   6.303
 3145SOL     OW10333   0.791   6.042   1.400
 3145SOL    HW110334   0.756   5.973   1.338
 3145SOL    HW210335   0.755   6.132   1.375
 3146SOL     OW10336   0.454   0.283   5.048
 3146SOL    HW110337   0.552   0.291   5.069
 3146SOL    HW210338   0.442   0.246   4.956
 3147SOL     OW10339   3.979   5.142   6.711
 3147SOL    HW110340   3.923   5.091   6.646
 3147SOL    HW210341   4.051   5.191   6.662
 3148SOL     OW10342   0.232   5.650   2.935
 3148SOL    HW110343   0.244   5.713   2.859
 3148SOL    HW210344   0.251   5.557   2.905
 3149SOL     OW10345   3.089   0.821   0.725
 3149SOL    HW110346   3.163   0.754   0.715
 3149SOL    HW210347   3.111   0.884   0.800
 3150SOL     OW10348   6.879   5.854   5.362
 3150SOL    HW110349   6.853   5.914   5.286
 3150SOL    HW210350   6.797   5.831   5.415
 3151SOL     OW10351   6.292   1.561   5.800
 3151SOL    HW110352   6.361   1.544   5.871
 3151SOL    HW210353   6.321   1.639   5.744
 3152SOL     OW10354   1.194   2.684   5.930
 3152SOL    HW110355   1.142   2.602   5.956
 3152SOL    HW210356   1.240   2.668   5.843
 3153SOL     OW10357   6.448   5.048   1.111
 3153SOL    HW110358   6.386   4.975   1.141
 3153SOL    HW210359   6.432   5.066   1.014
 3154SOL     OW10360   5.081   1.347   1.164
 3154SOL    HW110361   5.021   1.333   1.084
 3154SOL    HW210362   5.171   1.378   1.133
 3155SOL     OW10363   0.515   4.610   1.065
 3155SOL    HW110364   0.477   4.627   1.156
 3155SOL    HW210365   0.455   4.650   0.995
 3156SOL     OW10366   3.520   4.153   2.041
 3156SOL    HW110367   3.614   4.123   2.060
 3156SOL    HW210368   3.515   4.191   1.949
 3157SOL     OW10369   0.645   1.908   5.312
 3157SOL    HW110370   0.564   1.876   5.263
 3157SOL    HW210371   0.719   1.924   5.246
 3158SOL     OW10372   2.809   1.294   5.391
 3158SOL    HW110373   2.829   1.288   5.293
 3158SOL    HW210374   2.868   1.363   5.433
 3159SOL     OW10375   5.945   6.730   0.149
 3159SOL    HW110376   5.869   6.759   0.091
 3159SOL    HW210377   5.992   6.652   0.108
 3160SOL     OW10378   2.419   0.204   6.064
 3160SOL    HW110379   2.420   0.107   6.039
 3160SOL    HW210380   2.416   0.259   5.980
 3161SOL     OW10381   2.112   2.702   3.165
 3161SOL    HW110382   2.173   2.724   3.090
 3161SOL    HW210383   2.154   2.634   3.225
 3162SOL     OW10384   1.935   5.762   0.567
 3162SOL    HW110385   1.936   5.662   0.566
 3162SOL    HW210386   1.916   5.796   0.474
 3163SOL     OW10387   4.843   3.987   0.543
 3163SOL    HW110388   4.859   4.048   0.466
 3163SOL    HW210389   4.750   3.950   0.538
 3164SOL     OW10390   2.725   5.988   3.095
 3164SOL    HW110391   2.691   6.046   3.169
 3164SOL    HW210392   2.699   5.893   3.114
 3165SOL     OW10393   0.682   6.114   0.835
 3165SOL    HW110394   0.639   6.080   0.919
 3165SOL    HW210395   0.746   6.187   0.858
 3166SOL     OW10396   4.062   0.761   5.251
 3166SOL    HW110397   4.004   0.769   5.332
 3166SOL    HW210398   4.158   0.757   5.279
 3167SOL     OW10399   5.121   3.628   0.598
 3167SOL    HW110400   5.135   3.549   0.659
 3167SOL    HW210401   5.026   3.628   0.566
 3168SOL     OW10402   4.175   1.874   0.526
 3168SOL    HW110403   4.107   1.925   0.578
 3168SOL    HW210404   4.241   1.833   0.588
 3169SOL     OW10405   1.963   4.767   2.299
 3169SOL    HW110406   1.884   4.749   2.357
 3169SOL    HW210407   1.959   4.861   2.265
 3170SOL     OW10408   3.418   5.204   3.348
 3170SOL    HW110409   3.507   5.237   3.318
 3170SOL    HW210410   3.414   5.105   3.339
 3171SOL     OW10411   5.435   2.928   2.723
 3171SOL    HW110412   5.483   2.856   2.673
 3171SOL    HW210413   5.477   3.016   2.702
 3172SOL     OW10414   0.437   4.589   0.730
 3172SOL    HW110415   0.392   4.520   0.673
 3172SOL    HW210416   0.369   4.655   0.763
 3173SOL     OW10417   3.329   1.582   0.342
 3173SOL    HW110418   3.309   1.667   0.292
 3173SOL    HW210419   3.428   1.564   0.339
 3174SOL     OW10420   2.880   3.262   6.014
 3174SOL    HW110421   2.921   3.217   6.094
 3174SOL    HW210422   2.923   3.227   5.931
 3175SOL     OW10423   6.832   0.527   3.952
 3175SOL    HW110424   6.924   0.515   3.915
 3175SOL    HW210425   6.807   0.447   4.006
 3176SOL     OW10426   1.131   4.745   4.700
 3176SOL    HW110427   1.066   4.779   4.768
 3176SOL    HW210428   1.121   4.797   4.615
 3177SOL     OW10429   5.577   3.867   2.996
 3177SOL    HW110430   5.586   3.783   2.944
 3177SOL    HW210431   5.636   3.863   3.077
 3178SOL     OW10432   6.910   0.934   1.139
 3178SOL    HW110433   6.995   0.945   1.087
 3178SOL    HW210434   6.838   0.990   1.097
 3179SOL     OW10435   0.872   1.777   1.906
 3179SOL    HW110436   0.901   1.752   1.814
 3179SOL    HW210437   0.775   1.755   1.917
 3180SOL     OW10438   6.894   5.739   6.962
 3180SOL    HW110439   6.907   5.641   6.946
 3180SOL    HW210440   6.915   5.789   6.878
 3181SOL     OW10441   0.533   1.204   4.714
 3181SOL    HW110442   0.448   1.204   4.660
 3181SOL    HW210443   0.519   1.150   4.796
 3182SOL     OW10444   3.105   0.683   0.429
 3182SOL    HW110445   3.177   0.615   0.421
 3182SOL    HW210446   3.069   0.684   0.522
 3183SOL     OW10447   4.622   4.557   1.986
 3183SOL    HW110448   4.711   4.541   2.028
 3183SOL    HW210449   4.570   4.472   1.985
 3184SOL     OW10450   0.320   2.466   4.351
 3184SOL    HW110451   0.320   2.543   4.414
 3184SOL    HW210452   0.361   2.386   4.395
 3185SOL     OW10453   6.999   5.955   6.225
 3185SOL    HW110454   6.948   5.887   6.173
 3185SOL    HW210455   0.058   5.983   6.174
 3186SOL     OW10456   0.587   1.600   6.189
 3186SOL    HW110457   0.487   1.604   6.191
 3186SOL    HW210458   0.616   1.512   6.149
 3187SOL     OW10459   3.963   5.761   2.962
 3187SOL    HW110460   4.005   5.756   2.872
 3187SOL    HW210461   3.975   5.852   3.000
 3188SOL     OW10462   2.120   4.759   5.590
 3188SOL    HW110463   2.191   4.697   5.557
 3188SOL    HW210464   2.113   4.837   5.528
 3189SOL     OW10465   2.840   1.589   0.276
 3189SOL    HW110466   2.915   1.620   0.217
 3189SOL    HW210467   2.848   1.634   0.366
 3190SOL     OW10468   0.096   6.095   4.495
 3190SOL    HW110469   0.037   6.081   4.415
 3190SOL    HW210470   0.121   6.191   4.502
 3191SOL     OW10471   4.394   5.570   1.719
 3191SOL    HW110472   4.449   5.634   1.772
 3191SOL    HW210473   4.363   5.496   1.778
 3192SOL     OW10474   6.395   2.131   2.206
 3192SOL    HW110475   6.402   2.032   2.208
 3192SOL    HW210476   6.455   2.167   2.135
 3193SOL     OW10477   3.626   0.386   5.418
 3193SOL    HW110478   3.681   0.439   5.354
 3193SOL    HW210479   3.637   0.288   5.398
 3194SOL     OW10480   0.992   1.416   5.716
 3194SOL    HW110481   0.990   1.332   5.771
 3194SOL    HW210482   0.975   1.393   5.620
 3195SOL     OW10483   0.196   1.671   1.687
 3195SOL    HW110484   0.129   1.741   1.713
 3195SOL    HW210485   0.201   1.601   1.758
 3196SOL     OW10486   6.557   0.134   4.781
 3196SOL    HW110487   6.567   0.146   4.683
 3196SOL    HW210488   6.615   0.199   4.829
 3197SOL     OW10489   2.055   0.469   5.972
 3197SOL    HW110490   2.149   0.470   6.006
 3197SOL    HW210491   2.003   0.542   6.016
 3198SOL     OW10492   6.593   2.437   3.479
 3198SOL    HW110493   6.689   2.426   3.501
 3198SOL    HW210494   6.537   2.385   3.544
 3199SOL     OW10495   5.700   4.273   2.901
 3199SOL    HW110496   5.666   4.234   2.986
 3199SOL    HW210497   5.690   4.373   2.904
 3200SOL     OW10498   5.380   3.336   3.742
 3200SOL    HW110499   5.288   3.356   3.773
 3200SOL    HW210500   5.403   3.397   3.666
 3201SOL     OW10501   6.138   3.966   2.519
 3201SOL    HW110502   6.147   3.986   2.422
 3201SOL    HW210503   6.067   4.024   2.559
 3202SOL     OW10504   1.211   5.359   0.761
 3202SOL    HW110505   1.137   5.354   0.694
 3202SOL    HW210506   1.193   5.433   0.825
 3203SOL     OW10507   4.136   6.185   0.981
 3203SOL    HW110508   4.103   6.221   1.068
 3203SOL    HW210509   4.059   6.169   0.920
 3204SOL     OW10510   3.235   1.115   3.853
 3204SOL    HW110511   3.323   1.158   3.832
 3204SOL    HW210512   3.171   1.134   3.779
 3205SOL     OW10513   5.399   2.809   5.627
 3205SOL    HW110514   5.348   2.725   5.608
 3205SOL    HW210515   5.364   2.850   5.712
 3206SOL     OW10516   2.776   2.771   1.687
 3206SOL    HW110517   2.819   2.860   1.704
 3206SOL    HW210518   2.678   2.777   1.707
 3207SOL     OW10519   1.040   0.154   5.180
 3207SOL    HW110520   1.086   0.174   5.267
 3207SOL    HW210521   0.983   0.073   5.190
 3208SOL     OW10522   6.346   6.141   5.451
 3208SOL    HW110523   6.317   6.143   5.546
 3208SOL    HW210524   6.268   6.117   5.393
 3209SOL     OW10525   5.012   5.653   5.988
 3209SOL    HW110526   4.994   5.751   5.975
 3209SOL    HW210527   5.010   5.632   6.086
 3210SOL     OW10528   6.749   4.864   1.218
 3210SOL    HW110529   6.764   4.958   1.249
 3210SOL    HW210530   6.756   4.802   1.296
 3211SOL     OW10531   1.410   5.973   6.916
 3211SOL    HW110532   1.386   6.068   6.893
 3211SOL    HW210533   1.482   5.974   6.986
 3212SOL     OW10534   2.708   6.779   3.083
 3212SOL    HW110535   2.770   6.716   3.130
 3212SOL    HW210536   2.700   6.863   3.136
 3213SOL     OW10537   1.376   1.150   6.309
 3213SOL    HW110538   1.452   1.114   6.364
 3213SOL    HW210539   1.394   1.247   6.287
 3214SOL     OW10540   3.758   1.261   3.086
 3214SOL    HW110541   3.671   1.223   3.053
 3214SOL    HW210542   3.740   1.343   3.140
 3215SOL     OW10543   1.526   2.930   0.621
 3215SOL    HW110544   1.543   2.844   0.669
 3215SOL    HW210545   1.429   2.955   0.628
 3216SOL     OW10546   5.771   4.313   0.681
 3216SOL    HW110547   5.805   4.387   0.621
 3216SOL    HW210548   5.674   4.299   0.664
 3217SOL     OW10549   0.756   4.576   3.230
 3217SOL    HW110550   0.687   4.532   3.288
 3217SOL    HW210551   0.846   4.535   3.248
 3218SOL     OW10552   6.658   2.061   2.986
 3218SOL    HW110553   6.754   2.070   3.011
 3218SOL    HW210554   6.625   2.147   2.947
 3219SOL     OW10555   6.726   0.689   5.058
 3219SOL    HW110556   6.660   0.682   5.133
 3219SOL    HW210557   6.686   0.742   4.983
 3220SOL     OW10558   6.700   5.217   6.927
 3220SOL    HW110559   6.776   5.250   6.870
 3220SOL    HW210560   6.614   5.235   6.880
 3221SOL     OW10561   4.372   0.280   2.230
 3221SOL    HW110562   4.395   0.330   2.314
 3221SOL    HW210563   4.456   0.263   2.178
 3222SOL     OW10564   2.812   1.365   2.587
 3222SOL    HW110565   2.771   1.320   2.508
 3222SOL    HW210566   2.901   1.325   2.606
 3223SOL     OW10567   1.258   6.488   0.944
 3223SOL    HW110568   1.243   6.573   0.895
 3223SOL    HW210569   1.211   6.491   1.032
 3224SOL     OW10570   4.609   2.370   4.473
 3224SOL    HW110571   4.621   2.372   4.572
 3224SOL    HW210572   4.699   2.369   4.428
 3225SOL     OW10573   4.076   0.473   4.117
 3225SOL    HW110574   4.026   0.398   4.161
 3225SOL    HW210575   4.165   0.484   4.161
 3226SOL     OW10576   0.803   0.341   1.887
 3226SOL    HW110577   0.854   0.311   1.967
 3226SOL    HW210578   0.738   0.412   1.914
 3227SOL     OW10579   4.451   2.845   6.152
 3227SOL    HW110580   4.366   2.856   6.101
 3227SOL    HW210581   4.458   2.917   6.221
 3228SOL     OW10582   1.040   4.295   0.615
 3228SOL    HW110583   1.073   4.225   0.678
 3228SOL    HW210584   0.973   4.353   0.661
 3229SOL     OW10585   2.672   1.568   6.343
 3229SOL    HW110586   2.717   1.570   6.433
 3229SOL    HW210587   2.574   1.552   6.356
 3230SOL     OW10588   2.870   5.847   5.401
 3230SOL    HW110589   2.943   5.819   5.339
 3230SOL    HW210590   2.871   5.947   5.412
 3231SOL     OW10591   2.916   1.172   2.165
 3231SOL    HW110592   2.973   1.091   2.172
 3231SOL    HW210593   2.871   1.173   2.075
 3232SOL     OW10594   4.118   5.605   4.324
 3232SOL    HW110595   4.082   5.611   4.231
 3232SOL    HW210596   4.053   5.553   4.380
 3233SOL     OW10597   0.804   2.509   6.978
 3233SOL    HW110598   0.779   2.578   6.910
 3233SOL    HW210599   0.754   2.424   6.959
 3234SOL     OW10600   2.638   3.300   0.833
 3234SOL    HW110601   2.577   3.305   0.912
 3234SOL    HW210602   2.728   3.266   0.861
 3235SOL     OW10603   6.715   6.026   2.063
 3235SOL    HW110604   6.681   5.944   2.110
 3235SOL    HW210605   6.761   6.085   2.129
 3236SOL     OW10606   2.735   4.360   0.612
 3236SOL    HW110607   2.641   4.353   0.581
 3236SOL    HW210608   2.737   4.376   0.711
 3237SOL     OW10609   6.207   1.238   5.289
 3237SOL    HW110610   6.241   1.304   5.222
 3237SOL    HW210611   6.133   1.281   5.342
 3238SOL     OW10612   6.376   5.077   0.852
 3238SOL    HW110613   6.289   5.105   0.811
 3238SOL    HW210614   6.449   5.138   0.820
 3239SOL     OW10615   0.320   0.320   3.645
 3239SOL    HW110616   0.262   0.245   3.614
 3239SOL    HW210617   0.293   0.405   3.598
 3240SOL     OW10618   0.397   0.693   6.200
 3240SOL    HW110619   0.315   0.637   6.184
 3240SOL    HW210620   0.471   0.635   6.234
 3241SOL     OW10621   5.224   1.477   6.755
 3241SOL    HW110622   5.306   1.476   6.812
 3241SOL    HW210623   5.147   1.439   6.806
 3242SOL     OW10624   4.610   4.184   5.547
 3242SOL    HW110625   4.621   4.168   5.645
 3242SOL    HW210626   4.680   4.249   5.516
 3243SOL     OW10627   4.399   4.960   6.109
 3243SOL    HW110628   4.428   4.920   6.196
 3243SOL    HW210629   4.476   5.008   6.067
 3244SOL     OW10630   5.675   6.608   6.518
 3244SOL    HW110631   5.611   6.548   6.472
 3244SOL    HW210632   5.690   6.690   6.463
 3245SOL     OW10633   4.204   1.701   4.009
 3245SOL    HW110634   4.165   1.694   4.100
 3245SOL    HW210635   4.215   1.610   3.970
 3246SOL     OW10636   0.570   0.155   2.227
 3246SOL    HW110637   0.578   0.119   2.320
 3246SOL    HW210638   0.613   0.091   2.163
 3247SOL     OW10639   0.402   4.044   2.475
 3247SOL    HW110640   0.339   4.121   2.484
 3247SOL    HW210641   0.480   4.056   2.535
 3248SOL     OW10642   5.544   2.006   2.906
 3248SOL    HW110643   5.625   1.999   2.847
 3248SOL    HW210644   5.574   2.018   3.001
 3249SOL     OW10645   3.631   3.471   3.709
 3249SOL    HW110646   3.679   3.554   3.680
 3249SOL    HW210647   3.549   3.459   3.653
 3250SOL     OW10648   5.256   5.996   2.304
 3250SOL    HW110649   5.167   6.036   2.326
 3250SOL    HW210650   5.242   5.909   2.255
 3251SOL     OW10651   2.637   1.057   4.762
 3251SOL    HW110652   2.734   1.033   4.757
 3251SOL    HW210653   2.585   0.996   4.703
 3252SOL     OW10654   3.080   1.369   3.990
 3252SOL    HW110655   3.034   1.366   4.079
 3252SOL    HW210656   3.153   1.301   3.987
 3253SOL     OW10657   6.258   3.101   1.119
 3253SOL    HW110658   6.324   3.129   1.050
 3253SOL    HW210659   6.189   3.173   1.130
 3254SOL     OW10660   6.018   1.101   0.215
 3254SOL    HW110661   5.999   1.173   0.281
 3254SOL    HW210662   6.030   1.014   0.263
 3255SOL     OW10663   6.183   4.644   1.468
 3255SOL    HW110664   6.101   4.667   1.520
 3255SOL    HW210665   6.253   4.714   1.484
 3256SOL     OW10666   4.468   2.461   1.380
 3256SOL    HW110667   4.383   2.513   1.382
 3256SOL    HW210668   4.455   2.374   1.428
 3257SOL     OW10669   2.848   2.129   2.728
 3257SOL    HW110670   2.845   2.048   2.669
 3257SOL    HW210671   2.762   2.136   2.778
 3258SOL     OW10672   2.627   5.724   3.485
 3258SOL    HW110673   2.706   5.711   3.425
 3258SOL    HW210674   2.555   5.773   3.435
 3259SOL     OW10675   5.308   4.417   4.308
 3259SOL    HW110676   5.301   4.357   4.228
 3259SOL    HW210677   5.399   4.458   4.310
 3260SOL     OW10678   2.284   4.549   1.435
 3260SOL    HW110679   2.274   4.615   1.510
 3260SOL    HW210680   2.381   4.524   1.426
 3261SOL     OW10681   4.548   0.743   3.217
 3261SOL    HW110682   4.484   0.772   3.288
 3261SOL    HW210683   4.637   0.722   3.259
 3262SOL     OW10684   3.734   1.928   2.728
 3262SOL    HW110685   3.697   1.963   2.641
 3262SOL    HW210686   3.833   1.935   2.727
 3263SOL     OW10687   2.470   1.483   3.279
 3263SOL    HW110688   2.460   1.385   3.261
 3263SOL    HW210689   2.429   1.535   3.204
 3264SOL     OW10690   2.345   5.274   0.114
 3264SOL    HW110691   2.417   5.312   0.056
 3264SOL    HW210692   2.257   5.281   0.066
 3265SOL     OW10693   6.118   5.648   5.705
 3265SOL    HW110694   6.093   5.598   5.621
 3265SOL    HW210695   6.212   5.625   5.730
 3266SOL     OW10696   3.116   4.833   0.207
 3266SOL    HW110697   3.066   4.769   0.149
 3266SOL    HW210698   3.063   4.917   0.217
 3267SOL     OW10699   4.378   0.206   1.114
 3267SOL    HW110700   4.416   0.126   1.068
 3267SOL    HW210701   4.378   0.284   1.052
 3268SOL     OW10702   6.756   4.730   1.471
 3268SOL    HW110703   6.677   4.681   1.508
 3268SOL    HW210704   6.822   4.748   1.544
 3269SOL     OW10705   1.073   4.964   2.519
 3269SOL    HW110706   1.083   4.954   2.420
 3269SOL    HW210707   1.002   5.031   2.540
 3270SOL     OW10708   0.681   2.577   5.303
 3270SOL    HW110709   0.735   2.566   5.220
 3270SOL    HW210710   0.613   2.503   5.308
 3271SOL     OW10711   0.256   3.359   2.037
 3271SOL    HW110712   0.183   3.421   2.068
 3271SOL    HW210713   0.306   3.401   1.962
 3272SOL     OW10714   4.352   6.066   0.189
 3272SOL    HW110715   4.323   6.061   0.285
 3272SOL    HW210716   4.332   6.158   0.154
 3273SOL     OW10717   4.220   3.660   5.980
 3273SOL    HW110718   4.222   3.749   6.026
 3273SOL    HW210719   4.279   3.662   5.900
 3274SOL     OW10720   6.081   1.054   6.951
 3274SOL    HW110721   6.050   1.063   0.022
 3274SOL    HW210722   6.010   1.009   6.896
 3275SOL     OW10723   4.461   0.486   1.238
 3275SOL    HW110724   4.388   0.549   1.264
 3275SOL    HW210725   4.444   0.450   1.147
 3276SOL     OW10726   4.920   0.140   0.279
 3276SOL    HW110727   4.849   0.202   0.244
 3276SOL    HW210728   4.880   0.078   0.347
 3277SOL     OW10729   3.147   1.629   1.865
 3277SOL    HW110730   3.212   1.695   1.903
 3277SOL    HW210731   3.197   1.560   1.813
 3278SOL     OW10732   0.355   0.415   6.884
 3278SOL    HW110733   0.324   0.333   6.836
 3278SOL    HW210734   0.276   0.472   6.908
 3279SOL     OW10735   4.456   6.473   1.054
 3279SOL    HW110736   4.397   6.505   1.129
 3279SOL    HW210737   4.430   6.519   0.969
 3280SOL     OW10738   5.597   3.607   4.289
 3280SOL    HW110739   5.540   3.663   4.229
 3280SOL    HW210740   5.604   3.515   4.251
 3281SOL     OW10741   6.814   4.377   1.932
 3281SOL    HW110742   6.862   4.372   2.020
 3281SOL    HW210743   6.882   4.381   1.859
 3282SOL     OW10744   0.472   3.954   5.255
 3282SOL    HW110745   0.561   3.909   5.263
 3282SOL    HW210746   0.440   3.947   5.161
 3283SOL     OW10747   3.638   1.093   1.385
 3283SOL    HW110748   3.654   0.998   1.412
 3283SOL    HW210749   3.545   1.120   1.410
 3284SOL     OW10750   1.877   5.762   4.815
 3284SOL    HW110751   1.863   5.745   4.912
 3284SOL    HW210752   1.794   5.738   4.764
 3285SOL     OW10753   5.363   1.028   4.779
 3285SOL    HW110754   5.433   1.095   4.754
 3285SOL    HW210755   5.277   1.051   4.734
 3286SOL     OW10756   3.325   1.901   1.587
 3286SOL    HW110757   3.333   1.979   1.650
 3286SOL    HW210758   3.404   1.900   1.525
 3287SOL     OW10759   1.558   0.357   6.507
 3287SOL    HW110760   1.644   0.323   6.544
 3287SOL    HW210761   1.544   0.452   6.536
 3288SOL     OW10762   1.710   6.395   0.818
 3288SOL    HW110763   1.770   6.441   0.883
 3288SOL    HW210764   1.748   6.405   0.726
 3289SOL     OW10765   3.409   1.531   6.635
 3289SOL    HW110766   3.409   1.432   6.621
 3289SOL    HW210767   3.502   1.563   6.650
 3290SOL     OW10768   6.595   5.183   0.657
 3290SOL    HW110769   6.615   5.244   0.734
 3290SOL    HW210770   6.656   5.104   0.661
 3291SOL     OW10771   4.696   0.007   5.817
 3291SOL    HW110772   4.676   0.055   5.732
 3291SOL    HW210773   4.777   6.973   5.805
 3292SOL     OW10774   0.587   1.582   0.627
 3292SOL    HW110775   0.601   1.529   0.711
 3292SOL    HW210776   0.675   1.599   0.583
 3293SOL     OW10777   6.125   5.141   2.872
 3293SOL    HW110778   6.165   5.230   2.895
 3293SOL    HW210779   6.196   5.080   2.839
 3294SOL     OW10780   5.053   2.368   5.469
 3294SOL    HW110781   5.011   2.426   5.539
 3294SOL    HW210782   5.106   2.425   5.406
 3295SOL     OW10783   1.846   3.064   1.184
 3295SOL    HW110784   1.792   3.037   1.264
 3295SOL    HW210785   1.785   3.080   1.107
 3296SOL     OW10786   7.004   6.972   5.648
 3296SOL    HW110787   6.956   6.961   5.736
 3296SOL    HW210788   0.011   0.044   5.640
 3297SOL     OW10789   3.063   1.945   5.378
 3297SOL    HW110790   3.018   1.943   5.467
 3297SOL    HW210791   3.157   1.912   5.387
 3298SOL     OW10792   6.068   3.767   4.737
 3298SOL    HW110793   6.026   3.680   4.758
 3298SOL    HW210794   6.039   3.798   4.646
 3299SOL     OW10795   3.657   4.974   3.612
 3299SOL    HW110796   3.716   4.919   3.671
 3299SOL    HW210797   3.561   4.959   3.637
 3300SOL     OW10798   1.866   0.127   5.530
 3300SOL    HW110799   1.819   0.197   5.477
 3300SOL    HW210800   1.931   0.079   5.472
 3301SOL     OW10801   1.840   3.357   2.491
 3301SOL    HW110802   1.851   3.410   2.576
 3301SOL    HW210803   1.893   3.401   2.418
 3302SOL     OW10804   2.438   5.040   5.627
 3302SOL    HW110805   2.462   4.973   5.556
 3302SOL    HW210806   2.410   4.991   5.710
 3303SOL     OW10807   3.501   2.734   0.554
 3303SOL    HW110808   3.402   2.722   0.545
 3303SOL    HW210809   3.523   2.829   0.574
 3304SOL     OW10810   2.611   4.841   6.338
 3304SOL    HW110811   2.640   4.757   6.293
 3304SOL    HW210812   2.598   4.824   6.436
 3305SOL     OW10813   3.419   0.383   1.242
 3305SOL    HW110814   3.507   0.376   1.194
 3305SOL    HW210815   3.417   0.468   1.295
 3306SOL     OW10816   1.451   0.088   0.180
 3306SOL    HW110817   1.525   0.143   0.219
 3306SOL    HW210818   1.376   0.148   0.153
 3307SOL     OW10819   1.130   0.279   4.948
 3307SOL    HW110820   1.121   0.251   5.044
 3307SOL    HW210821   1.142   0.199   4.891
 3308SOL     OW10822   3.781   4.415   1.277
 3308SOL    HW110823   3.736   4.420   1.188
 3308SOL    HW210824   3.863   4.473   1.276
 3309SOL     OW10825   5.176   4.538   3.702
 3309SOL    HW110826   5.167   4.440   3.683
 3309SOL    HW210827   5.154   4.590   3.619
 3310SOL     OW10828   0.438   5.196   4.394
 3310SOL    HW110829   0.431   5.257   4.315
 3310SOL    HW210830   0.384   5.234   4.470
 3311SOL     OW10831   3.221   3.649   0.398
 3311SOL    HW110832   3.167   3.571   0.368
 3311SOL    HW210833   3.182   3.687   0.482
 3312SOL     OW10834   5.389   2.669   6.496
 3312SOL    HW110835   5.390   2.767   6.514
 3312SOL    HW210836   5.361   2.620   6.579
 3313SOL     OW10837   1.114   0.710   2.841
 3313SOL    HW110838   1.046   0.758   2.897
 3313SOL    HW210839   1.077   0.698   2.749
 3314SOL     OW10840   2.418   6.945   3.421
 3314SOL    HW110841   2.359   7.010   3.373
 3314SOL    HW210842   2.474   6.994   3.488
 3315SOL     OW10843   0.083   5.267   5.044
 3315SOL    HW110844   0.163   5.211   5.066
 3315SOL    HW210845   0.025   5.275   5.124
 3316SOL     OW10846   2.887   1.215   6.546
 3316SOL    HW110847   2.857   1.309   6.530
 3316SOL    HW210848   2.954   1.189   6.476
 3317SOL     OW10849   5.065   2.609   1.967
 3317SOL    HW110850   5.089   2.597   2.064
 3317SOL    HW210851   5.035   2.702   1.951
 3318SOL     OW10852   3.137   2.658   0.091
 3318SOL    HW110853   3.069   2.687   0.159
 3318SOL    HW210854   3.228   2.689   0.121
 3319SOL     OW10855   6.789   6.799   2.619
 3319SOL    HW110856   6.733   6.766   2.695
 3319SOL    HW210857   6.838   6.882   2.646
 3320SOL     OW10858   6.207   0.522   1.019
 3320SOL    HW110859   6.156   0.565   1.093
 3320SOL    HW210860   6.304   0.547   1.026
 3321SOL     OW10861   5.772   1.543   0.779
 3321SOL    HW110862   5.825   1.621   0.746
 3321SOL    HW210863   5.685   1.576   0.817
 3322SOL     OW10864   6.432   3.157   0.885
 3322SOL    HW110865   6.464   3.078   0.833
 3322SOL    HW210866   6.511   3.209   0.919
 3323SOL     OW10867   2.565   1.773   1.737
 3323SOL    HW110868   2.534   1.839   1.806
 3323SOL    HW210869   2.560   1.815   1.646
 3324SOL     OW10870   4.867   5.448   5.807
 3324SOL    HW110871   4.822   5.504   5.877
 3324SOL    HW210872   4.960   5.481   5.792
 3325SOL     OW10873   1.496   3.378   6.597
 3325SOL    HW110874   1.524   3.463   6.551
 3325SOL    HW210875   1.423   3.335   6.544
 3326SOL     OW10876   5.278   0.882   3.108
 3326SOL    HW110877   5.321   0.867   3.019
 3326SOL    HW210878   5.325   0.829   3.177
 3327SOL     OW10879   1.141   5.959   1.246
 3327SOL    HW110880   1.130   6.002   1.157
 3327SOL    HW210881   1.237   5.961   1.273
 3328SOL     OW10882   3.349   1.310   1.088
 3328SOL    HW110883   3.283   1.282   1.156
 3328SOL    HW210884   3.303   1.361   1.015
 3329SOL     OW10885   6.652   5.915   5.521
 3329SOL    HW110886   6.732   5.963   5.556
 3329SOL    HW210887   6.623   5.846   5.587
 3330SOL     OW10888   6.442   2.606   2.180
 3330SOL    HW110889   6.394   2.662   2.112
 3330SOL    HW210890   6.376   2.570   2.246
 3331SOL     OW10891   1.528   2.183   1.208
 3331SOL    HW110892   1.621   2.193   1.173
 3331SOL    HW210893   1.487   2.273   1.222
 3332SOL     OW10894   5.476   4.648   0.225
 3332SOL    HW110895   5.495   4.732   0.275
 3332SOL    HW210896   5.550   4.582   0.239
 3333SOL     OW10897   4.325   5.185   6.384
 3333SOL    HW110898   4.257   5.220   6.448
 3333SOL    HW210899   4.316   5.233   6.296
 3334SOL     OW10900   3.410   3.518   1.388
 3334SOL    HW110901   3.494   3.473   1.418
 3334SOL    HW210902   3.394   3.600   1.443
 3335SOL     OW10903   4.982   4.953   5.660
 3335SOL    HW110904   5.015   5.047   5.647
 3335SOL    HW210905   5.054   4.898   5.703
 3336SOL     OW10906   3.286   5.700   6.148
 3336SOL    HW110907   3.310   5.602   6.149
 3336SOL    HW210908   3.218   5.716   6.076
 3337SOL     OW10909   3.409   2.138   1.703
 3337SOL    HW110910   3.374   2.145   1.796
 3337SOL    HW210911   3.508   2.148   1.704
 3338SOL     OW10912   6.937   4.066   1.317
 3338SOL    HW110913   6.935   4.102   1.223
 3338SOL    HW210914   6.894   3.976   1.319
 3339SOL     OW10915   6.742   6.049   6.703
 3339SOL    HW110916   6.678   6.081   6.632
 3339SOL    HW210917   6.707   6.075   6.793
 3340SOL     OW10918   3.342   6.451   2.272
 3340SOL    HW110919   3.291   6.512   2.211
 3340SOL    HW210920   3.286   6.370   2.291
 3341SOL     OW10921   0.686   0.117   2.511
 3341SOL    HW110922   0.638   0.204   2.511
 3341SOL    HW210923   0.715   0.095   2.604
 3342SOL     OW10924   1.690   6.890   4.333
 3342SOL    HW110925   1.681   6.796   4.301
 3342SOL    HW210926   1.750   6.941   4.271
 3343SOL     OW10927   4.913   2.707   0.919
 3343SOL    HW110928   4.900   2.786   0.979
 3343SOL    HW210929   4.835   2.700   0.856
 3344SOL     OW10930   5.537   3.897   5.015
 3344SOL    HW110931   5.515   3.918   5.110
 3344SOL    HW210932   5.454   3.903   4.959
 3345SOL     OW10933   3.018   3.931   5.699
 3345SOL    HW110934   2.978   4.003   5.642
 3345SOL    HW210935   3.100   3.895   5.655
 3346SOL     OW10936   0.568   1.319   2.093
 3346SOL    HW110937   0.495   1.367   2.142
 3346SOL    HW210938   0.656   1.335   2.138
 3347SOL     OW10939   6.322   4.003   4.123
 3347SOL    HW110940   6.285   3.998   4.216
 3347SOL    HW210941   6.304   3.917   4.075
 3348SOL     OW10942   3.267   3.378   3.988
 3348SOL    HW110943   3.299   3.435   3.913
 3348SOL    HW210944   3.264   3.431   4.072
 3349SOL     OW10945   6.549   3.715   3.955
 3349SOL    HW110946   6.562   3.625   3.996
 3349SOL    HW210947   6.635   3.747   3.915
 3350SOL     OW10948   1.961   1.273   6.882
 3350SOL    HW110949   1.997   1.277   6.975
 3350SOL    HW210950   2.026   1.227   6.822
 3351SOL     OW10951   5.454   0.986   1.103
 3351SOL    HW110952   5.531   1.012   1.162
 3351SOL    HW210953   5.369   1.008   1.149
 3352SOL     OW10954   0.820   4.319   0.950
 3352SOL    HW110955   0.839   4.355   1.041
 3352SOL    HW210956   0.832   4.219   0.950
 3353SOL     OW10957   1.672   6.831   6.724
 3353SOL    HW110958   1.653   6.929   6.730
 3353SOL    HW210959   1.586   6.781   6.713
 3354SOL     OW10960   6.845   1.922   3.446
 3354SOL    HW110961   6.870   1.990   3.378
 3354SOL    HW210962   6.765   1.871   3.415
 3355SOL     OW10963   0.344   2.016   1.342
 3355SOL    HW110964   0.260   2.065   1.316
 3355SOL    HW210965   0.336   1.986   1.438
 3356SOL     OW10966   2.942   3.601   0.021
 3356SOL    HW110967   3.001   3.655   6.985
 3356SOL    HW210968   2.887   3.661   0.079
 3357SOL     OW10969   2.540   5.109   1.117
 3357SOL    HW110970   2.601   5.180   1.084
 3357SOL    HW210971   2.449   5.148   1.133
 3358SOL     OW10972   4.803   6.579   2.430
 3358SOL    HW110973   4.884   6.611   2.382
 3358SOL    HW210974   4.795   6.480   2.421
 3359SOL     OW10975   0.979   0.660   2.631
 3359SOL    HW110976   0.923   0.680   2.711
 3359SOL    HW210977   0.958   0.569   2.596
 3360SOL     OW10978   0.635   0.967   0.206
 3360SOL    HW110979   0.719   0.984   0.258
 3360SOL    HW210980   0.582   0.896   0.251
 3361SOL     OW10981   6.163   5.783   3.106
 3361SOL    HW110982   6.214   5.795   3.191
 3361SOL    HW210983   6.076   5.738   3.125
 3362SOL     OW10984   3.196   1.257   4.773
 3362SOL    HW110985   3.268   1.221   4.714
 3362SOL    HW210986   3.174   1.351   4.745
 3363SOL     OW10987   0.303   1.767   6.801
 3363SOL    HW110988   0.246   1.838   6.760
 3363SOL    HW210989   0.270   1.677   6.773
 3364SOL     OW10990   0.857   5.846   5.944
 3364SOL    HW110991   0.878   5.840   5.847
 3364SOL    HW210992   0.941   5.834   5.997
 3365SOL     OW10993   0.278   2.490   4.761
 3365SOL    HW110994   0.221   2.533   4.691
 3365SOL    HW210995   0.223   2.471   4.842
 3366SOL     OW10996   5.252   0.682   5.356
 3366SOL    HW110997   5.161   0.664   5.317
 3366SOL    HW210998   5.299   0.595   5.371
 3367SOL     OW10999   1.514   2.483   2.079
 3367SOL    HW111000   1.578   2.544   2.032
 3367SOL    HW211001   1.546   2.468   2.173
 3368SOL     OW11002   6.334   5.479   6.676
 3368SOL    HW111003   6.368   5.505   6.585
 3368SOL    HW211004   6.267   5.406   6.666
 3369SOL     OW11005   3.760   0.482   0.294
 3369SOL    HW111006   3.739   0.554   0.359
 3369SOL    HW211007   3.676   0.443   0.259
 3370SOL     OW11008   6.615   6.701   5.015
 3370SOL    HW111009   6.597   6.792   4.980
 3370SOL    HW211010   6.690   6.705   5.082
 3371SOL     OW11011   1.057   4.546   1.943
 3371SOL    HW111012   1.087   4.452   1.923
 3371SOL    HW211013   0.957   4.548   1.951
 3372SOL     OW11014   0.568   0.919   2.298
 3372SOL    HW111015   0.566   0.820   2.286
 3372SOL    HW211016   0.519   0.963   2.223
 3373SOL     OW11017   5.922   1.288   4.804
 3373SOL    HW111018   5.932   1.203   4.752
 3373SOL    HW211019   5.834   1.331   4.782
 3374SOL     OW11020   3.413   6.122   5.351
 3374SOL    HW111021   3.463   6.048   5.306
 3374SOL    HW211022   3.317   6.119   5.324
 3375SOL     OW11023   4.619   4.357   5.083
 3375SOL    HW111024   4.676   4.321   5.011
 3375SOL    HW211025   4.534   4.393   5.044
 3376SOL     OW11026   3.195   2.948   2.799
 3376SOL    HW111027   3.213   2.930   2.896
 3376SOL    HW211028   3.281   2.960   2.751
 3377SOL     OW11029   1.337   6.369   4.822
 3377SOL    HW111030   1.317   6.419   4.738
 3377SOL    HW211031   1.414   6.307   4.806
 3378SOL     OW11032   6.635   1.057   1.456
 3378SOL    HW111033   6.711   1.121   1.444
 3378SOL    HW211034   6.568   1.097   1.519
 3379SOL     OW11035   0.733   4.775   5.535
 3379SOL    HW111036   0.719   4.724   5.620
 3379SOL    HW211037   0.810   4.734   5.485
 3380SOL     OW11038   0.014   4.435   6.569
 3380SOL    HW111039   7.000   4.429   6.476
 3380SOL    HW211040   0.042   4.344   6.600
 3381SOL     OW11041   2.925   2.581   0.582
 3381SOL    HW111042   3.011   2.612   0.541
 3381SOL    HW211043   2.870   2.660   0.608
 3382SOL     OW11044   6.961   1.801   0.029
 3382SOL    HW111045   6.991   1.711   7.021
 3382SOL    HW211046   0.017   1.858   0.049
 3383SOL     OW11047   6.107   4.545   2.748
 3383SOL    HW111048   6.168   4.595   2.809
 3383SOL    HW211049   6.069   4.466   2.797
 3384SOL     OW11050   3.145   3.081   4.796
 3384SOL    HW111051   3.241   3.063   4.776
 3384SOL    HW211052   3.109   3.149   4.732
 3385SOL     OW11053   6.525   3.749   3.666
 3385SOL    HW111054   6.610   3.788   3.700
 3385SOL    HW211055   6.503   3.790   3.578
 3386SOL     OW11056   5.999   4.337   4.464
 3386SOL    HW111057   6.090   4.375   4.451
 3386SOL    HW211058   5.953   4.327   4.376
 3387SOL     OW11059   2.638   2.478   2.767
 3387SOL    HW111060   2.724   2.525   2.748
 3387SOL    HW211061   2.657   2.386   2.802
 3388SOL     OW11062   5.825   2.373   1.298
 3388SOL    HW111063   5.796   2.369   1.393
 3388SOL    HW211064   5.922   2.396   1.293
 3389SOL     OW11065   4.858   4.315   3.794
 3389SOL    HW111066   4.822   4.401   3.759
 3389SOL    HW211067   4.833   4.305   3.890
 3390SOL     OW11068   4.942   2.435   5.895
 3390SOL    HW111069   4.937   2.341   5.929
 3390SOL    HW211070   4.944   2.498   5.972
 3391SOL     OW11071   3.629   2.012   4.941
 3391SOL    HW111072   3.696   1.960   4.889
 3391SOL    HW211073   3.602   1.960   5.022
 3392SOL     OW11074   2.442   0.580   4.019
 3392SOL    HW111075   2.474   0.500   3.969
 3392SOL    HW211076   2.499   0.592   4.101
 3393SOL     OW11077   6.570   6.583   0.424
 3393SOL    HW111078   6.551   6.589   0.522
 3393SOL    HW211079   6.541   6.668   0.379
 3394SOL     OW11080   5.774   2.405   0.594
 3394SOL    HW111081   5.724   2.327   0.633
 3394SOL    HW211082   5.724   2.489   0.612
 3395SOL     OW11083   0.247   3.387   4.162
 3395SOL    HW111084   0.175   3.318   4.150
 3395SOL    HW211085   0.336   3.343   4.155
 3396SOL     OW11086   0.281   3.385   3.210
 3396SOL    HW111087   0.318   3.338   3.130
 3396SOL    HW211088   0.186   3.410   3.192
 3397SOL     OW11089   3.849   0.149   5.770
 3397SOL    HW111090   3.902   0.228   5.800
 3397SOL    HW211091   3.760   0.180   5.734
 3398SOL     OW11092   0.880   0.260   4.312
 3398SOL    HW111093   0.965   0.298   4.276
 3398SOL    HW211094   0.900   0.205   4.393
 3399SOL     OW11095   4.496   4.506   4.412
 3399SOL    HW111096   4.518   4.427   4.468
 3399SOL    HW211097   4.548   4.585   4.444
 3400SOL     OW11098   4.983   2.225   6.532
 3400SOL    HW111099   4.979   2.137   6.486
 3400SOL    HW211100   4.930   2.221   6.617
 3401SOL     OW11101   7.008   3.309   0.217
 3401SOL    HW111102   6.923   3.255   0.214
 3401SOL    HW211103   6.991   3.400   0.181
 3402SOL     OW11104   5.637   5.641   1.478
 3402SOL    HW111105   5.563   5.685   1.426
 3402SOL    HW211106   5.656   5.694   1.560
 3403SOL     OW11107   3.771   7.019   4.892
 3403SOL    HW111108   3.750   0.086   4.931
 3403SOL    HW211109   3.868   7.014   4.870
 3404SOL     OW11110   4.036   1.227   0.670
 3404SOL    HW111111   3.943   1.263   0.684
 3404SOL    HW211112   4.071   1.259   0.583
 3405SOL     OW11113   6.212   4.018   6.357
 3405SOL    HW111114   6.246   4.105   6.322
 3405SOL    HW211115   6.162   3.970   6.285
 3406SOL     OW11116   2.534   4.561   1.908
 3406SOL    HW111117   2.483   4.566   1.995
 3406SOL    HW211118   2.631   4.574   1.926
 3407SOL     OW11119   1.666   5.591   1.741
 3407SOL    HW111120   1.662   5.566   1.644
 3407SOL    HW211121   1.582   5.636   1.767
 3408SOL     OW11122   4.841   3.978   3.148
 3408SOL    HW111123   4.920   4.032   3.119
 3408SOL    HW211124   4.763   4.039   3.164
 3409SOL     OW11125   3.793   0.026   6.209
 3409SOL    HW111126   3.723   6.997   6.258
 3409SOL    HW211127   3.792   0.121   6.241
 3410SOL     OW11128   6.038   5.353   0.001
 3410SOL    HW111129   5.952   5.394   0.032
 3410SOL    HW211130   6.110   5.371   0.068
 3411SOL     OW11131   4.850   2.343   2.095
 3411SOL    HW111132   4.950   2.344   2.101
 3411SOL    HW211133   4.820   2.260   2.048
 3412SOL     OW11134   4.266   3.341   6.917
 3412SOL    HW111135   4.304   3.274   6.853
 3412SOL    HW211136   4.203   3.401   6.868
 3413SOL     OW11137   4.204   1.547   2.779
 3413SOL    HW111138   4.240   1.533   2.871
 3413SOL    HW211139   4.164   1.462   2.745
 3414SOL     OW11140   2.627   1.744   4.763
 3414SOL    HW111141   2.649   1.840   4.748
 3414SOL    HW211142   2.530   1.734   4.784
 3415SOL     OW11143   0.816   5.076   3.773
 3415SOL    HW111144   0.909   5.090   3.739
 3415SOL    HW211145   0.800   4.978   3.785
 3416SOL     OW11146   0.332   4.121   5.768
 3416SOL    HW111147   0.264   4.192   5.785
 3416SOL    HW211148   0.393   4.113   5.846
 3417SOL     OW11149   6.855   6.317   2.469
 3417SOL    HW111150   6.785   6.272   2.525
 3417SOL    HW211151   6.904   6.384   2.525
 3418SOL     OW11152   3.279   1.364   5.020
 3418SOL    HW111153   3.348   1.427   4.983
 3418SOL    HW211154   3.220   1.333   4.945
 3419SOL     OW11155   4.527   4.781   6.943
 3419SOL    HW111156   4.604   4.833   6.907
 3419SOL    HW211157   4.529   4.688   6.907
 3420SOL     OW11158   5.309   1.543   3.829
 3420SOL    HW111159   5.276   1.637   3.838
 3420SOL    HW211160   5.256   1.483   3.889
 3421SOL     OW11161   6.481   0.584   5.642
 3421SOL    HW111162   6.579   0.570   5.654
 3421SOL    HW211163   6.453   0.548   5.553
 3422SOL     OW11164   3.398   7.016   1.046
 3422SOL    HW111165   3.428   7.013   1.142
 3422SOL    HW211166   3.338   0.072   1.033
 3423SOL     OW11167   2.202   0.789   0.254
 3423SOL    HW111168   2.169   0.720   0.318
 3423SOL    HW211169   2.204   0.879   0.299
 3424SOL     OW11170   3.325   1.497   2.499
 3424SOL    HW111171   3.387   1.527   2.427
 3424SOL    HW211172   3.240   1.548   2.493
 3425SOL     OW11173   5.019   4.442   2.100
 3425SOL    HW111174   4.960   4.370   2.137
 3425SOL    HW211175   4.990   4.466   2.008
 3426SOL     OW11176   3.719   3.494   0.148
 3426SOL    HW111177   3.629   3.501   0.106
 3426SOL    HW211178   3.758   3.586   0.159
 3427SOL     OW11179   6.513   0.013   0.132
 3427SOL    HW111180   6.432   0.001   0.074
 3427SOL    HW211181   6.508   0.103   0.176
 3428SOL     OW11182   3.929   4.929   1.970
 3428SOL    HW111183   3.924   4.898   2.065
 3428SOL    HW211184   3.839   4.925   1.928
 3429SOL     OW11185   0.970   2.291   6.639
 3429SOL    HW111186   1.048   2.348   6.614
 3429SOL    HW211187   0.913   2.275   6.558
 3430SOL     OW11188   1.296   6.946   6.965
 3430SOL    HW111189   1.369   7.006   6.997
 3430SOL    HW211190   1.268   6.884   0.015
 3431SOL     OW11191   1.541   6.093   1.430
 3431SOL    HW111192   1.640   6.092   1.421
 3431SOL    HW211193   1.515   6.081   1.526
 3432SOL     OW11194   2.802   2.418   5.232
 3432SOL    HW111195   2.786   2.446   5.327
 3432SOL    HW211196   2.846   2.328   5.230
 3433SOL     OW11197   2.788   0.920   6.168
 3433SOL    HW111198   2.848   0.902   6.089
 3433SOL    HW211199   2.805   1.013   6.201
 3434SOL     OW11200   3.769   2.667   1.077
 3434SOL    HW111201   3.865   2.647   1.056
 3434SOL    HW211202   3.725   2.586   1.114
 3435SOL     OW11203   0.176   2.647   1.746
 3435SOL    HW111204   0.105   2.577   1.743
 3435SOL    HW211205   0.263   2.606   1.774
 3436SOL     OW11206   4.333   6.868   5.075
 3436SOL    HW111207   4.393   6.791   5.099
 3436SOL    HW211208   4.267   6.838   5.006
 3437SOL     OW11209   4.524   0.117   5.975
 3437SOL    HW111210   4.591   0.080   5.911
 3437SOL    HW211211   4.560   0.202   6.015
 3438SOL     OW11212   2.194   2.800   6.665
 3438SOL    HW111213   2.173   2.864   6.592
 3438SOL    HW211214   2.135   2.819   6.744
 3439SOL     OW11215   2.791   7.012   5.196
 3439SOL    HW111216   2.761   7.008   5.100
 3439SOL    HW211217   2.851   0.068   5.208
 3440SOL     OW11218   4.483   3.458   1.039
 3440SOL    HW111219   4.581   3.442   1.036
 3440SOL    HW211220   4.464   3.540   1.093
 3441SOL     OW11221   4.075   6.723   3.865
 3441SOL    HW111222   4.107   6.780   3.789
 3441SOL    HW211223   4.100   6.628   3.848
 3442SOL     OW11224   1.889   5.273   3.410
 3442SOL    HW111225   1.854   5.179   3.419
 3442SOL    HW211226   1.883   5.301   3.314
 3443SOL     OW11227   5.800   1.713   3.388
 3443SOL    HW111228   5.760   1.760   3.309
 3443SOL    HW211229   5.727   1.677   3.446
 3444SOL     OW11230   5.016   5.860   6.302
 3444SOL    HW111231   5.093   5.920   6.283
 3444SOL    HW211232   4.931   5.913   6.301
 3445SOL     OW11233   6.772   3.977   4.289
 3445SOL    HW111234   6.865   3.993   4.254
 3445SOL    HW211235   6.707   3.981   4.214
 3446SOL     OW11236   4.110   1.310   2.726
 3446SOL    HW111237   4.059   1.299   2.641
 3446SOL    HW211238   4.101   1.228   2.781
 3447SOL     OW11239   5.841   5.183   0.216
 3447SOL    HW111240   5.804   5.091   0.205
 3447SOL    HW211241   5.891   5.209   0.133
 3448SOL     OW11242   3.836   6.810   0.980
 3448SOL    HW111243   3.870   6.799   0.887
 3448SOL    HW211244   3.786   6.727   1.007
 3449SOL     OW11245   6.403   6.620   2.168
 3449SOL    HW111246   6.391   6.540   2.227
 3449SOL    HW211247   6.499   6.650   2.173
 3450SOL     OW11248   0.811   1.891   1.296
 3450SOL    HW111249   0.774   1.952   1.226
 3450SOL    HW211250   0.868   1.821   1.253
 3451SOL     OW11251   0.900   5.756   3.418
 3451SOL    HW111252   0.869   5.850   3.435
 3451SOL    HW211253   0.849   5.693   3.477
 3452SOL     OW11254   0.012   0.724   6.676
 3452SOL    HW111255   0.043   0.735   6.581
 3452SOL    HW211256   0.060   0.789   6.735
 3453SOL     OW11257   5.463   5.750   4.717
 3453SOL    HW111258   5.557   5.757   4.751
 3453SOL    HW211259   5.413   5.832   4.742
 3454SOL     OW11260   2.053   1.601   6.818
 3454SOL    HW111261   1.975   1.652   6.853
 3454SOL    HW211262   2.054   1.607   6.718
 3455SOL     OW11263   1.407   3.344   4.802
 3455SOL    HW111264   1.339   3.414   4.783
 3455SOL    HW211265   1.480   3.382   4.859
 3456SOL     OW11266   5.795   6.111   2.128
 3456SOL    HW111267   5.832   6.168   2.054
 3456SOL    HW211268   5.841   6.022   2.127
 3457SOL     OW11269   2.505   5.205   4.122
 3457SOL    HW111270   2.434   5.254   4.072
 3457SOL    HW211271   2.528   5.120   4.074
 3458SOL     OW11272   6.012   0.204   0.450
 3458SOL    HW111273   6.062   0.141   0.510
 3458SOL    HW211274   6.023   0.176   0.355
 3459SOL     OW11275   0.586   3.280   3.081
 3459SOL    HW111276   0.494   3.243   3.071
 3459SOL    HW211277   0.584   3.379   3.069
 3460SOL     OW11278   3.256   3.252   0.564
 3460SOL    HW111279   3.217   3.196   0.492
 3460SOL    HW211280   3.283   3.341   0.527
 3461SOL     OW11281   3.582   5.320   4.543
 3461SOL    HW111282   3.524   5.401   4.532
 3461SOL    HW211283   3.646   5.335   4.618
 3462SOL     OW11284   6.158   2.780   2.366
 3462SOL    HW111285   6.223   2.837   2.417
 3462SOL    HW211286   6.080   2.835   2.338
 3463SOL     OW11287   0.493   3.245   2.469
 3463SOL    HW111288   0.448   3.307   2.403
 3463SOL    HW211289   0.589   3.234   2.443
 3464SOL     OW11290   5.761   2.428   6.796
 3464SOL    HW111291   5.724   2.507   6.747
 3464SOL    HW211292   5.688   2.386   6.850
 3465SOL     OW11293   2.120   3.559   1.491
 3465SOL    HW111294   2.178   3.603   1.559
 3465SOL    HW211295   2.029   3.545   1.529
 3466SOL     OW11296   5.507   4.833   5.915
 3466SOL    HW111297   5.414   4.825   5.950
 3466SOL    HW211298   5.562   4.885   5.980
 3467SOL     OW11299   3.243   1.428   0.868
 3467SOL    HW111300   3.146   1.402   0.872
 3467SOL    HW211301   3.282   1.397   0.782
 3468SOL     OW11302   4.852   1.499   2.133
 3468SOL    HW111303   4.769   1.477   2.183
 3468SOL    HW211304   4.890   1.586   2.166
 3469SOL     OW11305   4.933   0.165   6.327
 3469SOL    HW111306   5.032   0.173   6.341
 3469SOL    HW211307   4.909   0.196   6.235
 3470SOL     OW11308   0.695   2.729   1.297
 3470SOL    HW111309   0.738   2.714   1.208
 3470SOL    HW211310   0.762   2.767   1.360
 3471SOL     OW11311   4.719   4.222   3.236
 3471SOL    HW111312   4.738   4.197   3.331
 3471SOL    HW211313   4.645   4.289   3.233
 3472SOL     OW11314   4.349   1.961   2.714
 3472SOL    HW111315   4.447   1.950   2.729
 3472SOL    HW211316   4.334   2.001   2.623
 3473SOL     OW11317   6.875   3.466   3.663
 3473SOL    HW111318   6.887   3.532   3.588
 3473SOL    HW211319   6.778   3.466   3.690
 3474SOL     OW11320   0.164   4.145   4.053
 3474SOL    HW111321   0.211   4.144   4.142
 3474SOL    HW211322   0.222   4.191   3.986
 3475SOL     OW11323   0.634   5.057   4.039
 3475SOL    HW111324   0.682   5.022   3.959
 3475SOL    HW211325   0.571   4.987   4.073
 3476SOL     OW11326   1.894   1.374   3.599
 3476SOL    HW111327   1.893   1.275   3.606
 3476SOL    HW211328   1.817   1.412   3.651
 3477SOL     OW11329   1.007   3.480   0.446
 3477SOL    HW111330   0.983   3.491   0.350
 3477SOL    HW211331   0.980   3.389   0.477
 3478SOL     OW11332   2.532   6.963   0.067
 3478SOL    HW111333   2.461   7.014   0.115
 3478SOL    HW211334   2.620   7.009   0.079
 3479SOL     OW11335   0.942   2.149   4.069
 3479SOL    HW111336   0.852   2.184   4.043
 3479SOL    HW211337   0.991   2.218   4.123
 3480SOL     OW11338   1.259   6.125   6.520
 3480SOL    HW111339   1.194   6.068   6.570
 3480SOL    HW211340   1.345   6.131   6.572
 3481SOL     OW11341   5.566   0.992   0.649
 3481SOL    HW111342   5.596   0.900   0.675
 3481SOL    HW211343   5.599   1.058   0.717
 3482SOL     OW11344   5.646   2.078   3.149
 3482SOL    HW111345   5.672   1.986   3.178
 3482SOL    HW211346   5.717   2.143   3.177
 3483SOL     OW11347   5.401   2.579   3.012
 3483SOL    HW111348   5.437   2.488   2.991
 3483SOL    HW211349   5.377   2.583   3.109
 3484SOL     OW11350   1.720   3.587   6.907
 3484SOL    HW111351   1.699   3.670   6.856
 3484SOL    HW211352   1.663   3.512   6.874
 3485SOL     OW11353   0.078   2.489   5.373
 3485SOL    HW111354   0.051   2.397   5.344
 3485SOL    HW211355   0.002   2.552   5.360
 3486SOL     OW11356   2.123   0.319   4.148
 3486SOL    HW111357   2.105   0.402   4.095
 3486SOL    HW211358   2.158   0.248   4.087
 3487SOL     OW11359   6.690   2.113   6.833
 3487SOL    HW111360   6.613   2.050   6.821
 3487SOL    HW211361   6.684   2.155   6.924
 3488SOL     OW11362   5.521   0.514   4.851
 3488SOL    HW111363   5.498   0.519   4.948
 3488SOL    HW211364   5.618   0.491   4.841
 3489SOL     OW11365   3.303   6.720   1.343
 3489SOL    HW111366   3.364   6.799   1.347
 3489SOL    HW211367   3.215   6.743   1.384
 3490SOL     OW11368   3.943   4.913   1.505
 3490SOL    HW111369   3.865   4.852   1.492
 3490SOL    HW211370   3.938   4.988   1.440
 3491SOL     OW11371   4.597   4.117   6.437
 3491SOL    HW111372   4.629   4.123   6.342
 3491SOL    HW211373   4.568   4.023   6.456
 3492SOL     OW11374   6.826   3.796   1.335
 3492SOL    HW111375   6.914   3.751   1.320
 3492SOL    HW211376   6.771   3.792   1.252
 3493SOL     OW11377   6.485   4.272   3.883
 3493SOL    HW111378   6.450   4.329   3.957
 3493SOL    HW211379   6.416   4.204   3.858
 3494SOL     OW11380   3.227   1.459   2.122
 3494SOL    HW111381   3.312   1.511   2.116
 3494SOL    HW211382   3.158   1.501   2.063
 3495SOL     OW11383   0.485   3.689   2.169
 3495SOL    HW111384   0.555   3.673   2.100
 3495SOL    HW211385   0.485   3.786   2.195
 3496SOL     OW11386   5.846   4.798   0.988
 3496SOL    HW111387   5.914   4.740   1.032
 3496SOL    HW211388   5.882   4.832   0.901
 3497SOL     OW11389   3.414   1.247   3.657
 3497SOL    HW111390   3.438   1.191   3.578
 3497SOL    HW211391   3.483   1.318   3.670
 3498SOL     OW11392   2.853   1.460   2.106
 3498SOL    HW111393   2.874   1.363   2.102
 3498SOL    HW211394   2.857   1.491   2.201
 3499SOL     OW11395   6.420   6.016   4.878
 3499SOL    HW111396   6.378   5.935   4.838
 3499SOL    HW211397   6.379   6.098   4.838
 3500SOL     OW11398   2.051   2.783   4.233
 3500SOL    HW111399   1.999   2.833   4.165
 3500SOL    HW211400   2.149   2.795   4.216
 3501SOL     OW11401   2.610   6.762   6.203
 3501SOL    HW111402   2.533   6.822   6.224
 3501SOL    HW211403   2.610   6.739   6.106
 3502SOL     OW11404   6.090   3.318   1.562
 3502SOL    HW111405   6.085   3.334   1.661
 3502SOL    HW211406   6.095   3.219   1.546
 3503SOL     OW11407   0.068   6.386   6.083
 3503SOL    HW111408   7.004   6.434   6.072
 3503SOL    HW211409   0.106   6.366   5.993
 3504SOL     OW11410   2.172   0.974   2.383
 3504SOL    HW111411   2.191   1.060   2.430
 3504SOL    HW211412   2.085   0.936   2.417
 3505SOL     OW11413   6.128   5.552   5.439
 3505SOL    HW111414   6.196   5.625   5.436
 3505SOL    HW211415   6.072   5.555   5.356
 3506SOL     OW11416   5.663   4.533   4.892
 3506SOL    HW111417   5.751   4.490   4.911
 3506SOL    HW211418   5.641   4.599   4.964
 3507SOL     OW11419   2.310   6.360   0.549
 3507SOL    HW111420   2.318   6.429   0.621
 3507SOL    HW211421   2.400   6.347   0.506
 3508SOL     OW11422   3.202   2.376   6.696
 3508SOL    HW111423   3.174   2.472   6.703
 3508SOL    HW211424   3.288   2.371   6.644
 3509SOL     OW11425   5.525   6.713   0.176
 3509SOL    HW111426   5.563   6.779   0.241
 3509SOL    HW211427   5.473   6.761   0.106
 3510SOL     OW11428   1.777   0.427   1.266
 3510SOL    HW111429   1.679   0.446   1.276
 3510SOL    HW211430   1.824   0.448   1.351
 3511SOL     OW11431   1.695   4.402   1.463
 3511SOL    HW111432   1.625   4.398   1.535
 3511SOL    HW211433   1.664   4.350   1.384
 3512SOL     OW11434   1.366   3.425   0.614
 3512SOL    HW111435   1.339   3.336   0.650
 3512SOL    HW211436   1.312   3.445   0.531
 3513SOL     OW11437   5.902   1.981   1.485
 3513SOL    HW111438   5.949   2.065   1.513
 3513SOL    HW211439   5.805   2.001   1.470
 3514SOL     OW11440   5.634   0.541   2.391
 3514SOL    HW111441   5.575   0.582   2.322
 3514SOL    HW211442   5.609   0.576   2.482
 3515SOL     OW11443   5.273   6.322   4.202
 3515SOL    HW111444   5.179   6.297   4.224
 3515SOL    HW211445   5.274   6.389   4.128
 3516SOL     OW11446   5.335   6.314   1.206
 3516SOL    HW111447   5.251   6.352   1.168
 3516SOL    HW211448   5.323   6.215   1.220
 3517SOL     OW11449   0.459   1.460   1.773
 3517SOL    HW111450   0.414   1.500   1.693
 3517SOL    HW211451   0.496   1.370   1.748
 3518SOL     OW11452   5.071   2.049   4.977
 3518SOL    HW111453   5.149   2.022   4.921
 3518SOL    HW211454   5.098   2.049   5.074
 3519SOL     OW11455   2.326   0.966   6.262
 3519SOL    HW111456   2.250   0.965   6.196
 3519SOL    HW211457   2.362   1.059   6.269
 3520SOL     OW11458   3.235   6.639   0.311
 3520SOL    HW111459   3.324   6.605   0.340
 3520SOL    HW211460   3.180   6.661   0.392
 3521SOL     OW11461   3.792   2.915   6.505
 3521SOL    HW111462   3.754   2.847   6.567
 3521SOL    HW211463   3.842   2.869   6.432
 3522SOL     OW11464   6.380   5.013   6.690
 3522SOL    HW111465   6.381   4.929   6.746
 3522SOL    HW211466   6.293   5.020   6.641
 3523SOL     OW11467   1.353   4.585   5.482
 3523SOL    HW111468   1.409   4.526   5.425
 3523SOL    HW211469   1.283   4.531   5.528
 3524SOL     OW11470   5.133   2.051   2.367
 3524SOL    HW111471   5.127   2.099   2.455
 3524SOL    HW211472   5.083   1.965   2.372
 3525SOL     OW11473   6.135   3.417   4.331
 3525SOL    HW111474   6.044   3.458   4.332
 3525SOL    HW211475   6.196   3.469   4.390
 3526SOL     OW11476   2.265   6.586   3.241
 3526SOL    HW111477   2.356   6.581   3.201
 3526SOL    HW211478   2.272   6.599   3.340
 3527SOL     OW11479   5.858   3.364   6.363
 3527SOL    HW111480   5.760   3.344   6.351
 3527SOL    HW211481   5.911   3.299   6.309
 3528SOL     OW11482   2.345   6.142   4.833
 3528SOL    HW111483   2.294   6.075   4.886
 3528SOL    HW211484   2.320   6.135   4.737
 3529SOL     OW11485   4.098   6.726   0.317
 3529SOL    HW111486   4.053   6.770   0.239
 3529SOL    HW211487   4.087   6.627   0.311
 3530SOL     OW11488   0.036   4.937   1.407
 3530SOL    HW111489   6.992   4.927   1.480
 3530SOL    HW211490   0.107   5.001   1.435
 3531SOL     OW11491   5.986   2.646   1.227
 3531SOL    HW111492   6.031   2.733   1.246
 3531SOL    HW211493   5.909   2.634   1.290
 3532SOL     OW11494   2.550   1.219   1.673
 3532SOL    HW111495   2.634   1.177   1.639
 3532SOL    HW211496   2.562   1.318   1.679
 3533SOL     OW11497   0.656   1.490   2.634
 3533SOL    HW111498   0.580   1.434   2.669
 3533SOL    HW211499   0.734   1.483   2.696
 3534SOL     OW11500   0.860   2.202   1.939
 3534SOL    HW111501   0.788   2.271   1.927
 3534SOL    HW211502   0.885   2.165   1.849
 3535SOL     OW11503   2.128   5.316   5.738
 3535SOL    HW111504   2.111   5.401   5.689
 3535SOL    HW211505   2.171   5.250   5.677
 3536SOL     OW11506   3.023   2.137   3.501
 3536SOL    HW111507   3.040   2.187   3.585
 3536SOL    HW211508   3.071   2.181   3.425
 3537SOL     OW11509   1.871   5.383   1.800
 3537SOL    HW111510   1.793   5.433   1.762
 3537SOL    HW211511   1.956   5.420   1.763
 3538SOL     OW11512   2.716   5.550   5.743
 3538SOL    HW111513   2.654   5.476   5.715
 3538SOL    HW211514   2.801   5.542   5.691
 3539SOL     OW11515   3.434   3.411   4.438
 3539SOL    HW111516   3.494   3.462   4.377
 3539SOL    HW211517   3.386   3.340   4.386
 3540SOL     OW11518   2.032   2.238   4.805
 3540SOL    HW111519   1.987   2.153   4.832
 3540SOL    HW211520   2.104   2.261   4.871
 3541SOL     OW11521   2.922   2.728   5.669
 3541SOL    HW111522   2.857   2.670   5.718
 3541SOL    HW211523   2.978   2.670   5.609
 3542SOL     OW11524   1.359   5.118   2.995
 3542SOL    HW111525   1.371   5.117   2.896
 3542SOL    HW211526   1.282   5.178   3.018
 3543SOL     OW11527   6.222   2.866   3.352
 3543SOL    HW111528   6.296   2.933   3.352
 3543SOL    HW211529   6.259   2.777   3.326
 3544SOL     OW11530   2.192   4.299   6.673
 3544SOL    HW111531   2.127   4.319   6.600
 3544SOL    HW211532   2.151   4.234   6.737
 3545SOL     OW11533   3.742   6.560   6.726
 3545SOL    HW111534   3.648   6.573   6.693
 3545SOL    HW211535   3.798   6.637   6.698
 3546SOL     OW11536   0.640   4.440   3.430
 3546SOL    HW111537   0.581   4.464   3.507
 3546SOL    HW211538   0.728   4.408   3.464
 3547SOL     OW11539   4.761   4.813   3.683
 3547SOL    HW111540   4.800   4.840   3.772
 3547SOL    HW211541   4.792   4.878   3.613
 3548SOL     OW11542   4.825   1.686   5.858
 3548SOL    HW111543   4.811   1.764   5.920
 3548SOL    HW211544   4.915   1.647   5.874
 3549SOL     OW11545   6.891   4.803   4.525
 3549SOL    HW111546   6.869   4.879   4.586
 3549SOL    HW211547   6.987   4.777   4.537
 3550SOL     OW11548   4.765   2.730   2.603
 3550SOL    HW111549   4.833   2.704   2.533
 3550SOL    HW211550   4.782   2.823   2.633
 3551SOL     OW11551   3.835   6.283   3.170
 3551SOL    HW111552   3.757   6.227   3.140
 3551SOL    HW211553   3.802   6.363   3.220
 3552SOL     OW11554   4.754   6.302   2.372
 3552SOL    HW111555   4.743   6.323   2.275
 3552SOL    HW211556   4.734   6.205   2.387
 3553SOL     OW11557   5.911   3.150   1.373
 3553SOL    HW111558   5.951   3.102   1.450
 3553SOL    HW211559   5.860   3.230   1.406
 3554SOL     OW11560   3.768   3.389   0.426
 3554SOL    HW111561   3.706   3.409   0.502
 3554SOL    HW211562   3.723   3.410   0.340
 3555SOL     OW11563   0.827   2.917   2.780
 3555SOL    HW111564   0.803   3.013   2.794
 3555SOL    HW211565   0.792   2.887   2.691
 3556SOL     OW11566   3.732   0.523   5.169
 3556SOL    HW111567   3.820   0.481   5.195
 3556SOL    HW211568   3.749   0.607   5.118
 3557SOL     OW11569   0.782   0.490   4.167
 3557SOL    HW111570   0.819   0.416   4.222
 3557SOL    HW211571   0.711   0.455   4.106
 3558SOL     OW11572   7.019   5.659   1.600
 3558SOL    HW111573   0.035   5.605   1.675
 3558SOL    HW211574   0.029   5.622   1.513
 3559SOL     OW11575   0.430   7.015   4.591
 3559SOL    HW111576   0.398   6.936   4.644
 3559SOL    HW211577   0.376   7.022   4.507
 3560SOL     OW11578   1.428   5.882   1.298
 3560SOL    HW111579   1.476   5.966   1.320
 3560SOL    HW211580   1.434   5.865   1.199
 3561SOL     OW11581   5.040   5.205   5.587
 3561SOL    HW111582   5.113   5.261   5.625
 3561SOL    HW211583   5.022   5.233   5.493
 3562SOL     OW11584   4.713   0.675   4.557
 3562SOL    HW111585   4.781   0.729   4.606
 3562SOL    HW211586   4.624   0.686   4.601
 3563SOL     OW11587   5.394   0.928   1.780
 3563SOL    HW111588   5.396   1.021   1.816
 3563SOL    HW211589   5.444   0.867   1.841
 3564SOL     OW11590   1.189   4.590   4.018
 3564SOL    HW111591   1.247   4.520   3.976
 3564SOL    HW211592   1.094   4.559   4.017
 3565SOL     OW11593   3.338   6.758   5.082
 3565SOL    HW111594   3.241   6.777   5.068
 3565SOL    HW211595   3.387   6.843   5.098
 3566SOL     OW11596   6.903   3.277   5.890
 3566SOL    HW111597   6.821   3.239   5.931
 3566SOL    HW211598   6.880   3.360   5.840
 3567SOL     OW11599   1.680   2.034   0.399
 3567SOL    HW111600   1.737   2.093   0.342
 3567SOL    HW211601   1.736   1.961   0.438
 3568SOL     OW11602   5.525   5.075   2.525
 3568SOL    HW111603   5.458   5.052   2.455
 3568SOL    HW211604   5.570   4.992   2.557
 3569SOL     OW11605   2.890   3.121   5.159
 3569SOL    HW111606   2.944   3.037   5.163
 3569SOL    HW211607   2.925   3.180   5.086
 3570SOL     OW11608   5.574   1.119   5.541
 3570SOL    HW111609   5.485   1.098   5.502
 3570SOL    HW211610   5.563   1.176   5.622
 3571SOL     OW11611   2.044   0.756   4.765
 3571SOL    HW111612   2.053   0.738   4.667
 3571SOL    HW211613   1.962   0.711   4.800
 3572SOL     OW11614   5.126   3.918   2.464
 3572SOL    HW111615   5.180   3.868   2.397
 3572SOL    HW211616   5.031   3.888   2.459
 3573SOL     OW11617   6.930   4.542   2.349
 3573SOL    HW111618   6.981   4.622   2.317
 3573SOL    HW211619   6.952   4.524   2.445
 3574SOL     OW11620   2.218   3.190   6.505
 3574SOL    HW111621   2.169   3.229   6.584
 3574SOL    HW211622   2.211   3.252   6.428
 3575SOL     OW11623   5.019   5.624   0.932
 3575SOL    HW111624   5.033   5.655   1.026
 3575SOL    HW211625   5.062   5.688   0.868
 3576SOL     OW11626   0.475   2.538   0.032
 3576SOL    HW111627   0.476   2.520   0.131
 3576SOL    HW211628   0.394   2.496   7.015
 3577SOL     OW11629   2.465   3.211   5.504
 3577SOL    HW111630   2.503   3.212   5.596
 3577SOL    HW211631   2.455   3.116   5.473
 3578SOL     OW11632   3.805   3.381   1.129
 3578SOL    HW111633   3.733   3.447   1.148
 3578SOL    HW211634   3.811   3.316   1.205
 3579SOL     OW11635   0.379   3.012   2.544
 3579SOL    HW111636   0.443   2.944   2.580
 3579SOL    HW211637   0.427   3.097   2.525
 3580SOL     OW11638   0.278   3.283   1.522
 3580SOL    HW111639   0.332   3.338   1.586
 3580SOL    HW211640   0.267   3.333   1.436
 3581SOL     OW11641   0.780   6.772   3.435
 3581SOL    HW111642   0.793   6.673   3.446
 3581SOL    HW211643   0.869   6.817   3.432
 3582SOL     OW11644   3.366   5.102   5.881
 3582SOL    HW111645   3.379   5.080   5.784
 3582SOL    HW211646   3.454   5.094   5.929
 3583SOL     OW11647   0.518   4.220   0.717
 3583SOL    HW111648   0.533   4.280   0.795
 3583SOL    HW211649   0.476   4.134   0.747
 3584SOL     OW11650   6.058   4.686   5.734
 3584SOL    HW111651   6.000   4.641   5.666
 3584SOL    HW211652   6.124   4.621   5.770
 3585SOL     OW11653   2.872   1.945   4.726
 3585SOL    HW111654   2.939   1.972   4.795
 3585SOL    HW211655   2.814   2.023   4.703
 3586SOL     OW11656   5.991   3.069   4.002
 3586SOL    HW111657   5.991   3.160   3.960
 3586SOL    HW211658   5.997   2.999   3.931
 3587SOL     OW11659   3.558   5.964   6.995
 3587SOL    HW111660   3.608   5.922   0.048
 3587SOL    HW211661   3.554   5.899   6.919
 3588SOL     OW11662   6.202   4.544   3.958
 3588SOL    HW111663   6.157   4.512   3.874
 3588SOL    HW211664   6.161   4.630   3.987
 3589SOL     OW11665   0.133   0.004   6.085
 3589SOL    HW111666   0.218   7.002   6.132
 3589SOL    HW211667   0.091   0.082   6.131
 3590SOL     OW11668   0.259   4.042   0.533
 3590SOL    HW111669   0.259   3.942   0.534
 3590SOL    HW211670   0.185   4.074   0.473
 3591SOL     OW11671   5.851   2.529   0.050
 3591SOL    HW111672   5.820   2.483   6.990
 3591SOL    HW211673   5.839   2.468   0.128
 3592SOL     OW11674   1.259   0.432   2.242
 3592SOL    HW111675   1.348   0.387   2.242
 3592SOL    HW211676   1.267   0.520   2.289
 3593SOL     OW11677   0.261   4.678   5.610
 3593SOL    HW111678   0.351   4.645   5.584
 3593SOL    HW211679   0.201   4.677   5.530
 3594SOL     OW11680   4.106   6.041   5.153
 3594SOL    HW111681   4.095   6.004   5.061
 3594SOL    HW211682   4.032   6.106   5.172
 3595SOL     OW11683   6.312   6.022   6.981
 3595SOL    HW111684   6.301   5.930   7.019
 3595SOL    HW211685   6.266   6.088   0.017
 3596SOL     OW11686   4.541   2.013   3.114
 3596SOL    HW111687   4.447   2.038   3.090
 3596SOL    HW211688   4.602   2.089   3.095
 3597SOL     OW11689   2.220   3.340   5.540
 3597SOL    HW111690   2.309   3.300   5.518
 3597SOL    HW211691   2.148   3.273   5.523
 3598SOL     OW11692   1.682   6.577   5.923
 3598SOL    HW111693   1.590   6.613   5.912
 3598SOL    HW211694   1.679   6.477   5.925
 3599SOL     OW11695   4.632   1.611   6.433
 3599SOL    HW111696   4.662   1.623   6.338
 3599SOL    HW211697   4.538   1.577   6.434
 3600SOL     OW11698   2.195   3.262   0.774
 3600SOL    HW111699   2.264   3.310   0.828
 3600SOL    HW211700   2.105   3.275   0.816
 3601SOL     OW11701   4.851   1.043   5.801
 3601SOL    HW111702   4.927   1.109   5.807
 3601SOL    HW211703   4.872   0.963   5.857
 3602SOL     OW11704   1.916   2.907   1.528
 3602SOL    HW111705   1.978   2.868   1.460
 3602SOL    HW211706   1.951   2.996   1.559
 3603SOL     OW11707   3.078   1.025   6.362
 3603SOL    HW111708   3.131   1.109   6.374
 3603SOL    HW211709   2.993   1.046   6.314
 3604SOL     OW11710   6.640   0.691   3.400
 3604SOL    HW111711   6.686   0.728   3.481
 3604SOL    HW211712   6.599   0.603   3.422
 3605SOL     OW11713   1.276   5.459   3.556
 3605SOL    HW111714   1.366   5.472   3.516
 3605SOL    HW211715   1.271   5.506   3.644
 3606SOL     OW11716   1.335   6.371   1.372
 3606SOL    HW111717   1.294   6.312   1.442
 3606SOL    HW211718   1.427   6.397   1.401
 3607SOL     OW11719   5.309   2.724   2.474
 3607SOL    HW111720   5.342   2.697   2.565
 3607SOL    HW211721   5.350   2.812   2.450
 3608SOL     OW11722   5.081   2.003   3.953
 3608SOL    HW111723   5.091   2.094   3.994
 3608SOL    HW211724   4.995   1.962   3.984
 3609SOL     OW11725   2.352   6.078   4.373
 3609SOL    HW111726   2.364   5.988   4.413
 3609SOL    HW211727   2.305   6.138   4.438
 3610SOL     OW11728   1.635   0.256   5.446
 3610SOL    HW111729   1.555   0.217   5.401
 3610SOL    HW211730   1.606   0.326   5.512
 3611SOL     OW11731   4.690   4.410   4.675
 3611SOL    HW111732   4.780   4.440   4.708
 3611SOL    HW211733   4.702   4.335   4.609
 3612SOL     OW11734   6.464   1.700   6.493
 3612SOL    HW111735   6.561   1.723   6.485
 3612SOL    HW211736   6.437   1.698   6.589
 3613SOL     OW11737   3.990   5.351   1.371
 3613SOL    HW111738   3.971   5.437   1.324
 3613SOL    HW211739   4.075   5.358   1.422
 3614SOL     OW11740   3.916   3.972   6.895
 3614SOL    HW111741   3.937   3.950   6.990
 3614SOL    HW211742   3.997   3.953   6.839
 3615SOL     OW11743   5.709   2.870   5.825
 3615SOL    HW111744   5.612   2.889   5.841
 3615SOL    HW211745   5.719   2.785   5.774
 3616SOL     OW11746   1.835   1.929   6.252
 3616SOL    HW111747   1.929   1.927   6.288
 3616SOL    HW211748   1.781   1.994   6.305
 3617SOL     OW11749   4.494   6.881   6.001
 3617SOL    HW111750   4.576   6.845   5.956
 3617SOL    HW211751   4.492   6.980   5.993
 3618SOL     OW11752   2.039   3.658   4.786
 3618SOL    HW111753   1.952   3.701   4.763
 3618SOL    HW211754   2.110   3.728   4.793
 3619SOL     OW11755   5.992   2.976   0.697
 3619SOL    HW111756   5.992   2.986   0.796
 3619SOL    HW211757   5.978   2.879   0.674
 3620SOL     OW11758   6.160   6.370   4.367
 3620SOL    HW111759   6.235   6.395   4.429
 3620SOL    HW211760   6.196   6.315   4.291
 3621SOL     OW11761   3.487   2.898   3.768
 3621SOL    HW111762   3.423   2.902   3.844
 3621SOL    HW211763   3.580   2.911   3.802
 3622SOL     OW11764   0.568   0.534   1.278
 3622SOL    HW111765   0.610   0.513   1.190
 3622SOL    HW211766   0.592   0.464   1.345
 3623SOL     OW11767   0.626   5.829   6.153
 3623SOL    HW111768   0.713   5.859   6.112
 3623SOL    HW211769   0.619   5.730   6.145
 3624SOL     OW11770   2.793   0.294   1.882
 3624SOL    HW111771   2.724   0.351   1.927
 3624SOL    HW211772   2.822   0.338   1.797
 3625SOL     OW11773   6.644   2.749   6.640
 3625SOL    HW111774   6.632   2.848   6.632
 3625SOL    HW211775   6.741   2.727   6.635
 3626SOL     OW11776   0.099   3.803   4.279
 3626SOL    HW111777   0.080   3.740   4.354
 3626SOL    HW211778   0.136   3.752   4.202
 3627SOL     OW11779   4.685   2.858   1.275
 3627SOL    HW111780   4.665   2.895   1.365
 3627SOL    HW211781   4.606   2.873   1.214
 3628SOL     OW11782   1.375   1.973   1.625
 3628SOL    HW111783   1.315   1.896   1.601
 3628SOL    HW211784   1.329   2.032   1.690
 3629SOL     OW11785   1.045   1.144   3.741
 3629SOL    HW111786   0.984   1.223   3.736
 3629SOL    HW211787   1.049   1.112   3.835
 3630SOL     OW11788   6.931   2.598   3.059
 3630SOL    HW111789   6.960   2.603   3.154
 3630SOL    HW211790   6.879   2.680   3.036
 3631SOL     OW11791   1.881   6.949   3.138
 3631SOL    HW111792   1.946   6.892   3.188
 3631SOL    HW211793   1.788   6.913   3.150
 3632SOL     OW11794   4.210   3.766   0.571
 3632SOL    HW111795   4.257   3.687   0.531
 3632SOL    HW211796   4.254   3.790   0.657
 3633SOL     OW11797   3.343   2.727   5.683
 3633SOL    HW111798   3.301   2.764   5.600
 3633SOL    HW211799   3.433   2.769   5.696
 3634SOL     OW11800   2.822   6.188   5.827
 3634SOL    HW111801   2.756   6.228   5.890
 3634SOL    HW211802   2.780   6.176   5.737
 3635SOL     OW11803   2.798   1.132   1.610
 3635SOL    HW111804   2.814   1.034   1.605
 3635SOL    HW211805   2.857   1.179   1.545
 3636SOL     OW11806   6.971   5.505   0.752
 3636SOL    HW111807   0.009   5.554   0.814
 3636SOL    HW211808   6.958   5.411   0.784
 3637SOL     OW11809   0.840   2.992   6.452
 3637SOL    HW111810   0.790   3.059   6.398
 3637SOL    HW211811   0.788   2.907   6.456
 3638SOL     OW11812   6.207   4.209   3.084
 3638SOL    HW111813   6.243   4.117   3.068
 3638SOL    HW211814   6.157   4.240   3.002
 3639SOL     OW11815   3.991   3.902   4.747
 3639SOL    HW111816   4.000   3.874   4.651
 3639SOL    HW211817   4.014   3.825   4.806
 3640SOL     OW11818   5.496   2.649   0.320
 3640SOL    HW111819   5.578   2.673   0.268
 3640SOL    HW211820   5.521   2.636   0.416
 3641SOL     OW11821   6.179   4.011   1.231
 3641SOL    HW111822   6.269   3.974   1.209
 3641SOL    HW211823   6.119   3.937   1.262
 3642SOL     OW11824   5.683   2.213   6.571
 3642SOL    HW111825   5.771   2.259   6.580
 3642SOL    HW211826   5.631   2.223   6.656
 3643SOL     OW11827   4.616   5.970   6.155
 3643SOL    HW111828   4.631   5.941   6.250
 3643SOL    HW211829   4.522   5.951   6.129
 3644SOL     OW11830   2.725   0.558   2.050
 3644SOL    HW111831   2.677   0.613   2.118
 3644SOL    HW211832   2.805   0.608   2.017
 3645SOL     OW11833   1.323   4.090   4.624
 3645SOL    HW111834   1.384   4.011   4.610
 3645SOL    HW211835   1.317   4.142   4.539
 3646SOL     OW11836   2.731   4.726   4.833
 3646SOL    HW111837   2.743   4.717   4.734
 3646SOL    HW211838   2.794   4.664   4.880
 3647SOL     OW11839   1.673   6.510   0.320
 3647SOL    HW111840   1.660   6.609   0.321
 3647SOL    HW211841   1.686   6.479   0.226
 3648SOL     OW11842   5.247   5.394   3.419
 3648SOL    HW111843   5.177   5.327   3.398
 3648SOL    HW211844   5.333   5.347   3.441
 3649SOL     OW11845   5.656   3.500   6.783
 3649SOL    HW111846   5.730   3.493   6.716
 3649SOL    HW211847   5.610   3.411   6.791
 3650SOL     OW11848   4.845   4.416   1.145
 3650SOL    HW111849   4.844   4.330   1.197
 3650SOL    HW211850   4.914   4.410   1.073
 3651SOL     OW11851   1.422   2.342   5.759
 3651SOL    HW111852   1.476   2.346   5.675
 3651SOL    HW211853   1.459   2.406   5.826
 3652SOL     OW11854   5.427   0.708   2.212
 3652SOL    HW111855   5.490   0.758   2.154
 3652SOL    HW211856   5.362   0.658   2.155
 3653SOL     OW11857   1.628   1.127   2.412
 3653SOL    HW111858   1.614   1.180   2.495
 3653SOL    HW211859   1.548   1.135   2.353
 3654SOL     OW11860   4.946   6.904   0.920
 3654SOL    HW111861   4.919   6.813   0.891
 3654SOL    HW211862   5.046   6.910   0.923
 3655SOL     OW11863   2.532   1.452   4.114
 3655SOL    HW111864   2.495   1.412   4.030
 3655SOL    HW211865   2.457   1.470   4.178
 3656SOL     OW11866   0.742   5.456   2.089
 3656SOL    HW111867   0.816   5.457   2.156
 3656SOL    HW211868   0.687   5.373   2.100
 3657SOL     OW11869   5.191   6.307   5.169
 3657SOL    HW111870   5.258   6.283   5.239
 3657SOL    HW211871   5.157   6.399   5.185
 3658SOL     OW11872   0.846   5.647   6.274
 3658SOL    HW111873   0.747   5.643   6.282
 3658SOL    HW211874   0.886   5.666   6.364
 3659SOL     OW11875   0.050   1.959   6.368
 3659SOL    HW111876   0.108   2.031   6.408
 3659SOL    HW211877   0.083   1.937   6.276
 3660SOL     OW11878   5.218   5.371   5.695
 3660SOL    HW111879   5.178   5.454   5.656
 3660SOL    HW211880   5.219   5.379   5.795
 3661SOL     OW11881   7.001   1.686   4.869
 3661SOL    HW111882   0.014   1.779   4.881
 3661SOL    HW211883   0.038   1.635   4.807
 3662SOL     OW11884   3.694   0.827   5.771
 3662SOL    HW111885   3.595   0.824   5.783
 3662SOL    HW211886   3.725   0.921   5.768
 3663SOL     OW11887   2.610   3.208   6.945
 3663SOL    HW111888   2.606   3.127   7.003
 3663SOL    HW211889   2.517   3.243   6.932
 3664SOL     OW11890   4.389   1.695   2.158
 3664SOL    HW111891   4.392   1.727   2.253
 3664SOL    HW211892   4.424   1.601   2.154
 3665SOL     OW11893   0.153   6.283   5.838
 3665SOL    HW111894   0.093   6.203   5.839
 3665SOL    HW211895   0.194   6.292   5.748
 3666SOL     OW11896   1.632   2.536   4.107
 3666SOL    HW111897   1.604   2.540   4.203
 3666SOL    HW211898   1.554   2.504   4.052
 3667SOL     OW11899   1.988   1.614   2.330
 3667SOL    HW111900   1.942   1.642   2.247
 3667SOL    HW211901   1.921   1.589   2.400
 3668SOL     OW11902   1.006   0.192   1.680
 3668SOL    HW111903   1.106   0.198   1.691
 3668SOL    HW211904   0.965   0.165   1.767
 3669SOL     OW11905   6.528   2.328   3.978
 3669SOL    HW111906   6.586   2.409   3.978
 3669SOL    HW211907   6.573   2.256   4.032
 3670SOL     OW11908   3.328   5.204   1.415
 3670SOL    HW111909   3.408   5.259   1.390
 3670SOL    HW211910   3.354   5.136   1.484
 3671SOL     OW11911   6.853   0.440   3.592
 3671SOL    HW111912   6.880   0.522   3.643
 3671SOL    HW211913   6.837   0.365   3.656
 3672SOL     OW11914   4.538   0.914   2.981
 3672SOL    HW111915   4.560   0.857   3.060
 3672SOL    HW211916   4.479   0.989   3.010
 3673SOL     OW11917   4.824   6.020   0.525
 3673SOL    HW111918   4.869   6.099   0.484
 3673SOL    HW211919   4.780   5.966   0.454
 3674SOL     OW11920   1.547   5.684   5.429
 3674SOL    HW111921   1.583   5.738   5.505
 3674SOL    HW211922   1.468   5.631   5.459
 3675SOL     OW11923   0.035   1.819   4.175
 3675SOL    HW111924   0.063   1.815   4.079
 3675SOL    HW211925   6.985   1.886   4.186
 3676SOL     OW11926   5.091   2.442   2.987
 3676SOL    HW111927   5.086   2.366   3.052
 3676SOL    HW211928   5.091   2.528   3.037
 3677SOL     OW11929   2.212   0.640   3.910
 3677SOL    HW111930   2.300   0.610   3.947
 3677SOL    HW211931   2.209   0.740   3.908
 3678SOL     OW11932   1.471   0.435   3.733
 3678SOL    HW111933   1.398   0.427   3.800
 3678SOL    HW211934   1.510   0.527   3.737
 3679SOL     OW11935   4.967   0.413   2.955
 3679SOL    HW111936   4.881   0.458   2.978
 3679SOL    HW211937   5.043   0.476   2.971
 3680SOL     OW11938   4.680   1.586   3.325
 3680SOL    HW111939   4.690   1.684   3.342
 3680SOL    HW211940   4.771   1.544   3.316
 3681SOL     OW11941   1.394   0.431   4.798
 3681SOL    HW111942   1.434   0.376   4.725
 3681SOL    HW211943   1.295   0.421   4.798
 3682SOL     OW11944   5.644   2.084   0.946
 3682SOL    HW111945   5.652   2.126   1.037
 3682SOL    HW211946   5.735   2.065   0.910
 3683SOL     OW11947   6.950   0.760   5.166
 3683SOL    HW111948   6.989   0.678   5.208
 3683SOL    HW211949   6.865   0.735   5.118
 3684SOL     OW11950   1.711   6.860   5.465
 3684SOL    HW111951   1.750   6.947   5.435
 3684SOL    HW211952   1.741   6.840   5.558
 3685SOL     OW11953   2.427   6.053   5.753
 3685SOL    HW111954   2.482   5.973   5.728
 3685SOL    HW211955   2.331   6.036   5.730
 3686SOL     OW11956   6.837   3.659   3.395
 3686SOL    HW111957   6.781   3.729   3.350
 3686SOL    HW211958   6.835   3.574   3.341
 3687SOL     OW11959   4.350   6.104   3.446
 3687SOL    HW111960   4.311   6.063   3.365
 3687SOL    HW211961   4.437   6.060   3.468
 3688SOL     OW11962   5.676   2.839   6.916
 3688SOL    HW111963   5.618   2.769   6.873
 3688SOL    HW211964   5.656   2.844   7.014
 3689SOL     OW11965   1.661   0.813   5.259
 3689SOL    HW111966   1.581   0.823   5.318
 3689SOL    HW211967   1.656   0.878   5.184
 3690SOL     OW11968   5.301   5.025   0.780
 3690SOL    HW111969   5.388   5.043   0.826
 3690SOL    HW211970   5.226   5.062   0.836
 3691SOL     OW11971   3.023   1.722   0.116
 3691SOL    HW111972   3.095   1.783   0.148
 3691SOL    HW211973   2.984   1.758   0.031
 3692SOL     OW11974   0.662   3.489   6.337
 3692SOL    HW111975   0.627   3.421   6.401
 3692SOL    HW211976   0.719   3.444   6.268
 3693SOL     OW11977   0.837   1.975   2.410
 3693SOL    HW111978   0.915   1.914   2.396
 3693SOL    HW211979   0.754   1.931   2.378
 3694SOL     OW11980   0.590   0.596   1.947
 3694SOL    HW111981   0.512   0.645   1.910
 3694SOL    HW211982   0.558   0.516   1.999
 3695SOL     OW11983   6.403   2.425   2.750
 3695SOL    HW111984   6.422   2.396   2.656
 3695SOL    HW211985   6.319   2.479   2.751
 3696SOL     OW11986   4.923   0.691   5.008
 3696SOL    HW111987   5.019   0.667   5.000
 3696SOL    HW211988   4.866   0.612   4.987
 3697SOL     OW11989   6.127   6.161   3.771
 3697SOL    HW111990   6.212   6.195   3.811
 3697SOL    HW211991   6.055   6.230   3.785
 3698SOL     OW11992   2.150   0.597   2.914
 3698SOL    HW111993   2.053   0.622   2.903
 3698SOL    HW211994   2.166   0.566   3.008
 3699SOL     OW11995   2.576   1.966   3.977
 3699SOL    HW111996   2.654   2.006   3.929
 3699SOL    HW211997   2.553   2.023   4.056
 3700SOL     OW11998   1.454   5.173   4.863
 3700SOL    HW111999   1.356   5.154   4.863
 3700SOL    HW212000   1.492   5.149   4.773
 3701SOL     OW12001   1.189   6.850   3.161
 3701SOL    HW112002   1.121   6.826   3.092
 3701SOL    HW212003   1.279   6.818   3.131
 3702SOL     OW12004   5.219   4.576   3.256
 3702SOL    HW112005   5.191   4.503   3.319
 3702SOL    HW212006   5.317   4.593   3.266
 3703SOL     OW12007   1.401   1.741   5.662
 3703SOL    HW112008   1.393   1.655   5.713
 3703SOL    HW212009   1.323   1.800   5.684
 3704SOL     OW12010   6.576   2.720   1.340
 3704SOL    HW112011   6.495   2.762   1.299
 3704SOL    HW212012   6.650   2.787   1.343
 3705SOL     OW12013   4.996   4.564   3.446
 3705SOL    HW112014   5.012   4.493   3.378
 3705SOL    HW212015   4.939   4.528   3.520
 3706SOL     OW12016   1.031   3.717   0.582
 3706SOL    HW112017   1.037   3.638   0.522
 3706SOL    HW212018   0.938   3.753   0.583
 3707SOL     OW12019   2.281   4.910   3.660
 3707SOL    HW112020   2.317   4.818   3.674
 3707SOL    HW212021   2.347   4.964   3.607
 3708SOL     OW12022   3.755   6.850   1.229
 3708SOL    HW112023   3.825   6.883   1.292
 3708SOL    HW212024   3.771   6.888   1.138
 3709SOL     OW12025   1.891   0.307   2.475
 3709SOL    HW112026   1.892   0.252   2.559
 3709SOL    HW212027   1.917   0.401   2.497
 3710SOL     OW12028   0.301   5.338   5.321
 3710SOL    HW112029   0.389   5.322   5.277
 3710SOL    HW212030   0.275   5.259   5.376
 3711SOL     OW12031   1.904   6.092   4.656
 3711SOL    HW112032   1.929   6.110   4.751
 3711SOL    HW212033   1.818   6.041   4.653
 3712SOL     OW12034   2.122   5.572   5.126
 3712SOL    HW112035   2.196   5.625   5.166
 3712SOL    HW212036   2.089   5.618   5.043
 3713SOL     OW12037   6.807   6.790   5.222
 3713SOL    HW112038   6.813   6.748   5.312
 3713SOL    HW212039   6.889   6.845   5.205
 3714SOL     OW12040   1.021   5.006   0.648
 3714SOL    HW112041   1.002   5.075   0.718
 3714SOL    HW212042   1.089   5.041   0.584
 3715SOL     OW12043   6.860   5.946   3.242
 3715SOL    HW112044   6.922   5.886   3.191
 3715SOL    HW212045   6.854   5.914   3.337
 3716SOL     OW12046   5.605   5.808   3.948
 3716SOL    HW112047   5.607   5.862   3.864
 3716SOL    HW212048   5.536   5.845   4.010
 3717SOL     OW12049   4.528   1.199   1.357
 3717SOL    HW112050   4.478   1.179   1.440
 3717SOL    HW212051   4.569   1.290   1.364
 3718SOL     OW12052   0.335   6.678   6.563
 3718SOL    HW112053   0.366   6.628   6.482
 3718SOL    HW212054   0.285   6.615   6.623
 3719SOL     OW12055   4.395   3.590   6.587
 3719SOL    HW112056   4.319   3.539   6.626
 3719SOL    HW212057   4.449   3.529   6.527
 3720SOL     OW12058   6.739   3.202   1.181
 3720SOL    HW112059   6.814   3.150   1.222
 3720SOL    HW212060   6.700   3.263   1.251
 3721SOL     OW12061   6.721   4.409   6.753
 3721SOL    HW112062   6.719   4.479   6.823
 3721SOL    HW212063   6.809   4.411   6.706
 3722SOL     OW12064   3.808   0.072   2.794
 3722SOL    HW112065   3.880   0.136   2.822
 3722SOL    HW212066   3.823   0.044   2.699
 3723SOL     OW12067   4.225   5.405   6.936
 3723SOL    HW112068   4.127   5.422   6.924
 3723SOL    HW212069   4.274   5.433   6.853
 3724SOL     OW12070   1.422   4.937   4.606
 3724SOL    HW112071   1.509   4.924   4.559
 3724SOL    HW212072   1.429   4.903   4.700
 3725SOL     OW12073   0.193   6.608   0.126
 3725SOL    HW112074   0.094   6.622   0.122
 3725SOL    HW212075   0.214   6.510   0.118
 3726SOL     OW12076   5.699   3.853   3.710
 3726SOL    HW112077   5.697   3.762   3.749
 3726SOL    HW212078   5.607   3.882   3.685
 3727SOL     OW12079   6.783   2.915   3.992
 3727SOL    HW112080   6.879   2.900   4.013
 3727SOL    HW212081   6.737   2.827   3.979
 3728SOL     OW12082   3.550   3.833   0.103
 3728SOL    HW112083   3.533   3.809   0.199
 3728SOL    HW212084   3.595   3.922   0.098
 3729SOL     OW12085   0.626   0.120   5.317
 3729SOL    HW112086   0.564   0.048   5.348
 3729SOL    HW212087   0.718   0.103   5.352
 3730SOL     OW12088   4.410   5.957   5.979
 3730SOL    HW112089   4.316   5.932   5.961
 3730SOL    HW212090   4.439   6.028   5.914
 3731SOL     OW12091   0.316   2.056   6.257
 3731SOL    HW112092   0.333   1.979   6.318
 3731SOL    HW212093   0.396   2.116   6.256
 3732SOL     OW12094   2.722   1.729   6.877
 3732SOL    HW112095   2.675   1.769   6.798
 3732SOL    HW212096   2.729   1.797   6.950
 3733SOL     OW12097   1.665   2.493   3.663
 3733SOL    HW112098   1.686   2.556   3.738
 3733SOL    HW212099   1.694   2.534   3.576
 3734SOL     OW12100   4.111   0.004   1.730
 3734SOL    HW112101   4.066   0.045   1.809
 3734SOL    HW212102   4.051   6.959   1.689
 3735SOL     OW12103   4.402   6.675   2.536
 3735SOL    HW112104   4.469   6.614   2.577
 3735SOL    HW212105   4.336   6.623   2.483
 3736SOL     OW12106   6.470   1.179   1.641
 3736SOL    HW112107   6.405   1.110   1.673
 3736SOL    HW212108   6.427   1.270   1.645
 3737SOL     OW12109   0.553   2.356   3.488
 3737SOL    HW112110   0.615   2.286   3.526
 3737SOL    HW212111   0.568   2.443   3.534
 3738SOL     OW12112   6.753   6.389   0.341
 3738SOL    HW112113   6.839   6.413   0.385
 3738SOL    HW212114   6.686   6.461   0.357
 3739SOL     OW12115   2.931   4.807   1.174
 3739SOL    HW112116   2.915   4.897   1.215
 3739SOL    HW212117   2.866   4.741   1.211
 3740SOL     OW12118   5.611   5.509   6.988
 3740SOL    HW112119   5.541   5.564   6.942
 3740SOL    HW212120   5.567   5.438   0.019
 3741SOL     OW12121   5.411   2.259   0.515
 3741SOL    HW112122   5.387   2.343   0.563
 3741SOL    HW212123   5.488   2.215   0.561
 3742SOL     OW12124   4.089   5.800   0.235
 3742SOL    HW112125   4.084   5.799   0.335
 3742SOL    HW212126   4.178   5.767   0.205
 3743SOL     OW12127   4.107   3.477   1.363
 3743SOL    HW112128   4.199   3.472   1.402
 3743SOL    HW212129   4.105   3.428   1.276
 3744SOL     OW12130   0.800   6.142   1.943
 3744SOL    HW112131   0.790   6.120   1.846
 3744SOL    HW212132   0.756   6.070   1.998
 3745SOL     OW12133   4.935   3.601   2.492
 3745SOL    HW112134   4.933   3.501   2.500
 3745SOL    HW212135   4.947   3.626   2.396
 3746SOL     OW12136   6.607   0.393   3.450
 3746SOL    HW112137   6.581   0.300   3.426
 3746SOL    HW212138   6.706   0.396   3.468
 3747SOL     OW12139   4.774   6.657   6.481
 3747SOL    HW112140   4.865   6.616   6.479
 3747SOL    HW212141   4.713   6.600   6.535
 3748SOL     OW12142   5.333   1.300   2.843
 3748SOL    HW112143   5.295   1.313   2.935
 3748SOL    HW212144   5.271   1.338   2.775
 3749SOL     OW12145   0.617   5.196   2.626
 3749SOL    HW112146   0.585   5.210   2.719
 3749SOL    HW212147   0.599   5.278   2.571
 3750SOL     OW12148   5.693   4.063   0.106
 3750SOL    HW112149   5.734   4.087   0.018
 3750SOL    HW212150   5.626   3.991   0.093
 3751SOL     OW12151   2.011   3.280   1.197
 3751SOL    HW112152   1.940   3.209   1.197
 3751SOL    HW212153   2.096   3.242   1.233
 3752SOL     OW12154   0.763   0.119   6.770
 3752SOL    HW112155   0.862   0.120   6.781
 3752SOL    HW212156   0.723   0.195   6.822
 3753SOL     OW12157   6.890   6.521   4.193
 3753SOL    HW112158   6.877   6.609   4.149
 3753SOL    HW212159   6.849   6.523   4.284
 3754SOL     OW12160   5.557   6.428   1.073
 3754SOL    HW112161   5.465   6.417   1.111
 3754SOL    HW212162   5.625   6.407   1.143
 3755SOL     OW12163   5.420   4.069   3.336
 3755SOL    HW112164   5.414   4.132   3.414
 3755SOL    HW212165   5.328   4.052   3.300
 3756SOL     OW12166   2.113   2.193   6.240
 3756SOL    HW112167   2.127   2.095   6.249
 3756SOL    HW212168   2.054   2.226   6.313
 3757SOL     OW12169   3.072   6.133   5.724
 3757SOL    HW112170   2.975   6.151   5.746
 3757SOL    HW212171   3.079   6.052   5.667
 3758SOL     OW12172   2.675   1.364   4.669
 3758SOL    HW112173   2.756   1.337   4.618
 3758SOL    HW212174   2.621   1.283   4.692
 3759SOL     OW12175   4.949   4.962   6.048
 3759SOL    HW112176   4.927   4.873   6.009
 3759SOL    HW212177   4.899   5.034   6.000
 3760SOL     OW12178   1.473   3.117   4.358
 3760SOL    HW112179   1.537   3.095   4.284
 3760SOL    HW212180   1.524   3.145   4.439
 3761SOL     OW12181   0.605   6.619   5.068
 3761SOL    HW112182   0.576   6.661   5.154
 3761SOL    HW212183   0.693   6.573   5.082
 3762SOL     OW12184   0.550   3.907   0.304
 3762SOL    HW112185   0.475   3.841   0.316
 3762SOL    HW212186   0.532   3.988   0.361
 3763SOL     OW12187   5.969   3.197   6.176
 3763SOL    HW112188   5.908   3.136   6.125
 3763SOL    HW212189   6.015   3.258   6.111
 3764SOL     OW12190   2.809   0.272   4.117
 3764SOL    HW112191   2.832   0.353   4.171
 3764SOL    HW212192   2.855   0.192   4.156
 3765SOL     OW12193   4.796   0.750   3.922
 3765SOL    HW112194   4.737   0.669   3.915
 3765SOL    HW212195   4.753   0.818   3.981
 3766SOL     OW12196   0.586   1.082   3.976
 3766SOL    HW112197   0.663   1.069   4.039
 3766SOL    HW212198   0.500   1.074   4.027
 3767SOL     OW12199   1.111   5.184   6.444
 3767SOL    HW112200   1.202   5.179   6.403
 3767SOL    HW212201   1.087   5.095   6.483
 3768SOL     OW12202   4.320   6.488   6.704
 3768SOL    HW112203   4.259   6.555   6.747
 3768SOL    HW212204   4.280   6.460   6.616
 3769SOL     OW12205   5.416   6.377   4.619
 3769SOL    HW112206   5.485   6.348   4.554
 3769SOL    HW212207   5.460   6.412   4.702
 3770SOL     OW12208   1.935   1.510   6.189
 3770SOL    HW112209   1.886   1.484   6.106
 3770SOL    HW212210   2.022   1.460   6.193
 3771SOL     OW12211   5.110   2.359   0.387
 3771SOL    HW112212   5.063   2.342   0.474
 3771SOL    HW212213   5.140   2.273   0.347
 3772SOL     OW12214   6.013   0.757   1.481
 3772SOL    HW112215   5.920   0.786   1.461
 3772SOL    HW212216   6.076   0.801   1.416
 3773SOL     OW12217   5.694   3.235   5.459
 3773SOL    HW112218   5.628   3.200   5.393
 3773SOL    HW212219   5.651   3.240   5.550
 3774SOL     OW12220   1.059   0.637   6.836
 3774SOL    HW112221   0.984   0.695   6.869
 3774SOL    HW212222   1.135   0.694   6.807
 3775SOL     OW12223   5.290   3.498   3.058
 3775SOL    HW112224   5.279   3.473   3.155
 3775SOL    HW212225   5.284   3.415   3.002
 3776SOL     OW12226   2.290   2.643   1.469
 3776SOL    HW112227   2.209   2.695   1.440
 3776SOL    HW212228   2.261   2.554   1.504
 3777SOL     OW12229   2.955   5.213   4.792
 3777SOL    HW112230   2.914   5.302   4.772
 3777SOL    HW212231   2.987   5.212   4.887
 3778SOL     OW12232   2.902   5.608   2.384
 3778SOL    HW112233   2.875   5.665   2.462
 3778SOL    HW212234   2.893   5.662   2.300
 3779SOL     OW12235   2.271   4.296   0.112
 3779SOL    HW112236   2.235   4.203   0.120
 3779SOL    HW212237   2.246   4.348   0.193
 3780SOL     OW12238   3.081   5.542   5.276
 3780SOL    HW112239   3.129   5.556   5.190
 3780SOL    HW212240   3.128   5.473   5.331
 3781SOL     OW12241   3.347   0.008   4.211
 3781SOL    HW112242   3.402   0.052   4.141
 3781SOL    HW212243   3.379   0.035   4.302
 3782SOL     OW12244   2.370   1.486   4.321
 3782SOL    HW112245   2.351   1.583   4.336
 3782SOL    HW212246   2.283   1.436   4.318
 3783SOL     OW12247   5.828   6.231   4.718
 3783SOL    HW112248   5.784   6.301   4.663
 3783SOL    HW212249   5.758   6.177   4.766
 3784SOL     OW12250   5.585   0.978   3.539
 3784SOL    HW112251   5.609   1.069   3.573
 3784SOL    HW212252   5.606   0.910   3.609
 3785SOL     OW12253   2.495   2.288   0.972
 3785SOL    HW112254   2.550   2.277   1.055
 3785SOL    HW212255   2.516   2.375   0.929
 3786SOL     OW12256   2.705   4.822   3.635
 3786SOL    HW112257   2.716   4.909   3.586
 3786SOL    HW212258   2.786   4.805   3.691
 3787SOL     OW12259   5.044   1.310   4.265
 3787SOL    HW112260   4.945   1.320   4.274
 3787SOL    HW212261   5.090   1.372   4.329
 3788SOL     OW12262   6.424   3.030   3.426
 3788SOL    HW112263   6.474   3.065   3.347
 3788SOL    HW212264   6.479   3.044   3.509
 3789SOL     OW12265   1.135   4.601   4.387
 3789SOL    HW112266   1.229   4.609   4.354
 3789SOL    HW212267   1.129   4.523   4.450
 3790SOL     OW12268   1.989   3.406   4.704
 3790SOL    HW112269   1.906   3.365   4.742
 3790SOL    HW212270   2.000   3.498   4.740
 3791SOL     OW12271   5.476   6.741   1.494
 3791SOL    HW112272   5.403   6.716   1.558
 3791SOL    HW212273   5.510   6.659   1.448
 3792SOL     OW12274   6.362   6.685   5.093
 3792SOL    HW112275   6.340   6.594   5.057
 3792SOL    HW212276   6.458   6.705   5.075
 3793SOL     OW12277   2.177   1.436   2.163
 3793SOL    HW112278   2.216   1.526   2.182
 3793SOL    HW212279   2.095   1.422   2.218
 3794SOL     OW12280   3.989   5.971   1.804
 3794SOL    HW112281   3.990   5.964   1.904
 3794SOL    HW212282   3.930   5.899   1.766
 3795SOL     OW12283   5.315   0.502   7.018
 3795SOL    HW112284   5.311   0.440   0.073
 3795SOL    HW212285   5.317   0.597   0.028
 3796SOL     OW12286   1.514   1.950   1.387
 3796SOL    HW112287   1.460   1.965   1.470
 3796SOL    HW212288   1.460   1.976   1.307
 3797SOL     OW12289   1.086   5.266   2.011
 3797SOL    HW112290   1.175   5.226   1.992
 3797SOL    HW212291   1.019   5.193   2.022
 3798SOL     OW12292   2.416   4.758   3.028
 3798SOL    HW112293   2.437   4.691   3.099
 3798SOL    HW212294   2.351   4.825   3.064
 3799SOL     OW12295   1.375   1.323   5.065
 3799SOL    HW112296   1.295   1.367   5.105
 3799SOL    HW212297   1.421   1.267   5.134
 3800SOL     OW12298   5.232   2.299   4.835
 3800SOL    HW112299   5.180   2.361   4.777
 3800SOL    HW212300   5.198   2.303   4.929
 3801SOL     OW12301   6.793   6.611   5.485
 3801SOL    HW112302   6.819   6.543   5.417
 3801SOL    HW212303   6.701   6.591   5.518
 3802SOL     OW12304   0.976   1.824   4.879
 3802SOL    HW112305   0.936   1.755   4.818
 3802SOL    HW212306   0.940   1.914   4.855
 3803SOL     OW12307   4.315   0.124   1.522
 3803SOL    HW112308   4.319   0.213   1.567
 3803SOL    HW212309   4.281   0.055   1.586
 3804SOL     OW12310   4.252   2.139   4.597
 3804SOL    HW112311   4.345   2.122   4.629
 3804SOL    HW212312   4.191   2.146   4.675
 3805SOL     OW12313   3.061   4.239   1.764
 3805SOL    HW112314   3.036   4.335   1.780
 3805SOL    HW212315   3.035   4.212   1.672
 3806SOL     OW12316   2.931   3.101   0.438
 3806SOL    HW112317   2.925   3.072   0.342
 3806SOL    HW212318   2.858   3.166   0.458
 3807SOL     OW12319   0.694   6.830   4.015
 3807SOL    HW112320   0.707   6.733   3.995
 3807SOL    HW212321   0.673   6.879   3.930
 3808SOL     OW12322   3.010   0.402   2.176
 3808SOL    HW112323   3.054   0.321   2.137
 3808SOL    HW212324   2.974   0.459   2.102
 3809SOL     OW12325   6.303   2.000   6.631
 3809SOL    HW112326   6.366   1.967   6.701
 3809SOL    HW212327   6.224   1.938   6.625
 3810SOL     OW12328   3.313   3.156   5.241
 3810SOL    HW112329   3.273   3.093   5.174
 3810SOL    HW212330   3.272   3.140   5.331
 3811SOL     OW12331   0.702   4.781   4.263
 3811SOL    HW112332   0.749   4.726   4.332
 3811SOL    HW212333   0.640   4.845   4.308
 3812SOL     OW12334   6.311   1.850   5.715
 3812SOL    HW112335   6.247   1.884   5.646
 3812SOL    HW212336   6.291   1.892   5.803
 3813SOL     OW12337   3.297   5.525   0.547
 3813SOL    HW112338   3.253   5.441   0.581
 3813SOL    HW212339   3.319   5.514   0.450
 3814SOL     OW12340   6.534   6.040   1.827
 3814SOL    HW112341   6.568   6.053   1.920
 3814SOL    HW212342   6.499   5.946   1.817
 3815SOL     OW12343   5.205   2.145   1.417
 3815SOL    HW112344   5.223   2.210   1.491
 3815SOL    HW212345   5.166   2.061   1.454
 3816SOL     OW12346   0.271   6.317   2.006
 3816SOL    HW112347   0.371   6.318   2.001
 3816SOL    HW212348   0.235   6.272   1.924
 3817SOL     OW12349   4.380   2.371   4.285
 3817SOL    HW112350   4.458   2.359   4.345
 3817SOL    HW212351   4.399   2.443   4.219
 3818SOL     OW12352   4.118   5.850   2.728
 3818SOL    HW112353   4.044   5.836   2.662
 3818SOL    HW212354   4.204   5.815   2.690
 3819SOL     OW12355   5.437   5.413   0.777
 3819SOL    HW112356   5.384   5.468   0.712
 3819SOL    HW212357   5.383   5.399   0.860
 3820SOL     OW12358   4.428   6.066   4.472
 3820SOL    HW112359   4.477   5.980   4.456
 3820SOL    HW212360   4.329   6.048   4.477
 3821SOL     OW12361   1.827   3.731   2.233
 3821SOL    HW112362   1.926   3.735   2.245
 3821SOL    HW212363   1.806   3.703   2.139
 3822SOL     OW12364   2.377   5.098   1.689
 3822SOL    HW112365   2.422   5.028   1.743
 3822SOL    HW212366   2.427   5.184   1.697
 3823SOL     OW12367   3.619   2.436   5.839
 3823SOL    HW112368   3.676   2.450   5.757
 3823SOL    HW212369   3.622   2.519   5.896
 3824SOL     OW12370   5.892   2.080   6.225
 3824SOL    HW112371   5.897   2.174   6.259
 3824SOL    HW212372   5.950   2.022   6.282
 3825SOL     OW12373   0.455   0.202   6.357
 3825SOL    HW112374   0.389   0.251   6.299
 3825SOL    HW212375   0.528   0.264   6.384
 3826SOL     OW12376   6.807   3.742   1.060
 3826SOL    HW112377   6.763   3.653   1.075
 3826SOL    HW212378   6.896   3.728   1.016
 3827SOL     OW12379   3.639   3.786   0.615
 3827SOL    HW112380   3.602   3.819   0.702
 3827SOL    HW212381   3.738   3.774   0.622
 3828SOL     OW12382   4.393   2.529   1.790
 3828SOL    HW112383   4.315   2.560   1.735
 3828SOL    HW212384   4.470   2.592   1.778
 3829SOL     OW12385   1.933   5.249   3.699
 3829SOL    HW112386   1.924   5.293   3.610
 3829SOL    HW212387   1.961   5.154   3.686
 3830SOL     OW12388   2.552   0.005   5.332
 3830SOL    HW112389   2.643   7.007   5.295
 3830SOL    HW212390   2.541   6.982   5.420
 3831SOL     OW12391   4.340   2.059   2.441
 3831SOL    HW112392   4.302   2.144   2.476
 3831SOL    HW212393   4.418   2.079   2.382
 3832SOL     OW12394   6.474   0.839   1.526
 3832SOL    HW112395   6.504   0.933   1.509
 3832SOL    HW212396   6.415   0.809   1.452
 3833SOL     OW12397   0.643   5.067   1.080
 3833SOL    HW112398   0.576   5.082   1.152
 3833SOL    HW212399   0.666   5.154   1.036
 3834SOL     OW12400   3.029   1.832   0.647
 3834SOL    HW112401   2.956   1.780   0.603
 3834SOL    HW212402   3.023   1.821   0.746
 3835SOL     OW12403   3.750   5.890   6.061
 3835SOL    HW112404   3.788   5.983   6.060
 3835SOL    HW212405   3.651   5.895   6.071
 3836SOL     OW12406   1.438   4.078   5.910
 3836SOL    HW112407   1.485   4.131   5.981
 3836SOL    HW212408   1.363   4.027   5.952
 3837SOL     OW12409   4.923   3.886   6.906
 3837SOL    HW112410   4.982   3.966   6.905
 3837SOL    HW212411   4.828   3.915   6.919
 3838SOL     OW12412   5.908   2.226   4.113
 3838SOL    HW112413   5.935   2.322   4.103
 3838SOL    HW212414   5.849   2.215   4.193
 3839SOL     OW12415   5.656   6.846   5.531
 3839SOL    HW112416   5.590   6.771   5.520
 3839SOL    HW212417   5.638   6.915   5.461
 3840SOL     OW12418   1.880   1.049   3.860
 3840SOL    HW112419   1.869   1.075   3.764
 3840SOL    HW212420   1.807   0.984   3.885
 3841SOL     OW12421   0.807   3.849   5.007
 3841SOL    HW112422   0.789   3.900   5.091
 3841SOL    HW212423   0.857   3.907   4.943
 3842SOL     OW12424   0.814   5.310   0.225
 3842SOL    HW112425   0.814   5.267   0.315
 3842SOL    HW212426   0.811   5.409   0.235
 3843SOL     OW12427   6.325   3.171   0.462
 3843SOL    HW112428   6.271   3.256   0.468
 3843SOL    HW212429   6.398   3.183   0.396
 3844SOL     OW12430   1.970   4.834   5.826
 3844SOL    HW112431   2.030   4.815   5.749
 3844SOL    HW212432   1.969   4.933   5.844
 3845SOL     OW12433   3.674   3.889   2.873
 3845SOL    HW112434   3.664   3.791   2.893
 3845SOL    HW212435   3.771   3.911   2.862
 3846SOL     OW12436   0.193   4.429   4.430
 3846SOL    HW112437   0.200   4.504   4.364
 3846SOL    HW212438   0.105   4.434   4.478
 3847SOL     OW12439   6.907   0.241   6.078
 3847SOL    HW112440   6.829   0.186   6.048
 3847SOL    HW212441   6.958   0.192   6.148
 3848SOL     OW12442   3.048   4.732   1.474
 3848SOL    HW112443   3.105   4.752   1.394
 3848SOL    HW212444   2.982   4.806   1.486
 3849SOL     OW12445   0.827   1.968   5.724
 3849SOL    HW112446   0.889   2.016   5.662
 3849SOL    HW212447   0.782   2.034   5.784
 3850SOL     OW12448   3.274   3.880   1.914
 3850SOL    HW112449   3.180   3.913   1.920
 3850SOL    HW212450   3.310   3.898   1.823
 3851SOL     OW12451   1.939   3.018   3.170
 3851SOL    HW112452   1.987   3.017   3.257
 3851SOL    HW212453   2.005   3.006   3.095
 3852SOL     OW12454   4.246   0.516   4.642
 3852SOL    HW112455   4.162   0.549   4.686
 3852SOL    HW212456   4.300   0.465   4.708
 3853SOL     OW12457   0.888   3.502   2.469
 3853SOL    HW112458   0.980   3.467   2.481
 3853SOL    HW212459   0.853   3.475   2.379
 3854SOL     OW12460   0.787   3.628   4.348
 3854SOL    HW112461   0.765   3.715   4.302
 3854SOL    HW212462   0.873   3.638   4.398
 3855SOL     OW12463   6.059   3.539   5.428
 3855SOL    HW112464   6.113   3.605   5.375
 3855SOL    HW212465   5.984   3.587   5.472
 3856SOL     OW12466   6.765   6.621   5.761
 3856SOL    HW112467   6.681   6.587   5.802
 3856SOL    HW212468   6.824   6.544   5.736
 3857SOL     OW12469   0.998   6.494   4.751
 3857SOL    HW112470   1.083   6.543   4.730
 3857SOL    HW212471   1.020   6.402   4.784
 3858SOL     OW12472   2.017   5.742   6.471
 3858SOL    HW112473   1.967   5.828   6.465
 3858SOL    HW212474   2.099   5.755   6.528
 3859SOL     OW12475   0.252   3.138   2.768
 3859SOL    HW112476   0.197   3.205   2.718
 3859SOL    HW212477   0.304   3.083   2.703
 3860SOL     OW12478   2.476   6.734   5.557
 3860SOL    HW112479   2.424   6.738   5.642
 3860SOL    HW212480   2.572   6.754   5.576
 3861SOL     OW12481   4.534   4.537   1.502
 3861SOL    HW112482   4.468   4.487   1.558
 3861SOL    HW212483   4.505   4.632   1.493
 3862SOL     OW12484   0.933   5.839   5.671
 3862SOL    HW112485   0.920   5.928   5.628
 3862SOL    HW212486   0.887   5.769   5.616
 3863SOL     OW12487   3.080   3.911   1.596
 3863SOL    HW112488   3.056   4.004   1.624
 3863SOL    HW212489   3.051   3.847   1.666
 3864SOL     OW12490   3.248   2.075   0.261
 3864SOL    HW112491   3.195   2.057   0.344
 3864SOL    HW212492   3.199   2.140   0.203
 3865SOL     OW12493   4.758   0.014   2.747
 3865SOL    HW112494   4.858   0.009   2.746
 3865SOL    HW212495   4.725   0.044   2.658
 3866SOL     OW12496   3.807   0.011   0.242
 3866SOL    HW112497   3.841   6.993   0.158
 3866SOL    HW212498   3.802   6.965   0.314
 3867SOL     OW12499   2.107   3.458   3.285
 3867SOL    HW112500   2.130   3.432   3.378
 3867SOL    HW212501   2.138   3.387   3.222
 3868SOL     OW12502   2.326   6.699   2.719
 3868SOL    HW112503   2.382   6.767   2.766
 3868SOL    HW212504   2.271   6.743   2.648
 3869SOL     OW12505   0.709   3.082   3.234
 3869SOL    HW112506   0.698   3.158   3.170
 3869SOL    HW212507   0.767   3.111   3.310
 3870SOL     OW12508   2.991   5.225   0.435
 3870SOL    HW112509   3.086   5.240   0.409
 3870SOL    HW212510   2.933   5.293   0.391
 3871SOL     OW12511   2.580   0.078   3.579
 3871SOL    HW112512   2.604   0.175   3.579
 3871SOL    HW212513   2.662   0.023   3.596
 3872SOL     OW12514   4.341   3.479   0.813
 3872SOL    HW112515   4.400   3.478   0.894
 3872SOL    HW212516   4.252   3.516   0.838
 3873SOL     OW12517   5.669   4.714   2.021
 3873SOL    HW112518   5.764   4.743   2.014
 3873SOL    HW212519   5.658   4.654   2.100
 3874SOL     OW12520   4.366   0.504   0.154
 3874SOL    HW112521   4.285   0.455   0.187
 3874SOL    HW212522   4.338   0.575   0.089
 3875SOL     OW12523   1.357   4.851   1.012
 3875SOL    HW112524   1.359   4.751   1.007
 3875SOL    HW212525   1.279   4.885   0.960
 3876SOL     OW12526   5.128   3.780   3.716
 3876SOL    HW112527   5.045   3.741   3.677
 3876SOL    HW212528   5.159   3.856   3.659
 3877SOL     OW12529   5.987   1.214   2.404
 3877SOL    HW112530   5.943   1.193   2.317
 3877SOL    HW212531   5.934   1.174   2.479
 3878SOL     OW12532   3.825   6.406   6.013
 3878SOL    HW112533   3.775   6.443   5.935
 3878SOL    HW212534   3.791   6.448   6.097
 3879SOL     OW12535   4.126   5.696   1.653
 3879SOL    HW112536   4.075   5.663   1.733
 3879SOL    HW212537   4.204   5.750   1.684
 3880SOL     OW12538   5.277   3.418   3.321
 3880SOL    HW112539   5.230   3.333   3.346
 3880SOL    HW212540   5.364   3.424   3.369
 3881SOL     OW12541   1.273   3.593   0.805
 3881SOL    HW112542   1.343   3.566   0.872
 3881SOL    HW212543   1.267   3.524   0.733
 3882SOL     OW12544   0.279   0.787   5.468
 3882SOL    HW112545   0.310   0.727   5.542
 3882SOL    HW212546   0.200   0.840   5.500
 3883SOL     OW12547   3.944   0.453   5.503
 3883SOL    HW112548   3.954   0.430   5.600
 3883SOL    HW212549   3.891   0.537   5.493
 3884SOL     OW12550   1.820   5.601   5.956
 3884SOL    HW112551   1.854   5.571   5.867
 3884SOL    HW212552   1.737   5.549   5.978
 3885SOL     OW12553   6.841   1.333   4.437
 3885SOL    HW112554   6.818   1.420   4.392
 3885SOL    HW212555   6.806   1.257   4.383
 3886SOL     OW12556   6.180   6.695   5.613
 3886SOL    HW112557   6.236   6.618   5.644
 3886SOL    HW212558   6.198   6.713   5.516
 3887SOL     OW12559   4.028   2.281   5.753
 3887SOL    HW112560   4.027   2.367   5.703
 3887SOL    HW212561   4.098   2.221   5.714
 3888SOL     OW12562   6.719   2.238   0.914
 3888SOL    HW112563   6.718   2.334   0.943
 3888SOL    HW212564   6.695   2.232   0.817
 3889SOL     OW12565   1.240   6.277   6.114
 3889SOL    HW112566   1.339   6.291   6.107
 3889SOL    HW212567   1.192   6.358   6.079
 3890SOL     OW12568   5.567   4.119   3.089
 3890SOL    HW112569   5.576   4.037   3.033
 3890SOL    HW212570   5.536   4.093   3.181
 3891SOL     OW12571   5.413   4.768   4.921
 3891SOL    HW112572   5.509   4.787   4.941
 3891SOL    HW212573   5.385   4.820   4.840
 3892SOL     OW12574   5.174   6.949   2.929
 3892SOL    HW112575   5.253   6.890   2.913
 3892SOL    HW212576   5.188   7.001   3.013
 3893SOL     OW12577   2.943   6.032   4.021
 3893SOL    HW112578   2.869   5.965   4.027
 3893SOL    HW212579   3.029   5.991   4.051
 3894SOL     OW12580   5.317   3.766   6.710
 3894SOL    HW112581   5.413   3.774   6.739
 3894SOL    HW212582   5.313   3.718   6.622
 3895SOL     OW12583   3.176   2.275   5.665
 3895SOL    HW112584   3.155   2.185   5.703
 3895SOL    HW212585   3.168   2.272   5.566
 3896SOL     OW12586   6.101   2.857   5.534
 3896SOL    HW112587   6.028   2.817   5.479
 3896SOL    HW212588   6.068   2.874   5.627
 3897SOL     OW12589   3.887   6.859   2.317
 3897SOL    HW112590   3.958   6.928   2.334
 3897SOL    HW212591   3.886   6.793   2.393
 3898SOL     OW12592   3.873   4.071   4.535
 3898SOL    HW112593   3.960   4.120   4.542
 3898SOL    HW212594   3.823   4.079   4.621
 3899SOL     OW12595   4.410   1.707   5.043
 3899SOL    HW112596   4.418   1.760   5.128
 3899SOL    HW212597   4.323   1.656   5.044
 3900SOL     OW12598   6.607   2.752   3.384
 3900SOL    HW112599   6.607   2.653   3.403
 3900SOL    HW212600   6.564   2.800   3.460
 3901SOL     OW12601   1.843   6.233   5.414
 3901SOL    HW112602   1.799   6.274   5.333
 3901SOL    HW212603   1.830   6.134   5.413
 3902SOL     OW12604   4.353   5.079   1.433
 3902SOL    HW112605   4.414   5.158   1.420
 3902SOL    HW212606   4.309   5.086   1.523
 3903SOL     OW12607   4.063   2.689   6.543
 3903SOL    HW112608   4.102   2.680   6.634
 3903SOL    HW212609   4.008   2.608   6.522
 3904SOL     OW12610   1.173   6.546   1.193
 3904SOL    HW112611   1.209   6.520   1.283
 3904SOL    HW212612   1.093   6.605   1.205
 3905SOL     OW12613   6.624   0.328   5.112
 3905SOL    HW112614   6.709   0.361   5.071
 3905SOL    HW212615   6.639   0.307   5.208
 3906SOL     OW12616   0.836   5.503   3.953
 3906SOL    HW112617   0.873   5.421   3.995
 3906SOL    HW212618   0.776   5.477   3.877
 3907SOL     OW12619   0.275   1.198   4.649
 3907SOL    HW112620   0.197   1.193   4.586
 3907SOL    HW212621   0.303   1.105   4.673
 3908SOL     OW12622   1.458   0.712   4.284
 3908SOL    HW112623   1.410   0.777   4.344
 3908SOL    HW212624   1.414   0.623   4.289
 3909SOL     OW12625   5.939   2.322   6.546
 3909SOL    HW112626   5.998   2.251   6.584
 3909SOL    HW212627   5.986   2.410   6.549
 3910SOL     OW12628   3.435   2.149   0.436
 3910SOL    HW112629   3.473   2.074   0.489
 3910SOL    HW212630   3.370   2.113   0.369
 3911SOL     OW12631   0.209   1.384   0.818
 3911SOL    HW112632   0.241   1.290   0.827
 3911SOL    HW212633   0.170   1.415   0.904
 3912SOL     OW12634   3.797   1.983   0.349
 3912SOL    HW112635   3.853   2.064   0.330
 3912SOL    HW212636   3.704   2.012   0.370
 3913SOL     OW12637   5.281   4.924   1.201
 3913SOL    HW112638   5.282   4.831   1.164
 3913SOL    HW212639   5.344   4.930   1.279
 3914SOL     OW12640   6.645   1.463   0.325
 3914SOL    HW112641   6.565   1.513   0.294
 3914SOL    HW212642   6.663   1.485   0.421
 3915SOL     OW12643   4.810   5.450   6.752
 3915SOL    HW112644   4.832   5.406   6.838
 3915SOL    HW212645   4.894   5.476   6.705
 3916SOL     OW12646   2.664   1.825   2.355
 3916SOL    HW112647   2.624   1.812   2.264
 3916SOL    HW212648   2.602   1.786   2.424
 3917SOL     OW12649   3.431   5.014   1.596
 3917SOL    HW112650   3.378   4.931   1.612
 3917SOL    HW212651   3.499   5.025   1.669
 3918SOL     OW12652   5.190   1.035   0.806
 3918SOL    HW112653   5.091   1.045   0.797
 3918SOL    HW212654   5.229   1.007   0.718
 3919SOL     OW12655   3.569   0.000   2.413
 3919SOL    HW112656   3.505   0.022   2.340
 3919SOL    HW212657   3.521   0.003   2.501
 3920SOL     OW12658   3.003   1.689   5.746
 3920SOL    HW112659   3.098   1.663   5.760
 3920SOL    HW212660   2.943   1.631   5.801
 3921SOL     OW12661   6.625   2.706   6.224
 3921SOL    HW112662   6.655   2.614   6.250
 3921SOL    HW212663   6.691   2.746   6.161
 3922SOL     OW12664   5.134   4.174   2.677
 3922SOL    HW112665   5.202   4.103   2.662
 3922SOL    HW212666   5.178   4.263   2.675
 3923SOL     OW12667   5.257   0.833   1.341
 3923SOL    HW112668   5.168   0.799   1.371
 3923SOL    HW212669   5.283   0.788   1.255
 3924SOL     OW12670   5.366   5.144   4.057
 3924SOL    HW112671   5.339   5.233   4.094
 3924SOL    HW212672   5.303   5.074   4.090
 3925SOL     OW12673   5.120   3.956   0.527
 3925SOL    HW112674   5.033   3.918   0.556
 3925SOL    HW212675   5.130   4.048   0.564
 3926SOL     OW12676   0.691   6.545   6.145
 3926SOL    HW112677   0.724   6.451   6.144
 3926SOL    HW212678   0.683   6.579   6.051
 3927SOL     OW12679   5.706   2.318   5.775
 3927SOL    HW112680   5.614   2.281   5.767
 3927SOL    HW212681   5.772   2.243   5.767
 3928SOL     OW12682   3.085   5.904   2.126
 3928SOL    HW112683   3.012   5.914   2.193
 3928SOL    HW212684   3.173   5.923   2.169
 3929SOL     OW12685   0.139   2.471   5.008
 3929SOL    HW112686   0.217   2.483   5.070
 3929SOL    HW212687   0.071   2.413   5.052
 3930SOL     OW12688   1.351   5.040   4.168
 3930SOL    HW112689   1.397   4.960   4.205
 3930SOL    HW212690   1.255   5.018   4.150
 3931SOL     OW12691   2.234   2.402   1.584
 3931SOL    HW112692   2.146   2.353   1.578
 3931SOL    HW212693   2.234   2.461   1.664
 3932SOL     OW12694   2.485   5.065   3.595
 3932SOL    HW112695   2.572   5.078   3.643
 3932SOL    HW212696   2.460   5.151   3.550
 3933SOL     OW12697   2.019   5.761   1.186
 3933SOL    HW112698   1.984   5.713   1.266
 3933SOL    HW212699   2.079   5.701   1.134
 3934SOL     OW12700   0.368   1.158   1.708
 3934SOL    HW112701   0.276   1.161   1.747
 3934SOL    HW212702   0.363   1.180   1.610
 3935SOL     OW12703   6.612   3.219   6.335
 3935SOL    HW112704   6.683   3.250   6.399
 3935SOL    HW212705   6.560   3.298   6.302
 3936SOL     OW12706   0.198   5.072   5.450
 3936SOL    HW112707   0.126   5.087   5.382
 3936SOL    HW212708   0.157   5.044   5.537
 3937SOL     OW12709   0.382   6.531   1.735
 3937SOL    HW112710   0.384   6.556   1.638
 3937SOL    HW212711   0.471   6.493   1.761
 3938SOL     OW12712   0.821   3.278   2.630
 3938SOL    HW112713   0.881   3.208   2.590
 3938SOL    HW212714   0.833   3.364   2.579
 3939SOL     OW12715   1.782   0.929   2.608
 3939SOL    HW112716   1.763   0.972   2.519
 3939SOL    HW212717   1.823   0.996   2.669
 3940SOL     OW12718   3.349   5.532   1.162
 3940SOL    HW112719   3.400   5.601   1.110
 3940SOL    HW212720   3.414   5.470   1.207
 3941SOL     OW12721   5.169   5.773   3.288
 3941SOL    HW112722   5.203   5.680   3.280
 3941SOL    HW212723   5.162   5.815   3.198
 3942SOL     OW12724   6.440   6.043   5.865
 3942SOL    HW112725   6.489   6.121   5.902
 3942SOL    HW212726   6.446   6.043   5.766
 3943SOL     OW12727   1.466   2.742   0.155
 3943SOL    HW112728   1.529   2.774   0.225
 3943SOL    HW212729   1.493   2.651   0.124
 3944SOL     OW12730   5.457   2.410   6.678
 3944SOL    HW112731   5.388   2.349   6.716
 3944SOL    HW212732   5.468   2.392   6.581
 3945SOL     OW12733   6.553   0.895   3.205
 3945SOL    HW112734   6.585   0.819   3.262
 3945SOL    HW212735   6.498   0.957   3.260
 3946SOL     OW12736   1.317   3.001   0.242
 3946SOL    HW112737   1.368   3.072   0.290
 3946SOL    HW212738   1.381   2.934   0.204
 3947SOL     OW12739   6.316   4.853   2.320
 3947SOL    HW112740   6.391   4.853   2.386
 3947SOL    HW212741   6.267   4.940   2.326
 3948SOL     OW12742   1.008   2.874   6.285
 3948SOL    HW112743   0.935   2.833   6.231
 3948SOL    HW212744   0.971   2.947   6.341
 3949SOL     OW12745   6.101   6.941   1.580
 3949SOL    HW112746   6.142   0.008   1.592
 3949SOL    HW212747   6.035   6.925   1.654
 3950SOL     OW12748   3.132   4.559   1.674
 3950SOL    HW112749   3.076   4.562   1.756
 3950SOL    HW212750   3.093   4.618   1.604
 3951SOL     OW12751   0.871   2.060   4.812
 3951SOL    HW112752   0.920   2.130   4.863
 3951SOL    HW212753   0.856   2.090   4.718
 3952SOL     OW12754   5.723   3.560   6.525
 3952SOL    HW112755   5.752   3.650   6.494
 3952SOL    HW212756   5.772   3.490   6.474
 3953SOL     OW12757   2.860   4.321   6.480
 3953SOL    HW112758   2.883   4.266   6.561
 3953SOL    HW212759   2.943   4.362   6.442
 3954SOL     OW12760   0.617   3.276   5.026
 3954SOL    HW112761   0.671   3.273   5.111
 3954SOL    HW212762   0.530   3.229   5.040
 3955SOL     OW12763   6.797   3.863   0.307
 3955SOL    HW112764   6.704   3.883   0.275
 3955SOL    HW212765   6.839   3.946   0.343
 3956SOL     OW12766   0.836   3.119   5.444
 3956SOL    HW112767   0.891   3.067   5.510
 3956SOL    HW212768   0.876   3.109   5.353
 3957SOL     OW12769   0.946   1.462   3.288
 3957SOL    HW112770   0.976   1.552   3.319
 3957SOL    HW212771   1.000   1.391   3.333
 3958SOL     OW12772   5.934   6.067   6.067
 3958SOL    HW112773   5.888   6.021   6.143
 3958SOL    HW212774   6.007   6.125   6.102
 3959SOL     OW12775   2.529   5.079   0.718
 3959SOL    HW112776   2.623   5.095   0.689
 3959SOL    HW212777   2.518   4.985   0.750
 3960SOL     OW12778   4.631   3.649   0.612
 3960SOL    HW112779   4.595   3.742   0.616
 3960SOL    HW212780   4.555   3.583   0.610
 3961SOL     OW12781   5.534   0.594   2.633
 3961SOL    HW112782   5.474   0.630   2.704
 3961SOL    HW212783   5.540   0.495   2.641
 3962SOL     OW12784   0.295   6.941   5.867
 3962SOL    HW112785   0.239   6.992   5.933
 3962SOL    HW212786   0.358   7.004   5.822
 3963SOL     OW12787   4.833   5.427   3.010
 3963SOL    HW112788   4.755   5.487   3.025
 3963SOL    HW212789   4.801   5.338   2.977
 3964SOL     OW12790   5.609   6.443   6.062
 3964SOL    HW112791   5.630   6.347   6.075
 3964SOL    HW212792   5.684   6.499   6.097
 3965SOL     OW12793   4.027   3.434   0.349
 3965SOL    HW112794   3.941   3.396   0.382
 3965SOL    HW212795   4.104   3.383   0.389
 3966SOL     OW12796   5.806   4.384   5.128
 3966SOL    HW112797   5.855   4.442   5.193
 3966SOL    HW212798   5.870   4.347   5.061
 3967SOL     OW12799   0.969   5.618   6.546
 3967SOL    HW112800   0.895   5.645   6.606
 3967SOL    HW212801   1.055   5.659   6.577
 3968SOL     OW12802   5.463   0.558   1.574
 3968SOL    HW112803   5.431   0.644   1.613
 3968SOL    HW212804   5.544   0.575   1.518
 3969SOL     OW12805   0.339   5.544   1.820
 3969SOL    HW112806   0.249   5.504   1.805
 3969SOL    HW212807   0.379   5.507   1.903
 3970SOL     OW12808   4.365   4.670   3.552
 3970SOL    HW112809   4.285   4.656   3.611
 3970SOL    HW212810   4.404   4.760   3.571
 3971SOL     OW12811   1.870   5.619   3.952
 3971SOL    HW112812   1.904   5.651   3.864
 3971SOL    HW212813   1.891   5.686   4.023
 3972SOL     OW12814   1.701   0.009   0.436
 3972SOL    HW112815   1.731   0.062   0.515
 3972SOL    HW212816   1.725   0.057   0.352
 3973SOL     OW12817   3.385   3.315   3.210
 3973SOL    HW112818   3.334   3.401   3.207
 3973SOL    HW212819   3.352   3.255   3.137
 3974SOL     OW12820   6.239   1.577   6.681
 3974SOL    HW112821   6.208   1.529   6.598
 3974SOL    HW212822   6.208   1.526   6.761
 3975SOL     OW12823   6.515   0.846   5.769
 3975SOL    HW112824   6.428   0.876   5.807
 3975SOL    HW212825   6.508   0.751   5.741
 3976SOL     OW12826   1.173   3.706   6.803
 3976SOL    HW112827   1.216   3.620   6.832
 3976SOL    HW212828   1.117   3.742   6.877
 3977SOL     OW12829   4.296   6.749   6.350
 3977SOL    HW112830   4.363   6.820   6.326
 3977SOL    HW212831   4.328   6.661   6.315
 3978SOL     OW12832   5.583   3.183   6.030
 3978SOL    HW112833   5.526   3.100   6.028
 3978SOL    HW212834   5.676   3.160   6.005
 3979SOL     OW12835   1.299   0.256   3.033
 3979SOL    HW112836   1.338   0.200   3.106
 3979SOL    HW212837   1.225   0.312   3.071
 3980SOL     OW12838   5.142   3.309   5.021
 3980SOL    HW112839   5.217   3.371   5.045
 3980SOL    HW212840   5.055   3.347   5.054
 3981SOL     OW12841   6.237   1.648   5.465
 3981SOL    HW112842   6.216   1.716   5.396
 3981SOL    HW212843   6.167   1.650   5.537
 3982SOL     OW12844   3.793   1.683   4.018
 3982SOL    HW112845   3.856   1.761   4.017
 3982SOL    HW212846   3.746   1.678   3.930
 3983SOL     OW12847   3.806   6.385   3.751
 3983SOL    HW112848   3.710   6.391   3.725
 3983SOL    HW212849   3.818   6.423   3.843
 3984SOL     OW12850   1.343   6.673   1.509
 3984SOL    HW112851   1.377   6.668   1.416
 3984SOL    HW212852   1.416   6.704   1.570
 3985SOL     OW12853   1.570   3.495   1.960
 3985SOL    HW112854   1.535   3.423   1.900
 3985SOL    HW212855   1.649   3.540   1.916
 3986SOL     OW12856   0.922   3.083   2.307
 3986SOL    HW112857   0.967   3.116   2.390
 3986SOL    HW212858   0.855   3.150   2.276
 3987SOL     OW12859   2.652   4.864   6.796
 3987SOL    HW112860   2.670   4.935   6.864
 3987SOL    HW212861   2.736   4.843   6.746
 3988SOL     OW12862   4.302   2.270   0.462
 3988SOL    HW112863   4.340   2.235   0.548
 3988SOL    HW212864   4.203   2.283   0.473
 3989SOL     OW12865   4.360   0.653   6.706
 3989SOL    HW112866   4.281   0.677   6.762
 3989SOL    HW212867   4.332   0.648   6.610
 3990SOL     OW12868   1.218   3.087   3.765
 3990SOL    HW112869   1.240   3.042   3.851
 3990SOL    HW212870   1.143   3.039   3.720
 3991SOL     OW12871   0.276   1.866   4.323
 3991SOL    HW112872   0.181   1.882   4.349
 3991SOL    HW212873   0.281   1.840   4.227
 3992SOL     OW12874   4.701   3.971   5.958
 3992SOL    HW112875   4.663   4.032   6.027
 3992SOL    HW212876   4.747   3.894   6.003
 3993SOL     OW12877   2.184   1.832   3.242
 3993SOL    HW112878   2.233   1.838   3.329
 3993SOL    HW212879   2.143   1.921   3.221
 3994SOL     OW12880   2.472   2.057   3.696
 3994SOL    HW112881   2.410   1.979   3.686
 3994SOL    HW212882   2.521   2.049   3.783
 3995SOL     OW12883   1.425   3.852   2.521
 3995SOL    HW112884   1.462   3.769   2.563
 3995SOL    HW212885   1.483   3.880   2.445
 3996SOL     OW12886   5.704   0.282   3.449
 3996SOL    HW112887   5.611   0.247   3.454
 3996SOL    HW212888   5.764   0.227   3.506
 3997SOL     OW12889   5.468   3.517   2.596
 3997SOL    HW112890   5.410   3.510   2.677
 3997SOL    HW212891   5.460   3.609   2.557
 3998SOL     OW12892   6.060   2.104   3.426
 3998SOL    HW112893   6.135   2.112   3.360
 3998SOL    HW212894   6.026   2.010   3.428
 3999SOL     OW12895   5.329   2.768   1.561
 3999SOL    HW112896   5.388   2.692   1.589
 3999SOL    HW212897   5.235   2.749   1.590
 4000SOL     OW12898   3.498   5.483   2.460
 4000SOL    HW112899   3.571   5.527   2.407
 4000SOL    HW212900   3.513   5.384   2.462
 4001SOL     OW12901   1.861   4.120   5.026
 4001SOL    HW112902   1.940   4.087   5.077
 4001SOL    HW212903   1.890   4.152   4.936
 4002SOL     OW12904   3.701   3.219   3.784
 4002SOL    HW112905   3.727   3.312   3.757
 4002SOL    HW212906   3.607   3.201   3.756
 4003SOL     OW12907   2.568   0.656   4.931
 4003SOL    HW112908   2.517   0.570   4.922
 4003SOL    HW212909   2.663   0.641   4.903
 4004SOL     OW12910   0.334   3.969   3.301
 4004SOL    HW112911   0.310   3.902   3.371
 4004SOL    HW212912   0.251   4.010   3.264
 4005SOL     OW12913   5.422   2.719   0.951
 4005SOL    HW112914   5.355   2.770   0.897
 4005SOL    HW212915   5.406   2.621   0.940
 4006SOL     OW12916   5.097   4.980   3.479
 4006SOL    HW112917   5.007   4.984   3.523
 4006SOL    HW212918   5.165   5.024   3.538
 4007SOL     OW12919   6.443   1.566   2.948
 4007SOL    HW112920   6.462   1.500   2.876
 4007SOL    HW212921   6.526   1.620   2.966
 4008SOL     OW12922   2.935   0.202   1.039
 4008SOL    HW112923   2.854   0.151   1.010
 4008SOL    HW212924   2.952   0.185   1.136
 4009SOL     OW12925   4.355   2.009   0.990
 4009SOL    HW112926   4.299   1.983   0.911
 4009SOL    HW212927   4.337   2.105   1.011
 4010SOL     OW12928   2.147   5.203   1.543
 4010SOL    HW112929   2.165   5.153   1.458
 4010SOL    HW212930   2.222   5.188   1.607
 4011SOL     OW12931   6.251   6.091   6.717
 4011SOL    HW112932   6.335   6.112   6.667
 4011SOL    HW212933   6.271   6.086   6.815
 4012SOL     OW12934   4.100   0.015   2.324
 4012SOL    HW112935   4.185   0.002   2.274
 4012SOL    HW212936   4.093   0.110   2.353
 4013SOL     OW12937   0.594   1.266   6.408
 4013SOL    HW112938   0.609   1.188   6.347
 4013SOL    HW212939   0.671   1.330   6.399
 4014SOL     OW12940   2.574   5.229   2.562
 4014SOL    HW112941   2.601   5.325   2.557
 4014SOL    HW212942   2.611   5.189   2.646
 4015SOL     OW12943   4.272   5.081   5.886
 4015SOL    HW112944   4.175   5.062   5.871
 4015SOL    HW212945   4.296   5.061   5.981
 4016SOL     OW12946   4.066   5.747   6.039
 4016SOL    HW112947   4.060   5.803   6.121
 4016SOL    HW212948   4.085   5.806   5.960
 4017SOL     OW12949   0.869   4.937   5.888
 4017SOL    HW112950   0.910   5.025   5.862
 4017SOL    HW212951   0.904   4.865   5.828
 4018SOL     OW12952   4.354   6.113   1.921
 4018SOL    HW112953   4.403   6.146   1.840
 4018SOL    HW212954   4.415   6.114   2.000
 4019SOL     OW12955   5.281   3.228   2.979
 4019SOL    HW112956   5.371   3.230   2.936
 4019SOL    HW212957   5.280   3.162   3.054
 4020SOL     OW12958   6.498   4.539   4.253
 4020SOL    HW112959   6.540   4.610   4.311
 4020SOL    HW212960   6.488   4.574   4.160
 4021SOL     OW12961   3.285   3.594   5.348
 4021SOL    HW112962   3.231   3.583   5.265
 4021SOL    HW212963   3.380   3.615   5.324
 4022SOL     OW12964   2.650   0.254   0.502
 4022SOL    HW112965   2.554   0.255   0.473
 4022SOL    HW212966   2.708   0.273   0.423
 4023SOL     OW12967   0.205   2.506   5.605
 4023SOL    HW112968   0.148   2.486   5.526
 4023SOL    HW212969   0.278   2.569   5.578
 4024SOL     OW12970   0.565   4.607   4.123
 4024SOL    HW112971   0.602   4.518   4.150
 4024SOL    HW212972   0.619   4.680   4.167
 4025SOL     OW12973   0.499   6.184   4.034
 4025SOL    HW112974   0.474   6.146   3.945
 4025SOL    HW212975   0.433   6.253   4.061
 4026SOL     OW12976   6.657   6.232   3.464
 4026SOL    HW112977   6.725   6.229   3.390
 4026SOL    HW212978   6.579   6.287   3.435
 4027SOL     OW12979   2.623   3.976   5.597
 4027SOL    HW112980   2.720   3.985   5.622
 4027SOL    HW212981   2.615   3.922   5.514
 4028SOL     OW12982   4.729   1.876   2.566
 4028SOL    HW112983   4.693   1.969   2.568
 4028SOL    HW212984   4.799   1.865   2.636
 4029SOL     OW12985   2.560   5.098   6.550
 4029SOL    HW112986   2.511   5.127   6.467
 4029SOL    HW212987   2.628   5.029   6.526
 4030SOL     OW12988   0.742   1.107   2.671
 4030SOL    HW112989   0.709   1.017   2.700
 4030SOL    HW212990   0.666   1.172   2.674
 4031SOL     OW12991   5.378   0.010   1.534
 4031SOL    HW112992   5.405   0.071   1.460
 4031SOL    HW212993   5.426   6.946   1.524
 4032SOL     OW12994   6.102   0.477   1.730
 4032SOL    HW112995   6.036   0.451   1.659
 4032SOL    HW212996   6.193   0.447   1.703
 4033SOL     OW12997   3.041   2.187   2.920
 4033SOL    HW112998   2.976   2.204   2.846
 4033SOL    HW212999   3.093   2.103   2.900
 4034SOL     OW13000   0.191   3.503   4.897
 4034SOL    HW113001   0.112   3.445   4.914
 4034SOL    HW213002   0.272   3.461   4.937
 4035SOL     OW13003   6.319   1.864   1.099
 4035SOL    HW113004   6.249   1.808   1.144
 4035SOL    HW213005   6.408   1.818   1.105
 4036SOL     OW13006   2.422   5.398   3.799
 4036SOL    HW113007   2.424   5.308   3.754
 4036SOL    HW213008   2.515   5.423   3.827
 4037SOL     OW13009   1.772   0.804   5.829
 4037SOL    HW113010   1.740   0.760   5.745
 4037SOL    HW213011   1.802   0.897   5.808
 4038SOL     OW13012   3.491   4.734   6.042
 4038SOL    HW113013   3.412   4.793   6.023
 4038SOL    HW213014   3.570   4.768   5.993
 4039SOL     OW13015   5.905   4.558   1.650
 4039SOL    HW113016   5.883   4.616   1.572
 4039SOL    HW213017   5.938   4.615   1.725
 4040SOL     OW13018   4.016   5.125   5.299
 4040SOL    HW113019   3.965   5.100   5.382
 4040SOL    HW213020   4.094   5.182   5.324
 4041SOL     OW13021   1.757   6.676   1.505
 4041SOL    HW113022   1.850   6.649   1.528
 4041SOL    HW213023   1.759   6.747   1.434
 4042SOL     OW13024   6.366   0.547   3.562
 4042SOL    HW113025   6.337   0.460   3.602
 4042SOL    HW213026   6.420   0.598   3.630
 4043SOL     OW13027   5.400   3.362   6.342
 4043SOL    HW113028   5.310   3.394   6.372
 4043SOL    HW213029   5.390   3.282   6.283
 4044SOL     OW13030   4.212   4.945   3.267
 4044SOL    HW113031   4.216   4.847   3.288
 4044SOL    HW213032   4.190   4.958   3.170
 4045SOL     OW13033   5.065   0.172   5.931
 4045SOL    HW113034   5.059   0.092   5.990
 4045SOL    HW213035   5.064   0.142   5.835
 4046SOL     OW13036   0.062   1.598   3.382
 4046SOL    HW113037   7.022   1.520   3.379
 4046SOL    HW213038   0.089   1.622   3.289
 4047SOL     OW13039   2.757   3.031   6.740
 4047SOL    HW113040   2.704   3.068   6.816
 4047SOL    HW213041   2.695   2.987   6.675
 4048SOL     OW13042   5.021   1.054   2.069
 4048SOL    HW113043   5.045   0.965   2.030
 4048SOL    HW213044   5.095   1.085   2.129
 4049SOL     OW13045   3.994   5.601   6.524
 4049SOL    HW113046   3.983   5.536   6.448
 4049SOL    HW213047   4.040   5.683   6.491
 4050SOL     OW13048   0.543   5.921   2.690
 4050SOL    HW113049   0.643   5.917   2.685
 4050SOL    HW213050   0.517   5.997   2.750
 4051SOL     OW13051   4.828   1.254   6.440
 4051SOL    HW113052   4.856   1.333   6.495
 4051SOL    HW213053   4.729   1.240   6.450
 4052SOL     OW13054   6.097   1.755   3.185
 4052SOL    HW113055   6.144   1.763   3.273
 4052SOL    HW213056   6.018   1.815   3.184
 4053SOL     OW13057   1.226   5.511   4.862
 4053SOL    HW113058   1.240   5.586   4.798
 4053SOL    HW213059   1.306   5.503   4.923
 4054SOL     OW13060   4.606   3.982   1.021
 4054SOL    HW113061   4.509   3.989   0.997
 4054SOL    HW213062   4.652   4.068   0.998
 4055SOL     OW13063   1.417   3.719   1.942
 4055SOL    HW113064   1.469   3.635   1.956
 4055SOL    HW213065   1.457   3.792   1.998
 4056SOL     OW13066   5.092   3.456   0.779
 4056SOL    HW113067   5.023   3.387   0.757
 4056SOL    HW213068   5.148   3.424   0.855
 4057SOL     OW13069   6.448   3.417   6.239
 4057SOL    HW113070   6.392   3.401   6.158
 4057SOL    HW213071   6.398   3.475   6.304
 4058SOL     OW13072   2.847   5.528   5.126
 4058SOL    HW113073   2.796   5.468   5.186
 4058SOL    HW213074   2.928   5.563   5.174
 4059SOL     OW13075   0.802   2.087   4.320
 4059SOL    HW113076   0.796   1.987   4.322
 4059SOL    HW213077   0.873   2.114   4.254
 4060SOL     OW13078   6.645   5.684   5.217
 4060SOL    HW113079   6.612   5.775   5.244
 4060SOL    HW213080   6.635   5.621   5.293
 4061SOL     OW13081   2.552   5.404   1.767
 4061SOL    HW113082   2.641   5.445   1.789
 4061SOL    HW213083   2.532   5.331   1.833
 4062SOL     OW13084   2.300   1.665   1.666
 4062SOL    HW113085   2.372   1.727   1.698
 4062SOL    HW213086   2.212   1.696   1.701
 4063SOL     OW13087   5.262   0.318   1.384
 4063SOL    HW113088   5.336   0.273   1.433
 4063SOL    HW213089   5.281   0.316   1.286
 4064SOL     OW13090   2.126   1.967   4.435
 4064SOL    HW113091   2.058   1.973   4.363
 4064SOL    HW213092   2.082   1.975   4.524
 4065SOL     OW13093   1.875   6.849   0.350
 4065SOL    HW113094   1.885   6.940   0.310
 4065SOL    HW213095   1.797   6.803   0.309
 4066SOL     OW13096   6.874   4.342   3.091
 4066SOL    HW113097   6.775   4.346   3.081
 4066SOL    HW213098   6.898   4.331   3.187
 4067SOL     OW13099   5.986   4.146   2.687
 4067SOL    HW113100   5.894   4.184   2.680
 4067SOL    HW213101   6.051   4.208   2.644
 4068SOL     OW13102   1.808   2.522   5.197
 4068SOL    HW113103   1.801   2.529   5.296
 4068SOL    HW213104   1.861   2.598   5.161
 4069SOL     OW13105   3.979   6.733   6.704
 4069SOL    HW113106   4.048   6.697   6.766
 4069SOL    HW213107   4.018   6.807   6.649
 4070SOL     OW13108   1.303   3.261   3.244
 4070SOL    HW113109   1.329   3.214   3.328
 4070SOL    HW213110   1.380   3.262   3.180
 4071SOL     OW13111   0.895   0.391   3.826
 4071SOL    HW113112   0.907   0.375   3.924
 4071SOL    HW213113   0.814   0.448   3.812
 4072SOL     OW13114   1.399   5.639   4.539
 4072SOL    HW113115   1.362   5.634   4.446
 4072SOL    HW213116   1.326   5.629   4.605
 4073SOL     OW13117   2.195   5.417   0.596
 4073SOL    HW113118   2.218   5.463   0.510
 4073SOL    HW213119   2.215   5.478   0.673
 4074SOL     OW13120   1.398   4.931   2.211
 4074SOL    HW113121   1.304   4.944   2.179
 4074SOL    HW213122   1.416   4.833   2.218
 4075SOL     OW13123   5.362   0.717   0.576
 4075SOL    HW113124   5.362   0.622   0.544
 4075SOL    HW213125   5.445   0.735   0.628
 4076SOL     OW13126   3.190   3.119   5.478
 4076SOL    HW113127   3.108   3.070   5.505
 4076SOL    HW213128   3.191   3.209   5.521
 4077SOL     OW13129   4.293   1.956   1.727
 4077SOL    HW113130   4.349   1.983   1.648
 4077SOL    HW213131   4.208   2.009   1.726
 4078SOL     OW13132   3.098   4.905   2.682
 4078SOL    HW113133   3.112   4.879   2.586
 4078SOL    HW213134   3.004   4.883   2.709
 4079SOL     OW13135   1.384   2.238   4.100
 4079SOL    HW113136   1.480   2.243   4.073
 4079SOL    HW213137   1.357   2.142   4.112
 4080SOL     OW13138   5.035   2.055   5.257
 4080SOL    HW113139   5.034   1.955   5.257
 4080SOL    HW213140   5.005   2.088   5.347
 4081SOL     OW13141   1.856   3.124   4.280
 4081SOL    HW113142   1.912   3.158   4.356
 4081SOL    HW213143   1.915   3.098   4.204
 4082SOL     OW13144   1.786   3.107   0.922
 4082SOL    HW113145   1.738   3.179   0.872
 4082SOL    HW213146   1.871   3.085   0.875
 4083SOL     OW13147   5.622   2.671   3.679
 4083SOL    HW113148   5.687   2.631   3.744
 4083SOL    HW213149   5.581   2.753   3.719
 4084SOL     OW13150   6.134   1.875   4.002
 4084SOL    HW113151   6.059   1.884   3.937
 4084SOL    HW213152   6.129   1.948   4.070
 4085SOL     OW13153   4.361   6.408   0.556
 4085SOL    HW113154   4.341   6.386   0.652
 4085SOL    HW213155   4.440   6.469   0.552
 4086SOL     OW13156   1.786   5.295   1.167
 4086SOL    HW113157   1.778   5.196   1.164
 4086SOL    HW213158   1.751   5.329   1.255
 4087SOL     OW13159   2.098   2.255   3.472
 4087SOL    HW113160   2.166   2.242   3.545
 4087SOL    HW213161   2.109   2.347   3.433
 4088SOL     OW13162   6.322   1.894   1.532
 4088SOL    HW113163   6.339   1.822   1.464
 4088SOL    HW213164   6.271   1.855   1.609
 4089SOL     OW13165   0.594   0.207   3.625
 4089SOL    HW113166   0.503   0.239   3.653
 4089SOL    HW213167   0.657   0.284   3.623
 4090SOL     OW13168   2.765   4.203   6.835
 4090SOL    HW113169   2.843   4.182   6.775
 4090SOL    HW213170   2.683   4.217   6.779
 4091SOL     OW13171   5.287   6.924   0.260
 4091SOL    HW113172   5.263   6.832   0.231
 4091SOL    HW213173   5.385   6.939   0.249
 4092SOL     OW13174   0.304   3.005   5.082
 4092SOL    HW113175   0.259   2.996   5.170
 4092SOL    HW213176   0.317   2.914   5.042
 4093SOL     OW13177   5.441   0.442   3.819
 4093SOL    HW113178   5.487   0.484   3.897
 4093SOL    HW213179   5.491   0.360   3.790
 4094SOL     OW13180   1.861   4.371   5.160
 4094SOL    HW113181   1.846   4.272   5.168
 4094SOL    HW213182   1.820   4.417   5.238
 4095SOL     OW13183   1.249   3.299   5.970
 4095SOL    HW113184   1.234   3.288   5.872
 4095SOL    HW213185   1.196   3.377   6.003
 4096SOL     OW13186   4.913   5.243   0.947
 4096SOL    HW113187   4.999   5.277   0.911
 4096SOL    HW213188   4.898   5.281   1.039
 4097SOL     OW13189   3.200   4.206   6.096
 4097SOL    HW113190   3.240   4.158   6.018
 4097SOL    HW213191   3.158   4.291   6.065
 4098SOL     OW13192   0.466   2.766   2.708
 4098SOL    HW113193   0.390   2.718   2.664
 4098SOL    HW213194   0.438   2.793   2.801
 4099SOL     OW13195   2.833   5.578   1.526
 4099SOL    HW113196   2.764   5.590   1.456
 4099SOL    HW213197   2.924   5.573   1.484
 4100SOL     OW13198   4.756   5.630   4.038
 4100SOL    HW113199   4.823   5.561   4.011
 4100SOL    HW213200   4.701   5.656   3.959
 4101SOL     OW13201   5.573   1.443   0.463
 4101SOL    HW113202   5.661   1.411   0.496
 4101SOL    HW213203   5.501   1.416   0.527
 4102SOL     OW13204   6.431   0.684   1.100
 4102SOL    HW113205   6.522   0.667   1.062
 4102SOL    HW213206   6.407   0.780   1.087
 4103SOL     OW13207   0.763   0.878   1.985
 4103SOL    HW113208   0.800   0.946   2.048
 4103SOL    HW213209   0.673   0.848   2.017
 4104SOL     OW13210   1.551   4.138   2.367
 4104SOL    HW113211   1.580   4.171   2.456
 4104SOL    HW213212   1.515   4.214   2.313
 4105SOL     OW13213   4.432   5.984   0.842
 4105SOL    HW113214   4.381   5.905   0.875
 4105SOL    HW213215   4.472   5.964   0.753
 4106SOL     OW13216   0.029   3.661   4.498
 4106SOL    HW113217   0.081   3.673   4.582
 4106SOL    HW213218   6.961   3.702   4.509
 4107SOL     OW13219   0.139   6.120   1.127
 4107SOL    HW113220   0.045   6.147   1.148
 4107SOL    HW213221   0.142   6.020   1.115
 4108SOL     OW13222   0.027   4.722   6.605
 4108SOL    HW113223   0.034   4.625   6.583
 4108SOL    HW213224   6.979   4.765   6.550
 4109SOL     OW13225   3.891   6.213   4.009
 4109SOL    HW113226   3.793   6.231   4.021
 4109SOL    HW213227   3.908   6.186   3.914
 4110SOL     OW13228   3.875   3.988   6.371
 4110SOL    HW113229   3.780   4.013   6.351
 4110SOL    HW213230   3.911   4.046   6.444
 4111SOL     OW13231   3.685   3.023   7.012
 4111SOL    HW113232   3.620   3.098   7.002
 4111SOL    HW213233   3.767   3.042   6.958
 4112SOL     OW13234   4.780   1.378   5.074
 4112SOL    HW113235   4.732   1.464   5.057
 4112SOL    HW213236   4.823   1.381   5.164
 4113SOL     OW13237   3.546   5.633   5.172
 4113SOL    HW113238   3.465   5.579   5.150
 4113SOL    HW213239   3.603   5.583   5.237
 4114SOL     OW13240   3.365   1.044   4.093
 4114SOL    HW113241   3.392   0.959   4.138
 4114SOL    HW213242   3.276   1.031   4.050
 4115SOL     OW13243   4.534   6.065   2.122
 4115SOL    HW113244   4.495   6.028   2.206
 4115SOL    HW213245   4.601   6.000   2.085
 4116SOL     OW13246   3.977   1.837   1.579
 4116SOL    HW113247   4.075   1.848   1.595
 4116SOL    HW213248   3.928   1.850   1.665
 4117SOL     OW13249   0.713   5.497   1.190
 4117SOL    HW113250   0.739   5.548   1.272
 4117SOL    HW213251   0.617   5.470   1.196
 4118SOL     OW13252   0.914   6.668   0.940
 4118SOL    HW113253   0.913   6.579   0.985
 4118SOL    HW213254   0.862   6.734   0.995
 4119SOL     OW13255   3.689   1.385   4.363
 4119SOL    HW113256   3.730   1.337   4.285
 4119SOL    HW213257   3.589   1.385   4.352
 4120SOL     OW13258   4.055   6.816   2.066
 4120SOL    HW113259   3.991   6.740   2.082
 4120SOL    HW213260   4.061   6.872   2.148
 4121SOL     OW13261   6.461   2.176   4.439
 4121SOL    HW113262   6.555   2.147   4.422
 4121SOL    HW213263   6.418   2.201   4.352
 4122SOL     OW13264   0.155   6.153   5.337
 4122SOL    HW113265   0.218   6.094   5.287
 4122SOL    HW213266   0.169   6.141   5.436
 4123SOL     OW13267   5.688   4.357   6.013
 4123SOL    HW113268   5.766   4.413   6.038
 4123SOL    HW213269   5.717   4.261   6.004
 4124SOL     OW13270   5.698   6.188   4.209
 4124SOL    HW113271   5.783   6.235   4.233
 4124SOL    HW213272   5.720   6.099   4.169
 4125SOL     OW13273   4.646   0.433   2.021
 4125SOL    HW113274   4.621   0.444   1.924
 4125SOL    HW213275   4.604   0.350   2.057
 4126SOL     OW13276   1.191   4.222   4.343
 4126SOL    HW113277   1.267   4.273   4.382
 4126SOL    HW213278   1.224   4.134   4.307
 4127SOL     OW13279   5.256   3.628   4.244
 4127SOL    HW113280   5.158   3.631   4.266
 4127SOL    HW213281   5.276   3.544   4.194
 4128SOL     OW13282   1.983   4.000   2.388
 4128SOL    HW113283   1.952   4.024   2.480
 4128SOL    HW213284   2.000   3.902   2.382
 4129SOL     OW13285   5.137   1.880   6.312
 4129SOL    HW113286   5.049   1.907   6.350
 4129SOL    HW213287   5.175   1.958   6.261
 4130SOL     OW13288   6.746   3.501   5.799
 4130SOL    HW113289   6.718   3.480   5.893
 4130SOL    HW213290   6.769   3.598   5.793
 4131SOL     OW13291   0.510   5.856   3.828
 4131SOL    HW113292   0.490   5.785   3.895
 4131SOL    HW213293   0.426   5.908   3.809
 4132SOL     OW13294   5.645   3.619   3.236
 4132SOL    HW113295   5.568   3.656   3.289
 4132SOL    HW213296   5.613   3.593   3.145
 4133SOL     OW13297   3.378   0.460   0.852
 4133SOL    HW113298   3.413   0.399   0.781
 4133SOL    HW213299   3.347   0.406   0.930
 4134SOL     OW13300   2.108   2.068   0.741
 4134SOL    HW113301   2.069   2.082   0.650
 4134SOL    HW213302   2.184   2.004   0.734
 4135SOL     OW13303   2.063   0.441   2.006
 4135SOL    HW113304   1.987   0.428   2.070
 4135SOL    HW213305   2.136   0.377   2.028
 4136SOL     OW13306   0.369   2.131   3.481
 4136SOL    HW113307   0.372   2.074   3.399
 4136SOL    HW213308   0.435   2.205   3.472
 4137SOL     OW13309   3.019   4.320   0.352
 4137SOL    HW113310   3.060   4.232   0.326
 4137SOL    HW213311   3.073   4.394   0.313
 4138SOL     OW13312   4.309   4.726   4.471
 4138SOL    HW113313   4.398   4.771   4.471
 4138SOL    HW213314   4.320   4.629   4.494
 4139SOL     OW13315   1.723   2.185   6.048
 4139SOL    HW113316   1.627   2.179   6.022
 4139SOL    HW213317   1.762   2.093   6.057
 4140SOL     OW13318   3.667   1.127   5.083
 4140SOL    HW113319   3.713   1.208   5.049
 4140SOL    HW213320   3.722   1.046   5.064
 4141SOL     OW13321   5.006   5.155   1.402
 4141SOL    HW113322   5.019   5.066   1.359
 4141SOL    HW213323   5.094   5.200   1.413
 4142SOL     OW13324   6.640   5.323   0.889
 4142SOL    HW113325   6.693   5.297   0.969
 4142SOL    HW213326   6.574   5.395   0.913
 4143SOL     OW13327   0.112   2.823   0.338
 4143SOL    HW113328   0.062   2.871   0.410
 4143SOL    HW213329   0.085   2.861   0.249
 4144SOL     OW13330   5.750   1.840   1.240
 4144SOL    HW113331   5.673   1.901   1.223
 4144SOL    HW213332   5.836   1.889   1.226
 4145SOL     OW13333   6.953   6.293   1.861
 4145SOL    HW113334   6.992   6.326   1.776
 4145SOL    HW213335   6.910   6.203   1.846
 4146SOL     OW13336   5.616   0.449   6.246
 4146SOL    HW113337   5.682   0.388   6.290
 4146SOL    HW213338   5.613   0.536   6.295
 4147SOL     OW13339   3.007   1.973   6.359
 4147SOL    HW113340   3.058   2.045   6.313
 4147SOL    HW213341   2.979   1.904   6.292
 4148SOL     OW13342   0.742   0.737   4.337
 4148SOL    HW113343   0.754   0.650   4.288
 4148SOL    HW213344   0.798   0.735   4.420
 4149SOL     OW13345   6.464   2.940   0.217
 4149SOL    HW113346   6.370   2.955   0.247
 4149SOL    HW213347   6.471   2.957   0.119
 4150SOL     OW13348   6.137   0.638   6.319
 4150SOL    HW113349   6.109   0.721   6.271
 4150SOL    HW213350   6.172   0.572   6.252
 4151SOL     OW13351   5.768   6.401   0.057
 4151SOL    HW113352   5.783   6.495   0.027
 4151SOL    HW213353   5.847   6.370   0.110
 4152SOL     OW13354   3.532   5.031   2.126
 4152SOL    HW113355   3.552   5.047   2.222
 4152SOL    HW213356   3.563   4.940   2.099
 4153SOL     OW13357   5.544   5.260   6.268
 4153SOL    HW113358   5.466   5.296   6.217
 4153SOL    HW213359   5.607   5.335   6.290
 4154SOL     OW13360   6.633   4.060   4.949
 4154SOL    HW113361   6.537   4.033   4.944
 4154SOL    HW213362   6.691   3.982   4.927
 4155SOL     OW13363   0.552   3.386   2.702
 4155SOL    HW113364   0.523   3.307   2.646
 4155SOL    HW213365   0.640   3.419   2.669
 4156SOL     OW13366   5.799   0.030   4.958
 4156SOL    HW113367   5.871   0.100   4.961
 4156SOL    HW213368   5.812   6.995   4.878
 4157SOL     OW13369   3.738   0.225   4.122
 4157SOL    HW113370   3.816   0.254   4.177
 4157SOL    HW213371   3.770   0.196   4.032
 4158SOL     OW13372   0.660   5.170   3.376
 4158SOL    HW113373   0.753   5.172   3.415
 4158SOL    HW213374   0.603   5.109   3.431
 4159SOL     OW13375   1.953   3.012   4.020
 4159SOL    HW113376   1.964   2.918   3.986
 4159SOL    HW213377   1.954   3.076   3.943
 4160SOL     OW13378   6.343   0.662   1.346
 4160SOL    HW113379   6.247   0.646   1.369
 4160SOL    HW213380   6.356   0.658   1.247
 4161SOL     OW13381   1.595   1.066   6.473
 4161SOL    HW113382   1.631   1.041   6.562
 4161SOL    HW213383   1.666   1.111   6.419
 4162SOL     OW13384   5.868   0.505   4.852
 4162SOL    HW113385   5.955   0.466   4.819
 4162SOL    HW213386   5.879   0.603   4.868
 4163SOL     OW13387   5.748   1.198   3.442
 4163SOL    HW113388   5.674   1.244   3.393
 4163SOL    HW213389   5.739   1.217   3.540
 4164SOL     OW13390   1.488   0.576   6.661
 4164SOL    HW113391   1.501   0.588   6.759
 4164SOL    HW213392   1.493   0.665   6.616
 4165SOL     OW13393   4.165   6.477   0.800
 4165SOL    HW113394   4.223   6.396   0.804
 4165SOL    HW213395   4.138   6.495   0.706
 4166SOL     OW13396   4.321   2.667   0.808
 4166SOL    HW113397   4.337   2.611   0.727
 4166SOL    HW213398   4.225   2.698   0.808
 4167SOL     OW13399   2.488   2.492   1.284
 4167SOL    HW113400   2.454   2.551   1.211
 4167SOL    HW213401   2.458   2.527   1.373
 4168SOL     OW13402   0.223   5.116   1.551
 4168SOL    HW113403   0.158   5.188   1.577
 4168SOL    HW213404   0.313   5.157   1.538
 4169SOL     OW13405   4.791   4.013   3.978
 4169SOL    HW113406   4.786   3.920   4.014
 4169SOL    HW213407   4.839   4.011   3.890
 4170SOL     OW13408   3.996   2.546   5.653
 4170SOL    HW113409   3.908   2.592   5.643
 4170SOL    HW213410   4.048   2.590   5.726
 4171SOL     OW13411   5.495   3.638   1.086
 4171SOL    HW113412   5.522   3.655   0.991
 4171SOL    HW213413   5.481   3.540   1.099
 4172SOL     OW13414   0.246   2.181   0.243
 4172SOL    HW113415   0.219   2.257   0.303
 4172SOL    HW213416   0.280   2.105   0.299
 4173SOL     OW13417   5.842   2.990   5.333
 4173SOL    HW113418   5.941   2.988   5.323
 4173SOL    HW213419   5.815   3.066   5.391
 4174SOL     OW13420   4.740   0.216   3.895
 4174SOL    HW113421   4.665   0.168   3.941
 4174SOL    HW213422   4.710   0.246   3.804
 4175SOL     OW13423   3.627   7.017   3.840
 4175SOL    HW113424   3.556   6.958   3.801
 4175SOL    HW213425   3.678   0.039   3.766
 4176SOL     OW13426   4.253   0.180   2.533
 4176SOL    HW113427   4.302   0.243   2.474
 4176SOL    HW213428   4.300   0.174   2.622
 4177SOL     OW13429   0.183   5.837   4.309
 4177SOL    HW113430   0.142   5.919   4.349
 4177SOL    HW213431   0.265   5.862   4.258
 4178SOL     OW13432   3.293   1.208   5.933
 4178SOL    HW113433   3.207   1.175   5.974
 4178SOL    HW213434   3.295   1.308   5.938
 4179SOL     OW13435   5.458   3.629   4.680
 4179SOL    HW113436   5.464   3.533   4.651
 4179SOL    HW213437   5.512   3.642   4.763
 4180SOL     OW13438   5.417   4.143   1.809
 4180SOL    HW113439   5.336   4.195   1.834
 4180SOL    HW213440   5.396   4.045   1.811
 4181SOL     OW13441   1.016   2.066   6.351
 4181SOL    HW113442   1.049   2.023   6.267
 4181SOL    HW213443   1.093   2.083   6.412
 4182SOL     OW13444   0.306   0.077   2.722
 4182SOL    HW113445   0.268   0.169   2.733
 4182SOL    HW213446   0.243   0.010   2.762
 4183SOL     OW13447   2.848   1.811   1.687
 4183SOL    HW113448   2.773   1.875   1.673
 4183SOL    HW213449   2.836   1.764   1.774
 4184SOL     OW13450   3.905   5.207   0.951
 4184SOL    HW113451   3.968   5.280   0.978
 4184SOL    HW213452   3.813   5.229   0.983
 4185SOL     OW13453   0.366   6.094   3.118
 4185SOL    HW113454   0.297   6.151   3.164
 4185SOL    HW213455   0.435   6.065   3.185
 4186SOL     OW13456   2.102   3.927   0.002
 4186SOL    HW113457   2.099   3.956   0.098
 4186SOL    HW213458   2.195   3.897   7.002
 4187SOL     OW13459   3.479   3.424   6.431
 4187SOL    HW113460   3.526   3.388   6.351
 4187SOL    HW213461   3.413   3.493   6.403
 4188SOL     OW13462   4.938   0.368   4.690
 4188SOL    HW113463   4.853   0.368   4.638
 4188SOL    HW213464   5.012   0.403   4.633
 4189SOL     OW13465   2.899   1.313   4.517
 4189SOL    HW113466   2.947   1.391   4.478
 4189SOL    HW213467   2.935   1.228   4.478
 4190SOL     OW13468   2.486   0.446   6.480
 4190SOL    HW113469   2.484   0.365   6.421
 4190SOL    HW213470   2.441   0.426   6.567
 4191SOL     OW13471   6.343   3.064   3.040
 4191SOL    HW113472   6.405   3.015   3.102
 4191SOL    HW213473   6.266   3.101   3.092
 4192SOL     OW13474   5.756   1.134   3.097
 4192SOL    HW113475   5.843   1.182   3.096
 4192SOL    HW213476   5.682   1.199   3.114
 4193SOL     OW13477   2.339   6.714   2.181
 4193SOL    HW113478   2.398   6.732   2.260
 4193SOL    HW213479   2.245   6.699   2.211
 4194SOL     OW13480   0.081   1.903   4.588
 4194SOL    HW113481   7.011   1.904   4.551
 4194SOL    HW213482   0.091   1.826   4.650
 4195SOL     OW13483   4.258   0.641   1.333
 4195SOL    HW113484   4.160   0.622   1.342
 4195SOL    HW213485   4.281   0.720   1.388
 4196SOL     OW13486   5.336   2.800   3.900
 4196SOL    HW113487   5.281   2.811   3.982
 4196SOL    HW213488   5.284   2.832   3.820
 4197SOL     OW13489   5.106   4.533   4.447
 4197SOL    HW113490   5.128   4.628   4.466
 4197SOL    HW213491   5.186   4.486   4.411
 4198SOL     OW13492   5.980   3.238   6.985
 4198SOL    HW113493   5.903   3.273   0.016
 4198SOL    HW213494   5.965   3.140   6.968
 4199SOL     OW13495   3.158   3.581   5.109
 4199SOL    HW113496   3.174   3.676   5.081
 4199SOL    HW213497   3.060   3.563   5.106
 4200SOL     OW13498   2.325   6.724   5.766
 4200SOL    HW113499   2.279   6.746   5.852
 4200SOL    HW213500   2.341   6.626   5.761
 4201SOL     OW13501   6.261   6.677   3.215
 4201SOL    HW113502   6.301   6.608   3.155
 4201SOL    HW213503   6.296   6.665   3.308
 4202SOL     OW13504   5.298   4.517   5.704
 4202SOL    HW113505   5.356   4.484   5.778
 4202SOL    HW213506   5.289   4.616   5.709
 4203SOL     OW13507   4.824   5.547   3.369
 4203SOL    HW113508   4.896   5.516   3.306
 4203SOL    HW213509   4.776   5.625   3.329
 4204SOL     OW13510   3.229   3.344   1.262
 4204SOL    HW113511   3.282   3.415   1.309
 4204SOL    HW213512   3.242   3.256   1.307
 4205SOL     OW13513   2.977   5.251   5.075
 4205SOL    HW113514   2.922   5.185   5.127
 4205SOL    HW213515   2.987   5.334   5.129
 4206SOL     OW13516   4.654   0.167   5.268
 4206SOL    HW113517   4.650   0.080   5.317
 4206SOL    HW213518   4.563   0.205   5.259
 4207SOL     OW13519   1.181   1.191   1.717
 4207SOL    HW113520   1.133   1.279   1.721
 4207SOL    HW213521   1.197   1.157   1.809
 4208SOL     OW13522   1.457   2.827   1.071
 4208SOL    HW113523   1.359   2.828   1.089
 4208SOL    HW213524   1.485   2.736   1.040
 4209SOL     OW13525   1.788   6.983   4.558
 4209SOL    HW113526   1.755   6.945   4.472
 4209SOL    HW213527   1.867   0.018   4.541
 4210SOL     OW13528   3.557   3.591   1.155
 4210SOL    HW113529   3.478   3.552   1.203
 4210SOL    HW213530   3.586   3.674   1.202
 4211SOL     OW13531   5.033   4.573   4.952
 4211SOL    HW113532   4.966   4.512   4.994
 4211SOL    HW213533   5.122   4.528   4.950
 4212SOL     OW13534   6.279   1.091   2.381
 4212SOL    HW113535   6.282   1.084   2.481
 4212SOL    HW213536   6.210   1.158   2.355
 4213SOL     OW13537   1.940   0.771   2.308
 4213SOL    HW113538   1.928   0.870   2.316
 4213SOL    HW213539   1.854   0.729   2.280
 4214SOL     OW13540   0.947   3.379   5.530
 4214SOL    HW113541   0.984   3.451   5.470
 4214SOL    HW213542   0.936   3.295   5.478
 4215SOL     OW13543   0.766   5.592   4.749
 4215SOL    HW113544   0.809   5.669   4.797
 4215SOL    HW213545   0.686   5.561   4.801
 4216SOL     OW13546   1.186   2.350   4.577
 4216SOL    HW113547   1.244   2.427   4.603
 4216SOL    HW213548   1.215   2.315   4.488
 4217SOL     OW13549   0.469   0.373   2.541
 4217SOL    HW113550   0.452   0.284   2.498
 4217SOL    HW213551   0.416   0.380   2.625
 4218SOL     OW13552   4.579   0.184   2.088
 4218SOL    HW113553   4.513   0.112   2.071
 4218SOL    HW213554   4.664   0.163   2.040
 4219SOL     OW13555   3.974   4.869   5.148
 4219SOL    HW113556   4.029   4.933   5.202
 4219SOL    HW213557   3.878   4.895   5.153
 4220SOL     OW13558   6.621   3.212   3.516
 4220SOL    HW113559   6.583   3.272   3.586
 4220SOL    HW213560   6.689   3.151   3.557
 4221SOL     OW13561   5.148   5.470   6.666
 4221SOL    HW113562   5.224   5.411   6.692
 4221SOL    HW213563   5.182   5.545   6.609
 4222SOL     OW13564   5.485   2.266   1.634
 4222SOL    HW113565   5.399   2.290   1.589
 4222SOL    HW213566   5.476   2.279   1.733
 4223SOL     OW13567   3.151   4.041   2.506
 4223SOL    HW113568   3.165   4.053   2.408
 4223SOL    HW213569   3.095   3.960   2.523
 4224SOL     OW13570   4.601   2.404   4.765
 4224SOL    HW113571   4.522   2.464   4.762
 4224SOL    HW213572   4.630   2.392   4.859
 4225SOL     OW13573   6.266   0.608   4.554
 4225SOL    HW113574   6.323   0.687   4.532
 4225SOL    HW213575   6.201   0.592   4.479
 4226SOL     OW13576   0.876   1.375   3.735
 4226SOL    HW113577   0.780   1.402   3.726
 4226SOL    HW213578   0.933   1.432   3.675
 4227SOL     OW13579   3.891   4.880   0.319
 4227SOL    HW113580   3.970   4.864   0.260
 4227SOL    HW213581   3.873   4.799   0.375
 4228SOL     OW13582   6.025   5.479   3.408
 4228SOL    HW113583   6.078   5.562   3.427
 4228SOL    HW213584   5.927   5.500   3.416
 4229SOL     OW13585   4.456   4.795   6.327
 4229SOL    HW113586   4.410   4.725   6.273
 4229SOL    HW213587   4.390   4.840   6.387
 4230SOL     OW13588   3.130   0.487   5.093
 4230SOL    HW113589   3.185   0.487   5.177
 4230SOL    HW213590   3.082   0.574   5.085
 4231SOL     OW13591   4.767   6.657   5.308
 4231SOL    HW113592   4.787   6.693   5.217
 4231SOL    HW213593   4.751   6.733   5.371
 4232SOL     OW13594   1.676   5.154   2.961
 4232SOL    HW113595   1.582   5.133   2.935
 4232SOL    HW213596   1.676   5.215   3.040
 4233SOL     OW13597   6.494   0.309   6.247
 4233SOL    HW113598   6.493   0.309   6.347
 4233SOL    HW213599   6.573   0.361   6.214
 4234SOL     OW13600   3.075   5.586   6.555
 4234SOL    HW113601   3.090   5.520   6.482
 4234SOL    HW213602   3.149   5.581   6.621
 4235SOL     OW13603   5.964   4.184   5.592
 4235SOL    HW113604   6.015   4.149   5.671
 4235SOL    HW213605   5.893   4.247   5.624
 4236SOL     OW13606   0.479   2.581   3.894
 4236SOL    HW113607   0.444   2.657   3.948
 4236SOL    HW213608   0.462   2.495   3.943
 4237SOL     OW13609   5.139   3.972   5.080
 4237SOL    HW113610   5.193   3.990   5.162
 4237SOL    HW213611   5.080   3.893   5.096
 4238SOL     OW13612   4.024   5.037   4.066
 4238SOL    HW113613   4.064   5.123   4.098
 4238SOL    HW213614   4.094   4.966   4.065
 4239SOL     OW13615   4.318   6.875   5.737
 4239SOL    HW113616   4.281   6.949   5.793
 4239SOL    HW213617   4.310   6.789   5.786
 4240SOL     OW13618   2.692   4.766   0.087
 4240SOL    HW113619   2.709   4.853   0.040
 4240SOL    HW213620   2.670   4.696   0.019
 4241SOL     OW13621   5.106   0.412   0.993
 4241SOL    HW113622   5.039   0.356   1.041
 4241SOL    HW213623   5.086   0.412   0.895
 4242SOL     OW13624   2.059   6.964   2.486
 4242SOL    HW113625   2.101   6.873   2.476
 4242SOL    HW213626   2.122   0.010   2.452
 4243SOL     OW13627   0.705   3.704   2.614
 4243SOL    HW113628   0.770   3.656   2.556
 4243SOL    HW213629   0.752   3.734   2.698
 4244SOL     OW13630   4.820   6.631   0.914
 4244SOL    HW113631   4.739   6.687   0.898
 4244SOL    HW213632   4.840   6.577   0.832
 4245SOL     OW13633   6.546   2.769   0.702
 4245SOL    HW113634   6.487   2.692   0.725
 4245SOL    HW213635   6.556   2.775   0.603
 4246SOL     OW13636   5.009   2.463   3.343
 4246SOL    HW113637   5.089   2.501   3.297
 4246SOL    HW213638   5.024   2.366   3.363
 4247SOL     OW13639   1.914   4.830   5.132
 4247SOL    HW113640   1.966   4.747   5.152
 4247SOL    HW213641   1.827   4.805   5.088
 4248SOL     OW13642   2.084   1.031   2.839
 4248SOL    HW113643   2.046   0.955   2.892
 4248SOL    HW213644   2.014   1.066   2.776
 4249SOL     OW13645   0.143   0.800   4.838
 4249SOL    HW113646   0.090   0.848   4.908
 4249SOL    HW213647   0.190   0.723   4.880
 4250SOL     OW13648   6.657   6.142   4.026
 4250SOL    HW113649   6.685   6.056   3.983
 4250SOL    HW213650   6.582   6.125   4.090
 4251SOL     OW13651   5.958   2.352   6.250
 4251SOL    HW113652   5.891   2.379   6.182
 4251SOL    HW213653   5.935   2.393   6.338
 4252SOL     OW13654   6.494   6.299   6.075
 4252SOL    HW113655   6.450   6.355   6.145
 4252SOL    HW213656   6.573   6.253   6.114
 4253SOL     OW13657   4.300   5.795   2.469
 4253SOL    HW113658   4.225   5.745   2.425
 4253SOL    HW213659   4.325   5.749   2.554
 4254SOL     OW13660   2.340   3.564   6.525
 4254SOL    HW113661   2.303   3.520   6.606
 4254SOL    HW213662   2.429   3.604   6.546
 4255SOL     OW13663   0.413   3.677   2.631
 4255SOL    HW113664   0.511   3.690   2.622
 4255SOL    HW213665   0.384   3.597   2.579
 4256SOL     OW13666   0.716   5.076   2.305
 4256SOL    HW113667   0.622   5.107   2.322
 4256SOL    HW213668   0.775   5.154   2.287
 4257SOL     OW13669   5.885   0.999   5.045
 4257SOL    HW113670   5.891   1.000   5.145
 4257SOL    HW213671   5.949   1.066   5.008
 4258SOL     OW13672   3.772   6.055   0.499
 4258SOL    HW113673   3.757   5.959   0.524
 4258SOL    HW213674   3.772   6.111   0.582
 4259SOL     OW13675   1.078   6.671   2.063
 4259SOL    HW113676   1.034   6.647   1.976
 4259SOL    HW213677   1.103   6.587   2.111
 4260SOL     OW13678   5.294   6.988   4.911
 4260SOL    HW113679   5.264   7.018   5.002
 4260SOL    HW213680   5.269   0.034   4.843
 4261SOL     OW13681   2.098   0.109   3.637
 4261SOL    HW113682   2.014   0.161   3.654
 4261SOL    HW213683   2.143   0.090   3.725
 4262SOL     OW13684   1.549   4.341   6.603
 4262SOL    HW113685   1.487   4.265   6.589
 4262SOL    HW213686   1.642   4.307   6.619
 4263SOL     OW13687   2.854   1.904   3.615
 4263SOL    HW113688   2.820   1.992   3.585
 4263SOL    HW213689   2.889   1.853   3.536
 4264SOL     OW13690   5.482   1.448   4.114
 4264SOL    HW113691   5.384   1.465   4.122
 4264SOL    HW213692   5.516   1.483   4.027
 4265SOL     OW13693   3.263   0.270   1.040
 4265SOL    HW113694   3.300   0.290   1.130
 4265SOL    HW213695   3.163   0.260   1.047
 4266SOL     OW13696   1.359   6.577   0.323
 4266SOL    HW113697   1.267   6.616   0.328
 4266SOL    HW213698   1.403   6.606   0.237
 4267SOL     OW13699   1.778   4.100   4.737
 4267SOL    HW113700   1.693   4.116   4.787
 4267SOL    HW213701   1.761   4.111   4.639
 4268SOL     OW13702   1.314   4.846   6.476
 4268SOL    HW113703   1.277   4.846   6.569
 4268SOL    HW213704   1.300   4.756   6.435
 4269SOL     OW13705   2.912   1.896   4.453
 4269SOL    HW113706   2.904   1.869   4.549
 4269SOL    HW213707   2.995   1.856   4.413
 4270SOL     OW13708   3.626   2.404   0.828
 4270SOL    HW113709   3.568   2.399   0.910
 4270SOL    HW213710   3.568   2.414   0.748
 4271SOL     OW13711   6.663   0.406   1.000
 4271SOL    HW113712   6.584   0.467   1.012
 4271SOL    HW213713   6.743   0.446   1.047
 4272SOL     OW13714   6.105   2.444   5.985
 4272SOL    HW113715   6.201   2.469   5.999
 4272SOL    HW213716   6.069   2.403   6.069
 4273SOL     OW13717   4.244   5.485   5.018
 4273SOL    HW113718   4.241   5.548   4.941
 4273SOL    HW213719   4.259   5.392   4.984
 4274SOL     OW13720   6.690   0.435   1.792
 4274SOL    HW113721   6.636   0.352   1.805
 4274SOL    HW213722   6.678   0.495   1.872
 4275SOL     OW13723   0.942   2.826   3.207
 4275SOL    HW113724   0.862   2.829   3.147
 4275SOL    HW213725   1.013   2.770   3.165
 4276SOL     OW13726   2.703   6.029   3.629
 4276SOL    HW113727   2.631   5.974   3.671
 4276SOL    HW213728   2.732   6.100   3.694
 4277SOL     OW13729   6.352   5.540   3.868
 4277SOL    HW113730   6.335   5.460   3.810
 4277SOL    HW213731   6.350   5.512   3.964
 4278SOL     OW13732   1.229   0.146   2.055
 4278SOL    HW113733   1.296   0.220   2.056
 4278SOL    HW213734   1.210   0.118   2.149
 4279SOL     OW13735   2.154   2.510   3.398
 4279SOL    HW113736   2.144   2.566   3.480
 4279SOL    HW213737   2.251   2.500   3.375
 4280SOL     OW13738   6.710   0.026   6.040
 4280SOL    HW113739   6.781   6.983   6.064
 4280SOL    HW213740   6.654   7.013   5.966
 4281SOL     OW13741   4.110   5.515   3.823
 4281SOL    HW113742   4.150   5.425   3.807
 4281SOL    HW213743   4.172   5.587   3.792
 4282SOL     OW13744   3.774   4.076   1.193
 4282SOL    HW113745   3.828   3.993   1.176
 4282SOL    HW213746   3.769   4.130   1.109
 4283SOL     OW13747   5.038   1.185   3.888
 4283SOL    HW113748   5.054   1.206   3.792
 4283SOL    HW213749   4.940   1.192   3.908
 4284SOL     OW13750   4.726   5.710   6.739
 4284SOL    HW113751   4.819   5.746   6.754
 4284SOL    HW213752   4.730   5.612   6.722
 4285SOL     OW13753   2.902   0.587   5.883
 4285SOL    HW113754   2.916   0.554   5.790
 4285SOL    HW213755   2.901   0.510   5.947
 4286SOL     OW13756   6.210   1.285   6.843
 4286SOL    HW113757   6.164   1.201   6.872
 4286SOL    HW213758   6.309   1.274   6.853
 4287SOL     OW13759   5.047   0.749   0.130
 4287SOL    HW113760   4.964   0.768   0.183
 4287SOL    HW213761   5.100   0.679   0.178
 4288SOL     OW13762   6.882   6.488   2.063
 4288SOL    HW113763   6.970   6.513   2.103
 4288SOL    HW213764   6.895   6.410   2.001
 4289SOL     OW13765   0.351   3.241   4.719
 4289SOL    HW113766   0.260   3.228   4.680
 4289SOL    HW213767   0.414   3.175   4.678
 4290SOL     OW13768   0.237   0.933   3.183
 4290SOL    HW113769   0.289   0.892   3.108
 4290SOL    HW213770   0.144   0.897   3.182
 4291SOL     OW13771   4.926   3.025   5.840
 4291SOL    HW113772   4.898   3.061   5.751
 4291SOL    HW213773   4.848   3.026   5.903
 4292SOL     OW13774   5.438   1.842   1.101
 4292SOL    HW113775   5.404   1.929   1.137
 4292SOL    HW213776   5.424   1.770   1.169
 4293SOL     OW13777   4.627   3.964   6.922
 4293SOL    HW113778   4.548   3.963   6.983
 4293SOL    HW213779   4.613   3.899   6.848
 4294SOL     OW13780   2.889   1.855   6.576
 4294SOL    HW113781   2.812   1.910   6.609
 4294SOL    HW213782   2.928   1.898   6.494
 4295SOL     OW13783   4.324   6.347   3.221
 4295SOL    HW113784   4.353   6.276   3.285
 4295SOL    HW213785   4.403   6.376   3.167
 4296SOL     OW13786   2.722   6.450   1.181
 4296SOL    HW113787   2.629   6.416   1.166
 4296SOL    HW213788   2.749   6.433   1.275
 4297SOL     OW13789   5.588   5.170   1.135
 4297SOL    HW113790   5.542   5.162   1.047
 4297SOL    HW213791   5.521   5.166   1.209
 4298SOL     OW13792   3.117   6.443   1.278
 4298SOL    HW113793   3.061   6.500   1.338
 4298SOL    HW213794   3.213   6.471   1.286
 4299SOL     OW13795   1.296   2.411   0.360
 4299SOL    HW113796   1.237   2.332   0.343
 4299SOL    HW213797   1.318   2.455   0.273
 4300SOL     OW13798   3.733   0.646   1.178
 4300SOL    HW113799   3.674   0.697   1.116
 4300SOL    HW213800   3.681   0.622   1.260
 4301SOL     OW13801   3.194   6.910   2.058
 4301SOL    HW113802   3.140   6.857   1.992
 4301SOL    HW213803   3.156   6.899   2.149
 4302SOL     OW13804   1.918   5.583   6.264
 4302SOL    HW113805   1.905   5.634   6.179
 4302SOL    HW213806   1.935   5.647   6.339
 4303SOL     OW13807   6.067   4.277   3.866
 4303SOL    HW113808   6.060   4.229   3.954
 4303SOL    HW213809   5.979   4.273   3.819
 4304SOL     OW13810   3.279   3.782   1.426
 4304SOL    HW113811   3.351   3.778   1.495
 4304SOL    HW213812   3.196   3.822   1.467
 4305SOL     OW13813   1.253   0.517   5.309
 4305SOL    HW113814   1.253   0.451   5.384
 4305SOL    HW213815   1.346   0.529   5.276
 4306SOL     OW13816   5.270   3.727   4.504
 4306SOL    HW113817   5.322   3.674   4.570
 4306SOL    HW213818   5.275   3.683   4.414
 4307SOL     OW13819   6.239   1.826   5.261
 4307SOL    HW113820   6.336   1.808   5.276
 4307SOL    HW213821   6.225   1.851   5.165
 4308SOL     OW13822   4.999   4.759   0.983
 4308SOL    HW113823   4.917   4.749   1.039
 4308SOL    HW213824   4.996   4.847   0.935
 4309SOL     OW13825   1.590   3.662   0.357
 4309SOL    HW113826   1.628   3.591   0.417
 4309SOL    HW213827   1.491   3.655   0.356
 4310SOL     OW13828   0.544   1.947   2.423
 4310SOL    HW113829   0.601   1.916   2.347
 4310SOL    HW213830   0.529   2.045   2.416
 4311SOL     OW13831   0.763   6.350   2.210
 4311SOL    HW113832   0.775   6.389   2.119
 4311SOL    HW213833   0.845   6.366   2.264
 4312SOL     OW13834   0.367   4.830   2.213
 4312SOL    HW113835   0.309   4.864   2.139
 4312SOL    HW213836   0.463   4.836   2.185
 4313SOL     OW13837   6.262   1.891   6.957
 4313SOL    HW113838   6.168   1.857   6.951
 4313SOL    HW213839   6.282   1.915   0.029
 4314SOL     OW13840   6.387   2.744   4.891
 4314SOL    HW113841   6.452   2.728   4.817
 4314SOL    HW213842   6.297   2.764   4.852
 4315SOL     OW13843   2.866   1.464   3.813
 4315SOL    HW113844   2.913   1.445   3.899
 4315SOL    HW213845   2.797   1.535   3.828
 4316SOL     OW13846   5.314   6.714   2.117
 4316SOL    HW113847   5.313   6.702   2.216
 4316SOL    HW213848   5.277   6.804   2.094
 4317SOL     OW13849   4.811   0.609   6.112
 4317SOL    HW113850   4.861   0.643   6.192
 4317SOL    HW213851   4.720   0.651   6.110
 4318SOL     OW13852   0.973   1.781   4.189
 4318SOL    HW113853   0.991   1.683   4.176
 4318SOL    HW213854   0.967   1.826   4.100
 4319SOL     OW13855   1.030   4.568   2.227
 4319SOL    HW113856   0.940   4.602   2.255
 4319SOL    HW213857   1.030   4.549   2.129
 4320SOL     OW13858   3.747   5.874   0.167
 4320SOL    HW113859   3.840   5.881   0.129
 4320SOL    HW213860   3.750   5.825   0.254
 4321SOL     OW13861   6.248   6.779   2.317
 4321SOL    HW113862   6.320   6.730   2.268
 4321SOL    HW213863   6.259   6.878   2.303
 4322SOL     OW13864   0.930   3.280   5.132
 4322SOL    HW113865   0.909   3.243   5.042
 4322SOL    HW213866   0.976   3.210   5.187
 4323SOL     OW13867   3.817   5.519   0.097
 4323SOL    HW113868   3.743   5.570   0.053
 4323SOL    HW213869   3.858   5.457   0.030
 4324SOL     OW13870   0.072   3.879   6.025
 4324SOL    HW113871   0.034   3.940   5.956
 4324SOL    HW213872   0.056   3.784   5.997
 4325SOL     OW13873   3.024   0.583   2.785
 4325SOL    HW113874   2.960   0.632   2.726
 4325SOL    HW213875   3.021   0.485   2.764
 4326SOL     OW13876   4.856   2.516   2.838
 4326SOL    HW113877   4.936   2.562   2.876
 4326SOL    HW213878   4.787   2.584   2.812
 4327SOL     OW13879   3.570   5.538   4.207
 4327SOL    HW113880   3.514   5.553   4.288
 4327SOL    HW213881   3.522   5.478   4.144
 4328SOL     OW13882   5.589   5.799   5.255
 4328SOL    HW113883   5.490   5.810   5.252
 4328SOL    HW213884   5.623   5.778   5.163
 4329SOL     OW13885   5.838   2.646   6.025
 4329SOL    HW113886   5.896   2.691   6.093
 4329SOL    HW213887   5.878   2.657   5.934
 4330SOL     OW13888   2.924   5.006   5.445
 4330SOL    HW113889   3.004   5.025   5.502
 4330SOL    HW213890   2.929   4.912   5.411
 4331SOL     OW13891   6.407   0.632   1.712
 4331SOL    HW113892   6.406   0.680   1.800
 4331SOL    HW213893   6.425   0.697   1.638
 4332SOL     OW13894   0.099   4.768   2.377
 4332SOL    HW113895   0.147   4.839   2.325
 4332SOL    HW213896   0.149   4.682   2.370
 4333SOL     OW13897   3.891   1.948   5.433
 4333SOL    HW113898   3.843   1.905   5.357
 4333SOL    HW213899   3.889   1.888   5.513
 4334SOL     OW13900   1.054   2.303   3.605
 4334SOL    HW113901   1.036   2.209   3.577
 4334SOL    HW213902   0.969   2.357   3.600
 4335SOL     OW13903   3.171   3.580   0.853
 4335SOL    HW113904   3.168   3.486   0.889
 4335SOL    HW213905   3.202   3.642   0.926
 4336SOL     OW13906   2.651   5.818   5.737
 4336SOL    HW113907   2.691   5.726   5.742
 4336SOL    HW213908   2.589   5.832   5.814
 4337SOL     OW13909   1.541   5.459   3.053
 4337SOL    HW113910   1.470   5.458   2.983
 4337SOL    HW213911   1.548   5.551   3.092
 4338SOL     OW13912   4.765   0.711   5.763
 4338SOL    HW113913   4.795   0.799   5.801
 4338SOL    HW213914   4.757   0.719   5.664
 4339SOL     OW13915   4.192   2.882   5.993
 4339SOL    HW113916   4.160   2.799   5.948
 4339SOL    HW213917   4.144   2.961   5.956
 4340SOL     OW13918   6.693   3.272   0.923
 4340SOL    HW113919   6.766   3.261   0.856
 4340SOL    HW213920   6.727   3.249   1.014
 4341SOL     OW13921   0.813   5.919   2.612
 4341SOL    HW113922   0.887   5.975   2.649
 4341SOL    HW213923   0.761   5.974   2.546
 4342SOL     OW13924   5.280   3.802   2.675
 4342SOL    HW113925   5.213   3.813   2.602
 4342SOL    HW213926   5.322   3.890   2.697
 4343SOL     OW13927   4.042   0.538   6.570
 4343SOL    HW113928   3.960   0.538   6.514
 4343SOL    HW213929   4.117   0.584   6.522
 4344SOL     OW13930   0.185   2.259   3.730
 4344SOL    HW113931   0.112   2.285   3.666
 4344SOL    HW213932   0.270   2.244   3.679
 4345SOL     OW13933   2.942   3.486   2.411
 4345SOL    HW113934   2.933   3.386   2.418
 4345SOL    HW213935   3.038   3.510   2.397
 4346SOL     OW13936   1.779   3.668   1.881
 4346SOL    HW113937   1.861   3.697   1.930
 4346SOL    HW213938   1.800   3.657   1.784
 4347SOL     OW13939   5.996   4.806   1.799
 4347SOL    HW113940   6.093   4.805   1.775
 4347SOL    HW213941   5.951   4.884   1.757
 4348SOL     OW13942   6.038   6.059   4.206
 4348SOL    HW113943   6.048   6.151   4.168
 4348SOL    HW213944   5.993   6.065   4.294
 4349SOL     OW13945   0.238   3.658   4.100
 4349SOL    HW113946   0.191   3.685   4.016
 4349SOL    HW213947   0.217   3.562   4.120
 4350SOL     OW13948   4.734   0.852   5.148
 4350SOL    HW113949   4.719   0.935   5.093
 4350SOL    HW213950   4.796   0.790   5.098
 4351SOL     OW13951   1.176   6.718   0.815
 4351SOL    HW113952   1.109   6.674   0.755
 4351SOL    HW213953   1.130   6.749   0.899
 4352SOL     OW13954   4.233   3.765   1.005
 4352SOL    HW113955   4.265   3.787   1.097
 4352SOL    HW213956   4.170   3.687   1.009
 4353SOL     OW13957   3.106   2.870   0.776
 4353SOL    HW113958   3.017   2.864   0.731
 4353SOL    HW213959   3.101   2.824   0.865
 4354SOL     OW13960   5.936   6.954   4.540
 4354SOL    HW113961   6.029   6.991   4.536
 4354SOL    HW213962   5.895   6.957   4.449
 4355SOL     OW13963   1.653   6.490   3.377
 4355SOL    HW113964   1.724   6.485   3.307
 4355SOL    HW213965   1.656   6.580   3.421
 4356SOL     OW13966   4.839   2.191   6.775
 4356SOL    HW113967   4.739   2.195   6.771
 4356SOL    HW213968   4.874   2.272   6.822
 4357SOL     OW13969   6.670   0.651   1.981
 4357SOL    HW113970   6.722   0.736   1.990
 4357SOL    HW213971   6.575   0.667   2.008
 4358SOL     OW13972   1.045   0.770   0.342
 4358SOL    HW113973   0.991   0.751   0.260
 4358SOL    HW213974   1.036   0.695   0.407
 4359SOL     OW13975   2.399   1.252   6.806
 4359SOL    HW113976   2.456   1.254   6.723
 4359SOL    HW213977   2.376   1.345   6.833
 4360SOL     OW13978   1.342   2.823   3.529
 4360SOL    HW113979   1.330   2.851   3.434
 4360SOL    HW213980   1.288   2.882   3.589
 4361SOL     OW13981   0.413   1.700   1.085
 4361SOL    HW113982   0.458   1.739   1.166
 4361SOL    HW213983   0.473   1.631   1.044
 4362SOL     OW13984   1.095   5.897   4.120
 4362SOL    HW113985   1.077   5.970   4.186
 4362SOL    HW213986   1.008   5.867   4.079
 4363SOL     OW13987   5.046   0.752   2.589
 4363SOL    HW113988   4.965   0.708   2.551
 4363SOL    HW213989   5.107   0.779   2.515
 4364SOL     OW13990   3.481   4.102   2.792
 4364SOL    HW113991   3.549   4.031   2.807
 4364SOL    HW213992   3.508   4.185   2.842
 4365SOL     OW13993   3.103   2.114   2.050
 4365SOL    HW113994   3.033   2.183   2.069
 4365SOL    HW213995   3.091   2.080   1.957
 4366SOL     OW13996   4.563   6.254   4.905
 4366SOL    HW113997   4.543   6.268   4.808
 4366SOL    HW213998   4.523   6.328   4.958
 4367SOL     OW13999   3.121   5.627   4.046
 4367SOL    HW114000   3.022   5.610   4.051
 4367SOL    HW214001   3.167   5.567   4.112
 4368SOL     OW14002   4.809   4.501   2.296
 4368SOL    HW114003   4.886   4.475   2.353
 4368SOL    HW214004   4.793   4.430   2.227
 4369SOL     OW14005   4.047   5.088   2.857
 4369SOL    HW114006   3.947   5.086   2.861
 4369SOL    HW214007   4.077   5.066   2.764
 4370SOL     OW14008   3.707   4.760   1.504
 4370SOL    HW114009   3.665   4.692   1.565
 4370SOL    HW214010   3.637   4.797   1.443
 4371SOL     OW14011   2.916   0.527   1.753
 4371SOL    HW114012   2.992   0.558   1.810
 4371SOL    HW214013   2.844   0.596   1.754
 4372SOL     OW14014   2.173   3.123   4.871
 4372SOL    HW114015   2.199   3.153   4.779
 4372SOL    HW214016   2.251   3.077   4.914
 4373SOL     OW14017   4.326   0.921   5.999
 4373SOL    HW114018   4.417   0.959   6.008
 4373SOL    HW214019   4.331   0.821   6.008
 4374SOL     OW14020   2.401   1.072   1.008
 4374SOL    HW114021   2.416   1.063   1.107
 4374SOL    HW214022   2.457   1.005   0.960
 4375SOL     OW14023   4.179   0.685   3.269
 4375SOL    HW114024   4.211   0.771   3.229
 4375SOL    HW214025   4.086   0.697   3.303
 4376SOL     OW14026   6.151   6.839   1.337
 4376SOL    HW114027   6.104   6.888   1.411
 4376SOL    HW214028   6.250   6.843   1.352
 4377SOL     OW14029   6.084   6.672   6.570
 4377SOL    HW114030   6.175   6.702   6.601
 4377SOL    HW214031   6.058   6.588   6.618
 4378SOL     OW14032   1.742   5.524   2.263
 4378SOL    HW114033   1.653   5.569   2.264
 4378SOL    HW214034   1.729   5.424   2.265
 4379SOL     OW14035   1.316   1.414   1.671
 4379SOL    HW114036   1.255   1.336   1.654
 4379SOL    HW214037   1.383   1.389   1.741
 4380SOL     OW14038   1.716   6.275   5.169
 4380SOL    HW114039   1.637   6.335   5.177
 4380SOL    HW214040   1.685   6.182   5.151
 4381SOL     OW14041   3.503   6.949   5.089
 4381SOL    HW114042   3.500   7.001   5.004
 4381SOL    HW214043   3.591   6.902   5.096
 4382SOL     OW14044   5.108   4.179   4.550
 4382SOL    HW114045   5.072   4.272   4.553
 4382SOL    HW214046   5.206   4.180   4.572
 4383SOL     OW14047   1.114   2.321   5.734
 4383SOL    HW114048   1.214   2.329   5.738
 4383SOL    HW214049   1.088   2.225   5.728
 4384SOL     OW14050   3.809   6.559   1.334
 4384SOL    HW114051   3.783   6.655   1.327
 4384SOL    HW214052   3.730   6.504   1.361
 4385SOL     OW14053   0.407   1.798   2.702
 4385SOL    HW114054   0.452   1.795   2.791
 4385SOL    HW214055   0.369   1.708   2.681
 4386SOL     OW14056   0.979   3.608   6.661
 4386SOL    HW114057   0.910   3.679   6.668
 4386SOL    HW214058   1.059   3.633   6.715
 4387SOL     OW14059   6.985   3.372   1.432
 4387SOL    HW114060   6.887   3.380   1.450
 4387SOL    HW214061   0.010   3.345   1.515
 4388SOL     OW14062   3.370   0.794   6.001
 4388SOL    HW114063   3.272   0.776   6.008
 4388SOL    HW214064   3.390   0.837   5.913
 4389SOL     OW14065   6.152   2.406   1.956
 4389SOL    HW114066   6.148   2.335   2.026
 4389SOL    HW214067   6.060   2.443   1.941
 4390SOL     OW14068   4.740   2.799   2.168
 4390SOL    HW114069   4.759   2.864   2.242
 4390SOL    HW214070   4.732   2.849   2.082
 4391SOL     OW14071   0.756   5.577   0.259
 4391SOL    HW114072   0.845   5.605   0.295
 4391SOL    HW214073   0.705   5.658   0.229
 4392SOL     OW14074   4.967   3.404   4.560
 4392SOL    HW114075   5.051   3.349   4.565
 4392SOL    HW214076   4.946   3.441   4.650
 4393SOL     OW14077   4.934   6.920   3.255
 4393SOL    HW114078   4.867   6.950   3.187
 4393SOL    HW214079   5.025   6.923   3.215
 4394SOL     OW14080   5.126   6.968   2.274
 4394SOL    HW114081   5.113   0.018   2.341
 4394SOL    HW214082   5.070   6.985   2.193
 4395SOL     OW14083   5.107   1.513   1.934
 4395SOL    HW114084   5.024   1.461   1.952
 4395SOL    HW214085   5.088   1.586   1.868
 4396SOL     OW14086   0.822   1.253   4.506
 4396SOL    HW114087   0.771   1.297   4.432
 4396SOL    HW214088   0.767   1.257   4.590
 4397SOL     OW14089   0.102   0.088   5.354
 4397SOL    HW114090   0.034   0.110   5.424
 4397SOL    HW214091   0.161   0.167   5.338
 4398SOL     OW14092   0.172   4.945   4.057
 4398SOL    HW114093   0.117   4.862   4.068
 4398SOL    HW214094   0.114   5.025   4.066
 4399SOL     OW14095   1.947   1.531   0.774
 4399SOL    HW114096   1.909   1.514   0.683
 4399SOL    HW214097   1.952   1.629   0.791
 4400SOL     OW14098   3.319   6.561   4.362
 4400SOL    HW114099   3.295   6.633   4.296
 4400SOL    HW214100   3.239   6.539   4.417
 4401SOL     OW14101   5.822   5.791   4.130
 4401SOL    HW114102   5.741   5.767   4.076
 4401SOL    HW214103   5.796   5.857   4.201
 4402SOL     OW14104   1.081   6.014   2.658
 4402SOL    HW114105   1.177   6.005   2.682
 4402SOL    HW214106   1.073   6.035   2.560
 4403SOL     OW14107   0.181   0.172   3.370
 4403SOL    HW114108   0.236   0.128   3.440
 4403SOL    HW214109   0.210   0.140   3.280
 4404SOL     OW14110   0.512   4.068   2.836
 4404SOL    HW114111   0.420   4.043   2.807
 4404SOL    HW214112   0.530   4.031   2.927
 4405SOL     OW14113   3.294   4.783   5.702
 4405SOL    HW114114   3.286   4.754   5.797
 4405SOL    HW214115   3.203   4.787   5.661
 4406SOL     OW14116   5.508   4.144   0.830
 4406SOL    HW114117   5.421   4.095   0.827
 4406SOL    HW214118   5.498   4.227   0.884
 4407SOL     OW14119   6.713   6.709   0.155
 4407SOL    HW114120   6.654   6.749   0.225
 4407SOL    HW214121   6.671   6.722   0.065
 4408SOL     OW14122   5.037   0.443   0.014
 4408SOL    HW114123   4.946   0.484   0.025
 4408SOL    HW214124   5.084   0.441   0.102
 4409SOL     OW14125   3.456   0.377   2.372
 4409SOL    HW114126   3.448   0.430   2.288
 4409SOL    HW214127   3.420   0.431   2.449
 4410SOL     OW14128   2.068   5.590   0.925
 4410SOL    HW114129   2.068   5.518   0.995
 4410SOL    HW214130   2.146   5.576   0.864
 4411SOL     OW14131   3.223   3.248   2.710
 4411SOL    HW114132   3.302   3.288   2.663
 4411SOL    HW214133   3.182   3.178   2.652
 4412SOL     OW14134   3.994   1.012   6.525
 4412SOL    HW114135   3.968   0.928   6.477
 4412SOL    HW214136   4.017   1.082   6.458
 4413SOL     OW14137   4.130   5.745   4.556
 4413SOL    HW114138   4.138   5.712   4.462
 4413SOL    HW214139   4.163   5.839   4.560
 4414SOL     OW14140   4.154   4.856   1.788
 4414SOL    HW114141   4.221   4.782   1.781
 4414SOL    HW214142   4.082   4.842   1.720
 4415SOL     OW14143   4.851   3.430   6.479
 4415SOL    HW114144   4.901   3.362   6.425
 4415SOL    HW214145   4.901   3.450   6.563
 4416SOL     OW14146   3.189   0.744   4.803
 4416SOL    HW114147   3.268   0.805   4.814
 4416SOL    HW214148   3.212   0.672   4.737
 4417SOL     OW14149   0.181   5.312   2.164
 4417SOL    HW114150   0.197   5.298   2.262
 4417SOL    HW214151   0.264   5.348   2.121
 4418SOL     OW14152   4.226   6.095   3.874
 4418SOL    HW114153   4.142   6.077   3.821
 4418SOL    HW214154   4.206   6.160   3.946
 4419SOL     OW14155   6.828   4.934   0.234
 4419SOL    HW114156   6.833   4.877   0.316
 4419SOL    HW214157   6.876   5.020   0.251
 4420SOL     OW14158   5.158   1.409   0.261
 4420SOL    HW114159   5.172   1.496   0.215
 4420SOL    HW214160   5.246   1.361   0.269
 4421SOL     OW14161   1.465   2.015   2.735
 4421SOL    HW114162   1.392   1.999   2.801
 4421SOL    HW214163   1.436   2.084   2.669
 4422SOL     OW14164   2.630   4.313   6.301
 4422SOL    HW114165   2.701   4.301   6.371
 4422SOL    HW214166   2.607   4.224   6.262
 4423SOL     OW14167   1.370   2.347   6.544
 4423SOL    HW114168   1.448   2.366   6.484
 4423SOL    HW214169   1.326   2.433   6.570
 4424SOL     OW14170   6.078   6.333   3.250
 4424SOL    HW114171   6.041   6.251   3.292
 4424SOL    HW214172   6.028   6.413   3.283
 4425SOL     OW14173   3.817   5.079   6.452
 4425SOL    HW114174   3.891   5.037   6.399
 4425SOL    HW214175   3.757   5.130   6.390
 4426SOL     OW14176   0.090   0.443   5.629
 4426SOL    HW114177   0.142   0.461   5.713
 4426SOL    HW214178   0.075   0.529   5.580
 4427SOL     OW14179   0.847   0.636   3.296
 4427SOL    HW114180   0.887   0.728   3.305
 4427SOL    HW214181   0.749   0.644   3.278
 4428SOL     OW14182   2.068   5.323   4.253
 4428SOL    HW114183   2.124   5.394   4.295
 4428SOL    HW214184   2.045   5.253   4.321
 4429SOL     OW14185   3.777   6.758   3.724
 4429SOL    HW114186   3.763   6.819   3.802
 4429SOL    HW214187   3.692   6.708   3.705
 4430SOL     OW14188   2.701   1.133   2.886
 4430SOL    HW114189   2.617   1.181   2.861
 4430SOL    HW214190   2.738   1.086   2.805
 4431SOL     OW14191   3.250   1.518   3.355
 4431SOL    HW114192   3.201   1.566   3.282
 4431SOL    HW214193   3.209   1.540   3.444
 4432SOL     OW14194   3.259   3.569   2.685
 4432SOL    HW114195   3.257   3.575   2.585
 4432SOL    HW214196   3.288   3.477   2.712
 4433SOL     OW14197   6.191   6.580   2.554
 4433SOL    HW114198   6.208   6.660   2.497
 4433SOL    HW214199   6.119   6.600   2.620
 4434SOL     OW14200   5.746   1.527   3.698
 4434SOL    HW114201   5.732   1.622   3.671
 4434SOL    HW214202   5.825   1.490   3.650
 4435SOL     OW14203   3.675   3.057   1.690
 4435SOL    HW114204   3.750   3.123   1.685
 4435SOL    HW214205   3.701   2.983   1.753
 4436SOL     OW14206   4.028   1.922   6.819
 4436SOL    HW114207   4.108   1.976   6.796
 4436SOL    HW214208   3.986   1.887   6.735
 4437SOL     OW14209   3.967   0.560   4.466
 4437SOL    HW114210   3.921   0.607   4.541
 4437SOL    HW214211   3.969   0.618   4.385
 4438SOL     OW14212   4.233   2.573   6.725
 4438SOL    HW114213   4.296   2.541   6.655
 4438SOL    HW214214   4.201   2.495   6.780
 4439SOL     OW14215   1.326   5.449   2.458
 4439SOL    HW114216   1.231   5.480   2.463
 4439SOL    HW214217   1.356   5.448   2.363
 4440SOL     OW14218   1.620   6.178   6.746
 4440SOL    HW114219   1.606   6.113   6.672
 4440SOL    HW214220   1.533   6.198   6.790
 4441SOL     OW14221   5.009   2.678   2.452
 4441SOL    HW114222   4.995   2.644   2.359
 4441SOL    HW214223   5.107   2.691   2.468
 4442SOL     OW14224   3.757   5.417   4.052
 4442SOL    HW114225   3.721   5.472   4.127
 4442SOL    HW214226   3.704   5.334   4.043
 4443SOL     OW14227   2.478   2.087   5.894
 4443SOL    HW114228   2.484   2.170   5.838
 4443SOL    HW214229   2.382   2.067   5.914
 4444SOL     OW14230   4.563   0.046   0.733
 4444SOL    HW114231   4.530   6.980   0.766
 4444SOL    HW214232   4.656   0.062   0.766
 4445SOL     OW14233   1.131   1.052   6.368
 4445SOL    HW114234   1.213   1.106   6.351
 4445SOL    HW214235   1.090   1.026   6.280
 4446SOL     OW14236   6.194   0.258   2.995
 4446SOL    HW114237   6.181   0.237   2.898
 4446SOL    HW214238   6.279   0.310   3.006
 4447SOL     OW14239   5.444   2.237   5.772
 4447SOL    HW114240   5.445   2.188   5.685
 4447SOL    HW214241   5.355   2.281   5.785
 4448SOL     OW14242   2.282   3.708   7.011
 4448SOL    HW114243   2.280   3.609   7.022
 4448SOL    HW214244   2.376   3.739   6.998
 4449SOL     OW14245   2.611   0.785   5.169
 4449SOL    HW114246   2.606   0.751   5.076
 4449SOL    HW214247   2.524   0.829   5.193
 4450SOL     OW14248   3.405   2.946   3.274
 4450SOL    HW114249   3.475   3.007   3.235
 4450SOL    HW214250   3.442   2.903   3.357
 4451SOL     OW14251   6.663   4.674   2.092
 4451SOL    HW114252   6.625   4.600   2.148
 4451SOL    HW214253   6.671   4.757   2.148
 4452SOL     OW14254   6.201   6.204   6.080
 4452SOL    HW114255   6.187   6.295   6.040
 4452SOL    HW214256   6.297   6.193   6.106
 4453SOL     OW14257   5.215   2.359   1.568
 4453SOL    HW114258   5.221   2.391   1.663
 4453SOL    HW214259   5.125   2.379   1.531
 4454SOL     OW14260   5.158   2.648   0.784
 4454SOL    HW114261   5.066   2.672   0.814
 4454SOL    HW214262   5.202   2.729   0.745
 4455SOL     OW14263   3.598   0.776   2.848
 4455SOL    HW114264   3.530   0.727   2.903
 4455SOL    HW214265   3.644   0.844   2.904
 4456SOL     OW14266   1.598   5.259   3.243
 4456SOL    HW114267   1.549   5.335   3.202
 4456SOL    HW214268   1.537   5.209   3.304
 4457SOL     OW14269   4.972   1.815   6.679
 4457SOL    HW114270   4.938   1.872   6.754
 4457SOL    HW214271   5.065   1.843   6.656
 4458SOL     OW14272   2.755   2.181   6.370
 4458SOL    HW114273   2.830   2.233   6.330
 4458SOL    HW214274   2.715   2.234   6.446
 4459SOL     OW14275   4.807   6.473   4.955
 4459SOL    HW114276   4.868   6.527   5.012
 4459SOL    HW214277   4.712   6.493   4.978
 4460SOL     OW14278   2.596   2.862   6.582
 4460SOL    HW114279   2.550   2.775   6.596
 4460SOL    HW214280   2.670   2.851   6.516
 4461SOL     OW14281   1.816   6.938   2.384
 4461SOL    HW114282   1.905   6.966   2.417
 4461SOL    HW214283   1.758   6.913   2.461
 4462SOL     OW14284   6.364   5.549   0.725
 4462SOL    HW114285   6.265   5.538   0.719
 4462SOL    HW214286   6.397   5.517   0.814
 4463SOL     OW14287   1.733   3.403   6.189
 4463SOL    HW114288   1.780   3.372   6.106
 4463SOL    HW214289   1.638   3.374   6.186
 4464SOL     OW14290   5.606   3.651   5.967
 4464SOL    HW114291   5.570   3.579   5.907
 4464SOL    HW214292   5.583   3.630   6.062
 4465SOL     OW14293   1.714   6.203   1.887
 4465SOL    HW114294   1.712   6.104   1.904
 4465SOL    HW214295   1.739   6.220   1.792
 4466SOL     OW14296   1.325   1.436   2.457
 4466SOL    HW114297   1.322   1.531   2.490
 4466SOL    HW214298   1.244   1.388   2.490
 4467SOL     OW14299   1.424   0.001   3.028
 4467SOL    HW114300   1.335   0.043   3.011
 4467SOL    HW214301   1.496   0.070   3.017
 4468SOL     OW14302   1.247   2.802   0.441
 4468SOL    HW114303   1.291   2.735   0.382
 4468SOL    HW214304   1.244   2.891   0.395
 4469SOL     OW14305   3.506   6.897   1.339
 4469SOL    HW114306   3.602   6.893   1.312
 4469SOL    HW214307   3.500   6.936   1.431
 4470SOL     OW14308   4.749   3.854   1.559
 4470SOL    HW114309   4.751   3.757   1.583
 4470SOL    HW214310   4.669   3.897   1.600
 4471SOL     OW14311   0.008   2.692   1.183
 4471SOL    HW114312   7.005   2.691   1.086
 4471SOL    HW214313   0.082   2.758   1.196
 4472SOL     OW14314   1.882   4.027   2.134
 4472SOL    HW114315   1.847   4.120   2.119
 4472SOL    HW214316   1.856   3.996   2.226
 4473SOL     OW14317   7.014   6.807   4.313
 4473SOL    HW114318   0.071   6.748   4.326
 4473SOL    HW214319   0.013   6.900   4.343
 4474SOL     OW14320   4.134   0.086   2.900
 4474SOL    HW114321   4.194   0.010   2.878
 4474SOL    HW214322   4.143   0.157   2.830
 4475SOL     OW14323   1.738   4.547   0.840
 4475SOL    HW114324   1.786   4.598   0.768
 4475SOL    HW214325   1.805   4.508   0.903
 4476SOL     OW14326   4.654   6.346   2.084
 4476SOL    HW114327   4.583   6.276   2.084
 4476SOL    HW214328   4.691   6.355   1.991
 4477SOL     OW14329   2.052   1.523   0.054
 4477SOL    HW114330   1.982   1.457   0.084
 4477SOL    HW214331   2.060   1.519   6.978
 4478SOL     OW14332   2.182   6.706   2.470
 4478SOL    HW114333   2.147   6.696   2.376
 4478SOL    HW214334   2.223   6.620   2.499
 4479SOL     OW14335   1.169   0.168   5.450
 4479SOL    HW114336   1.225   0.222   5.513
 4479SOL    HW214337   1.162   0.074   5.483
 4480SOL     OW14338   1.188   5.111   4.850
 4480SOL    HW114339   1.129   5.040   4.890
 4480SOL    HW214340   1.138   5.198   4.847
 4481SOL     OW14341   1.364   6.212   3.877
 4481SOL    HW114342   1.379   6.310   3.893
 4481SOL    HW214343   1.272   6.198   3.841
 4482SOL     OW14344   0.221   4.409   3.689
 4482SOL    HW114345   0.304   4.354   3.694
 4482SOL    HW214346   0.146   4.352   3.653
 4483SOL     OW14347   5.342   3.114   1.363
 4483SOL    HW114348   5.330   3.208   1.331
 4483SOL    HW214349   5.404   3.114   1.442
 4484SOL     OW14350   3.677   2.611   5.389
 4484SOL    HW114351   3.581   2.582   5.386
 4484SOL    HW214352   3.718   2.599   5.299
 4485SOL     OW14353   4.811   1.609   6.776
 4485SOL    HW114354   4.810   1.596   6.875
 4485SOL    HW214355   4.878   1.679   6.752
 4486SOL     OW14356   6.758   3.815   4.876
 4486SOL    HW114357   6.768   3.816   4.777
 4486SOL    HW214358   6.681   3.756   4.901
 4487SOL     OW14359   2.928   3.521   6.286
 4487SOL    HW114360   2.915   3.452   6.357
 4487SOL    HW214361   2.843   3.535   6.236
 4488SOL     OW14362   5.992   1.598   5.259
 4488SOL    HW114363   6.058   1.672   5.245
 4488SOL    HW214364   5.988   1.541   5.177
 4489SOL     OW14365   5.840   5.680   4.513
 4489SOL    HW114366   5.938   5.698   4.515
 4489SOL    HW214367   5.824   5.581   4.507
 4490SOL     OW14368   6.333   1.907   2.549
 4490SOL    HW114369   6.318   1.829   2.610
 4490SOL    HW214370   6.333   1.875   2.454
 4491SOL     OW14371   1.038   3.787   2.961
 4491SOL    HW114372   1.127   3.793   2.915
 4491SOL    HW214373   1.052   3.789   3.060
 4492SOL     OW14374   4.852   2.465   0.206
 4492SOL    HW114375   4.845   2.404   0.127
 4492SOL    HW214376   4.921   2.428   0.270
 4493SOL     OW14377   5.302   4.998   5.023
 4493SOL    HW114378   5.275   4.972   5.116
 4493SOL    HW214379   5.316   4.915   4.969
 4494SOL     OW14380   0.109   4.386   5.019
 4494SOL    HW114381   0.187   4.364   5.077
 4494SOL    HW214382   0.096   4.313   4.951
 4495SOL     OW14383   5.174   6.566   1.905
 4495SOL    HW114384   5.220   6.580   1.992
 4495SOL    HW214385   5.091   6.622   1.902
 4496SOL     OW14386   5.386   3.882   5.737
 4496SOL    HW114387   5.359   3.787   5.754
 4496SOL    HW214388   5.326   3.922   5.668
 4497SOL     OW14389   5.631   5.165   7.005
 4497SOL    HW114390   5.686   5.127   6.931
 4497SOL    HW214391   5.597   5.091   0.040
 4498SOL     OW14392   0.212   3.344   6.822
 4498SOL    HW114393   0.113   3.343   6.804
 4498SOL    HW214394   0.245   3.250   6.827
 4499SOL     OW14395   6.734   3.414   5.304
 4499SOL    HW114396   6.662   3.480   5.281
 4499SOL    HW214397   6.823   3.459   5.299
 4500SOL     OW14398   3.050   3.717   4.523
 4500SOL    HW114399   2.994   3.715   4.440
 4500SOL    HW214400   3.143   3.687   4.501
 4501SOL     OW14401   0.290   4.784   5.196
 4501SOL    HW114402   0.217   4.757   5.258
 4501SOL    HW214403   0.378   4.779   5.243
 4502SOL     OW14404   1.355   2.470   0.086
 4502SOL    HW114405   1.299   2.445   0.007
 4502SOL    HW214406   1.437   2.414   0.089
 4503SOL     OW14407   2.175   1.318   3.696
 4503SOL    HW114408   2.185   1.279   3.605
 4503SOL    HW214409   2.086   1.364   3.703
 4504SOL     OW14410   5.716   2.758   5.265
 4504SOL    HW114411   5.750   2.851   5.272
 4504SOL    HW214412   5.663   2.748   5.181
 4505SOL     OW14413   1.978   6.297   5.095
 4505SOL    HW114414   1.881   6.296   5.118
 4505SOL    HW214415   2.032   6.298   5.179
 4506SOL     OW14416   4.130   1.090   5.228
 4506SOL    HW114417   4.103   1.031   5.152
 4506SOL    HW214418   4.218   1.059   5.264
 4507SOL     OW14419   4.785   4.183   0.922
 4507SOL    HW114420   4.876   4.206   0.956
 4507SOL    HW214421   4.727   4.264   0.922
 4508SOL     OW14422   1.222   3.856   0.123
 4508SOL    HW114423   1.151   3.798   0.085
 4508SOL    HW214424   1.284   3.887   0.051
 4509SOL     OW14425   3.178   1.819   4.350
 4509SOL    HW114426   3.246   1.842   4.420
 4509SOL    HW214427   3.221   1.817   4.260
 4510SOL     OW14428   5.375   0.017   5.329
 4510SOL    HW114429   5.440   6.995   5.268
 4510SOL    HW214430   5.286   0.023   5.285
 4511SOL     OW14431   6.695   2.519   0.381
 4511SOL    HW114432   6.707   2.614   0.409
 4511SOL    HW214433   6.665   2.464   0.459
 4512SOL     OW14434   2.149   6.252   6.588
 4512SOL    HW114435   2.232   6.196   6.584
 4512SOL    HW214436   2.071   6.200   6.555
 4513SOL     OW14437   4.901   6.672   2.055
 4513SOL    HW114438   4.847   6.742   2.008
 4513SOL    HW214439   4.932   6.707   2.143
 4514SOL     OW14440   3.401   1.135   5.054
 4514SOL    HW114441   3.494   1.145   5.087
 4514SOL    HW214442   3.355   1.224   5.055
 4515SOL     OW14443   6.929   4.758   0.502
 4515SOL    HW114444   6.925   4.684   0.569
 4515SOL    HW214445   7.017   4.755   0.454
 4516SOL     OW14446   1.043   1.208   5.074
 4516SOL    HW114447   0.943   1.216   5.067
 4516SOL    HW214448   1.083   1.299   5.079
 4517SOL     OW14449   3.651   6.804   6.522
 4517SOL    HW114450   3.584   6.768   6.457
 4517SOL    HW214451   3.739   6.818   6.477
 4518SOL     OW14452   0.938   2.053   3.520
 4518SOL    HW114453   0.927   1.955   3.537
 4518SOL    HW214454   0.988   2.067   3.434
 4519SOL     OW14455   6.832   2.804   3.704
 4519SOL    HW114456   6.917   2.772   3.663
 4519SOL    HW214457   6.822   2.765   3.796
 4520SOL     OW14458   6.736   4.254   2.755
 4520SOL    HW114459   6.739   4.346   2.795
 4520SOL    HW214460   6.762   4.258   2.659
 4521SOL     OW14461   4.780   2.621   6.827
 4521SOL    HW114462   4.878   2.608   6.814
 4521SOL    HW214463   4.730   2.554   6.772
 4522SOL     OW14464   6.211   6.659   3.485
 4522SOL    HW114465   6.269   6.709   3.550
 4522SOL    HW214466   6.139   6.720   3.452
 4523SOL     OW14467   3.076   4.610   0.411
 4523SOL    HW114468   3.124   4.692   0.378
 4523SOL    HW214469   2.980   4.616   0.386
 4524SOL     OW14470   4.982   1.100   5.357
 4524SOL    HW114471   4.887   1.071   5.370
 4524SOL    HW214472   5.025   1.116   5.445
 4525SOL     OW14473   5.998   1.436   4.557
 4525SOL    HW114474   5.958   1.354   4.517
 4525SOL    HW214475   5.944   1.464   4.636
 4526SOL     OW14476   4.656   6.719   0.548
 4526SOL    HW114477   4.599   6.760   0.478
 4526SOL    HW214478   4.740   6.773   0.559
 4527SOL     OW14479   4.741   1.303   3.015
 4527SOL    HW114480   4.719   1.242   3.091
 4527SOL    HW214481   4.809   1.259   2.956
 4528SOL     OW14482   5.792   0.068   0.266
 4528SOL    HW114483   5.807   0.079   0.167
 4528SOL    HW214484   5.749   0.150   0.302
 4529SOL     OW14485   2.854   0.217   3.006
 4529SOL    HW114486   2.756   0.235   3.002
 4529SOL    HW214487   2.889   0.241   3.096
 4530SOL     OW14488   0.650   3.566   5.132
 4530SOL    HW114489   0.638   3.479   5.085
 4530SOL    HW214490   0.609   3.639   5.078
 4531SOL     OW14491   0.838   3.349   3.692
 4531SOL    HW114492   0.843   3.280   3.621
 4531SOL    HW214493   0.902   3.326   3.766
 4532SOL     OW14494   6.450   1.351   1.000
 4532SOL    HW114495   6.529   1.328   0.943
 4532SOL    HW214496   6.390   1.271   1.008
 4533SOL     OW14497   1.618   6.572   2.985
 4533SOL    HW114498   1.714   6.599   2.982
 4533SOL    HW214499   1.598   6.509   2.910
 4534SOL     OW14500   6.480   3.794   5.129
 4534SOL    HW114501   6.459   3.823   5.223
 4534SOL    HW214502   6.429   3.851   5.065
 4535SOL     OW14503   5.226   3.453   1.961
 4535SOL    HW114504   5.130   3.440   1.985
 4535SOL    HW214505   5.270   3.363   1.951
 4536SOL     OW14506   5.624   1.179   4.687
 4536SOL    HW114507   5.646   1.275   4.700
 4536SOL    HW214508   5.707   1.123   4.695
 4537SOL     OW14509   4.149   3.100   7.018
 4537SOL    HW114510   4.101   3.146   0.069
 4537SOL    HW214511   4.217   3.162   6.978
 4538SOL     OW14512   3.323   1.719   3.063
 4538SOL    HW114513   3.278   1.736   3.151
 4538SOL    HW214514   3.368   1.802   3.032
 4539SOL     OW14515   1.890   2.119   3.592
 4539SOL    HW114516   1.976   2.162   3.561
 4539SOL    HW214517   1.817   2.143   3.528
 4540SOL     OW14518   3.356   3.061   4.497
 4540SOL    HW114519   3.352   2.978   4.553
 4540SOL    HW214520   3.362   3.141   4.556
 4541SOL     OW14521   4.911   1.728   0.618
 4541SOL    HW114522   4.929   1.813   0.567
 4541SOL    HW214523   4.987   1.665   0.605
 4542SOL     OW14524   6.288   6.079   2.244
 4542SOL    HW114525   6.319   5.985   2.231
 4542SOL    HW214526   6.315   6.110   2.335
 4543SOL     OW14527   5.106   1.724   0.907
 4543SOL    HW114528   5.008   1.736   0.891
 4543SOL    HW214529   5.155   1.801   0.866
 4544SOL     OW14530   2.847   5.977   6.886
 4544SOL    HW114531   2.793   5.906   6.930
 4544SOL    HW214532   2.905   5.936   6.816
 4545SOL     OW14533   4.129   2.153   5.508
 4545SOL    HW114534   4.138   2.057   5.535
 4545SOL    HW214535   4.217   2.186   5.474
 4546SOL     OW14536   0.937   6.756   6.685
 4546SOL    HW114537   0.877   6.686   6.722
 4546SOL    HW214538   0.932   6.838   6.741
 4547SOL     OW14539   5.795   2.634   1.448
 4547SOL    HW114540   5.751   2.556   1.492
 4547SOL    HW214541   5.760   2.719   1.487
 4548SOL     OW14542   0.425   4.212   3.463
 4548SOL    HW114543   0.423   4.112   3.466
 4548SOL    HW214544   0.461   4.242   3.374
 4549SOL     OW14545   6.636   3.491   3.089
 4549SOL    HW114546   6.591   3.420   3.034
 4549SOL    HW214547   6.718   3.453   3.131
 4550SOL     OW14548   0.984   5.955   3.178
 4550SOL    HW114549   0.896   5.915   3.204
 4550SOL    HW214550   1.057   5.910   3.229
 4551SOL     OW14551   0.718   2.846   5.167
 4551SOL    HW114552   0.669   2.905   5.231
 4551SOL    HW214553   0.712   2.751   5.198
 4552SOL     OW14554   0.708   3.302   4.752
 4552SOL    HW114555   0.648   3.372   4.712
 4552SOL    HW214556   0.678   3.282   4.845
 4553SOL     OW14557   4.573   5.012   0.662
 4553SOL    HW114558   4.578   4.939   0.731
 4553SOL    HW214559   4.643   4.997   0.592
 4554SOL     OW14560   3.902   6.790   3.144
 4554SOL    HW114561   3.993   6.791   3.102
 4554SOL    HW214562   3.883   6.699   3.180
 4555SOL     OW14563   4.580   1.878   6.947
 4555SOL    HW114564   4.520   1.886   0.004
 4555SOL    HW214565   4.586   1.967   6.901
 4556SOL     OW14566   4.376   0.141   3.682
 4556SOL    HW114567   4.282   0.106   3.691
 4556SOL    HW214568   4.378   0.213   3.613
 4557SOL     OW14569   5.628   0.267   5.648
 4557SOL    HW114570   5.649   0.170   5.641
 4557SOL    HW214571   5.685   0.318   5.584
 4558SOL     OW14572   6.279   3.623   6.366
 4558SOL    HW114573   6.188   3.611   6.328
 4558SOL    HW214574   6.272   3.655   6.461
 4559SOL     OW14575   1.459   6.657   1.256
 4559SOL    HW114576   1.538   6.670   1.197
 4559SOL    HW214577   1.377   6.648   1.201
 4560SOL     OW14578   5.497   3.165   2.581
 4560SOL    HW114579   5.472   3.228   2.507
 4560SOL    HW214580   5.596   3.150   2.579
 4561SOL     OW14581   2.890   1.196   6.959
 4561SOL    HW114582   2.879   1.295   6.955
 4561SOL    HW214583   2.880   1.157   6.867
 4562SOL     OW14584   3.029   6.129   6.505
 4562SOL    HW114585   2.984   6.065   6.442
 4562SOL    HW214586   2.967   6.204   6.527
 4563SOL     OW14587   5.374   1.383   0.671
 4563SOL    HW114588   5.392   1.293   0.710
 4563SOL    HW214589   5.361   1.449   0.744
 4564SOL     OW14590   1.176   5.854   0.173
 4564SOL    HW114591   1.105   5.794   0.211
 4564SOL    HW214592   1.141   5.897   0.090
 4565SOL     OW14593   0.394   1.089   4.969
 4565SOL    HW114594   0.452   1.025   5.019
 4565SOL    HW214595   0.302   1.051   4.960
 4566SOL     OW14596   0.583   0.579   6.549
 4566SOL    HW114597   0.653   0.509   6.561
 4566SOL    HW214598   0.615   0.647   6.484
 4567SOL     OW14599   6.632   1.535   0.626
 4567SOL    HW114600   6.620   1.438   0.648
 4567SOL    HW214601   6.717   1.568   0.667
 4568SOL     OW14602   3.126   4.451   5.513
 4568SOL    HW114603   3.039   4.462   5.464
 4568SOL    HW214604   3.122   4.502   5.599
 4569SOL     OW14605   1.382   1.377   4.404
 4569SOL    HW114606   1.353   1.443   4.473
 4569SOL    HW214607   1.391   1.423   4.315
 4570SOL     OW14608   0.002   5.767   3.121
 4570SOL    HW114609   0.007   5.679   3.168
 4570SOL    HW214610   0.094   5.797   3.096
 4571SOL     OW14611   2.889   3.627   4.282
 4571SOL    HW114612   2.913   3.534   4.310
 4571SOL    HW214613   2.802   3.626   4.232
 4572SOL     OW14614   1.114   6.870   1.331
 4572SOL    HW114615   1.154   6.904   1.246
 4572SOL    HW214616   1.173   6.894   1.408
 4573SOL     OW14617   5.892   5.981   1.354
 4573SOL    HW114618   5.830   5.935   1.290
 4573SOL    HW214619   5.975   6.009   1.305
 4574SOL     OW14620   6.859   4.280   1.471
 4574SOL    HW114621   6.890   4.200   1.420
 4574SOL    HW214622   6.857   4.360   1.411
 4575SOL     OW14623   6.395   1.688   1.381
 4575SOL    HW114624   6.366   1.619   1.315
 4575SOL    HW214625   6.414   1.644   1.469
 4576SOL     OW14626   2.970   5.861   6.673
 4576SOL    HW114627   3.007   5.938   6.621
 4576SOL    HW214628   3.018   5.777   6.647
 4577SOL     OW14629   0.987   3.452   3.293
 4577SOL    HW114630   0.993   3.383   3.221
 4577SOL    HW214631   1.042   3.423   3.371
 4578SOL     OW14632   0.357   3.339   3.473
 4578SOL    HW114633   0.339   3.372   3.380
 4578SOL    HW214634   0.284   3.277   3.502
 4579SOL     OW14635   5.209   1.773   3.246
 4579SOL    HW114636   5.218   1.858   3.297
 4579SOL    HW214637   5.252   1.783   3.156
 4580SOL     OW14638   5.869   5.718   0.740
 4580SOL    HW114639   5.813   5.779   0.684
 4580SOL    HW214640   5.814   5.639   0.767
 4581SOL     OW14641   3.325   5.418   3.494
 4581SOL    HW114642   3.348   5.326   3.461
 4581SOL    HW214643   3.298   5.475   3.417
 4582SOL     OW14644   5.156   6.482   3.271
 4582SOL    HW114645   5.236   6.534   3.242
 4582SOL    HW214646   5.098   6.540   3.328
 4583SOL     OW14647   2.577   1.891   5.561
 4583SOL    HW114648   2.501   1.899   5.625
 4583SOL    HW214649   2.543   1.879   5.468
 4584SOL     OW14650   0.319   5.638   6.189
 4584SOL    HW114651   0.388   5.591   6.134
 4584SOL    HW214652   0.266   5.571   6.240
 4585SOL     OW14653   3.329   6.062   3.417
 4585SOL    HW114654   3.343   5.964   3.409
 4585SOL    HW214655   3.254   6.080   3.481
 4586SOL     OW14656   3.489   5.935   1.952
 4586SOL    HW114657   3.390   5.947   1.964
 4586SOL    HW214658   3.506   5.862   1.886
 4587SOL     OW14659   3.236   3.012   1.085
 4587SOL    HW114660   3.264   2.922   1.053
 4587SOL    HW214661   3.266   3.025   1.179
 4588SOL     OW14662   4.290   3.638   5.209
 4588SOL    HW114663   4.367   3.688   5.246
 4588SOL    HW214664   4.238   3.697   5.147
 4589SOL     OW14665   5.927   2.472   3.293
 4589SOL    HW114666   5.939   2.446   3.197
 4589SOL    HW214667   6.002   2.532   3.321
 4590SOL     OW14668   4.733   5.158   2.413
 4590SOL    HW114669   4.787   5.195   2.489
 4590SOL    HW214670   4.774   5.072   2.382
 4591SOL     OW14671   6.414   5.397   5.511
 4591SOL    HW114672   6.360   5.425   5.590
 4591SOL    HW214673   6.354   5.356   5.442
 4592SOL     OW14674   3.892   2.772   0.479
 4592SOL    HW114675   3.874   2.863   0.442
 4592SOL    HW214676   3.979   2.738   0.443
 4593SOL     OW14677   3.800   6.090   2.837
 4593SOL    HW114678   3.864   6.166   2.846
 4593SOL    HW214679   3.758   6.071   2.926
 4594SOL     OW14680   2.831   1.491   1.683
 4594SOL    HW114681   2.832   1.553   1.761
 4594SOL    HW214682   2.911   1.508   1.626
 4595SOL     OW14683   3.593   3.118   6.442
 4595SOL    HW114684   3.679   3.068   6.433
 4595SOL    HW214685   3.590   3.193   6.376
 4596SOL     OW14686   6.060   6.515   2.323
 4596SOL    HW114687   5.978   6.567   2.345
 4596SOL    HW214688   6.104   6.484   2.407
 4597SOL     OW14689   5.465   4.224   6.188
 4597SOL    HW114690   5.450   4.293   6.258
 4597SOL    HW214691   5.549   4.245   6.137
 4598SOL     OW14692   1.935   5.083   6.852
 4598SOL    HW114693   2.014   5.141   6.836
 4598SOL    HW214694   1.963   5.000   6.901
 4599SOL     OW14695   1.544   4.729   1.276
 4599SOL    HW114696   1.598   4.771   1.203
 4599SOL    HW214697   1.449   4.718   1.245
 4600SOL     OW14698   3.005   5.785   0.630
 4600SOL    HW114699   2.992   5.697   0.583
 4600SOL    HW214700   3.021   5.769   0.727
 4601SOL     OW14701   2.299   1.310   5.109
 4601SOL    HW114702   2.367   1.279   5.175
 4601SOL    HW214703   2.218   1.251   5.114
 4602SOL     OW14704   1.938   0.065   1.588
 4602SOL    HW114705   1.870   0.088   1.519
 4602SOL    HW214706   1.964   6.991   1.578
 4603SOL     OW14707   3.001   6.743   1.948
 4603SOL    HW114708   2.966   6.668   2.004
 4603SOL    HW214709   3.019   6.710   1.855
 4604SOL     OW14710   3.712   0.292   2.254
 4604SOL    HW114711   3.701   0.221   2.185
 4604SOL    HW214712   3.625   0.306   2.302
 4605SOL     OW14713   4.846   0.806   4.739
 4605SOL    HW114714   4.856   0.776   4.834
 4605SOL    HW214715   4.860   0.905   4.734
 4606SOL     OW14716   6.608   6.628   4.668
 4606SOL    HW114717   6.661   6.690   4.726
 4606SOL    HW214718   6.637   6.534   4.685
 4607SOL     OW14719   3.080   1.493   1.575
 4607SOL    HW114720   3.164   1.463   1.621
 4607SOL    HW214721   3.093   1.586   1.541
 4608SOL     OW14722   1.406   5.302   5.088
 4608SOL    HW114723   1.436   5.273   4.998
 4608SOL    HW214724   1.378   5.222   5.142
 4609SOL     OW14725   5.001   6.383   6.970
 4609SOL    HW114726   4.934   6.353   0.015
 4609SOL    HW214727   5.006   6.314   6.897
 4610SOL     OW14728   0.361   2.316   6.859
 4610SOL    HW114729   0.270   2.307   6.899
 4610SOL    HW214730   0.366   2.401   6.806
 4611SOL     OW14731   0.513   3.660   6.689
 4611SOL    HW114732   0.422   3.656   6.731
 4611SOL    HW214733   0.558   3.572   6.699
 4612SOL     OW14734   1.863   5.982   6.318
 4612SOL    HW114735   1.875   6.063   6.376
 4612SOL    HW214736   1.770   5.981   6.281
 4613SOL     OW14737   3.326   5.555   2.937
 4613SOL    HW114738   3.236   5.570   2.978
 4613SOL    HW214739   3.393   5.616   2.979
 4614SOL     OW14740   1.865   5.625   0.098
 4614SOL    HW114741   1.773   5.623   0.058
 4614SOL    HW214742   1.918   5.547   0.064
 4615SOL     OW14743   1.605   1.912   0.099
 4615SOL    HW114744   1.582   1.906   0.196
 4615SOL    HW214745   1.610   1.821   0.060
 4616SOL     OW14746   6.144   0.302   6.593
 4616SOL    HW114747   6.170   0.221   6.542
 4616SOL    HW214748   6.208   0.376   6.573
 4617SOL     OW14749   0.734   2.800   2.026
 4617SOL    HW114750   0.667   2.776   1.956
 4617SOL    HW214751   0.818   2.748   2.011
 4618SOL     OW14752   0.743   2.521   5.921
 4618SOL    HW114753   0.721   2.541   6.016
 4618SOL    HW214754   0.677   2.566   5.861
 4619SOL     OW14755   4.664   0.908   4.070
 4619SOL    HW114756   4.590   0.963   4.109
 4619SOL    HW214757   4.716   0.865   4.143
 4620SOL     OW14758   2.851   4.400   0.014
 4620SOL    HW114759   2.824   4.365   0.104
 4620SOL    HW214760   2.825   4.333   6.967
 4621SOL     OW14761   0.088   1.250   4.926
 4621SOL    HW114762   0.024   1.209   4.861
 4621SOL    HW214763   0.178   1.258   4.882
 4622SOL     OW14764   2.015   3.583   0.386
 4622SOL    HW114765   2.026   3.678   0.417
 4622SOL    HW214766   1.998   3.524   0.465
 4623SOL     OW14767   6.995   4.839   1.058
 4623SOL    HW114768   0.049   4.830   1.121
 4623SOL    HW214769   6.912   4.860   1.110
 4624SOL     OW14770   4.475   0.736   4.290
 4624SOL    HW114771   4.543   0.669   4.263
 4624SOL    HW214772   4.478   0.748   4.390
 4625SOL     OW14773   1.067   4.115   6.783
 4625SOL    HW114774   1.004   4.117   6.862
 4625SOL    HW214775   1.015   4.096   6.700
 4626SOL     OW14776   6.431   4.740   1.881
 4626SOL    HW114777   6.531   4.744   1.885
 4626SOL    HW214778   6.396   4.700   1.966
 4627SOL     OW14779   3.538   5.895   5.226
 4627SOL    HW114780   3.624   5.926   5.267
 4627SOL    HW214781   3.542   5.797   5.209
 4628SOL     OW14782   6.321   4.655   2.123
 4628SOL    HW114783   6.299   4.737   2.177
 4628SOL    HW214784   6.239   4.599   2.112
 4629SOL     OW14785   2.227   5.162   5.479
 4629SOL    HW114786   2.314   5.121   5.505
 4629SOL    HW214787   2.243   5.245   5.425
 4630SOL     OW14788   2.404   5.579   3.258
 4630SOL    HW114789   2.346   5.554   3.336
 4630SOL    HW214790   2.450   5.497   3.223
 4631SOL     OW14791   3.248   6.403   3.647
 4631SOL    HW114792   3.201   6.315   3.639
 4631SOL    HW214793   3.263   6.442   3.557
 4632SOL     OW14794   4.740   5.206   4.571
 4632SOL    HW114795   4.784   5.294   4.550
 4632SOL    HW214796   4.805   5.132   4.554
 4633SOL     OW14797   6.349   1.778   4.814
 4633SOL    HW114798   6.410   1.857   4.817
 4633SOL    HW214799   6.402   1.696   4.793
 4634SOL     OW14800   2.692   4.749   0.558
 4634SOL    HW114801   2.666   4.664   0.604
 4634SOL    HW214802   2.772   4.788   0.604
 4635SOL     OW14803   5.177   3.313   2.454
 4635SOL    HW114804   5.189   3.220   2.490
 4635SOL    HW214805   5.082   3.326   2.428
 4636SOL     OW14806   2.526   5.879   0.878
 4636SOL    HW114807   2.491   5.921   0.961
 4636SOL    HW214808   2.620   5.847   0.894
 4637SOL     OW14809   0.993   0.507   6.003
 4637SOL    HW114810   0.931   0.584   6.019
 4637SOL    HW214811   1.079   0.540   5.966
 4638SOL     OW14812   4.049   3.098   5.926
 4638SOL    HW114813   4.103   3.177   5.954
 4638SOL    HW214814   3.959   3.128   5.897
 4639SOL     OW14815   0.667   4.280   5.957
 4639SOL    HW114816   0.726   4.274   5.877
 4639SOL    HW214817   0.623   4.191   5.973
 4640SOL     OW14818   5.407   4.205   2.884
 4640SOL    HW114819   5.396   4.304   2.888
 4640SOL    HW214820   5.499   4.181   2.917
 4641SOL     OW14821   2.707   4.684   4.548
 4641SOL    HW114822   2.696   4.619   4.473
 4641SOL    HW214823   2.650   4.765   4.530
 4642SOL     OW14824   6.122   5.721   4.475
 4642SOL    HW114825   6.215   5.683   4.480
 4642SOL    HW214826   6.107   5.759   4.384
 4643SOL     OW14827   3.960   2.411   1.684
 4643SOL    HW114828   3.961   2.356   1.768
 4643SOL    HW214829   3.871   2.456   1.675
 4644SOL     OW14830   1.304   6.461   4.551
 4644SOL    HW114831   1.333   6.556   4.538
 4644SOL    HW214832   1.383   6.400   4.539
 4645SOL     OW14833   2.102   6.438   4.262
 4645SOL    HW114834   2.056   6.382   4.332
 4645SOL    HW214835   2.177   6.488   4.305
 4646SOL     OW14836   2.931   0.311   2.399
 4646SOL    HW114837   2.981   0.354   2.324
 4646SOL    HW214838   2.842   0.280   2.366
 4647SOL     OW14839   0.072   0.428   3.874
 4647SOL    HW114840   0.160   0.438   3.827
 4647SOL    HW214841   0.030   0.341   3.848
 4648SOL     OW14842   2.503   5.955   2.511
 4648SOL    HW114843   2.450   5.965   2.595
 4648SOL    HW214844   2.529   6.045   2.476
 4649SOL     OW14845   5.338   1.001   5.740
 4649SOL    HW114846   5.416   1.052   5.776
 4649SOL    HW214847   5.369   0.911   5.709
 4650SOL     OW14848   4.876   6.145   2.766
 4650SOL    HW114849   4.963   6.139   2.718
 4650SOL    HW214850   4.876   6.224   2.827
 4651SOL     OW14851   6.961   1.978   1.592
 4651SOL    HW114852   6.902   2.059   1.600
 4651SOL    HW214853   6.986   1.965   1.497
 4652SOL     OW14854   6.831   0.622   4.502
 4652SOL    HW114855   6.756   0.589   4.559
 4652SOL    HW214856   6.855   0.553   4.434
 4653SOL     OW14857   6.654   6.371   0.068
 4653SOL    HW114858   6.686   6.357   0.162
 4653SOL    HW214859   6.731   6.394   0.009
 4654SOL     OW14860   0.729   0.303   0.861
 4654SOL    HW114861   0.728   0.204   0.871
 4654SOL    HW214862   0.674   0.329   0.781
 4655SOL     OW14863   0.256   4.239   2.592
 4655SOL    HW114864   0.302   4.328   2.594
 4655SOL    HW214865   0.211   4.222   2.680
 4656SOL     OW14866   0.950   0.841   3.012
 4656SOL    HW114867   0.931   0.851   3.110
 4656SOL    HW214868   0.997   0.923   2.979
 4657SOL     OW14869   5.299   6.725   1.719
 4657SOL    HW114870   5.250   6.649   1.762
 4657SOL    HW214871   5.234   6.782   1.668
 4658SOL     OW14872   4.521   0.336   3.174
 4658SOL    HW114873   4.514   0.252   3.121
 4658SOL    HW214874   4.499   0.415   3.116
 4659SOL     OW14875   1.868   2.794   4.959
 4659SOL    HW114876   1.866   2.762   4.864
 4659SOL    HW214877   1.963   2.798   4.990
 4660SOL     OW14878   0.111   1.633   5.913
 4660SOL    HW114879   0.049   1.556   5.901
 4660SOL    HW214880   0.061   1.710   5.954
 4661SOL     OW14881   3.742   4.183   4.747
 4661SOL    HW114882   3.656   4.134   4.734
 4661SOL    HW214883   3.727   4.281   4.739
 4662SOL     OW14884   5.369   0.737   5.704
 4662SOL    HW114885   5.273   0.741   5.678
 4662SOL    HW214886   5.413   0.659   5.658
 4663SOL     OW14887   0.218   2.213   2.242
 4663SOL    HW114888   0.303   2.212   2.293
 4663SOL    HW214889   0.219   2.289   2.177
 4664SOL     OW14890   3.051   2.589   6.824
 4664SOL    HW114891   3.013   2.681   6.810
 4664SOL    HW214892   3.096   2.585   6.913
 4665SOL     OW14893   5.238   0.100   6.763
 4665SOL    HW114894   5.172   0.026   6.767
 4665SOL    HW214895   5.190   0.188   6.758
 4666SOL     OW14896   2.085   1.839   0.085
 4666SOL    HW114897   2.078   1.740   0.093
 4666SOL    HW214898   1.997   1.881   0.109
 4667SOL     OW14899   0.154   5.136   0.159
 4667SOL    HW114900   0.252   5.115   0.155
 4667SOL    HW214901   0.116   5.131   0.066
 4668SOL     OW14902   6.659   1.254   4.763
 4668SOL    HW114903   6.583   1.213   4.814
 4668SOL    HW214904   6.725   1.293   4.827
 4669SOL     OW14905   1.586   6.765   0.375
 4669SOL    HW114906   1.619   6.855   0.402
 4669SOL    HW214907   1.492   6.772   0.343
 4670SOL     OW14908   2.103   1.689   5.217
 4670SOL    HW114909   2.102   1.784   5.187
 4670SOL    HW214910   2.133   1.630   5.142
 4671SOL     OW14911   6.020   3.011   1.576
 4671SOL    HW114912   5.965   2.965   1.645
 4671SOL    HW214913   6.099   2.954   1.553
 4672SOL     OW14914   2.058   4.221   6.302
 4672SOL    HW114915   2.081   4.131   6.263
 4672SOL    HW214916   2.047   4.287   6.229
 4673SOL     OW14917   2.765   0.665   2.376
 4673SOL    HW114918   2.685   0.695   2.324
 4673SOL    HW214919   2.825   0.744   2.393
 4674SOL     OW14920   4.838   5.974   5.107
 4674SOL    HW114921   4.793   5.933   5.186
 4674SOL    HW214922   4.835   6.074   5.116
 4675SOL     OW14923   1.180   4.009   0.566
 4675SOL    HW114924   1.085   3.991   0.543
 4675SOL    HW214925   1.239   3.945   0.517
 4676SOL     OW14926   1.767   5.758   3.378
 4676SOL    HW114927   1.787   5.667   3.413
 4676SOL    HW214928   1.724   5.813   3.450
 4677SOL     OW14929   1.829   2.255   0.288
 4677SOL    HW114930   1.825   2.299   0.378
 4677SOL    HW214931   1.912   2.285   0.241
 4678SOL     OW14932   1.577   4.306   2.894
 4678SOL    HW114933   1.484   4.343   2.900
 4678SOL    HW214934   1.595   4.248   2.974
 4679SOL     OW14935   5.554   6.336   1.682
 4679SOL    HW114936   5.526   6.377   1.596
 4679SOL    HW214937   5.484   6.272   1.713
 4680SOL     OW14938   2.629   1.513   1.397
 4680SOL    HW114939   2.543   1.495   1.445
 4680SOL    HW214940   2.662   1.605   1.419
 4681SOL     OW14941   5.441   4.021   0.534
 4681SOL    HW114942   5.511   3.956   0.505
 4681SOL    HW214943   5.465   4.058   0.624
 4682SOL     OW14944   4.726   3.635   6.302
 4682SOL    HW114945   4.784   3.716   6.292
 4682SOL    HW214946   4.782   3.559   6.335
 4683SOL     OW14947   5.632   4.474   3.920
 4683SOL    HW114948   5.685   4.435   3.845
 4683SOL    HW214949   5.552   4.521   3.883
 4684SOL     OW14950   4.523   6.500   0.113
 4684SOL    HW114951   4.582   6.475   0.036
 4684SOL    HW214952   4.574   6.492   0.198
 4685SOL     OW14953   2.463   3.627   5.949
 4685SOL    HW114954   2.456   3.565   5.872
 4685SOL    HW214955   2.472   3.721   5.916
 4686SOL     OW14956   3.602   6.160   0.738
 4686SOL    HW114957   3.502   6.168   0.736
 4686SOL    HW214958   3.632   6.140   0.831
 4687SOL     OW14959   3.153   1.352   2.821
 4687SOL    HW114960   3.062   1.391   2.821
 4687SOL    HW214961   3.221   1.425   2.830
 4688SOL     OW14962   5.170   2.361   5.749
 4688SOL    HW114963   5.111   2.428   5.793
 4688SOL    HW214964   5.115   2.304   5.687
 4689SOL     OW14965   5.614   0.736   0.722
 4689SOL    HW114966   5.576   0.742   0.814
 4689SOL    HW214967   5.679   0.660   0.718
 4690SOL     OW14968   2.157   1.367   0.767
 4690SOL    HW114969   2.067   1.407   0.786
 4690SOL    HW214970   2.216   1.379   0.847
 4691SOL     OW14971   5.342   4.242   0.409
 4691SOL    HW114972   5.381   4.160   0.450
 4691SOL    HW214973   5.343   4.233   0.309
 4692SOL     OW14974   6.614   4.652   2.972
 4692SOL    HW114975   6.651   4.576   3.026
 4692SOL    HW214976   6.536   4.620   2.918
 4693SOL     OW14977   1.695   1.003   3.430
 4693SOL    HW114978   1.649   1.014   3.518
 4693SOL    HW214979   1.688   1.088   3.378
 4694SOL     OW14980   2.746   1.131   0.588
 4694SOL    HW114981   2.787   1.198   0.650
 4694SOL    HW214982   2.818   1.083   0.538
 4695SOL     OW14983   1.307   5.762   0.651
 4695SOL    HW114984   1.361   5.679   0.648
 4695SOL    HW214985   1.363   5.838   0.684
 4696SOL     OW14986   1.322   5.372   5.947
 4696SOL    HW114987   1.242   5.346   6.001
 4696SOL    HW214988   1.372   5.290   5.919
 4697SOL     OW14989   2.062   4.012   0.929
 4697SOL    HW114990   2.040   3.983   0.836
 4697SOL    HW214991   2.081   4.110   0.930
 4698SOL     OW14992   4.928   0.448   3.384
 4698SOL    HW114993   4.997   0.390   3.426
 4698SOL    HW214994   4.876   0.396   3.317
 4699SOL     OW14995   0.493   0.665   2.241
 4699SOL    HW114996   0.434   0.642   2.319
 4699SOL    HW214997   0.438   0.671   2.158
 4700SOL     OW14998   6.432   2.256   2.992
 4700SOL    HW114999   6.373   2.178   2.970
 4700SOL    HW215000   6.447   2.310   2.909
 4701SOL     OW15001   3.347   2.145   1.948
 4701SOL    HW115002   3.425   2.108   1.998
 4701SOL    HW215003   3.269   2.154   2.011
 4702SOL     OW15004   5.142   5.106   6.842
 4702SOL    HW115005   5.103   5.159   6.767
 4702SOL    HW215006   5.193   5.166   6.902
 4703SOL     OW15007   1.206   4.611   2.641
 4703SOL    HW115008   1.277   4.560   2.689
 4703SOL    HW215009   1.137   4.547   2.606
 4704SOL     OW15010   6.984   6.046   5.885
 4704SOL    HW115011   0.001   6.025   5.974
 4704SOL    HW215012   6.919   6.121   5.895
 4705SOL     OW15013   3.160   2.449   1.290
 4705SOL    HW115014   3.150   2.419   1.385
 4705SOL    HW215015   3.231   2.520   1.286
 4706SOL     OW15016   1.062   0.113   0.919
 4706SOL    HW115017   1.070   0.046   0.845
 4706SOL    HW215018   0.980   0.094   0.973
 4707SOL     OW15019   1.428   6.329   1.099
 4707SOL    HW115020   1.378   6.320   1.185
 4707SOL    HW215021   1.390   6.404   1.045
 4708SOL     OW15022   1.353   2.342   4.352
 4708SOL    HW115023   1.378   2.310   4.260
 4708SOL    HW215024   1.313   2.433   4.346
 4709SOL     OW15025   5.086   4.231   5.047
 4709SOL    HW115026   5.098   4.133   5.063
 4709SOL    HW215027   4.991   4.257   5.063
 4710SOL     OW15028   5.540   6.463   4.860
 4710SOL    HW115029   5.527   6.559   4.883
 4710SOL    HW215030   5.563   6.412   4.943
 4711SOL     OW15031   5.927   3.270   3.245
 4711SOL    HW115032   6.017   3.257   3.203
 4711SOL    HW215033   5.931   3.242   3.341
 4712SOL     OW15034   4.476   4.496   5.592
 4712SOL    HW115035   4.542   4.467   5.660
 4712SOL    HW215036   4.392   4.443   5.603
 4713SOL     OW15037   5.497   4.402   0.578
 4713SOL    HW115038   5.454   4.426   0.665
 4713SOL    HW215039   5.435   4.345   0.524
 4714SOL     OW15040   6.452   1.892   6.276
 4714SOL    HW115041   6.419   1.817   6.333
 4714SOL    HW215042   6.446   1.978   6.327
 4715SOL     OW15043   6.582   1.692   2.502
 4715SOL    HW115044   6.534   1.605   2.496
 4715SOL    HW215045   6.532   1.761   2.449
 4716SOL     OW15046   3.888   5.436   5.602
 4716SOL    HW115047   3.842   5.367   5.658
 4716SOL    HW215048   3.987   5.427   5.614
 4717SOL     OW15049   3.057   5.481   5.760
 4717SOL    HW115050   2.989   5.469   5.687
 4717SOL    HW215051   3.058   5.400   5.818
 4718SOL     OW15052   5.632   3.211   0.694
 4718SOL    HW115053   5.617   3.243   0.788
 4718SOL    HW215054   5.558   3.245   0.635
 4719SOL     OW15055   6.196   3.248   3.194
 4719SOL    HW115056   6.245   3.312   3.133
 4719SOL    HW215057   6.212   3.274   3.289
 4720SOL     OW15058   3.017   5.267   7.004
 4720SOL    HW115059   2.938   5.328   7.009
 4720SOL    HW215060   3.101   5.321   7.014
 4721SOL     OW15061   6.645   3.610   1.602
 4721SOL    HW115062   6.723   3.672   1.604
 4721SOL    HW215063   6.649   3.547   1.680
 4722SOL     OW15064   1.083   4.545   6.590
 4722SOL    HW115065   1.161   4.551   6.528
 4722SOL    HW215066   0.999   4.529   6.538
 4723SOL     OW15067   3.906   4.517   5.641
 4723SOL    HW115068   3.881   4.510   5.544
 4723SOL    HW215069   3.823   4.516   5.697
 4724SOL     OW15070   0.305   6.405   4.079
 4724SOL    HW115071   0.262   6.427   3.992
 4724SOL    HW215072   0.234   6.378   4.145
 4725SOL     OW15073   5.388   4.790   0.666
 4725SOL    HW115074   5.373   4.859   0.737
 4725SOL    HW215075   5.317   4.719   0.674
 4726SOL     OW15076   1.996   3.180   5.954
 4726SOL    HW115077   2.018   3.084   5.938
 4726SOL    HW215078   2.015   3.203   6.049
 4727SOL     OW15079   0.520   5.773   0.917
 4727SOL    HW115080   0.598   5.834   0.904
 4727SOL    HW215081   0.450   5.792   0.848
 4728SOL     OW15082   5.960   1.102   2.672
 4728SOL    HW115083   5.867   1.078   2.701
 4728SOL    HW215084   6.018   1.021   2.675
 4729SOL     OW15085   5.794   0.519   0.286
 4729SOL    HW115086   5.809   0.523   0.187
 4729SOL    HW215087   5.698   0.542   0.306
 4730SOL     OW15088   3.500   6.750   4.633
 4730SOL    HW115089   3.531   6.733   4.727
 4730SOL    HW215090   3.511   6.667   4.578
 4731SOL     OW15091   3.063   6.975   0.837
 4731SOL    HW115092   3.114   6.985   0.751
 4731SOL    HW215093   3.030   0.041   0.867
 4732SOL     OW15094   0.260   4.209   4.600
 4732SOL    HW115095   0.352   4.209   4.638
 4732SOL    HW215096   0.247   4.292   4.545
 4733SOL     OW15097   2.147   3.770   3.074
 4733SOL    HW115098   2.188   3.702   3.135
 4733SOL    HW215099   2.089   3.831   3.128
 4734SOL     OW15100   5.648   3.891   5.828
 4734SOL    HW115101   5.562   3.900   5.778
 4734SOL    HW215102   5.645   3.809   5.885
 4735SOL     OW15103   6.874   6.302   4.865
 4735SOL    HW115104   6.915   6.257   4.944
 4735SOL    HW215105   6.837   6.233   4.803
 4736SOL     OW15106   6.725   1.620   3.560
 4736SOL    HW115107   6.810   1.664   3.589
 4736SOL    HW215108   6.681   1.677   3.491
 4737SOL     OW15109   1.453   5.540   1.066
 4737SOL    HW115110   1.430   5.444   1.078
 4737SOL    HW215111   1.519   5.550   0.992
 4738SOL     OW15112   1.807   0.422   3.896
 4738SOL    HW115113   1.808   0.473   3.983
 4738SOL    HW215114   1.882   0.453   3.838
 4739SOL     OW15115   5.749   3.381   4.751
 4739SOL    HW115116   5.808   3.378   4.832
 4739SOL    HW215117   5.665   3.430   4.772
 4740SOL     OW15118   0.717   1.309   1.827
 4740SOL    HW115119   0.690   1.279   1.918
 4740SOL    HW215120   0.735   1.229   1.769
 4741SOL     OW15121   3.973   4.700   1.043
 4741SOL    HW115122   3.960   4.782   0.986
 4741SOL    HW215123   3.923   4.624   1.003
 4742SOL     OW15124   2.809   6.010   1.247
 4742SOL    HW115125   2.870   6.088   1.242
 4742SOL    HW215126   2.715   6.039   1.230
 4743SOL     OW15127   2.612   1.690   6.106
 4743SOL    HW115128   2.530   1.645   6.071
 4743SOL    HW215129   2.630   1.658   6.199
 4744SOL     OW15130   1.922   3.713   5.677
 4744SOL    HW115131   1.900   3.752   5.587
 4744SOL    HW215132   1.979   3.632   5.664
 4745SOL     OW15133   3.225   5.098   5.487
 4745SOL    HW115134   3.189   5.186   5.518
 4745SOL    HW215135   3.314   5.082   5.530
 4746SOL     OW15136   6.177   5.970   0.494
 4746SOL    HW115137   6.224   6.011   0.572
 4746SOL    HW215138   6.244   5.945   0.424
 4747SOL     OW15139   0.082   2.305   6.975
 4747SOL    HW115140   0.074   2.298   0.051
 4747SOL    HW215141   0.027   2.233   6.932
 4748SOL     OW15142   0.797   0.725   1.313
 4748SOL    HW115143   0.792   0.820   1.343
 4748SOL    HW215144   0.715   0.677   1.341
 4749SOL     OW15145   2.034   6.479   0.024
 4749SOL    HW115146   2.056   6.539   0.101
 4749SOL    HW215147   2.050   6.528   6.962
 4750SOL     OW15148   0.048   1.553   4.284
 4750SOL    HW115149   7.021   1.499   4.216
 4750SOL    HW215150   0.050   1.648   4.254
 4751SOL     OW15151   1.388   4.741   6.834
 4751SOL    HW115152   1.433   4.653   6.816
 4751SOL    HW215153   1.300   4.724   6.878
 4752SOL     OW15154   2.372   6.275   1.685
 4752SOL    HW115155   2.352   6.188   1.641
 4752SOL    HW215156   2.429   6.259   1.766
 4753SOL     OW15157   5.444   6.665   5.380
 4753SOL    HW115158   5.448   6.712   5.292
 4753SOL    HW215159   5.518   6.597   5.385
 4754SOL     OW15160   0.217   6.944   6.541
 4754SOL    HW115161   0.180   6.940   6.448
 4754SOL    HW215162   0.240   6.852   6.572
 4755SOL     OW15163   2.597   1.502   5.841
 4755SOL    HW115164   2.558   1.411   5.851
 4755SOL    HW215165   2.524   1.570   5.840
 4756SOL     OW15166   4.594   2.876   1.542
 4756SOL    HW115167   4.583   2.973   1.563
 4756SOL    HW215168   4.592   2.822   1.626
 4757SOL     OW15169   2.436   2.370   1.873
 4757SOL    HW115170   2.416   2.327   1.785
 4757SOL    HW215171   2.496   2.310   1.927
 4758SOL     OW15172   4.861   5.133   5.872
 4758SOL    HW115173   4.903   5.100   5.787
 4758SOL    HW215174   4.874   5.232   5.878
 4759SOL     OW15175   5.553   5.998   5.610
 4759SOL    HW115176   5.617   5.969   5.539
 4759SOL    HW215177   5.592   5.978   5.700
 4760SOL     OW15178   1.628   0.891   1.445
 4760SOL    HW115179   1.714   0.849   1.419
 4760SOL    HW215180   1.626   0.987   1.416
 4761SOL     OW15181   0.050   0.144   6.299
 4761SOL    HW115182   6.991   0.181   6.343
 4761SOL    HW215183   0.055   0.046   6.315
 4762SOL     OW15184   2.261   4.988   2.263
 4762SOL    HW115185   2.163   4.997   2.244
 4762SOL    HW215186   2.313   5.013   2.181
 4763SOL     OW15187   5.815   5.872   3.276
 4763SOL    HW115188   5.718   5.869   3.299
 4763SOL    HW215189   5.832   5.811   3.198
 4764SOL     OW15190   4.520   3.749   5.321
 4764SOL    HW115191   4.572   3.697   5.252
 4764SOL    HW215192   4.584   3.789   5.387
 4765SOL     OW15193   5.132   6.034   5.144
 4765SOL    HW115194   5.137   6.131   5.166
 4765SOL    HW215195   5.037   6.003   5.151
 4766SOL     OW15196   2.911   0.653   3.226
 4766SOL    HW115197   2.949   0.688   3.312
 4766SOL    HW215198   2.930   0.717   3.152
 4767SOL     OW15199   3.923   6.840   0.723
 4767SOL    HW115200   3.908   6.825   0.625
 4767SOL    HW215201   3.930   6.938   0.742
 4768SOL     OW15202   4.926   1.078   4.803
 4768SOL    HW115203   4.902   1.104   4.896
 4768SOL    HW215204   4.990   1.145   4.765
 4769SOL     OW15205   3.720   5.866   1.651
 4769SOL    HW115206   3.737   5.803   1.727
 4769SOL    HW215207   3.621   5.882   1.643
 4770SOL     OW15208   2.199   0.497   3.157
 4770SOL    HW115209   2.212   0.578   3.214
 4770SOL    HW215210   2.268   0.429   3.180
 4771SOL     OW15211   3.336   4.592   6.314
 4771SOL    HW115212   3.387   4.519   6.270
 4771SOL    HW215213   3.341   4.675   6.258
 4772SOL     OW15214   2.672   0.258   1.568
 4772SOL    HW115215   2.704   0.190   1.502
 4772SOL    HW215216   2.572   0.260   1.568
 4773SOL     OW15217   0.247   5.973   3.821
 4773SOL    HW115218   0.219   5.877   3.819
 4773SOL    HW215219   0.197   6.021   3.894
 4774SOL     OW15220   0.702   3.234   2.292
 4774SOL    HW115221   0.716   3.327   2.257
 4774SOL    HW215222   0.613   3.200   2.261
 4775SOL     OW15223   4.821   0.438   2.729
 4775SOL    HW115224   4.829   0.359   2.669
 4775SOL    HW215225   4.887   0.429   2.804
 4776SOL     OW15226   2.886   5.949   2.313
 4776SOL    HW115227   2.817   5.884   2.280
 4776SOL    HW215228   2.914   5.923   2.405
 4777SOL     OW15229   2.208   4.581   0.866
 4777SOL    HW115230   2.200   4.659   0.928
 4777SOL    HW215231   2.118   4.538   0.855
 4778SOL     OW15232   4.700   3.610   1.627
 4778SOL    HW115233   4.787   3.564   1.648
 4778SOL    HW215234   4.629   3.541   1.612
 4779SOL     OW15235   6.741   0.183   3.136
 4779SOL    HW115236   6.717   0.157   3.230
 4779SOL    HW215237   6.670   0.243   3.099
 4780SOL     OW15238   0.857   0.254   6.063
 4780SOL    HW115239   0.889   0.348   6.049
 4780SOL    HW215240   0.817   0.246   6.154
 4781SOL     OW15241   2.308   5.689   1.123
 4781SOL    HW115242   2.395   5.656   1.160
 4781SOL    HW215243   2.291   5.645   1.034
 4782SOL     OW15244   5.661   0.710   6.391
 4782SOL    HW115245   5.719   0.790   6.406
 4782SOL    HW215246   5.565   0.736   6.395
 4783SOL     OW15247   4.906   3.952   0.822
 4783SOL    HW115248   4.907   3.954   0.722
 4783SOL    HW215249   4.826   4.002   0.856
 4784SOL     OW15250   5.833   5.290   5.001
 4784SOL    HW115251   5.829   5.282   5.100
 4784SOL    HW215252   5.752   5.247   4.961
 4785SOL     OW15253   6.700   6.635   1.074
 4785SOL    HW115254   6.785   6.680   1.103
 4785SOL    HW215255   6.655   6.689   1.003
 4786SOL     OW15256   1.976   2.783   2.134
 4786SOL    HW115257   2.031   2.722   2.076
 4786SOL    HW215258   2.031   2.811   2.213
 4787SOL     OW15259   3.096   2.197   3.758
 4787SOL    HW115260   3.092   2.097   3.752
 4787SOL    HW215261   3.058   2.227   3.845
 4788SOL     OW15262   1.827   5.520   5.685
 4788SOL    HW115263   1.748   5.476   5.642
 4788SOL    HW215264   1.904   5.522   5.621
 4789SOL     OW15265   5.547   0.273   0.299
 4789SOL    HW115266   5.484   0.214   0.250
 4789SOL    HW215267   5.585   0.341   0.236
 4790SOL     OW15268   5.248   2.230   6.493
 4790SOL    HW115269   5.149   2.245   6.485
 4790SOL    HW215270   5.269   2.193   6.583
 4791SOL     OW15271   5.628   6.967   2.135
 4791SOL    HW115272   5.701   0.011   2.151
 4791SOL    HW215273   5.556   6.978   2.203
 4792SOL     OW15274   2.277   2.748   2.923
 4792SOL    HW115275   2.320   2.663   2.953
 4792SOL    HW215276   2.272   2.750   2.823
 4793SOL     OW15277   1.439   0.013   5.652
 4793SOL    HW115278   1.513   0.005   5.586
 4793SOL    HW215279   1.476   0.033   5.743
 4794SOL     OW15280   2.977   6.435   3.019
 4794SOL    HW115281   2.897   6.488   2.991
 4794SOL    HW215282   3.058   6.469   2.970
 4795SOL     OW15283   6.275   3.172   4.510
 4795SOL    HW115284   6.230   3.150   4.423
 4795SOL    HW215285   6.221   3.136   4.585
 4796SOL     OW15286   5.293   3.369   0.271
 4796SOL    HW115287   5.197   3.364   0.299
 4796SOL    HW215288   5.302   3.431   0.193
 4797SOL     OW15289   1.000   5.173   5.852
 4797SOL    HW115290   1.048   5.222   5.779
 4797SOL    HW215291   1.057   5.173   5.935
 4798SOL     OW15292   0.265   4.601   4.216
 4798SOL    HW115293   0.315   4.566   4.137
 4798SOL    HW215294   0.179   4.642   4.185
 4799SOL     OW15295   5.158   1.322   5.129
 4799SOL    HW115296   5.209   1.237   5.124
 4799SOL    HW215297   5.107   1.326   5.215
 4800SOL     OW15298   2.620   2.881   5.899
 4800SOL    HW115299   2.712   2.914   5.880
 4800SOL    HW215300   2.575   2.855   5.813
 4801SOL     OW15301   1.514   1.644   0.442
 4801SOL    HW115302   1.472   1.731   0.418
 4801SOL    HW215303   1.528   1.640   0.541
 4802SOL     OW15304   2.722   6.626   1.773
 4802SOL    HW115305   2.772   6.706   1.807
 4802SOL    HW215306   2.776   6.544   1.786
 4803SOL     OW15307   0.713   0.014   0.859
 4803SOL    HW115308   0.700   6.971   0.932
 4803SOL    HW215309   0.630   0.019   0.803
 4804SOL     OW15310   4.354   5.467   6.619
 4804SOL    HW115311   4.447   5.433   6.606
 4804SOL    HW215312   4.357   5.557   6.663
 4805SOL     OW15313   6.572   0.600   0.171
 4805SOL    HW115314   6.501   0.561   0.229
 4805SOL    HW215315   6.562   0.700   0.169
 4806SOL     OW15316   0.137   4.234   2.843
 4806SOL    HW115317   0.045   4.213   2.875
 4806SOL    HW215318   0.203   4.216   2.916
 4807SOL     OW15319   0.781   5.739   1.768
 4807SOL    HW115320   0.806   5.789   1.685
 4807SOL    HW215321   0.863   5.719   1.821
 4808SOL     OW15322   5.473   3.382   1.191
 4808SOL    HW115323   5.494   3.317   1.118
 4808SOL    HW215324   5.374   3.379   1.210
 4809SOL     OW15325   2.957   5.045   6.871
 4809SOL    HW115326   2.993   5.130   6.910
 4809SOL    HW215327   3.020   4.970   6.889
 4810SOL     OW15328   0.522   5.510   1.602
 4810SOL    HW115329   0.560   5.594   1.563
 4810SOL    HW215330   0.479   5.532   1.690
 4811SOL     OW15331   3.233   5.047   2.174
 4811SOL    HW115332   3.306   5.038   2.106
 4811SOL    HW215333   3.152   4.996   2.143
 4812SOL     OW15334   6.982   5.411   4.279
 4812SOL    HW115335   7.004   5.495   4.328
 4812SOL    HW215336   6.883   5.405   4.266
 4813SOL     OW15337   5.056   1.644   2.317
 4813SOL    HW115338   4.988   1.718   2.311
 4813SOL    HW215339   5.083   1.631   2.412
 4814SOL     OW15340   6.876   3.944   0.701
 4814SOL    HW115341   6.802   3.901   0.752
 4814SOL    HW215342   6.955   3.957   0.762
 4815SOL     OW15343   4.920   5.251   1.827
 4815SOL    HW115344   5.011   5.237   1.865
 4815SOL    HW215345   4.895   5.348   1.833
 4816SOL     OW15346   5.295   5.663   2.450
 4816SOL    HW115347   5.204   5.700   2.434
 4816SOL    HW215348   5.289   5.563   2.456
 4817SOL     OW15349   0.979   2.133   5.585
 4817SOL    HW115350   0.937   2.222   5.572
 4817SOL    HW215351   1.013   2.099   5.497
 4818SOL     OW15352   6.993   0.195   3.766
 4818SOL    HW115353   6.900   0.194   3.802
 4818SOL    HW215354   0.002   0.102   3.754
 4819SOL     OW15355   1.611   3.265   7.017
 4819SOL    HW115356   1.598   3.172   6.983
 4819SOL    HW215357   1.705   3.276   0.026
 4820SOL     OW15358   0.305   3.580   1.613
 4820SOL    HW115359   0.334   3.556   1.706
 4820SOL    HW215360   0.285   3.678   1.609
 4821SOL     OW15361   0.099   6.098   2.177
 4821SOL    HW115362   0.059   6.177   2.130
 4821SOL    HW215363   0.199   6.105   2.177
 4822SOL     OW15364   0.885   3.986   4.122
 4822SOL    HW115365   0.804   3.940   4.158
 4822SOL    HW215366   0.900   3.957   4.027
 4823SOL     OW15367   1.403   3.112   2.245
 4823SOL    HW115368   1.482   3.171   2.262
 4823SOL    HW215369   1.433   3.017   2.236
 4824SOL     OW15370   5.384   0.528   5.097
 4824SOL    HW115371   5.356   0.576   5.180
 4824SOL    HW215372   5.316   0.544   5.025
 4825SOL     OW15373   1.534   0.256   4.617
 4825SOL    HW115374   1.607   0.232   4.682
 4825SOL    HW215375   1.576   0.287   4.532
 4826SOL     OW15376   4.597   0.049   1.656
 4826SOL    HW115377   4.638   0.140   1.640
 4826SOL    HW215378   4.515   0.059   1.711
 4827SOL     OW15379   0.089   2.025   0.500
 4827SOL    HW115380   0.101   2.073   0.413
 4827SOL    HW215381   0.033   2.082   0.561
 4828SOL     OW15382   4.573   6.812   2.779
 4828SOL    HW115383   4.579   6.814   2.879
 4828SOL    HW215384   4.593   6.903   2.743
 4829SOL     OW15385   4.228   0.203   5.970
 4829SOL    HW115386   4.215   0.275   6.037
 4829SOL    HW215387   4.314   0.156   5.988
 4830SOL     OW15388   3.476   5.472   3.724
 4830SOL    HW115389   3.542   5.401   3.746
 4830SOL    HW215390   3.428   5.449   3.639
 4831SOL     OW15391   3.530   5.359   6.266
 4831SOL    HW115392   3.616   5.339   6.219
 4831SOL    HW215393   3.526   5.456   6.288
 4832SOL     OW15394   2.975   3.464   4.778
 4832SOL    HW115395   2.890   3.469   4.726
 4832SOL    HW215396   3.008   3.557   4.795
 4833SOL     OW15397   5.942   2.989   4.488
 4833SOL    HW115398   5.974   3.054   4.420
 4833SOL    HW215399   5.921   3.037   4.573
 4834SOL     OW15400   2.160   5.519   2.287
 4834SOL    HW115401   2.156   5.618   2.300
 4834SOL    HW215402   2.140   5.497   2.191
 4835SOL     OW15403   6.571   3.169   5.300
 4835SOL    HW115404   6.642   3.239   5.312
 4835SOL    HW215405   6.516   3.163   5.383
 4836SOL     OW15406   5.011   0.638   5.285
 4836SOL    HW115407   4.964   0.556   5.316
 4836SOL    HW215408   4.970   0.670   5.199
 4837SOL     OW15409   6.792   3.069   4.200
 4837SOL    HW115410   6.787   3.016   4.115
 4837SOL    HW215411   6.802   3.007   4.277
 4838SOL     OW15412   1.174   4.508   6.136
 4838SOL    HW115413   1.240   4.556   6.079
 4838SOL    HW215414   1.081   4.529   6.107
 4839SOL     OW15415   2.218   2.251   0.894
 4839SOL    HW115416   2.187   2.185   0.826
 4839SOL    HW215417   2.315   2.238   0.911
 4840SOL     OW15418   4.956   3.774   5.154
 4840SOL    HW115419   4.903   3.769   5.239
 4840SOL    HW215420   4.912   3.719   5.083
 4841SOL     OW15421   2.861   5.027   3.427
 4841SOL    HW115422   2.779   4.995   3.378
 4841SOL    HW215423   2.842   5.116   3.468
 4842SOL     OW15424   2.646   5.087   2.848
 4842SOL    HW115425   2.649   4.998   2.802
 4842SOL    HW215426   2.728   5.098   2.905
 4843SOL     OW15427   0.177   2.564   2.206
 4843SOL    HW115428   0.219   2.648   2.240
 4843SOL    HW215429   0.128   2.519   2.281
 4844SOL     OW15430   1.322   5.512   5.236
 4844SOL    HW115431   1.357   5.464   5.155
 4844SOL    HW215432   1.336   5.611   5.225
 4845SOL     OW15433   4.715   4.390   5.366
 4845SOL    HW115434   4.648   4.425   5.301
 4845SOL    HW215435   4.785   4.459   5.383
 4846SOL     OW15436   0.124   3.260   4.545
 4846SOL    HW115437   0.030   3.293   4.557
 4846SOL    HW215438   0.175   3.324   4.488
 4847SOL     OW15439   2.642   6.368   5.974
 4847SOL    HW115440   2.660   6.419   5.890
 4847SOL    HW215441   2.558   6.402   6.017
 4848SOL     OW15442   2.597   0.547   4.250
 4848SOL    HW115443   2.624   0.598   4.332
 4848SOL    HW215444   2.513   0.496   4.269
 4849SOL     OW15445   2.095   6.898   0.937
 4849SOL    HW115446   2.127   6.975   0.994
 4849SOL    HW215447   2.157   6.820   0.950
 4850SOL     OW15448   4.745   0.793   0.639
 4850SOL    HW115449   4.731   0.767   0.543
 4850SOL    HW215450   4.802   0.725   0.684
 4851SOL     OW15451   3.334   5.987   6.803
 4851SOL    HW115452   3.314   6.066   6.745
 4851SOL    HW215453   3.401   6.013   6.872
 4852SOL     OW15454   4.541   5.400   5.194
 4852SOL    HW115455   4.629   5.369   5.230
 4852SOL    HW215456   4.486   5.321   5.167
 4853SOL     OW15457   3.758   0.922   3.055
 4853SOL    HW115458   3.837   0.879   3.011
 4853SOL    HW215459   3.787   1.005   3.103
 4854SOL     OW15460   6.271   6.268   1.330
 4854SOL    HW115461   6.370   6.277   1.327
 4854SOL    HW215462   6.247   6.175   1.357
 4855SOL     OW15463   6.612   4.721   4.437
 4855SOL    HW115464   6.557   4.752   4.515
 4855SOL    HW215465   6.700   4.769   4.437
 4856SOL     OW15466   0.311   3.888   2.807
 4856SOL    HW115467   0.220   3.918   2.777
 4856SOL    HW215468   0.357   3.842   2.731
 4857SOL     OW15469   2.953   2.218   4.022
 4857SOL    HW115470   2.999   2.186   4.105
 4857SOL    HW215471   2.872   2.271   4.047
 4858SOL     OW15472   0.407   6.217   4.665
 4858SOL    HW115473   0.458   6.137   4.633
 4858SOL    HW215474   0.338   6.188   4.731
 4859SOL     OW15475   0.642   5.694   2.014
 4859SOL    HW115476   0.672   5.600   2.030
 4859SOL    HW215477   0.667   5.722   1.921
 4860SOL     OW15478   5.327   5.816   0.963
 4860SOL    HW115479   5.375   5.861   0.888
 4860SOL    HW215480   5.250   5.872   0.992
 4861SOL     OW15481   0.277   4.921   6.613
 4861SOL    HW115482   0.193   4.868   6.600
 4861SOL    HW215483   0.356   4.861   6.605
 4862SOL     OW15484   2.723   4.732   5.260
 4862SOL    HW115485   2.795   4.711   5.194
 4862SOL    HW215486   2.759   4.719   5.353
 4863SOL     OW15487   4.520   2.558   3.468
 4863SOL    HW115488   4.435   2.596   3.431
 4863SOL    HW215489   4.535   2.467   3.429
 4864SOL     OW15490   3.135   0.995   2.171
 4864SOL    HW115491   3.186   0.991   2.257
 4864SOL    HW215492   3.189   0.956   2.098
 4865SOL     OW15493   3.996   5.677   5.477
 4865SOL    HW115494   3.941   5.604   5.518
 4865SOL    HW215495   4.039   5.643   5.393
 4866SOL     OW15496   5.930   4.746   2.044
 4866SOL    HW115497   5.992   4.679   2.084
 4866SOL    HW215498   5.950   4.757   1.946
 4867SOL     OW15499   5.029   5.680   2.356
 4867SOL    HW115500   4.970   5.759   2.373
 4867SOL    HW215501   4.993   5.628   2.278
 4868SOL     OW15502   0.331   5.682   1.135
 4868SOL    HW115503   0.241   5.721   1.115
 4868SOL    HW215504   0.391   5.693   1.056
 4869SOL     OW15505   6.993   1.537   6.971
 4869SOL    HW115506   6.945   1.458   7.008
 4869SOL    HW215507   0.062   1.510   6.943
 4870SOL     OW15508   4.737   6.550   1.835
 4870SOL    HW115509   4.754   6.581   1.928
 4870SOL    HW215510   4.648   6.585   1.805
 4871SOL     OW15511   1.391   2.699   3.966
 4871SOL    HW115512   1.420   2.720   3.872
 4871SOL    HW215513   1.353   2.607   3.969
 4872SOL     OW15514   1.124   0.052   2.627
 4872SOL    HW115515   1.131   0.088   2.720
 4872SOL    HW215516   1.119   0.127   2.561
 4873SOL     OW15517   6.856   5.698   4.856
 4873SOL    HW115518   6.908   5.698   4.942
 4873SOL    HW215519   6.770   5.746   4.869
 4874SOL     OW15520   5.581   3.600   2.911
 4874SOL    HW115521   5.631   3.527   2.863
 4874SOL    HW215522   5.497   3.562   2.950
 4875SOL     OW15523   5.368   1.607   1.249
 4875SOL    HW115524   5.353   1.514   1.215
 4875SOL    HW215525   5.280   1.652   1.261
 4876SOL     OW15526   0.265   1.786   0.117
 4876SOL    HW115527   0.303   1.703   0.159
 4876SOL    HW215528   0.287   1.786   0.020
 4877SOL     OW15529   6.249   1.231   1.359
 4877SOL    HW115530   6.289   1.297   1.423
 4877SOL    HW215531   6.150   1.241   1.359
 4878SOL     OW15532   6.813   1.575   1.803
 4878SOL    HW115533   6.839   1.604   1.711
 4878SOL    HW215534   6.827   1.650   1.867
 4879SOL     OW15535   4.424   5.105   3.381
 4879SOL    HW115536   4.347   5.050   3.352
 4879SOL    HW215537   4.470   5.061   3.458
 4880SOL     OW15538   5.651   1.608   6.725
 4880SOL    HW115539   5.682   1.513   6.735
 4880SOL    HW215540   5.573   1.623   6.787
 4881SOL     OW15541   3.208   6.492   6.389
 4881SOL    HW115542   3.194   6.578   6.439
 4881SOL    HW215543   3.121   6.442   6.386
 4882SOL     OW15544   5.704   1.068   5.304
 4882SOL    HW115545   5.660   1.107   5.385
 4882SOL    HW215546   5.655   0.986   5.274
 4883SOL     OW15547   6.525   4.348   1.937
 4883SOL    HW115548   6.622   4.366   1.924
 4883SOL    HW215549   6.500   4.370   2.031
 4884SOL     OW15550   3.553   6.373   2.032
 4884SOL    HW115551   3.492   6.390   2.110
 4884SOL    HW215552   3.648   6.389   2.060
 4885SOL     OW15553   2.063   0.244   0.966
 4885SOL    HW115554   2.059   0.326   1.023
 4885SOL    HW215555   2.139   0.187   0.995
 4886SOL     OW15556   6.440   0.480   6.968
 4886SOL    HW115557   6.483   0.541   0.011
 4886SOL    HW215558   6.481   0.494   6.878
 4887SOL     OW15559   0.201   1.958   3.823
 4887SOL    HW115560   0.194   1.862   3.798
 4887SOL    HW215561   0.140   2.012   3.766
 4888SOL     OW15562   2.364   5.939   2.766
 4888SOL    HW115563   2.272   5.917   2.735
 4888SOL    HW215564   2.379   5.901   2.857
 4889SOL     OW15565   1.063   1.874   0.199
 4889SOL    HW115566   1.067   1.941   0.274
 4889SOL    HW215567   1.104   1.914   0.117
 4890SOL     OW15568   0.929   0.816   4.569
 4890SOL    HW115569   0.842   0.856   4.599
 4890SOL    HW215570   0.997   0.827   4.641
 4891SOL     OW15571   0.793   5.146   0.474
 4891SOL    HW115572   0.712   5.090   0.457
 4891SOL    HW215573   0.856   5.097   0.535
 4892SOL     OW15574   0.867   5.826   1.532
 4892SOL    HW115575   0.841   5.901   1.472
 4892SOL    HW215576   0.844   5.739   1.489
 4893SOL     OW15577   0.424   3.589   6.437
 4893SOL    HW115578   0.505   3.562   6.386
 4893SOL    HW215579   0.449   3.618   6.529
 4894SOL     OW15580   2.447   0.866   3.543
 4894SOL    HW115581   2.530   0.891   3.495
 4894SOL    HW215582   2.463   0.870   3.642
 4895SOL     OW15583   1.069   3.060   0.279
 4895SOL    HW115584   1.076   3.094   0.373
 4895SOL    HW215585   1.161   3.049   0.240
 4896SOL     OW15586   3.704   4.970   5.123
 4896SOL    HW115587   3.710   4.973   5.023
 4896SOL    HW215588   3.608   4.965   5.151
 4897SOL     OW15589   3.417   5.549   0.294
 4897SOL    HW115590   3.398   5.459   0.253
 4897SOL    HW215591   3.443   5.613   0.223
 4898SOL     OW15592   4.987   1.346   5.668
 4898SOL    HW115593   5.025   1.261   5.631
 4898SOL    HW215594   5.061   1.405   5.699
 4899SOL     OW15595   5.953   4.601   3.759
 4899SOL    HW115596   6.041   4.564   3.731
 4899SOL    HW215597   5.888   4.526   3.775
 4900SOL     OW15598   0.673   6.741   5.882
 4900SOL    HW115599   0.612   6.820   5.891
 4900SOL    HW215600   0.768   6.772   5.883
 4901SOL     OW15601   0.725   6.562   3.960
 4901SOL    HW115602   0.698   6.487   4.021
 4901SOL    HW215603   0.680   6.550   3.872
 4902SOL     OW15604   2.801   4.887   1.529
 4902SOL    HW115605   2.743   4.824   1.476
 4902SOL    HW215606   2.782   4.875   1.627
 4903SOL     OW15607   4.866   0.207   6.722
 4903SOL    HW115608   4.876   0.120   6.770
 4903SOL    HW215609   4.817   0.192   6.636
 4904SOL     OW15610   2.592   6.195   4.253
 4904SOL    HW115611   2.524   6.146   4.308
 4904SOL    HW215612   2.565   6.291   4.246
 4905SOL     OW15613   4.794   3.171   1.727
 4905SOL    HW115614   4.760   3.101   1.790
 4905SOL    HW215615   4.743   3.165   1.640
 4906SOL     OW15616   5.170   0.248   0.328
 4906SOL    HW115617   5.080   0.203   0.325
 4906SOL    HW215618   5.242   0.178   0.321
 4907SOL     OW15619   3.982   0.629   3.540
 4907SOL    HW115620   3.992   0.635   3.441
 4907SOL    HW215621   4.018   0.542   3.572
 4908SOL     OW15622   3.487   6.357   6.658
 4908SOL    HW115623   3.496   6.293   6.734
 4908SOL    HW215624   3.459   6.446   6.693
 4909SOL     OW15625   6.792   6.379   5.317
 4909SOL    HW115626   6.800   6.364   5.218
 4909SOL    HW215627   6.702   6.347   5.347
 4910SOL     OW15628   5.072   0.278   5.007
 4910SOL    HW115629   5.144   0.280   4.938
 4910SOL    HW215630   4.987   0.243   4.966
 4911SOL     OW15631   6.635   2.585   5.748
 4911SOL    HW115632   6.672   2.499   5.783
 4911SOL    HW215633   6.710   2.651   5.736
 4912SOL     OW15634   3.897   1.793   2.263
 4912SOL    HW115635   3.875   1.860   2.334
 4912SOL    HW215636   3.990   1.810   2.229
 4913SOL     OW15637   3.544   3.983   3.414
 4913SOL    HW115638   3.550   3.960   3.317
 4913SOL    HW215639   3.466   3.936   3.455
 4914SOL     OW15640   2.480   6.562   3.621
 4914SOL    HW115641   2.544   6.518   3.559
 4914SOL    HW215642   2.446   6.496   3.687
 4915SOL     OW15643   3.996   6.067   3.722
 4915SOL    HW115644   3.953   5.977   3.713
 4915SOL    HW215645   3.992   6.114   3.634
 4916SOL     OW15646   2.421   2.055   3.242
 4916SOL    HW115647   2.480   2.125   3.282
 4916SOL    HW215648   2.430   1.971   3.295
 4917SOL     OW15649   2.052   4.802   0.728
 4917SOL    HW115650   1.957   4.835   0.728
 4917SOL    HW215651   2.086   4.803   0.822
 4918SOL     OW15652   2.215   0.026   2.141
 4918SOL    HW115653   2.145   6.984   2.116
 4918SOL    HW215654   2.222   0.097   2.071
 4919SOL     OW15655   2.025   2.976   1.940
 4919SOL    HW115656   1.965   3.056   1.938
 4919SOL    HW215657   2.004   2.919   2.019
 4920SOL     OW15658   4.149   0.653   0.774
 4920SOL    HW115659   4.105   0.601   0.847
 4920SOL    HW215660   4.241   0.617   0.759
 4921SOL     OW15661   1.708   4.286   1.849
 4921SOL    HW115662   1.757   4.372   1.835
 4921SOL    HW215663   1.626   4.284   1.792
 4922SOL     OW15664   1.767   3.024   5.243
 4922SOL    HW115665   1.851   3.066   5.207
 4922SOL    HW215666   1.700   3.018   5.169
 4923SOL     OW15667   4.854   0.217   1.671
 4923SOL    HW115668   4.925   0.282   1.645
 4923SOL    HW215669   4.781   0.218   1.603
 4924SOL     OW15670   0.702   4.166   4.994
 4924SOL    HW115671   0.695   4.112   4.910
 4924SOL    HW215672   0.611   4.190   5.026
 4925SOL     OW15673   5.220   6.403   0.368
 4925SOL    HW115674   5.237   6.423   0.271
 4925SOL    HW215675   5.267   6.471   0.424
 4926SOL     OW15676   4.689   2.544   1.945
 4926SOL    HW115677   4.633   2.510   2.021
 4926SOL    HW215678   4.779   2.501   1.949
 4927SOL     OW15679   3.073   3.124   3.085
 4927SOL    HW115680   3.064   3.092   3.180
 4927SOL    HW215681   3.038   3.217   3.078
 4928SOL     OW15682   0.677   6.387   6.962
 4928SOL    HW115683   0.584   6.381   6.998
 4928SOL    HW215684   0.724   6.465   7.004
 4929SOL     OW15685   1.081   5.145   4.261
 4929SOL    HW115686   1.166   5.198   4.257
 4929SOL    HW215687   1.039   5.156   4.351
 4930SOL     OW15688   0.658   1.962   0.803
 4930SOL    HW115689   0.591   2.036   0.795
 4930SOL    HW215690   0.622   1.880   0.760
 4931SOL     OW15691   0.097   0.564   0.005
 4931SOL    HW115692   0.005   0.589   0.034
 4931SOL    HW215693   0.124   0.621   6.950
 4932SOL     OW15694   2.688   1.989   1.262
 4932SOL    HW115695   2.692   2.088   1.248
 4932SOL    HW215696   2.641   1.946   1.185
 4933SOL     OW15697   2.834   0.990   3.902
 4933SOL    HW115698   2.816   1.078   3.856
 4933SOL    HW215699   2.850   0.919   3.833
 4934SOL     OW15700   0.893   6.019   4.267
 4934SOL    HW115701   0.839   6.039   4.185
 4934SOL    HW215702   0.854   6.069   4.345
 4935SOL     OW15703   1.513   1.321   0.021
 4935SOL    HW115704   1.580   1.249   0.038
 4935SOL    HW215705   1.424   1.279   0.002
 4936SOL     OW15706   3.950   5.619   1.274
 4936SOL    HW115707   4.024   5.660   1.328
 4936SOL    HW215708   3.875   5.684   1.264
 4937SOL     OW15709   0.367   2.474   5.844
 4937SOL    HW115710   0.300   2.481   5.770
 4937SOL    HW215711   0.431   2.551   5.840
 4938SOL     OW15712   3.349   4.450   1.495
 4938SOL    HW115713   3.420   4.501   1.543
 4938SOL    HW215714   3.260   4.492   1.514
 4939SOL     OW15715   1.826   2.033   1.302
 4939SOL    HW115716   1.853   2.079   1.218
 4939SOL    HW215717   1.726   2.025   1.305
 4940SOL     OW15718   0.165   3.093   4.035
 4940SOL    HW115719   0.215   3.058   4.114
 4940SOL    HW215720   0.225   3.093   3.955
 4941SOL     OW15721   3.904   2.423   5.349
 4941SOL    HW115722   3.854   2.488   5.406
 4941SOL    HW215723   3.968   2.473   5.291
 4942SOL     OW15724   5.378   2.311   3.405
 4942SOL    HW115725   5.458   2.368   3.418
 4942SOL    HW215726   5.406   2.215   3.399
 4943SOL     OW15727   5.355   2.928   6.526
 4943SOL    HW115728   5.445   2.970   6.513
 4943SOL    HW215729   5.291   2.998   6.559
 4944SOL     OW15730   1.291   5.517   1.290
 4944SOL    HW115731   1.367   5.521   1.225
 4944SOL    HW215732   1.327   5.526   1.383
 4945SOL     OW15733   2.034   1.172   5.187
 4945SOL    HW115734   2.105   1.133   5.246
 4945SOL    HW215735   1.988   1.246   5.235
 4946SOL     OW15736   1.687   5.354   0.191
 4946SOL    HW115737   1.697   5.255   0.205
 4946SOL    HW215738   1.763   5.388   0.137
 4947SOL     OW15739   1.917   0.858   1.931
 4947SOL    HW115740   1.987   0.834   1.863
 4947SOL    HW215741   1.859   0.778   1.948
 4948SOL     OW15742   1.700   2.520   1.592
 4948SOL    HW115743   1.635   2.543   1.519
 4948SOL    HW215744   1.661   2.448   1.649
 4949SOL     OW15745   6.701   3.324   6.575
 4949SOL    HW115746   6.782   3.368   6.614
 4949SOL    HW215747   6.626   3.328   6.640
 4950SOL     OW15748   2.277   4.536   5.423
 4950SOL    HW115749   2.254   4.440   5.406
 4950SOL    HW215750   2.356   4.561   5.366
 4951SOL     OW15751   5.199   5.592   3.944
 4951SOL    HW115752   5.202   5.525   4.018
 4951SOL    HW215753   5.176   5.545   3.858
 4952SOL     OW15754   0.566   7.009   5.952
 4952SOL    HW115755   0.637   0.056   5.948
 4952SOL    HW215756   0.501   0.009   6.024
 4953SOL     OW15757   1.056   2.244   4.934
 4953SOL    HW115758   1.054   2.344   4.925
 4953SOL    HW215759   1.135   2.207   4.884
 4954SOL     OW15760   3.078   4.014   5.048
 4954SOL    HW115761   2.997   3.955   5.041
 4954SOL    HW215762   3.055   4.094   5.102
 4955SOL     OW15763   3.049   6.201   0.232
 4955SOL    HW115764   3.009   6.271   0.290
 4955SOL    HW215765   3.089   6.129   0.290
 4956SOL     OW15766   2.169   0.337   4.972
 4956SOL    HW115767   2.150   0.311   5.067
 4956SOL    HW215768   2.268   0.331   4.955
 4957SOL     OW15769   6.495   3.972   6.502
 4957SOL    HW115770   6.510   4.071   6.494
 4957SOL    HW215771   6.458   3.936   6.417
 4958SOL     OW15772   2.759   0.274   0.037
 4958SOL    HW115773   2.791   0.232   6.975
 4958SOL    HW215774   2.664   0.303   0.026
 4959SOL     OW15775   0.240   3.151   1.838
 4959SOL    HW115776   0.169   3.081   1.832
 4959SOL    HW215777   0.211   3.222   1.903
 4960SOL     OW15778   4.084   5.169   4.427
 4960SOL    HW115779   4.103   5.075   4.455
 4960SOL    HW215780   4.134   5.233   4.485
 4961SOL     OW15781   3.339   1.080   0.076
 4961SOL    HW115782   3.243   1.058   0.092
 4961SOL    HW215783   3.376   1.125   0.157
 4962SOL     OW15784   0.764   3.985   1.209
 4962SOL    HW115785   0.688   3.925   1.187
 4962SOL    HW215786   0.850   3.936   1.194
 4963SOL     OW15787   0.731   4.122   6.799
 4963SOL    HW115788   0.691   4.134   6.709
 4963SOL    HW215789   0.671   4.064   6.855
 4964SOL     OW15790   2.494   6.420   4.621
 4964SOL    HW115791   2.567   6.479   4.586
 4964SOL    HW215792   2.428   6.476   4.672
 4965SOL     OW15793   1.241   6.726   2.796
 4965SOL    HW115794   1.324   6.779   2.814
 4965SOL    HW215795   1.266   6.633   2.768
 4966SOL     OW15796   3.294   6.157   4.250
 4966SOL    HW115797   3.378   6.146   4.303
 4966SOL    HW215798   3.215   6.144   4.310
 4967SOL     OW15799   4.135   4.674   5.556
 4967SOL    HW115800   4.048   4.655   5.601
 4967SOL    HW215801   4.203   4.606   5.585
 4968SOL     OW15802   0.680   1.806   3.782
 4968SOL    HW115803   0.607   1.872   3.763
 4968SOL    HW215804   0.674   1.776   3.877
 4969SOL     OW15805   0.549   6.062   2.913
 4969SOL    HW115806   0.602   6.141   2.884
 4969SOL    HW215807   0.483   6.090   2.983
 4970SOL     OW15808   1.661   1.166   1.770
 4970SOL    HW115809   1.614   1.251   1.791
 4970SOL    HW215810   1.659   1.106   1.850
 4971SOL     OW15811   6.417   5.927   2.848
 4971SOL    HW115812   6.464   5.991   2.909
 4971SOL    HW215813   6.483   5.885   2.786
 4972SOL     OW15814   1.495   4.088   1.064
 4972SOL    HW115815   1.418   4.029   1.088
 4972SOL    HW215816   1.555   4.039   1.000
 4973SOL     OW15817   0.002   1.047   0.760
 4973SOL    HW115818   0.078   1.086   0.812
 4973SOL    HW215819   0.035   0.973   0.702
 4974SOL     OW15820   3.228   4.861   5.977
 4974SOL    HW115821   3.220   4.949   5.930
 4974SOL    HW215822   3.182   4.866   6.066
 4975SOL     OW15823   5.884   3.407   0.480
 4975SOL    HW115824   5.920   3.382   0.569
 4975SOL    HW215825   5.863   3.323   0.428
 4976SOL     OW15826   1.590   6.386   4.087
 4976SOL    HW115827   1.620   6.475   4.120
 4976SOL    HW215828   1.655   6.316   4.117
 4977SOL     OW15829   2.640   5.448   6.464
 4977SOL    HW115830   2.625   5.504   6.383
 4977SOL    HW215831   2.704   5.374   6.442
 4978SOL     OW15832   5.262   4.383   5.208
 4978SOL    HW115833   5.247   4.343   5.299
 4978SOL    HW215834   5.188   4.354   5.147
 4979SOL     OW15835   1.834   6.895   6.490
 4979SOL    HW115836   1.780   6.931   6.413
 4979SOL    HW215837   1.772   6.873   6.566
 4980SOL     OW15838   6.235   3.965   2.964
 4980SOL    HW115839   6.140   3.956   2.934
 4980SOL    HW215840   6.288   3.886   2.933
 4981SOL     OW15841   3.709   4.902   1.747
 4981SOL    HW115842   3.727   4.841   1.670
 4981SOL    HW215843   3.645   4.858   1.810
 4982SOL     OW15844   4.700   1.150   6.839
 4982SOL    HW115845   4.605   1.143   6.809
 4982SOL    HW215846   4.723   1.070   6.894
 4983SOL     OW15847   6.885   5.363   3.374
 4983SOL    HW115848   6.812   5.365   3.306
 4983SOL    HW215849   6.882   5.276   3.423
 4984SOL     OW15850   4.916   4.578   2.676
 4984SOL    HW115851   4.982   4.572   2.602
 4984SOL    HW215852   4.867   4.665   2.670
 4985SOL     OW15853   5.841   5.262   2.922
 4985SOL    HW115854   5.919   5.216   2.964
 4985SOL    HW215855   5.778   5.293   2.993
 4986SOL     OW15856   0.731   4.862   1.913
 4986SOL    HW115857   0.707   4.799   1.987
 4986SOL    HW215858   0.709   4.821   1.825
 4987SOL     OW15859   0.967   0.213   2.426
 4987SOL    HW115860   0.880   0.189   2.470
 4987SOL    HW215861   0.979   0.312   2.427
 4988SOL     OW15862   5.941   0.005   3.234
 4988SOL    HW115863   5.853   6.991   3.266
 4988SOL    HW215864   5.990   0.045   3.312
 4989SOL     OW15865   4.719   1.202   2.524
 4989SOL    HW115866   4.632   1.219   2.570
 4989SOL    HW215867   4.742   1.105   2.530
 4990SOL     OW15868   4.259   1.301   5.812
 4990SOL    HW115869   4.349   1.291   5.768
 4990SOL    HW215870   4.262   1.376   5.878
 4991SOL     OW15871   0.845   5.680   5.042
 4991SOL    HW115872   0.942   5.700   5.051
 4991SOL    HW215873   0.814   5.625   5.120
 4992SOL     OW15874   0.099   1.131   3.634
 4992SOL    HW115875   0.130   1.219   3.599
 4992SOL    HW215876   7.023   1.126   3.630
 4993SOL     OW15877   4.655   6.300   5.306
 4993SOL    HW115878   4.610   6.373   5.358
 4993SOL    HW215879   4.595   6.270   5.232
 4994SOL     OW15880   2.932   5.011   5.827
 4994SOL    HW115881   2.834   5.031   5.816
 4994SOL    HW215882   2.942   4.928   5.883
 4995SOL     OW15883   0.228   0.468   4.732
 4995SOL    HW115884   0.220   0.537   4.660
 4995SOL    HW215885   0.256   0.512   4.817
 4996SOL     OW15886   0.374   1.851   4.609
 4996SOL    HW115887   0.307   1.892   4.547
 4996SOL    HW215888   0.458   1.905   4.607
 4997SOL     OW15889   3.632   1.810   1.227
 4997SOL    HW115890   3.628   1.857   1.315
 4997SOL    HW215891   3.723   1.771   1.214
 4998SOL     OW15892   1.121   3.373   3.815
 4998SOL    HW115893   1.153   3.457   3.858
 4998SOL    HW215894   1.155   3.294   3.866
 4999SOL     OW15895   0.707   4.110   4.698
 4999SOL    HW115896   0.792   4.160   4.685
 4999SOL    HW215897   0.722   4.012   4.681
 5000SOL     OW15898   3.033   5.775   3.444
 5000SOL    HW115899   3.027   5.873   3.430
 5000SOL    HW215900   3.086   5.757   3.527
 5001SOL     OW15901   1.174   5.357   2.857
 5001SOL    HW115902   1.210   5.440   2.814
 5001SOL    HW215903   1.153   5.376   2.953
 5002SOL     OW15904   0.659   4.011   2.616
 5002SOL    HW115905   0.631   4.027   2.711
 5002SOL    HW215906   0.705   3.923   2.609
 5003SOL     OW15907   4.236   5.837   3.096
 5003SOL    HW115908   4.162   5.772   3.112
 5003SOL    HW215909   4.202   5.914   3.042
 5004SOL     OW15910   3.111   6.147   6.173
 5004SOL    HW115911   3.115   6.091   6.090
 5004SOL    HW215912   3.062   6.097   6.244
 5005SOL     OW15913   2.871   3.256   6.391
 5005SOL    HW115914   2.773   3.248   6.409
 5005SOL    HW215915   2.894   3.206   6.307
 5006SOL     OW15916   5.372   1.617   1.998
 5006SOL    HW115917   5.401   1.610   1.902
 5006SOL    HW215918   5.301   1.549   2.016
 5007SOL     OW15919   6.099   0.639   1.232
 5007SOL    HW115920   6.002   0.620   1.246
 5007SOL    HW215921   6.112   0.736   1.212
 5008SOL     OW15922   6.123   0.208   1.857
 5008SOL    HW115923   6.131   0.308   1.865
 5008SOL    HW215924   6.121   0.183   1.760
 5009SOL     OW15925   0.977   2.646   0.626
 5009SOL    HW115926   0.943   2.601   0.543
 5009SOL    HW215927   1.067   2.686   0.608
 5010SOL     OW15928   3.391   2.697   0.177
 5010SOL    HW115929   3.421   2.619   0.230
 5010SOL    HW215930   3.460   2.720   0.109
 5011SOL     OW15931   2.050   3.634   6.885
 5011SOL    HW115932   2.117   3.698   6.923
 5011SOL    HW215933   1.988   3.604   6.958
 5012SOL     OW15934   5.450   2.109   5.557
 5012SOL    HW115935   5.519   2.152   5.498
 5012SOL    HW215936   5.467   2.010   5.561
 5013SOL     OW15937   6.245   0.209   5.179
 5013SOL    HW115938   6.236   0.127   5.123
 5013SOL    HW215939   6.324   0.200   5.239
 5014SOL     OW15940   6.594   3.585   1.140
 5014SOL    HW115941   6.511   3.548   1.098
 5014SOL    HW215942   6.570   3.661   1.200
 5015SOL     OW15943   5.737   0.399   4.484
 5015SOL    HW115944   5.745   0.381   4.582
 5015SOL    HW215945   5.658   0.458   4.467
 5016SOL     OW15946   1.236   3.761   4.620
 5016SOL    HW115947   1.182   3.830   4.571
 5016SOL    HW215948   1.332   3.790   4.623
 5017SOL     OW15949   0.799   2.378   0.937
 5017SOL    HW115950   0.771   2.388   0.841
 5017SOL    HW215951   0.718   2.370   0.995
 5018SOL     OW15952   0.541   5.241   2.026
 5018SOL    HW115953   0.495   5.207   1.944
 5018SOL    HW215954   0.515   5.185   2.104
 5019SOL     OW15955   2.070   5.864   5.370
 5019SOL    HW115956   2.127   5.786   5.395
 5019SOL    HW215957   2.126   5.946   5.363
 5020SOL     OW15958   0.358   6.683   4.993
 5020SOL    HW115959   0.290   6.610   4.981
 5020SOL    HW215960   0.445   6.643   5.021
 5021SOL     OW15961   2.034   0.644   0.909
 5021SOL    HW115962   2.004   0.622   0.816
 5021SOL    HW215963   2.072   0.737   0.911
 5022SOL     OW15964   0.422   2.702   1.327
 5022SOL    HW115965   0.521   2.692   1.334
 5022SOL    HW215966   0.385   2.727   1.416
 5023SOL     OW15967   0.513   4.084   1.786
 5023SOL    HW115968   0.610   4.067   1.805
 5023SOL    HW215969   0.501   4.104   1.689
 5024SOL     OW15970   5.357   3.777   0.611
 5024SOL    HW115971   5.278   3.716   0.606
 5024SOL    HW215972   5.332   3.867   0.576
 5025SOL     OW15973   4.525   1.895   4.082
 5025SOL    HW115974   4.573   1.954   4.148
 5025SOL    HW215975   4.452   1.846   4.129
 5026SOL     OW15976   5.832   5.734   5.099
 5026SOL    HW115977   5.757   5.683   5.057
 5026SOL    HW215978   5.889   5.671   5.153
 5027SOL     OW15979   4.715   0.356   0.679
 5027SOL    HW115980   4.705   0.257   0.685
 5027SOL    HW215981   4.691   0.397   0.767
 5028SOL     OW15982   0.142   2.329   2.693
 5028SOL    HW115983   0.131   2.374   2.605
 5028SOL    HW215984   0.112   2.390   2.767
 5029SOL     OW15985   6.653   2.592   2.008
 5029SOL    HW115986   6.585   2.575   2.080
 5029SOL    HW215987   6.743   2.564   2.041
 5030SOL     OW15988   0.051   5.897   6.486
 5030SOL    HW115989   0.145   5.924   6.503
 5030SOL    HW215990   0.024   5.924   6.394
 5031SOL     OW15991   0.002   1.205   5.165
 5031SOL    HW115992   0.024   1.208   5.067
 5031SOL    HW215993   0.078   1.162   5.214
 5032SOL     OW15994   3.292   2.487   6.207
 5032SOL    HW115995   3.313   2.419   6.138
 5032SOL    HW215996   3.322   2.577   6.176
 5033SOL     OW15997   2.236   1.509   0.522
 5033SOL    HW115998   2.230   1.464   0.611
 5033SOL    HW215999   2.211   1.606   0.532
 5034SOL     OW16000   4.157   6.360   4.023
 5034SOL    HW116001   4.210   6.340   4.105
 5034SOL    HW216002   4.060   6.345   4.040
 5035SOL     OW16003   6.762   4.441   4.794
 5035SOL    HW116004   6.770   4.396   4.883
 5035SOL    HW216005   6.769   4.373   4.721
 5036SOL     OW16006   6.894   3.791   5.510
 5036SOL    HW116007   6.889   3.825   5.416
 5036SOL    HW216008   6.969   3.726   5.519
 5037SOL     OW16009   4.027   4.554   1.285
 5037SOL    HW116010   4.011   4.610   1.203
 5037SOL    HW216011   4.063   4.465   1.257
 5038SOL     OW16012   3.402   3.235   4.209
 5038SOL    HW116013   3.322   3.181   4.238
 5038SOL    HW216014   3.382   3.277   4.121
 5039SOL     OW16015   2.025   3.577   5.980
 5039SOL    HW116016   2.111   3.583   6.031
 5039SOL    HW216017   2.039   3.523   5.897
 5040SOL     OW16018   1.320   5.305   5.398
 5040SOL    HW116019   1.380   5.324   5.476
 5040SOL    HW216020   1.318   5.384   5.338
 5041SOL     OW16021   0.924   2.974   1.776
 5041SOL    HW116022   0.844   2.979   1.716
 5041SOL    HW216023   0.903   3.018   1.863
 5042SOL     OW16024   0.149   4.044   6.215
 5042SOL    HW116025   0.162   4.141   6.194
 5042SOL    HW216026   0.093   4.001   6.144
 5043SOL     OW16027   4.170   0.610   0.470
 5043SOL    HW116028   4.150   0.650   0.559
 5043SOL    HW216029   4.242   0.664   0.425
 5044SOL     OW16030   6.775   6.052   0.997
 5044SOL    HW116031   6.810   5.966   0.959
 5044SOL    HW216032   6.849   6.100   1.045
 5045SOL     OW16033   6.366   4.507   6.073
 5045SOL    HW116034   6.423   4.584   6.101
 5045SOL    HW216035   6.281   4.507   6.127
 5046SOL     OW16036   3.577   3.575   4.257
 5046SOL    HW116037   3.593   3.671   4.280
 5046SOL    HW216038   3.567   3.566   4.157
 5047SOL     OW16039   2.181   2.990   2.969
 5047SOL    HW116040   2.128   2.986   2.885
 5047SOL    HW216041   2.246   2.914   2.971
 5048SOL     OW16042   2.061   1.041   4.880
 5048SOL    HW116043   2.090   1.051   4.975
 5048SOL    HW216044   2.055   0.943   4.857
 5049SOL     OW16045   6.073   1.072   6.079
 5049SOL    HW116046   6.106   1.166   6.080
 5049SOL    HW216047   6.027   1.053   5.992
 5050SOL     OW16048   1.671   1.337   6.811
 5050SOL    HW116049   1.599   1.348   6.879
 5050SOL    HW216050   1.761   1.345   6.855
 5051SOL     OW16051   3.601   4.457   1.035
 5051SOL    HW116052   3.565   4.364   1.045
 5051SOL    HW216053   3.534   4.514   0.989
 5052SOL     OW16054   3.420   2.188   6.218
 5052SOL    HW116055   3.451   2.115   6.156
 5052SOL    HW216056   3.473   2.184   6.303
 5053SOL     OW16057   0.725   4.772   2.910
 5053SOL    HW116058   0.762   4.763   3.003
 5053SOL    HW216059   0.800   4.771   2.844
 5054SOL     OW16060   3.451   5.016   5.623
 5054SOL    HW116061   3.405   4.929   5.641
 5054SOL    HW216062   3.543   4.999   5.587
 5055SOL     OW16063   0.373   3.099   5.925
 5055SOL    HW116064   0.341   3.091   6.020
 5055SOL    HW216065   0.461   3.146   5.924
 5056SOL     OW16066   4.781   4.042   5.078
 5056SOL    HW116067   4.767   4.132   5.035
 5056SOL    HW216068   4.777   3.971   5.007
 5057SOL     OW16069   1.158   0.023   2.279
 5057SOL    HW116070   1.166   6.973   2.347
 5057SOL    HW216071   1.080   0.082   2.303
 5058SOL     OW16072   3.283   4.614   6.856
 5058SOL    HW116073   3.217   4.685   6.832
 5058SOL    HW216074   3.281   4.600   6.955
 5059SOL     OW16075   6.570   6.710   3.169
 5059SOL    HW116076   6.627   6.761   3.106
 5059SOL    HW216077   6.507   6.652   3.118
 5060SOL     OW16078   6.594   2.027   5.775
 5060SOL    HW116079   6.560   2.078   5.854
 5060SOL    HW216080   6.625   1.937   5.804
 5061SOL     OW16081   5.042   2.634   0.096
 5061SOL    HW116082   4.968   2.570   0.114
 5061SOL    HW216083   5.121   2.610   0.152
 5062SOL     OW16084   0.499   0.152   1.919
 5062SOL    HW116085   0.509   0.059   1.953
 5062SOL    HW216086   0.510   0.217   1.995
 5063SOL     OW16087   0.653   6.660   1.540
 5063SOL    HW116088   0.556   6.681   1.536
 5063SOL    HW216089   0.704   6.744   1.562
 5064SOL     OW16090   4.828   3.160   0.416
 5064SOL    HW116091   4.803   3.068   0.388
 5064SOL    HW216092   4.752   3.223   0.399
 5065SOL     OW16093   3.253   0.099   5.174
 5065SOL    HW116094   3.333   0.150   5.143
 5065SOL    HW216095   3.211   0.052   5.096
 5066SOL     OW16096   5.475   4.305   1.604
 5066SOL    HW116097   5.454   4.276   1.511
 5066SOL    HW216098   5.438   4.239   1.669
 5067SOL     OW16099   5.443   1.601   6.904
 5067SOL    HW116100   5.406   1.693   6.910
 5067SOL    HW216101   5.489   1.578   6.990
 5068SOL     OW16102   3.202   4.391   0.809
 5068SOL    HW116103   3.243   4.482   0.812
 5068SOL    HW216104   3.140   4.384   0.731
 5069SOL     OW16105   1.084   4.253   3.030
 5069SOL    HW116106   0.996   4.222   3.068
 5069SOL    HW216107   1.073   4.270   2.932
 5070SOL     OW16108   4.929   3.802   4.164
 5070SOL    HW116109   4.919   3.720   4.221
 5070SOL    HW216110   4.932   3.883   4.222
 5071SOL     OW16111   4.059   2.202   5.199
 5071SOL    HW116112   3.987   2.178   5.134
 5071SOL    HW216113   4.099   2.290   5.173
 5072SOL     OW16114   6.983   4.944   0.809
 5072SOL    HW116115   7.005   4.921   0.904
 5072SOL    HW216116   6.896   4.902   0.784
 5073SOL     OW16117   6.928   0.076   2.132
 5073SOL    HW116118   6.976   7.023   2.090
 5073SOL    HW216119   6.993   0.149   2.153
 5074SOL     OW16120   3.051   3.837   6.906
 5074SOL    HW116121   3.011   3.865   6.819
 5074SOL    HW216122   3.150   3.826   6.895
 5075SOL     OW16123   6.979   0.679   5.490
 5075SOL    HW116124   7.006   0.647   5.399
 5075SOL    HW216125   6.940   0.771   5.483
 5076SOL     OW16126   3.464   0.301   0.653
 5076SOL    HW116127   3.552   0.254   0.664
 5076SOL    HW216128   3.421   0.272   0.567
 5077SOL     OW16129   1.417   2.046   3.787
 5077SOL    HW116130   1.514   2.036   3.765
 5077SOL    HW216131   1.382   2.130   3.746
 5078SOL     OW16132   1.580   2.285   3.245
 5078SOL    HW116133   1.528   2.343   3.307
 5078SOL    HW216134   1.618   2.341   3.171
 5079SOL     OW16135   2.932   5.184   6.157
 5079SOL    HW116136   2.840   5.160   6.127
 5079SOL    HW216137   2.986   5.215   6.078
 5080SOL     OW16138   5.791   6.537   5.115
 5080SOL    HW116139   5.692   6.527   5.119
 5080SOL    HW216140   5.830   6.523   5.206
 5081SOL     OW16141   3.267   3.744   3.390
 5081SOL    HW116142   3.334   3.763   3.461
 5081SOL    HW216143   3.194   3.813   3.393
 5082SOL     OW16144   5.557   6.548   5.773
 5082SOL    HW116145   5.647   6.521   5.738
 5082SOL    HW216146   5.549   6.523   5.869
 5083SOL     OW16147   1.516   6.994   2.128
 5083SOL    HW116148   1.452   7.005   2.053
 5083SOL    HW216149   1.486   6.919   2.188
 5084SOL     OW16150   1.023   5.368   3.688
 5084SOL    HW116151   1.054   5.452   3.732
 5084SOL    HW216152   1.089   5.295   3.705
 5085SOL     OW16153   5.729   1.345   6.781
 5085SOL    HW116154   5.691   1.288   6.854
 5085SOL    HW216155   5.756   1.287   6.704
 5086SOL     OW16156   6.824   4.772   3.454
 5086SOL    HW116157   6.740   4.764   3.508
 5086SOL    HW216158   6.815   4.848   3.390
 5087SOL     OW16159   6.299   6.194   4.702
 5087SOL    HW116160   6.202   6.177   4.719
 5087SOL    HW216161   6.308   6.260   4.627
 5088SOL     OW16162   6.439   1.178   6.189
 5088SOL    HW116163   6.516   1.118   6.215
 5088SOL    HW216164   6.365   1.122   6.150
 5089SOL     OW16165   6.548   3.009   2.083
 5089SOL    HW116166   6.479   2.936   2.085
 5089SOL    HW216167   6.590   3.018   2.173
 5090SOL     OW16168   2.122   4.819   0.992
 5090SOL    HW116169   2.044   4.856   1.043
 5090SOL    HW216170   2.207   4.847   1.036
 5091SOL     OW16171   1.374   6.152   2.966
 5091SOL    HW116172   1.364   6.124   2.871
 5091SOL    HW216173   1.310   6.228   2.985
 5092SOL     OW16174   3.556   1.840   0.880
 5092SOL    HW116175   3.484   1.881   0.823
 5092SOL    HW216176   3.519   1.823   0.972
 5093SOL     OW16177   1.241   2.161   2.057
 5093SOL    HW116178   1.194   2.249   2.066
 5093SOL    HW216179   1.174   2.088   2.040
 5094SOL     OW16180   1.195   6.653   5.585
 5094SOL    HW116181   1.202   6.553   5.596
 5094SOL    HW216182   1.282   6.695   5.610
 5095SOL     OW16183   1.982   0.600   4.519
 5095SOL    HW116184   1.918   0.525   4.540
 5095SOL    HW216185   1.930   0.679   4.486
 5096SOL     OW16186   4.868   3.645   0.489
 5096SOL    HW116187   4.859   3.684   0.397
 5096SOL    HW216188   4.781   3.655   0.538
 5097SOL     OW16189   1.547   0.741   5.619
 5097SOL    HW116190   1.516   0.814   5.558
 5097SOL    HW216191   1.500   0.750   5.707
 5098SOL     OW16192   0.821   1.001   2.210
 5098SOL    HW116193   0.845   1.098   2.207
 5098SOL    HW216194   0.748   0.987   2.276
 5099SOL     OW16195   0.964   0.459   5.373
 5099SOL    HW116196   0.981   0.422   5.465
 5099SOL    HW216197   1.052   0.481   5.331
 5100SOL     OW16198   5.819   6.917   6.550
 5100SOL    HW116199   5.894   6.966   6.505
 5100SOL    HW216200   5.733   6.937   6.502
 5101SOL     OW16201   4.295   6.683   0.119
 5101SOL    HW116202   4.231   6.686   0.196
 5101SOL    HW216203   4.380   6.640   0.148
 5102SOL     OW16204   5.136   0.794   5.593
 5102SOL    HW116205   5.053   0.846   5.573
 5102SOL    HW216206   5.170   0.752   5.509
 5103SOL     OW16207   0.494   0.767   4.092
 5103SOL    HW116208   0.452   0.858   4.085
 5103SOL    HW216209   0.543   0.759   4.179
 5104SOL     OW16210   2.006   0.932   1.562
 5104SOL    HW116211   2.080   0.895   1.505
 5104SOL    HW216212   2.009   1.031   1.560
 5105SOL     OW16213   4.182   4.194   6.547
 5105SOL    HW116214   4.203   4.267   6.482
 5105SOL    HW216215   4.083   4.191   6.563
 5106SOL     OW16216   3.356   0.243   2.627
 5106SOL    HW116217   3.335   0.194   2.543
 5106SOL    HW216218   3.355   0.179   2.704
 5107SOL     OW16219   3.105   0.241   6.537
 5107SOL    HW116220   3.048   0.303   6.483
 5107SOL    HW216221   3.046   0.179   6.589
 5108SOL     OW16222   3.116   4.046   4.073
 5108SOL    HW116223   3.131   4.030   3.976
 5108SOL    HW216224   3.098   4.143   4.089
 5109SOL     OW16225   0.328   1.120   0.846
 5109SOL    HW116226   0.383   1.164   0.917
 5109SOL    HW216227   0.383   1.108   0.763
 5110SOL     OW16228   2.029   6.568   5.370
 5110SOL    HW116229   1.976   6.565   5.454
 5110SOL    HW216230   2.067   6.478   5.351
 5111SOL     OW16231   1.535   1.470   6.610
 5111SOL    HW116232   1.591   1.437   6.686
 5111SOL    HW216233   1.443   1.432   6.618
 5112SOL     OW16234   0.632   6.235   3.778
 5112SOL    HW116235   0.586   6.322   3.793
 5112SOL    HW216236   0.604   6.196   3.690
 5113SOL     OW16237   1.320   0.751   0.323
 5113SOL    HW116238   1.224   0.753   0.350
 5113SOL    HW216239   1.349   0.843   0.297
 5114SOL     OW16240   3.350   4.974   0.247
 5114SOL    HW116241   3.318   5.047   0.307
 5114SOL    HW216242   3.271   4.934   0.199
 5115SOL     OW16243   1.440   3.804   6.382
 5115SOL    HW116244   1.370   3.806   6.453
 5115SOL    HW216245   1.400   3.772   6.296
 5116SOL     OW16246   5.225   4.540   7.020
 5116SOL    HW116247   5.142   4.556   0.050
 5116SOL    HW216248   5.206   4.554   6.923
 5117SOL     OW16249   2.549   4.570   4.344
 5117SOL    HW116250   2.497   4.539   4.423
 5117SOL    HW216251   2.514   4.524   4.262
 5118SOL     OW16252   4.662   5.890   0.357
 5118SOL    HW116253   4.657   5.968   0.295
 5118SOL    HW216254   4.654   5.805   0.305
 5119SOL     OW16255   5.598   0.852   2.438
 5119SOL    HW116256   5.517   0.837   2.382
 5119SOL    HW216257   5.599   0.785   2.513
 5120SOL     OW16258   5.327   1.028   2.743
 5120SOL    HW116259   5.351   1.030   2.646
 5120SOL    HW216260   5.326   1.121   2.779
 5121SOL     OW16261   0.336   3.439   5.230
 5121SOL    HW116262   0.333   3.390   5.143
 5121SOL    HW216263   0.272   3.516   5.227
 5122SOL     OW16264   2.360   0.251   3.224
 5122SOL    HW116265   2.436   0.194   3.192
 5122SOL    HW216266   2.364   0.259   3.323
 5123SOL     OW16267   4.874   4.150   2.697
 5123SOL    HW116268   4.839   4.080   2.758
 5123SOL    HW216269   4.974   4.143   2.692
 5124SOL     OW16270   3.274   6.358   0.104
 5124SOL    HW116271   3.336   6.372   0.181
 5124SOL    HW216272   3.194   6.306   0.135
 5125SOL     OW16273   0.108   3.745   3.854
 5125SOL    HW116274   0.133   3.695   3.772
 5125SOL    HW216275   0.152   3.835   3.853
 5126SOL     OW16276   5.921   4.978   6.062
 5126SOL    HW116277   5.901   4.929   5.977
 5126SOL    HW216278   5.848   4.964   6.128
 5127SOL     OW16279   5.272   3.428   6.739
 5127SOL    HW116280   5.335   3.376   6.797
 5127SOL    HW216281   5.321   3.502   6.694
 5128SOL     OW16282   1.056   0.962   6.867
 5128SOL    HW116283   0.995   1.041   6.881
 5128SOL    HW216284   1.060   0.909   6.952
 5129SOL     OW16285   5.193   0.800   2.368
 5129SOL    HW116286   5.116   0.772   2.311
 5129SOL    HW216287   5.278   0.789   2.318
 5130SOL     OW16288   1.276   5.300   4.424
 5130SOL    HW116289   1.373   5.293   4.448
 5130SOL    HW216290   1.224   5.232   4.476
 5131SOL     OW16291   3.059   4.976   3.255
 5131SOL    HW116292   2.991   4.995   3.327
 5131SOL    HW216293   3.015   4.926   3.181
 5132SOL     OW16294   3.620   1.691   6.702
 5132SOL    HW116295   3.707   1.645   6.717
 5132SOL    HW216296   3.601   1.751   6.780
 5133SOL     OW16297   4.160   5.281   6.568
 5133SOL    HW116298   4.242   5.331   6.598
 5133SOL    HW216299   4.089   5.346   6.542
 5134SOL     OW16300   6.740   6.975   1.522
 5134SOL    HW116301   6.651   6.999   1.561
 5134SOL    HW216302   6.789   0.035   1.497
 5135SOL     OW16303   6.526   2.945   1.799
 5135SOL    HW116304   6.548   2.974   1.892
 5135SOL    HW216305   6.567   2.855   1.781
 5136SOL     OW16306   0.879   0.877   6.207
 5136SOL    HW116307   0.816   0.948   6.235
 5136SOL    HW216308   0.876   0.801   6.272
 5137SOL     OW16309   4.992   1.760   5.257
 5137SOL    HW116310   4.986   1.700   5.337
 5137SOL    HW216311   5.071   1.733   5.202
 5138SOL     OW16312   3.680   3.157   4.261
 5138SOL    HW116313   3.731   3.186   4.342
 5138SOL    HW216314   3.585   3.186   4.269
 5139SOL     OW16315   1.862   0.577   4.896
 5139SOL    HW116316   1.838   0.589   4.993
 5139SOL    HW216317   1.855   0.480   4.872
 5140SOL     OW16318   4.126   2.255   6.028
 5140SOL    HW116319   4.075   2.256   5.941
 5140SOL    HW216320   4.177   2.340   6.037
 5141SOL     OW16321   6.865   2.849   1.987
 5141SOL    HW116322   6.792   2.800   2.035
 5141SOL    HW216323   6.843   2.857   1.890
 5142SOL     OW16324   6.628   6.808   2.853
 5142SOL    HW116325   6.573   6.890   2.872
 5142SOL    HW216326   6.718   6.817   2.896
 5143SOL     OW16327   0.925   4.931   4.156
 5143SOL    HW116328   0.849   4.905   4.215
 5143SOL    HW216329   0.977   5.004   4.200
 5144SOL     OW16330   1.754   3.639   6.324
 5144SOL    HW116331   1.759   3.542   6.301
 5144SOL    HW216332   1.690   3.685   6.263
 5145SOL     OW16333   2.619   6.346   6.769
 5145SOL    HW116334   2.568   6.374   6.688
 5145SOL    HW216335   2.564   6.364   6.851
 5146SOL     OW16336   5.265   4.828   6.025
 5146SOL    HW116337   5.173   4.864   6.010
 5146SOL    HW216338   5.268   4.778   6.112
 5147SOL     OW16339   4.838   2.994   3.401
 5147SOL    HW116340   4.926   2.946   3.393
 5147SOL    HW216341   4.767   2.928   3.427
 5148SOL     OW16342   0.637   0.270   1.679
 5148SOL    HW116343   0.556   0.309   1.724
 5148SOL    HW216344   0.716   0.280   1.740
 5149SOL     OW16345   5.869   4.355   3.153
 5149SOL    HW116346   5.814   4.413   3.092
 5149SOL    HW216347   5.940   4.411   3.196
 5150SOL     OW16348   0.519   5.235   3.834
 5150SOL    HW116349   0.564   5.182   3.905
 5150SOL    HW216350   0.575   5.314   3.809
 5151SOL     OW16351   6.087   4.510   2.087
 5151SOL    HW116352   6.128   4.501   1.996
 5151SOL    HW216353   6.139   4.454   2.152
 5152SOL     OW16354   1.453   0.836   6.206
 5152SOL    HW116355   1.356   0.822   6.187
 5152SOL    HW216356   1.487   0.910   6.149
 5153SOL     OW16357   1.429   2.010   0.810
 5153SOL    HW116358   1.436   2.064   0.726
 5153SOL    HW216359   1.385   2.065   0.881
 5154SOL     OW16360   0.243   2.792   6.668
 5154SOL    HW116361   0.288   2.704   6.685
 5154SOL    HW216362   0.186   2.815   6.747
 5155SOL     OW16363   1.949   1.235   0.598
 5155SOL    HW116364   1.883   1.310   0.591
 5155SOL    HW216365   2.026   1.264   0.654
 5156SOL     OW16366   5.575   5.075   5.577
 5156SOL    HW116367   5.506   5.013   5.540
 5156SOL    HW216368   5.537   5.167   5.584
 5157SOL     OW16369   3.882   0.763   2.257
 5157SOL    HW116370   3.805   0.777   2.319
 5157SOL    HW216371   3.915   0.851   2.224
 5158SOL     OW16372   3.813   1.564   2.644
 5158SOL    HW116373   3.879   1.638   2.630
 5158SOL    HW216374   3.808   1.542   2.741
 5159SOL     OW16375   5.941   3.223   5.569
 5159SOL    HW116376   5.850   3.239   5.530
 5159SOL    HW216377   6.010   3.269   5.512
 5160SOL     OW16378   6.853   6.232   3.272
 5160SOL    HW116379   6.931   6.245   3.334
 5160SOL    HW216380   6.846   6.135   3.248
 5161SOL     OW16381   0.973   3.207   0.046
 5161SOL    HW116382   1.003   3.151   0.123
 5161SOL    HW216383   0.917   3.152   7.008
 5162SOL     OW16384   6.888   6.614   2.815
 5162SOL    HW116385   6.812   6.552   2.831
 5162SOL    HW216386   6.890   6.640   2.718
 5163SOL     OW16387   3.034   6.375   2.447
 5163SOL    HW116388   3.016   6.325   2.362
 5163SOL    HW216389   3.001   6.469   2.439
 5164SOL     OW16390   3.035   3.866   0.986
 5164SOL    HW116391   3.005   3.836   0.895
 5164SOL    HW216392   2.954   3.887   1.042
 5165SOL     OW16393   1.210   4.765   0.085
 5165SOL    HW116394   1.199   4.672   0.120
 5165SOL    HW216395   1.120   4.801   0.058
 5166SOL     OW16396   1.672   5.555   1.466
 5166SOL    HW116397   1.630   5.467   1.447
 5166SOL    HW216398   1.610   5.628   1.437
 5167SOL     OW16399   4.901   2.555   5.222
 5167SOL    HW116400   4.871   2.637   5.173
 5167SOL    HW216401   4.825   2.520   5.278
 5168SOL     OW16402   4.340   2.384   2.330
 5168SOL    HW116403   4.409   2.455   2.320
 5168SOL    HW216404   4.370   2.301   2.282
 5169SOL     OW16405   3.987   6.682   3.576
 5169SOL    HW116406   3.980   6.584   3.561
 5169SOL    HW216407   3.899   6.718   3.606
 5170SOL     OW16408   1.312   3.267   6.423
 5170SOL    HW116409   1.247   3.342   6.418
 5170SOL    HW216410   1.274   3.193   6.479
 5171SOL     OW16411   2.229   5.939   4.966
 5171SOL    HW116412   2.271   5.907   5.051
 5171SOL    HW216413   2.195   5.860   4.914
 5172SOL     OW16414   0.080   5.430   3.541
 5172SOL    HW116415   0.049   5.513   3.586
 5172SOL    HW216416   0.016   5.406   3.467
 5173SOL     OW16417   4.822   3.668   5.935
 5173SOL    HW116418   4.724   3.673   5.956
 5173SOL    HW216419   4.857   3.580   5.968
 5174SOL     OW16420   2.798   6.563   3.510
 5174SOL    HW116421   2.771   6.659   3.508
 5174SOL    HW216422   2.736   6.510   3.453
 5175SOL     OW16423   2.651   4.568   6.910
 5175SOL    HW116424   2.727   4.518   6.950
 5175SOL    HW216425   2.662   4.571   6.810
 5176SOL     OW16426   5.613   5.734   0.349
 5176SOL    HW116427   5.654   5.644   0.366
 5176SOL    HW216428   5.671   5.785   0.285
 5177SOL     OW16429   5.061   0.677   0.510
 5177SOL    HW116430   5.010   0.739   0.569
 5177SOL    HW216431   5.147   0.651   0.555
 5178SOL     OW16432   1.004   3.731   2.041
 5178SOL    HW116433   1.002   3.831   2.042
 5178SOL    HW216434   1.090   3.699   2.079
 5179SOL     OW16435   6.453   4.184   3.262
 5179SOL    HW116436   6.441   4.101   3.317
 5179SOL    HW216437   6.369   4.201   3.210
 5180SOL     OW16438   2.716   6.908   1.588
 5180SOL    HW116439   2.659   6.826   1.585
 5180SOL    HW216440   2.719   6.951   1.498
 5181SOL     OW16441   0.591   0.528   5.948
 5181SOL    HW116442   0.643   0.612   5.965
 5181SOL    HW216443   0.616   0.491   5.858
 5182SOL     OW16444   3.951   5.302   3.062
 5182SOL    HW116445   3.865   5.297   3.012
 5182SOL    HW216446   3.935   5.284   3.159
 5183SOL     OW16447   4.223   1.859   3.612
 5183SOL    HW116448   4.273   1.866   3.526
 5183SOL    HW216449   4.287   1.836   3.686
 5184SOL     OW16450   2.267   1.144   4.096
 5184SOL    HW116451   2.298   1.074   4.032
 5184SOL    HW216452   2.191   1.195   4.055
 5185SOL     OW16453   5.755   0.854   1.587
 5185SOL    HW116454   5.817   0.864   1.665
 5185SOL    HW216455   5.688   0.928   1.588
 5186SOL     OW16456   6.700   3.143   6.080
 5186SOL    HW116457   6.737   3.051   6.073
 5186SOL    HW216458   6.661   3.157   6.171
 5187SOL     OW16459   1.993   4.917   5.378
 5187SOL    HW116460   2.002   5.016   5.391
 5187SOL    HW216461   1.978   4.898   5.281
 5188SOL     OW16462   0.118   6.752   2.316
 5188SOL    HW116463   0.019   6.738   2.323
 5188SOL    HW216464   0.156   6.684   2.253
 5189SOL     OW16465   5.447   0.481   6.005
 5189SOL    HW116466   5.506   0.484   6.086
 5189SOL    HW216467   5.390   0.399   6.008
 5190SOL     OW16468   1.765   3.302   1.465
 5190SOL    HW116469   1.670   3.282   1.440
 5190SOL    HW216470   1.793   3.387   1.420
 5191SOL     OW16471   3.134   5.212   2.607
 5191SOL    HW116472   3.204   5.273   2.645
 5191SOL    HW216473   3.176   5.124   2.582
 5192SOL     OW16474   2.140   5.475   2.011
 5192SOL    HW116475   2.043   5.460   1.994
 5192SOL    HW216476   2.180   5.527   1.936
 5193SOL     OW16477   6.291   0.838   6.812
 5193SOL    HW116478   6.288   0.861   6.909
 5193SOL    HW216479   6.288   0.739   6.801
 5194SOL     OW16480   4.483   2.309   0.007
 5194SOL    HW116481   4.464   2.390   6.975
 5194SOL    HW216482   4.514   2.338   0.098
 5195SOL     OW16483   6.853   0.864   4.401
 5195SOL    HW116484   6.835   0.773   4.438
 5195SOL    HW216485   6.872   0.857   4.303
 5196SOL     OW16486   4.977   6.130   3.441
 5196SOL    HW116487   4.960   6.223   3.409
 5196SOL    HW216488   5.076   6.115   3.450
 5197SOL     OW16489   1.490   4.403   5.792
 5197SOL    HW116490   1.521   4.420   5.698
 5197SOL    HW216491   1.414   4.338   5.791
 5198SOL     OW16492   5.121   5.740   2.808
 5198SOL    HW116493   5.075   5.740   2.720
 5198SOL    HW216494   5.220   5.730   2.795
 5199SOL     OW16495   6.605   5.158   1.298
 5199SOL    HW116496   6.618   5.078   1.357
 5199SOL    HW216497   6.536   5.137   1.229
 5200SOL     OW16498   0.500   3.661   5.571
 5200SOL    HW116499   0.440   3.583   5.557
 5200SOL    HW216500   0.456   3.727   5.631
 5201SOL     OW16501   1.677   5.456   4.276
 5201SOL    HW116502   1.590   5.444   4.229
 5201SOL    HW216503   1.750   5.411   4.224
 5202SOL     OW16504   6.552   3.582   0.246
 5202SOL    HW116505   6.589   3.498   0.287
 5202SOL    HW216506   6.609   3.660   0.274
 5203SOL     OW16507   0.602   2.274   6.494
 5203SOL    HW116508   0.699   2.259   6.475
 5203SOL    HW216509   0.576   2.221   6.575
 5204SOL     OW16510   4.210   5.128   7.009
 5204SOL    HW116511   4.217   5.218   6.967
 5204SOL    HW216512   4.117   5.092   6.996
 5205SOL     OW16513   1.962   0.574   1.469
 5205SOL    HW116514   1.916   0.628   1.539
 5205SOL    HW216515   2.031   0.630   1.423
 5206SOL     OW16516   0.400   4.154   0.078
 5206SOL    HW116517   0.481   4.119   0.030
 5206SOL    HW216518   0.427   4.185   0.169
 5207SOL     OW16519   1.566   5.266   4.434
 5207SOL    HW116520   1.571   5.185   4.377
 5207SOL    HW216521   1.615   5.341   4.389
 5208SOL     OW16522   3.379   0.696   7.003
 5208SOL    HW116523   3.387   0.609   0.028
 5208SOL    HW216524   3.329   0.761   0.036
 5209SOL     OW16525   6.174   5.683   3.504
 5209SOL    HW116526   6.266   5.650   3.482
 5209SOL    HW216527   6.178   5.742   3.585
 5210SOL     OW16528   5.320   4.267   3.746
 5210SOL    HW116529   5.275   4.205   3.682
 5210SOL    HW216530   5.409   4.229   3.772
 5211SOL     OW16531   2.912   3.429   3.559
 5211SOL    HW116532   2.976   3.384   3.495
 5211SOL    HW216533   2.888   3.519   3.523
 5212SOL     OW16534   0.926   1.976   0.798
 5212SOL    HW116535   0.828   1.961   0.800
 5212SOL    HW216536   0.945   2.073   0.784
 5213SOL     OW16537   4.891   2.519   5.640
 5213SOL    HW116538   4.794   2.517   5.613
 5213SOL    HW216539   4.898   2.500   5.738
 5214SOL     OW16540   5.239   1.655   5.572
 5214SOL    HW116541   5.265   1.635   5.477
 5214SOL    HW216542   5.139   1.665   5.578
 5215SOL     OW16543   5.303   4.458   2.973
 5215SOL    HW116544   5.253   4.517   2.910
 5215SOL    HW216545   5.273   4.475   3.066
 5216SOL     OW16546   5.045   4.908   1.310
 5216SOL    HW116547   5.015   4.813   1.319
 5216SOL    HW216548   5.131   4.911   1.260
 5217SOL     OW16549   3.184   5.139   3.959
 5217SOL    HW116550   3.219   5.096   4.042
 5217SOL    HW216551   3.154   5.232   3.978
 5218SOL     OW16552   1.708   6.725   3.575
 5218SOL    HW116553   1.789   6.750   3.522
 5218SOL    HW216554   1.719   6.756   3.669
 5219SOL     OW16555   3.372   6.870   6.676
 5219SOL    HW116556   3.321   6.903   6.755
 5219SOL    HW216557   3.423   6.946   6.636
 5220SOL     OW16558   0.750   5.866   2.204
 5220SOL    HW116559   0.692   5.934   2.247
 5220SOL    HW216560   0.697   5.815   2.136
 5221SOL     OW16561   5.102   0.952   4.590
 5221SOL    HW116562   5.166   0.991   4.523
 5221SOL    HW216563   5.018   1.005   4.591
 5222SOL     OW16564   1.880   0.413   3.437
 5222SOL    HW116565   1.913   0.490   3.491
 5222SOL    HW216566   1.796   0.377   3.478
 5223SOL     OW16567   4.635   0.318   1.552
 5223SOL    HW116568   4.606   0.268   1.471
 5223SOL    HW216569   4.653   0.413   1.528
 5224SOL     OW16570   6.569   2.153   2.709
 5224SOL    HW116571   6.545   2.062   2.743
 5224SOL    HW216572   6.527   2.168   2.620
 5225SOL     OW16573   6.520   6.972   4.348
 5225SOL    HW116574   6.435   6.924   4.371
 5225SOL    HW216575   6.598   6.917   4.376
 5226SOL     OW16576   1.002   6.257   4.102
 5226SOL    HW116577   1.004   6.195   4.180
 5226SOL    HW216578   1.084   6.314   4.101
 5227SOL     OW16579   6.552   5.247   3.767
 5227SOL    HW116580   6.615   5.262   3.843
 5227SOL    HW216581   6.482   5.319   3.768
 5228SOL     OW16582   5.356   1.566   0.876
 5228SOL    HW116583   5.378   1.535   0.968
 5228SOL    HW216584   5.270   1.618   0.878
 5229SOL     OW16585   0.998   4.043   6.512
 5229SOL    HW116586   0.928   4.047   6.441
 5229SOL    HW216587   1.069   4.112   6.493
 5230SOL     OW16588   6.815   0.674   0.800
 5230SOL    HW116589   6.846   0.730   0.723
 5230SOL    HW216590   6.797   0.581   0.769
 5231SOL     OW16591   3.894   3.014   4.178
 5231SOL    HW116592   3.918   3.048   4.087
 5231SOL    HW216593   3.804   3.049   4.203
 5232SOL     OW16594   4.950   2.317   7.000
 5232SOL    HW116595   4.946   2.221   0.004
 5232SOL    HW216596   5.044   2.350   7.010
 5233SOL     OW16597   6.807   6.013   1.738
 5233SOL    HW116598   6.849   5.948   1.801
 5233SOL    HW216599   6.719   6.044   1.775
 5234SOL     OW16600   3.104   7.010   0.557
 5234SOL    HW116601   3.027   6.979   0.501
 5234SOL    HW216602   3.118   0.085   0.543
 5235SOL     OW16603   1.990   3.394   0.907
 5235SOL    HW116604   1.909   3.359   0.955
 5235SOL    HW216605   2.045   3.448   0.970
 5236SOL     OW16606   5.211   3.362   1.234
 5236SOL    HW116607   5.143   3.317   1.293
 5236SOL    HW216608   5.172   3.446   1.196
 5237SOL     OW16609   2.423   1.898   5.260
 5237SOL    HW116610   2.368   1.885   5.177
 5237SOL    HW216611   2.386   1.976   5.312
 5238SOL     OW16612   1.183   5.125   0.466
 5238SOL    HW116613   1.203   5.064   0.390
 5238SOL    HW216614   1.255   5.195   0.473
 5239SOL     OW16615   3.037   3.301   4.109
 5239SOL    HW116616   3.118   3.297   4.051
 5239SOL    HW216617   2.956   3.320   4.054
 5240SOL     OW16618   3.205   2.239   5.390
 5240SOL    HW116619   3.112   2.215   5.364
 5240SOL    HW216620   3.240   2.310   5.329
 5241SOL     OW16621   1.119   6.066   6.278
 5241SOL    HW116622   1.147   6.138   6.215
 5241SOL    HW216623   1.178   6.068   6.359
 5242SOL     OW16624   5.980   1.403   5.920
 5242SOL    HW116625   6.058   1.356   5.961
 5242SOL    HW216626   5.927   1.449   5.992
 5243SOL     OW16627   1.100   6.058   0.999
 5243SOL    HW116628   1.133   6.132   0.940
 5243SOL    HW216629   1.104   5.972   0.948
 5244SOL     OW16630   3.894   4.145   6.021
 5244SOL    HW116631   3.989   4.134   5.994
 5244SOL    HW216632   3.851   4.055   6.030
 5245SOL     OW16633   4.126   4.343   5.939
 5245SOL    HW116634   4.131   4.365   5.842
 5245SOL    HW216635   4.153   4.248   5.953
 5246SOL     OW16636   0.676   2.819   2.566
 5246SOL    HW116637   0.597   2.787   2.618
 5246SOL    HW216638   0.645   2.879   2.492
 5247SOL     OW16639   0.084   5.089   0.562
 5247SOL    HW116640   0.026   5.039   0.627
 5247SOL    HW216641   0.173   5.044   0.555
 5248SOL     OW16642   5.142   0.866   6.377
 5248SOL    HW116643   5.069   0.798   6.369
 5248SOL    HW216644   5.103   0.957   6.388
 5249SOL     OW16645   0.700   5.260   4.952
 5249SOL    HW116646   0.700   5.340   4.892
 5249SOL    HW216647   0.720   5.178   4.899
 5250SOL     OW16648   0.135   1.966   6.098
 5250SOL    HW116649   0.191   2.022   6.159
 5250SOL    HW216650   0.173   1.970   6.005
 5251SOL     OW16651   6.020   3.572   0.885
 5251SOL    HW116652   6.032   3.548   0.981
 5251SOL    HW216653   5.932   3.537   0.853
 5252SOL     OW16654   2.862   5.999   0.930
 5252SOL    HW116655   2.841   5.965   1.021
 5252SOL    HW216656   2.866   6.099   0.931
 5253SOL     OW16657   5.922   3.789   4.482
 5253SOL    HW116658   5.825   3.804   4.502
 5253SOL    HW216659   5.931   3.717   4.414
 5254SOL     OW16660   4.380   1.085   4.433
 5254SOL    HW116661   4.369   0.991   4.465
 5254SOL    HW216662   4.327   1.147   4.491
 5255SOL     OW16663   3.449   0.117   4.873
 5255SOL    HW116664   3.389   0.169   4.813
 5255SOL    HW216665   3.498   0.180   4.933
 5256SOL     OW16666   4.826   1.023   3.799
 5256SOL    HW116667   4.896   1.009   3.728
 5256SOL    HW216668   4.817   0.939   3.853
 5257SOL     OW16669   3.799   6.843   0.450
 5257SOL    HW116670   3.708   6.858   0.487
 5257SOL    HW216671   3.815   6.745   0.440
 5258SOL     OW16672   5.052   4.216   2.410
 5258SOL    HW116673   5.015   4.131   2.371
 5258SOL    HW216674   5.098   4.195   2.496
 5259SOL     OW16675   4.479   6.347   2.672
 5259SOL    HW116676   4.557   6.407   2.652
 5259SOL    HW216677   4.425   6.333   2.588
 5260SOL     OW16678   5.781   3.428   0.766
 5260SOL    HW116679   5.797   3.337   0.728
 5260SOL    HW216680   5.696   3.466   0.729
 5261SOL     OW16681   7.023   2.755   5.067
 5261SOL    HW116682   6.940   2.797   5.031
 5261SOL    HW216683   7.021   2.656   5.050
 5262SOL     OW16684   2.724   6.825   2.520
 5262SOL    HW116685   2.736   6.922   2.501
 5262SOL    HW216686   2.702   6.812   2.617
 5263SOL     OW16687   1.724   0.347   6.183
 5263SOL    HW116688   1.817   0.351   6.219
 5263SOL    HW216689   1.672   0.425   6.218
 5264SOL     OW16690   6.302   1.376   1.624
 5264SOL    HW116691   6.210   1.415   1.628
 5264SOL    HW216692   6.369   1.447   1.645
 5265SOL     OW16693   5.405   4.502   1.968
 5265SOL    HW116694   5.428   4.451   2.051
 5265SOL    HW216695   5.488   4.521   1.916
 5266SOL     OW16696   1.215   6.217   1.577
 5266SOL    HW116697   1.153   6.149   1.538
 5266SOL    HW216698   1.218   6.207   1.676
 5267SOL     OW16699   4.796   5.318   5.297
 5267SOL    HW116700   4.882   5.343   5.254
 5267SOL    HW216701   4.794   5.354   5.390
 5268SOL     OW16702   6.745   5.296   4.987
 5268SOL    HW116703   6.797   5.230   5.041
 5268SOL    HW216704   6.686   5.247   4.921
 5269SOL     OW16705   1.582   5.641   3.937
 5269SOL    HW116706   1.681   5.638   3.948
 5269SOL    HW216707   1.540   5.667   4.024
 5270SOL     OW16708   5.752   2.366   1.544
 5270SOL    HW116709   5.831   2.338   1.600
 5270SOL    HW216710   5.669   2.324   1.581
 5271SOL     OW16711   4.856   4.898   5.416
 5271SOL    HW116712   4.877   4.900   5.513
 5271SOL    HW216713   4.771   4.948   5.399
 5272SOL     OW16714   0.088   5.928   4.921
 5272SOL    HW116715   0.138   6.011   4.945
 5272SOL    HW216716   0.045   5.889   5.003
 5273SOL     OW16717   0.640   2.119   3.903
 5273SOL    HW116718   0.556   2.066   3.893
 5273SOL    HW216719   0.633   2.178   3.983
 5274SOL     OW16720   0.044   4.933   3.359
 5274SOL    HW116721   0.055   5.018   3.409
 5274SOL    HW216722   6.998   4.876   3.404
 5275SOL     OW16723   2.811   0.201   6.441
 5275SOL    HW116724   2.830   0.108   6.472
 5275SOL    HW216725   2.713   0.220   6.451
 5276SOL     OW16726   0.083   6.890   1.714
 5276SOL    HW116727   0.067   6.944   1.632
 5276SOL    HW216728   0.003   6.833   1.733
 5277SOL     OW16729   1.173   1.651   3.859
 5277SOL    HW116730   1.109   1.715   3.901
 5277SOL    HW216731   1.257   1.699   3.833
 5278SOL     OW16732   6.749   6.897   5.789
 5278SOL    HW116733   6.749   6.800   5.762
 5278SOL    HW216734   6.809   6.910   5.868
 5279SOL     OW16735   1.152   5.707   6.331
 5279SOL    HW116736   1.205   5.623   6.346
 5279SOL    HW216737   1.080   5.714   6.400
 5280SOL     OW16738   3.725   6.434   4.752
 5280SOL    HW116739   3.661   6.483   4.692
 5280SOL    HW216740   3.710   6.336   4.744
 5281SOL     OW16741   1.132   0.359   4.516
 5281SOL    HW116742   1.094   0.268   4.534
 5281SOL    HW216743   1.070   0.429   4.554
 5282SOL     OW16744   1.618   0.170   2.979
 5282SOL    HW116745   1.699   0.117   2.953
 5282SOL    HW216746   1.646   0.243   3.042
 5283SOL     OW16747   0.369   0.607   3.913
 5283SOL    HW116748   0.434   0.653   3.974
 5283SOL    HW216749   0.399   0.513   3.899
 5284SOL     OW16750   5.104   2.273   2.201
 5284SOL    HW116751   5.098   2.190   2.257
 5284SOL    HW216752   5.189   2.321   2.221
 5285SOL     OW16753   1.018   3.062   3.273
 5285SOL    HW116754   0.969   2.988   3.227
 5285SOL    HW216755   1.010   3.145   3.217
 5286SOL     OW16756   6.568   3.427   0.557
 5286SOL    HW116757   6.551   3.331   0.536
 5286SOL    HW216758   6.664   3.449   0.539
 5287SOL     OW16759   3.425   5.346   2.099
 5287SOL    HW116760   3.396   5.424   2.154
 5287SOL    HW216761   3.381   5.263   2.133
 5288SOL     OW16762   5.039   0.181   2.126
 5288SOL    HW116763   5.017   0.218   2.216
 5288SOL    HW216764   5.138   0.181   2.113
 5289SOL     OW16765   2.071   5.376   6.345
 5289SOL    HW116766   2.011   5.342   6.417
 5289SOL    HW216767   2.043   5.469   6.320
 5290SOL     OW16768   1.992   4.412   5.963
 5290SOL    HW116769   2.017   4.437   5.869
 5290SOL    HW216770   1.893   4.418   5.974
 5291SOL     OW16771   2.788   4.749   5.529
 5291SOL    HW116772   2.824   4.661   5.561
 5291SOL    HW216773   2.717   4.780   5.592
 5292SOL     OW16774   6.761   4.209   6.519
 5292SOL    HW116775   6.743   4.219   6.617
 5292SOL    HW216776   6.733   4.118   6.489
 5293SOL     OW16777   2.433   5.418   4.483
 5293SOL    HW116778   2.512   5.373   4.441
 5293SOL    HW216779   2.372   5.348   4.521
 5294SOL     OW16780   4.579   0.529   5.470
 5294SOL    HW116781   4.530   0.569   5.393
 5294SOL    HW216782   4.521   0.459   5.513
 5295SOL     OW16783   3.715   0.914   3.408
 5295SOL    HW116784   3.684   0.823   3.434
 5295SOL    HW216785   3.791   0.906   3.343
 5296SOL     OW16786   3.884   4.331   0.710
 5296SOL    HW116787   3.807   4.377   0.664
 5296SOL    HW216788   3.917   4.256   0.652
 5297SOL     OW16789   2.282   3.609   0.443
 5297SOL    HW116790   2.202   3.561   0.406
 5297SOL    HW216791   2.364   3.576   0.397
 5298SOL     OW16792   2.272   6.079   6.875
 5298SOL    HW116793   2.307   6.079   6.782
 5298SOL    HW216794   2.324   6.146   6.929
 5299SOL     OW16795   2.978   2.187   0.815
 5299SOL    HW116796   3.065   2.152   0.781
 5299SOL    HW216797   2.941   2.125   0.884
 5300SOL     OW16798   1.130   4.923   0.876
 5300SOL    HW116799   1.073   5.004   0.890
 5300SOL    HW216800   1.121   4.891   0.782
 5301SOL     OW16801   3.981   0.519   6.997
 5301SOL    HW116802   4.034   0.562   6.925
 5301SOL    HW216803   3.968   0.584   0.049
 5302SOL     OW16804   4.607   5.719   3.799
 5302SOL    HW116805   4.612   5.694   3.703
 5302SOL    HW216806   4.604   5.818   3.809
 5303SOL     OW16807   6.740   5.060   6.121
 5303SOL    HW116808   6.643   5.078   6.139
 5303SOL    HW216809   6.758   5.072   6.023
 5304SOL     OW16810   6.127   1.176   0.990
 5304SOL    HW116811   6.059   1.179   1.064
 5304SOL    HW216812   6.114   1.255   0.930
 5305SOL     OW16813   1.425   5.431   2.724
 5305SOL    HW116814   1.386   5.414   2.633
 5305SOL    HW216815   1.523   5.449   2.714
 5306SOL     OW16816   6.948   4.424   5.772
 5306SOL    HW116817   6.944   4.380   5.862
 5306SOL    HW216818   6.855   4.452   5.745
 5307SOL     OW16819   4.629   1.999   0.578
 5307SOL    HW116820   4.657   2.022   0.671
 5307SOL    HW216821   4.532   2.018   0.566
 5308SOL     OW16822   1.285   4.384   2.810
 5308SOL    HW116823   1.185   4.386   2.808
 5308SOL    HW216824   1.319   4.344   2.725
 5309SOL     OW16825   3.873   6.118   2.363
 5309SOL    HW116826   3.928   6.111   2.446
 5309SOL    HW216827   3.786   6.162   2.384
 5310SOL     OW16828   6.516   3.117   2.544
 5310SOL    HW116829   6.442   3.051   2.563
 5310SOL    HW216830   6.476   3.204   2.515
 5311SOL     OW16831   5.934   0.715   0.110
 5311SOL    HW116832   6.016   0.713   0.052
 5311SOL    HW216833   5.958   0.688   0.203
 5312SOL     OW16834   0.420   5.876   1.492
 5312SOL    HW116835   0.403   5.961   1.442
 5312SOL    HW216836   0.388   5.886   1.586
 5313SOL     OW16837   0.434   4.914   5.410
 5313SOL    HW116838   0.354   4.973   5.396
 5313SOL    HW216839   0.487   4.949   5.487
 5314SOL     OW16840   4.907   6.912   0.561
 5314SOL    HW116841   5.000   6.937   0.536
 5314SOL    HW216842   4.842   6.964   0.505
 5315SOL     OW16843   4.890   2.681   3.428
 5315SOL    HW116844   4.934   2.593   3.412
 5315SOL    HW216845   4.804   2.686   3.377
 5316SOL     OW16846   0.918   3.935   5.658
 5316SOL    HW116847   0.833   3.893   5.689
 5316SOL    HW216848   0.911   4.034   5.667
 5317SOL     OW16849   6.521   1.358   5.004
 5317SOL    HW116850   6.517   1.259   5.020
 5317SOL    HW216851   6.616   1.384   4.984
 5318SOL     OW16852   0.585   2.758   0.869
 5318SOL    HW116853   0.502   2.729   0.915
 5318SOL    HW216854   0.596   2.706   0.784
 5319SOL     OW16855   4.706   6.538   1.132
 5319SOL    HW116856   4.610   6.526   1.106
 5319SOL    HW216857   4.755   6.583   1.057
 5320SOL     OW16858   4.178   5.891   1.150
 5320SOL    HW116859   4.200   5.832   1.227
 5320SOL    HW216860   4.239   5.970   1.150
 5321SOL     OW16861   2.337   4.640   5.079
 5321SOL    HW116862   2.244   4.657   5.111
 5321SOL    HW216863   2.394   4.611   5.155
 5322SOL     OW16864   5.417   0.100   0.541
 5322SOL    HW116865   5.503   0.133   0.503
 5322SOL    HW216866   5.389   0.159   0.616
 5323SOL     OW16867   4.037   0.985   5.983
 5323SOL    HW116868   4.129   0.954   5.962
 5323SOL    HW216869   3.989   1.009   5.899
 5324SOL     OW16870   2.716   1.923   0.062
 5324SOL    HW116871   2.638   1.862   0.073
 5324SOL    HW216872   2.774   1.918   0.143
 5325SOL     OW16873   2.749   1.330   4.958
 5325SOL    HW116874   2.730   1.423   4.990
 5325SOL    HW216875   2.728   1.323   4.861
 5326SOL     OW16876   6.414   5.860   3.349
 5326SOL    HW116877   6.482   5.858   3.276
 5326SOL    HW216878   6.369   5.949   3.350
 5327SOL     OW16879   5.693   2.484   4.831
 5327SOL    HW116880   5.733   2.546   4.898
 5327SOL    HW216881   5.765   2.435   4.784
 5328SOL     OW16882   3.397   3.410   5.769
 5328SOL    HW116883   3.485   3.374   5.735
 5328SOL    HW216884   3.388   3.389   5.866
 5329SOL     OW16885   0.865   5.305   6.396
 5329SOL    HW116886   0.937   5.241   6.423
 5329SOL    HW216887   0.802   5.318   6.472
 5330SOL     OW16888   3.845   4.571   0.116
 5330SOL    HW116889   3.780   4.622   0.060
 5330SOL    HW216890   3.879   4.629   0.190
 5331SOL     OW16891   6.108   1.806   6.632
 5331SOL    HW116892   6.033   1.787   6.695
 5331SOL    HW216893   6.173   1.730   6.635
 5332SOL     OW16894   1.429   3.962   1.531
 5332SOL    HW116895   1.438   4.001   1.440
 5332SOL    HW216896   1.509   3.906   1.552
 5333SOL     OW16897   1.204   1.147   3.126
 5333SOL    HW116898   1.224   1.202   3.045
 5333SOL    HW216899   1.184   1.053   3.098
 5334SOL     OW16900   2.962   0.597   5.364
 5334SOL    HW116901   3.056   0.573   5.387
 5334SOL    HW216902   2.936   0.681   5.411
 5335SOL     OW16903   6.406   6.359   0.871
 5335SOL    HW116904   6.361   6.296   0.934
 5335SOL    HW216905   6.489   6.316   0.835
 5336SOL     OW16906   1.724   3.656   2.498
 5336SOL    HW116907   1.766   3.660   2.407
 5336SOL    HW216908   1.785   3.700   2.564
 5337SOL     OW16909   4.916   3.951   1.343
 5337SOL    HW116910   5.014   3.960   1.359
 5337SOL    HW216911   4.878   3.883   1.406
 5338SOL     OW16912   5.514   1.835   6.573
 5338SOL    HW116913   5.609   1.857   6.552
 5338SOL    HW216914   5.498   1.846   6.671
 5339SOL     OW16915   6.422   1.334   3.792
 5339SOL    HW116916   6.507   1.321   3.741
 5339SOL    HW216917   6.362   1.397   3.742
 5340SOL     OW16918   6.089   3.017   0.439
 5340SOL    HW116919   6.057   2.981   0.527
 5340SOL    HW216920   6.179   3.058   0.451
 5341SOL     OW16921   3.877   2.478   6.200
 5341SOL    HW116922   3.966   2.436   6.217
 5341SOL    HW216923   3.820   2.470   6.281
 5342SOL     OW16924   4.081   0.454   4.974
 5342SOL    HW116925   3.996   0.436   4.925
 5342SOL    HW216926   4.094   0.553   4.982
 5343SOL     OW16927   3.446   3.471   3.513
 5343SOL    HW116928   3.376   3.463   3.441
 5343SOL    HW216929   3.520   3.406   3.493
 5344SOL     OW16930   1.728   2.563   2.595
 5344SOL    HW116931   1.632   2.576   2.568
 5344SOL    HW216932   1.782   2.641   2.562
 5345SOL     OW16933   4.356   6.093   1.133
 5345SOL    HW116934   4.453   6.090   1.107
 5345SOL    HW216935   4.300   6.116   1.053
 5346SOL     OW16936   3.135   6.090   3.592
 5346SOL    HW116937   3.067   6.083   3.519
 5346SOL    HW216938   3.088   6.107   3.679
 5347SOL     OW16939   0.029   2.442   2.412
 5347SOL    HW116940   6.995   2.507   2.363
 5347SOL    HW216941   7.013   2.350   2.404
 5348SOL     OW16942   0.828   1.613   0.512
 5348SOL    HW116943   0.905   1.659   0.555
 5348SOL    HW216944   0.861   1.551   0.441
 5349SOL     OW16945   1.178   2.341   0.646
 5349SOL    HW116946   1.163   2.434   0.612
 5349SOL    HW216947   1.275   2.318   0.638
 5350SOL     OW16948   2.312   0.561   6.039
 5350SOL    HW116949   2.392   0.518   6.082
 5350SOL    HW216950   2.339   0.604   5.953
 5351SOL     OW16951   5.173   5.841   1.459
 5351SOL    HW116952   5.108   5.914   1.480
 5351SOL    HW216953   5.266   5.872   1.477
 5352SOL     OW16954   1.974   5.758   3.723
 5352SOL    HW116955   2.041   5.805   3.781
 5352SOL    HW216956   1.924   5.826   3.668
 5353SOL     OW16957   4.173   6.011   4.573
 5353SOL    HW116958   4.092   6.054   4.534
 5353SOL    HW216959   4.191   6.050   4.663
 5354SOL     OW16960   2.121   4.655   2.500
 5354SOL    HW116961   2.206   4.615   2.467
 5354SOL    HW216962   2.067   4.689   2.423
 5355SOL     OW16963   5.060   2.584   3.937
 5355SOL    HW116964   5.056   2.577   3.837
 5355SOL    HW216965   5.156   2.586   3.967
 5356SOL     OW16966   5.731   4.407   1.496
 5356SOL    HW116967   5.648   4.369   1.538
 5356SOL    HW216968   5.790   4.445   1.567
 5357SOL     OW16969   3.720   0.541   1.483
 5357SOL    HW116970   3.621   0.547   1.501
 5357SOL    HW216971   3.743   0.449   1.453
 5358SOL     OW16972   4.330   2.294   0.977
 5358SOL    HW116973   4.430   2.294   0.985
 5358SOL    HW216974   4.294   2.383   1.007
 5359SOL     OW16975   2.374   1.500   0.132
 5359SOL    HW116976   2.465   1.476   0.164
 5359SOL    HW216977   2.307   1.437   0.170
 5360SOL     OW16978   3.991   6.797   4.671
 5360SOL    HW116979   3.922   6.789   4.599
 5360SOL    HW216980   4.075   6.836   4.633
 5361SOL     OW16981   2.709   6.991   4.903
 5361SOL    HW116982   2.808   6.993   4.886
 5361SOL    HW216983   2.661   7.010   4.817
 5362SOL     OW16984   5.129   4.326   3.401
 5362SOL    HW116985   5.140   4.264   3.478
 5362SOL    HW216986   5.173   4.288   3.320
 5363SOL     OW16987   1.020   6.272   5.780
 5363SOL    HW116988   0.932   6.248   5.821
 5363SOL    HW216989   1.086   6.199   5.796
 5364SOL     OW16990   6.477   5.504   0.985
 5364SOL    HW116991   6.425   5.484   1.068
 5364SOL    HW216992   6.529   5.588   0.998
 5365SOL     OW16993   4.547   2.910   6.425
 5365SOL    HW116994   4.460   2.954   6.403
 5365SOL    HW216995   4.614   2.981   6.449
 5366SOL     OW16996   5.207   4.643   1.139
 5366SOL    HW116997   5.297   4.656   1.098
 5366SOL    HW216998   5.136   4.658   1.070
 5367SOL     OW16999   0.243   5.311   0.591
 5367SOL    HW117000   0.294   5.313   0.677
 5367SOL    HW217001   0.177   5.236   0.593
 5368SOL     OW17002   4.858   1.689   2.983
 5368SOL    HW117003   4.760   1.704   2.971
 5368SOL    HW217004   4.873   1.631   3.063
 5369SOL     OW17005   2.640   6.110   3.377
 5369SOL    HW117006   2.668   6.080   3.469
 5369SOL    HW217007   2.549   6.074   3.356
 5370SOL     OW17008   3.953   3.017   1.898
 5370SOL    HW117009   3.879   2.995   1.962
 5370SOL    HW217010   4.005   3.095   1.934
 5371SOL     OW17011   1.765   4.087   4.456
 5371SOL    HW117012   1.817   4.002   4.455
 5371SOL    HW217013   1.689   4.081   4.391
 5372SOL     OW17014   2.415   5.362   2.036
 5372SOL    HW117015   2.348   5.434   2.015
 5372SOL    HW217016   2.396   5.325   2.127
 5373SOL     OW17017   3.084   4.828   4.064
 5373SOL    HW117018   3.135   4.828   4.151
 5373SOL    HW217019   3.146   4.855   3.990
 5374SOL     OW17020   1.455   3.414   0.182
 5374SOL    HW117021   1.490   3.353   0.111
 5374SOL    HW217022   1.469   3.509   0.154
 5375SOL     OW17023   1.049   4.914   4.999
 5375SOL    HW117024   1.013   4.938   5.090
 5375SOL    HW217025   1.098   4.828   5.005
 5376SOL     OW17026   1.370   3.505   1.245
 5376SOL    HW117027   1.373   3.563   1.326
 5376SOL    HW217028   1.440   3.434   1.252
 5377SOL     OW17029   6.986   0.145   1.732
 5377SOL    HW117030   0.045   0.157   1.787
 5377SOL    HW217031   7.011   0.108   1.642
 5378SOL     OW17032   6.894   0.531   1.340
 5378SOL    HW117033   6.841   0.611   1.364
 5378SOL    HW217034   6.861   0.452   1.391
 5379SOL     OW17035   0.306   5.386   4.158
 5379SOL    HW117036   0.307   5.435   4.246
 5379SOL    HW217037   0.247   5.306   4.165
 5380SOL     OW17038   2.180   1.018   3.531
 5380SOL    HW117039   2.228   0.983   3.612
 5380SOL    HW217040   2.235   1.089   3.488
 5381SOL     OW17041   6.306   3.633   0.510
 5381SOL    HW117042   6.217   3.591   0.494
 5381SOL    HW217043   6.373   3.594   0.447
 5382SOL     OW17044   3.196   0.187   2.122
 5382SOL    HW117045   3.270   0.233   2.073
 5382SOL    HW217046   3.192   0.091   2.094
 5383SOL     OW17047   2.967   2.177   5.244
 5383SOL    HW117048   2.999   2.088   5.275
 5383SOL    HW217049   3.031   2.214   5.177
 5384SOL     OW17050   5.972   0.879   3.944
 5384SOL    HW117051   5.992   0.911   3.852
 5384SOL    HW217052   6.047   0.903   4.005
 5385SOL     OW17053   3.181   4.035   3.059
 5385SOL    HW117054   3.260   4.058   3.116
 5385SOL    HW217055   3.208   4.035   2.963
 5386SOL     OW17056   4.925   6.576   4.137
 5386SOL    HW117057   4.968   6.488   4.155
 5386SOL    HW217058   4.828   6.571   4.160
 5387SOL     OW17059   2.136   5.996   3.306
 5387SOL    HW117060   2.161   6.087   3.340
 5387SOL    HW217061   2.036   5.990   3.300
 5388SOL     OW17062   5.391   6.154   3.088
 5388SOL    HW117063   5.399   6.211   3.170
 5388SOL    HW217064   5.444   6.070   3.101
 5389SOL     OW17065   5.055   0.704   1.453
 5389SOL    HW117066   5.042   0.611   1.417
 5389SOL    HW217067   5.103   0.699   1.540
 5390SOL     OW17068   4.151   5.247   4.192
 5390SOL    HW117069   4.226   5.313   4.188
 5390SOL    HW217070   4.152   5.201   4.281
 5391SOL     OW17071   2.397   2.270   0.542
 5391SOL    HW117072   2.450   2.199   0.590
 5391SOL    HW217073   2.459   2.341   0.509
 5392SOL     OW17074   6.274   3.637   0.795
 5392SOL    HW117075   6.293   3.632   0.697
 5392SOL    HW217076   6.175   3.640   0.809
 5393SOL     OW17077   6.432   6.766   6.943
 5393SOL    HW117078   6.375   6.841   6.980
 5393SOL    HW217079   6.525   6.799   6.929
 5394SOL     OW17080   0.379   3.867   6.156
 5394SOL    HW117081   0.386   3.918   6.242
 5394SOL    HW217082   0.285   3.871   6.123
 5395SOL     OW17083   4.563   0.770   1.734
 5395SOL    HW117084   4.551   0.741   1.829
 5395SOL    HW217085   4.648   0.822   1.726
 5396SOL     OW17086   4.896   3.284   2.697
 5396SOL    HW117087   4.995   3.282   2.704
 5396SOL    HW217088   4.857   3.213   2.756
 5397SOL     OW17089   6.908   3.036   1.519
 5397SOL    HW117090   6.982   2.997   1.464
 5397SOL    HW217091   6.945   3.110   1.576
 5398SOL     OW17092   3.576   1.924   1.488
 5398SOL    HW117093   3.599   2.010   1.534
 5398SOL    HW217094   3.598   1.847   1.548
 5399SOL     OW17095   1.943   6.529   0.900
 5399SOL    HW117096   1.964   6.594   0.827
 5399SOL    HW217097   2.000   6.447   0.888
 5400SOL     OW17098   3.209   4.137   0.906
 5400SOL    HW117099   3.212   4.059   0.843
 5400SOL    HW217100   3.182   4.219   0.855
 5401SOL     OW17101   5.727   3.419   1.357
 5401SOL    HW117102   5.635   3.441   1.325
 5401SOL    HW217103   5.794   3.460   1.296
 5402SOL     OW17104   2.598   5.742   1.914
 5402SOL    HW117105   2.576   5.715   2.007
 5402SOL    HW217106   2.645   5.666   1.867
 5403SOL     OW17107   6.569   3.006   6.523
 5403SOL    HW117108   6.519   2.962   6.449
 5403SOL    HW217109   6.590   3.101   6.496
 5404SOL     OW17110   1.094   2.084   3.275
 5404SOL    HW117111   1.006   2.076   3.228
 5404SOL    HW217112   1.151   2.151   3.228
 5405SOL     OW17113   6.531   5.592   0.519
 5405SOL    HW117114   6.463   5.562   0.586
 5405SOL    HW217115   6.598   5.520   0.504
 5406SOL     OW17116   2.412   1.519   6.300
 5406SOL    HW117117   2.417   1.422   6.274
 5406SOL    HW217118   2.393   1.574   6.218
 5407SOL     OW17119   4.629   3.391   0.412
 5407SOL    HW117120   4.635   3.360   0.507
 5407SOL    HW217121   4.538   3.429   0.395
 5408SOL     OW17122   2.355   1.202   5.574
 5408SOL    HW117123   2.453   1.184   5.571
 5408SOL    HW217124   2.320   1.207   5.481
 5409SOL     OW17125   5.249   6.964   3.201
 5409SOL    HW117126   5.230   6.997   3.293
 5409SOL    HW217127   5.344   6.982   3.178
 5410SOL     OW17128   2.748   2.273   1.760
 5410SOL    HW117129   2.677   2.271   1.831
 5410SOL    HW217130   2.821   2.335   1.788
 5411SOL     OW17131   6.559   4.871   5.887
 5411SOL    HW117132   6.564   4.969   5.871
 5411SOL    HW217133   6.549   4.824   5.799
 5412SOL     OW17134   4.877   2.241   0.598
 5412SOL    HW117135   4.914   2.333   0.612
 5412SOL    HW217136   4.884   2.188   0.682
 5413SOL     OW17137   3.165   0.939   1.203
 5413SOL    HW117138   3.251   0.898   1.170
 5413SOL    HW217139   3.104   0.954   1.126
 5414SOL     OW17140   5.339   2.046   4.833
 5414SOL    HW117141   5.298   2.137   4.829
 5414SOL    HW217142   5.410   2.044   4.904
 5415SOL     OW17143   0.489   5.666   1.344
 5415SOL    HW117144   0.467   5.748   1.398
 5415SOL    HW217145   0.412   5.644   1.285
 5416SOL     OW17146   4.771   5.514   5.550
 5416SOL    HW117147   4.790   5.612   5.537
 5416SOL    HW217148   4.797   5.487   5.642
 5417SOL     OW17149   3.644   6.806   5.859
 5417SOL    HW117150   3.726   6.828   5.912
 5417SOL    HW217151   3.670   6.789   5.764
 5418SOL     OW17152   3.625   0.394   3.426
 5418SOL    HW117153   3.562   0.329   3.468
 5418SOL    HW217154   3.591   0.421   3.336
 5419SOL     OW17155   3.742   5.156   0.068
 5419SOL    HW117156   3.671   5.215   0.031
 5419SOL    HW217157   3.766   5.186   0.161
 5420SOL     OW17158   2.160   3.256   3.120
 5420SOL    HW117159   2.260   3.256   3.113
 5420SOL    HW217160   2.126   3.164   3.102
 5421SOL     OW17161   1.390   3.366   1.555
 5421SOL    HW117162   1.310   3.336   1.503
 5421SOL    HW217163   1.396   3.465   1.553
 5422SOL     OW17164   0.285   4.925   0.504
 5422SOL    HW117165   0.234   4.860   0.447
 5422SOL    HW217166   0.288   4.891   0.598
 5423SOL     OW17167   6.941   3.127   6.952
 5423SOL    HW117168   6.862   3.186   6.940
 5423SOL    HW217169   7.001   3.135   6.873
 5424SOL     OW17170   5.310   3.097   3.614
 5424SOL    HW117171   5.392   3.051   3.582
 5424SOL    HW217172   5.335   3.173   3.673
 5425SOL     OW17173   4.118   0.953   4.620
 5425SOL    HW117174   4.064   1.033   4.644
 5425SOL    HW217175   4.116   0.940   4.521
 5426SOL     OW17176   5.937   5.984   4.452
 5426SOL    HW117177   5.979   5.947   4.535
 5426SOL    HW217178   5.848   5.941   4.437
 5427SOL     OW17179   5.037   5.596   6.282
 5427SOL    HW117180   5.128   5.554   6.290
 5427SOL    HW217181   5.046   5.695   6.294
 5428SOL     OW17182   6.770   0.219   1.456
 5428SOL    HW117183   6.698   0.288   1.452
 5428SOL    HW217184   6.860   0.264   1.454
 5429SOL     OW17185   2.166   1.931   6.230
 5429SOL    HW117186   2.120   1.881   6.156
 5429SOL    HW217187   2.212   1.866   6.290
 5430SOL     OW17188   6.837   2.770   5.701
 5430SOL    HW117189   6.936   2.756   5.708
 5430SOL    HW217190   6.816   2.868   5.704
 5431SOL     OW17191   3.224   5.970   0.671
 5431SOL    HW117192   3.142   5.916   0.687
 5431SOL    HW217193   3.293   5.914   0.625
 5432SOL     OW17194   5.619   0.668   6.758
 5432SOL    HW117195   5.597   0.721   6.676
 5432SOL    HW217196   5.576   0.710   6.838
 5433SOL     OW17197   0.476   2.112   4.730
 5433SOL    HW117198   0.561   2.069   4.701
 5433SOL    HW217199   0.423   2.047   4.785
 5434SOL     OW17200   3.357   0.798   5.628
 5434SOL    HW117201   3.406   0.797   5.541
 5434SOL    HW217202   3.355   0.891   5.664
 5435SOL     OW17203   5.979   6.752   2.043
 5435SOL    HW117204   6.022   6.776   2.130
 5435SOL    HW217205   5.889   6.713   2.060
 5436SOL     OW17206   5.309   3.955   3.906
 5436SOL    HW117207   5.254   4.018   3.961
 5436SOL    HW217208   5.249   3.902   3.846
 5437SOL     OW17209   2.782   3.823   0.122
 5437SOL    HW117210   2.761   3.920   0.122
 5437SOL    HW217211   2.761   3.784   0.212
 5438SOL     OW17212   6.790   2.191   1.643
 5438SOL    HW117213   6.719   2.188   1.574
 5438SOL    HW217214   6.763   2.133   1.720
 5439SOL     OW17215   1.284   1.963   1.233
 5439SOL    HW117216   1.221   1.959   1.155
 5439SOL    HW217217   1.260   2.041   1.291
 5440SOL     OW17218   1.078   1.336   0.817
 5440SOL    HW117219   1.085   1.237   0.804
 5440SOL    HW217220   1.169   1.377   0.806
 5441SOL     OW17221   4.269   2.320   3.559
 5441SOL    HW117222   4.368   2.331   3.545
 5441SOL    HW217223   4.222   2.331   3.471
 5442SOL     OW17224   4.108   6.495   3.033
 5442SOL    HW117225   4.158   6.563   2.979
 5442SOL    HW217226   4.171   6.423   3.063
 5443SOL     OW17227   3.883   0.111   4.510
 5443SOL    HW117228   3.945   0.054   4.456
 5443SOL    HW217229   3.809   0.054   4.546
 5444SOL     OW17230   1.128   0.790   4.377
 5444SOL    HW117231   1.096   0.788   4.282
 5444SOL    HW217232   1.052   0.816   4.437
 5445SOL     OW17233   6.497   3.895   3.402
 5445SOL    HW117234   6.533   3.831   3.334
 5445SOL    HW217235   6.574   3.941   3.448
 5446SOL     OW17236   6.443   5.217   4.698
 5446SOL    HW117237   6.424   5.312   4.724
 5446SOL    HW217238   6.410   5.156   4.770
 5447SOL     OW17239   2.875   2.388   6.985
 5447SOL    HW117240   2.950   2.338   6.942
 5447SOL    HW217241   2.832   2.448   6.917
 5448SOL     OW17242   4.198   3.019   5.383
 5448SOL    HW117243   4.156   3.018   5.474
 5448SOL    HW217244   4.160   2.945   5.328
 5449SOL     OW17245   1.657   3.057   6.324
 5449SOL    HW117246   1.671   3.091   6.417
 5449SOL    HW217247   1.612   2.968   6.327
 5450SOL     OW17248   2.081   0.441   1.718
 5450SOL    HW117249   1.995   0.472   1.675
 5450SOL    HW217250   2.068   0.433   1.816
 5451SOL     OW17251   1.849   5.955   3.219
 5451SOL    HW117252   1.812   5.892   3.287
 5451SOL    HW217253   1.775   6.014   3.185
 5452SOL     OW17254   2.123   4.812   6.775
 5452SOL    HW117255   2.024   4.801   6.764
 5452SOL    HW217256   2.169   4.725   6.756
 5453SOL     OW17257   6.143   4.069   0.525
 5453SOL    HW117258   6.169   4.133   0.453
 5453SOL    HW217259   6.154   3.975   0.492
 5454SOL     OW17260   0.149   4.104   6.967
 5454SOL    HW117261   0.088   4.026   6.954
 5454SOL    HW217262   0.239   4.071   6.995
 5455SOL     OW17263   6.505   3.312   6.785
 5455SOL    HW117264   6.445   3.236   6.760
 5455SOL    HW217265   6.478   3.394   6.736
 5456SOL     OW17266   3.575   6.742   6.989
 5456SOL    HW117267   3.528   6.677   6.929
 5456SOL    HW217268   3.643   6.793   6.936
 5457SOL     OW17269   5.512   1.930   0.756
 5457SOL    HW117270   5.550   2.000   0.816
 5457SOL    HW217271   5.544   1.840   0.786
 5458SOL     OW17272   0.541   4.706   0.287
 5458SOL    HW117273   0.496   4.757   0.214
 5458SOL    HW217274   0.567   4.769   0.360
 5459SOL     OW17275   1.713   5.071   0.179
 5459SOL    HW117276   1.717   5.006   0.102
 5459SOL    HW217277   1.783   5.047   0.246
 5460SOL     OW17278   3.044   0.126   2.547
 5460SOL    HW117279   3.111   0.065   2.505
 5460SOL    HW217280   3.028   0.205   2.488
 5461SOL     OW17281   6.113   6.230   5.020
 5461SOL    HW117282   6.132   6.180   4.935
 5461SOL    HW217283   6.015   6.227   5.039
 5462SOL     OW17284   1.278   0.419   0.287
 5462SOL    HW117285   1.314   0.367   0.365
 5462SOL    HW217286   1.287   0.517   0.306
 5463SOL     OW17287   5.990   2.028   0.175
 5463SOL    HW117288   5.985   2.065   0.082
 5463SOL    HW217289   6.085   2.016   0.201
 5464SOL     OW17290   1.617   0.440   4.426
 5464SOL    HW117291   1.673   0.493   4.362
 5464SOL    HW217292   1.666   0.427   4.512
 5465SOL     OW17293   3.579   6.767   3.451
 5465SOL    HW117294   3.554   6.748   3.356
 5465SOL    HW217295   3.664   6.820   3.453
 5466SOL     OW17296   5.584   4.612   4.613
 5466SOL    HW117297   5.491   4.579   4.596
 5466SOL    HW217298   5.613   4.587   4.705
 5467SOL     OW17299   5.104   2.221   3.135
 5467SOL    HW117300   5.059   2.148   3.187
 5467SOL    HW217301   5.160   2.181   3.063
 5468SOL     OW17302   5.191   1.491   4.407
 5468SOL    HW117303   5.202   1.589   4.391
 5468SOL    HW217304   5.265   1.458   4.466
 5469SOL     OW17305   3.963   5.427   6.897
 5469SOL    HW117306   3.946   5.507   6.840
 5469SOL    HW217307   3.926   5.346   6.853
 5470SOL     OW17308   2.202   5.367   2.824
 5470SOL    HW117309   2.166   5.276   2.846
 5470SOL    HW217310   2.187   5.386   2.727
 5471SOL     OW17311   5.689   6.955   1.351
 5471SOL    HW117312   5.783   6.949   1.317
 5471SOL    HW217313   5.626   6.962   1.273
 5472SOL     OW17314   4.080   4.313   6.214
 5472SOL    HW117315   4.102   4.352   6.125
 5472SOL    HW217316   3.999   4.254   6.206
 5473SOL     OW17317   0.707   3.616   3.287
 5473SOL    HW117318   0.688   3.600   3.383
 5473SOL    HW217319   0.781   3.555   3.257
 5474SOL     OW17320   1.506   4.444   4.665
 5474SOL    HW117321   1.541   4.361   4.709
 5474SOL    HW217322   1.437   4.486   4.724
 5475SOL     OW17323   3.569   2.711   0.924
 5475SOL    HW117324   3.645   2.698   0.989
 5475SOL    HW217325   3.578   2.647   0.849
 5476SOL     OW17326   2.295   3.413   6.309
 5476SOL    HW117327   2.300   3.474   6.388
 5476SOL    HW217328   2.383   3.368   6.296
 5477SOL     OW17329   1.900   3.550   3.566
 5477SOL    HW117330   1.912   3.649   3.566
 5477SOL    HW217331   1.944   3.511   3.646
 5478SOL     OW17332   5.293   6.036   5.543
 5478SOL    HW117333   5.374   6.046   5.601
 5478SOL    HW217334   5.211   6.051   5.597
 5479SOL     OW17335   4.717   0.814   5.518
 5479SOL    HW117336   4.710   0.787   5.422
 5479SOL    HW217337   4.627   0.808   5.561
 5480SOL     OW17338   0.496   3.501   3.804
 5480SOL    HW117339   0.404   3.466   3.820
 5480SOL    HW217340   0.494   3.601   3.801
 5481SOL     OW17341   3.216   0.542   4.594
 5481SOL    HW117342   3.165   0.456   4.599
 5481SOL    HW217343   3.274   0.542   4.512
 5482SOL     OW17344   3.794   4.412   1.629
 5482SOL    HW117345   3.874   4.460   1.664
 5482SOL    HW217346   3.823   4.327   1.583
 5483SOL     OW17347   0.738   3.357   5.296
 5483SOL    HW117348   0.826   3.350   5.250
 5483SOL    HW217349   0.703   3.451   5.288
 5484SOL     OW17350   4.726   0.212   5.004
 5484SOL    HW117351   4.693   0.204   5.098
 5484SOL    HW217352   4.651   0.192   4.941
 5485SOL     OW17353   3.148   6.673   5.390
 5485SOL    HW117354   3.149   6.689   5.489
 5485SOL    HW217355   3.139   6.760   5.342
 5486SOL     OW17356   2.672   5.807   5.091
 5486SOL    HW117357   2.645   5.778   4.999
 5486SOL    HW217358   2.741   5.744   5.127
 5487SOL     OW17359   3.168   4.586   6.015
 5487SOL    HW117360   3.248   4.536   5.983
 5487SOL    HW217361   3.183   4.684   6.005
 5488SOL     OW17362   6.670   0.911   0.569
 5488SOL    HW117363   6.708   0.971   0.639
 5488SOL    HW217364   6.617   0.965   0.504
 5489SOL     OW17365   6.655   3.080   2.323
 5489SOL    HW117366   6.595   3.097   2.401
 5489SOL    HW217367   6.733   3.023   2.353
 5490SOL     OW17368   1.770   6.673   2.710
 5490SOL    HW117369   1.731   6.585   2.683
 5490SOL    HW217370   1.702   6.745   2.695
 5491SOL     OW17371   6.977   2.939   0.535
 5491SOL    HW117372   0.046   2.975   0.551
 5491SOL    HW217373   6.920   2.958   0.615
 5492SOL     OW17374   1.319   3.142   5.475
 5492SOL    HW117375   1.323   3.241   5.491
 5492SOL    HW217376   1.410   3.109   5.451
 5493SOL     OW17377   4.098   3.651   2.178
 5493SOL    HW117378   4.059   3.617   2.264
 5493SOL    HW217379   4.162   3.725   2.197
 5494SOL     OW17380   5.888   4.582   5.537
 5494SOL    HW117381   5.935   4.534   5.462
 5494SOL    HW217382   5.833   4.656   5.499
 5495SOL     OW17383   6.036   0.844   0.365
 5495SOL    HW117384   5.945   0.855   0.323
 5495SOL    HW217385   6.050   0.749   0.390
 5496SOL     OW17386   4.319   0.480   4.205
 5496SOL    HW117387   4.390   0.411   4.217
 5496SOL    HW217388   4.342   0.562   4.258
 5497SOL     OW17389   0.220   0.921   5.784
 5497SOL    HW117390   0.158   0.855   5.828
 5497SOL    HW217391   0.192   0.934   5.689
 5498SOL     OW17392   0.195   4.828   1.683
 5498SOL    HW117393   0.250   4.757   1.639
 5498SOL    HW217394   0.230   4.918   1.657
 5499SOL     OW17395   0.360   1.023   4.130
 5499SOL    HW117396   0.285   1.023   4.064
 5499SOL    HW217397   0.324   1.022   4.223
 5500SOL     OW17398   1.719   0.833   0.035
 5500SOL    HW117399   1.620   0.827   0.033
 5500SOL    HW217400   1.759   0.760   7.003
 5501SOL     OW17401   3.896   2.505   0.267
 5501SOL    HW117402   3.820   2.545   0.216
 5501SOL    HW217403   3.894   2.537   0.362
 5502SOL     OW17404   5.039   3.793   6.190
 5502SOL    HW117405   5.036   3.879   6.139
 5502SOL    HW217406   5.070   3.719   6.131
 5503SOL     OW17407   0.347   3.651   0.202
 5503SOL    HW117408   0.381   3.616   0.289
 5503SOL    HW217409   0.373   3.589   0.129
 5504SOL     OW17410   3.901   1.157   6.709
 5504SOL    HW117411   3.941   1.105   6.634
 5504SOL    HW217412   3.852   1.095   6.770
 5505SOL     OW17413   2.171   3.812   4.102
 5505SOL    HW117414   2.183   3.769   4.191
 5505SOL    HW217415   2.078   3.794   4.069
 5506SOL     OW17416   0.386   3.400   6.114
 5506SOL    HW117417   0.372   3.482   6.169
 5506SOL    HW217418   0.473   3.408   6.065
 5507SOL     OW17419   3.156   0.626   5.978
 5507SOL    HW117420   3.060   0.614   5.952
 5507SOL    HW217421   3.214   0.603   5.900
 5508SOL     OW17422   1.033   1.088   6.605
 5508SOL    HW117423   1.076   1.024   6.668
 5508SOL    HW217424   1.053   1.060   6.511
 5509SOL     OW17425   6.972   5.098   1.193
 5509SOL    HW117426   0.037   5.140   1.169
 5509SOL    HW217427   6.988   5.017   1.248
 5510SOL     OW17428   4.652   5.653   0.211
 5510SOL    HW117429   4.596   5.574   0.235
 5510SOL    HW217430   4.744   5.622   0.187
 5511SOL     OW17431   0.447   1.748   5.111
 5511SOL    HW117432   0.534   1.705   5.090
 5511SOL    HW217433   0.414   1.797   5.030
 5512SOL     OW17434   3.451   1.301   2.105
 5512SOL    HW117435   3.356   1.325   2.125
 5512SOL    HW217436   3.455   1.245   2.022
 5513SOL     OW17437   4.086   4.561   6.520
 5513SOL    HW117438   4.097   4.623   6.598
 5513SOL    HW217439   3.997   4.515   6.527
 5514SOL     OW17440   2.765   6.436   5.295
 5514SOL    HW117441   2.781   6.352   5.243
 5514SOL    HW217442   2.778   6.515   5.235
 5515SOL     OW17443   2.001   5.766   1.672
 5515SOL    HW117444   1.919   5.807   1.632
 5515SOL    HW217445   1.991   5.667   1.673
 5516SOL     OW17446   2.540   2.653   5.238
 5516SOL    HW117447   2.524   2.602   5.154
 5516SOL    HW217448   2.548   2.750   5.217
 5517SOL     OW17449   1.892   3.770   2.702
 5517SOL    HW117450   1.853   3.834   2.768
 5517SOL    HW217451   1.991   3.782   2.699
 5518SOL     OW17452   5.074   4.445   5.576
 5518SOL    HW117453   4.999   4.491   5.624
 5518SOL    HW217454   5.161   4.466   5.621
 5519SOL     OW17455   4.698   2.729   3.938
 5519SOL    HW117456   4.660   2.663   3.873
 5519SOL    HW217457   4.693   2.821   3.899
 5520SOL     OW17458   5.710   6.412   2.309
 5520SOL    HW117459   5.709   6.494   2.366
 5520SOL    HW217460   5.746   6.335   2.363
 5521SOL     OW17461   6.108   5.039   2.328
 5521SOL    HW117462   6.061   5.033   2.240
 5521SOL    HW217463   6.092   5.129   2.369
 5522SOL     OW17464   5.729   5.168   1.549
 5522SOL    HW117465   5.762   5.229   1.621
 5522SOL    HW217466   5.754   5.073   1.572
 5523SOL     OW17467   5.623   1.088   2.567
 5523SOL    HW117468   5.644   1.074   2.664
 5523SOL    HW217469   5.594   1.001   2.526
 5524SOL     OW17470   3.303   0.429   4.925
 5524SOL    HW117471   3.274   0.356   4.863
 5524SOL    HW217472   3.227   0.456   4.983
 5525SOL     OW17473   6.545   2.869   1.043
 5525SOL    HW117474   6.644   2.865   1.051
 5525SOL    HW217475   6.511   2.953   1.086
 5526SOL     OW17476   4.935   4.305   3.090
 5526SOL    HW117477   4.891   4.326   3.003
 5526SOL    HW217478   4.866   4.276   3.156
 5527SOL     OW17479   5.154   2.827   4.096
 5527SOL    HW117480   5.171   2.828   4.195
 5527SOL    HW217481   5.056   2.820   4.079
 5528SOL     OW17482   1.326   1.703   1.298
 5528SOL    HW117483   1.354   1.692   1.393
 5528SOL    HW217484   1.328   1.800   1.274
 5529SOL     OW17485   2.830   0.716   2.653
 5529SOL    HW117486   2.838   0.816   2.648
 5529SOL    HW217487   2.741   0.693   2.693
 5530SOL     OW17488   6.604   2.231   1.403
 5530SOL    HW117489   6.682   2.174   1.379
 5530SOL    HW217490   6.572   2.280   1.322
 5531SOL     OW17491   4.103   3.733   1.406
 5531SOL    HW117492   4.091   3.635   1.392
 5531SOL    HW217493   4.085   3.756   1.501
 5532SOL     OW17494   2.118   2.855   1.329
 5532SOL    HW117495   2.197   2.901   1.369
 5532SOL    HW217496   2.114   2.874   1.231
 5533SOL     OW17497   4.415   1.829   4.448
 5533SOL    HW117498   4.323   1.868   4.448
 5533SOL    HW217499   4.425   1.768   4.369
 5534SOL     OW17500   0.672   1.233   5.393
 5534SOL    HW117501   0.656   1.328   5.420
 5534SOL    HW217502   0.596   1.201   5.336
 5535SOL     OW17503   1.276   1.553   2.845
 5535SOL    HW117504   1.287   1.580   2.750
 5535SOL    HW217505   1.355   1.500   2.875
 5536SOL     OW17506   2.728   0.978   5.324
 5536SOL    HW117507   2.702   0.910   5.256
 5536SOL    HW217508   2.791   1.044   5.283
 5537SOL     OW17509   3.270   1.589   2.830
 5537SOL    HW117510   3.303   1.637   2.911
 5537SOL    HW217511   3.288   1.645   2.749
 5538SOL     OW17512   4.753   5.489   4.724
 5538SOL    HW117513   4.784   5.495   4.819
 5538SOL    HW217514   4.701   5.404   4.711
 5539SOL     OW17515   2.355   2.688   0.814
 5539SOL    HW117516   2.393   2.776   0.784
 5539SOL    HW217517   2.295   2.703   0.892
 5540SOL     OW17518   5.220   5.225   2.917
 5540SOL    HW117519   5.247   5.200   3.010
 5540SOL    HW217520   5.169   5.311   2.918
 5541SOL     OW17521   4.911   1.457   6.187
 5541SOL    HW117522   4.975   1.533   6.189
 5541SOL    HW217523   4.870   1.446   6.278
 5542SOL     OW17524   4.018   4.923   6.270
 5542SOL    HW117525   4.106   4.899   6.311
 5542SOL    HW217526   3.962   4.841   6.261
 5543SOL     OW17527   6.172   3.048   6.310
 5543SOL    HW117528   6.254   3.026   6.258
 5543SOL    HW217529   6.111   3.105   6.255
 5544SOL     OW17530   5.735   0.836   5.582
 5544SOL    HW117531   5.658   0.900   5.574
 5544SOL    HW217532   5.758   0.824   5.678
 5545SOL     OW17533   3.858   2.066   2.203
 5545SOL    HW117534   3.794   2.120   2.148
 5545SOL    HW217535   3.928   2.027   2.143
 5546SOL     OW17536   2.220   5.084   5.925
 5546SOL    HW117537   2.133   5.120   5.892
 5546SOL    HW217538   2.204   5.029   6.008
 5547SOL     OW17539   3.106   5.216   5.904
 5547SOL    HW117540   3.055   5.138   5.867
 5547SOL    HW217541   3.204   5.199   5.896
 5548SOL     OW17542   6.468   3.512   5.192
 5548SOL    HW117543   6.490   3.597   5.145
 5548SOL    HW217544   6.385   3.472   5.153
 5549SOL     OW17545   2.654   5.072   0.286
 5549SOL    HW117546   2.743   5.057   0.244
 5549SOL    HW217547   2.585   5.018   0.238
 5550SOL     OW17548   3.923   6.097   1.363
 5550SOL    HW117549   3.987   6.096   1.441
 5550SOL    HW217550   3.829   6.089   1.397
 5551SOL     OW17551   1.186   1.613   3.403
 5551SOL    HW117552   1.218   1.544   3.338
 5551SOL    HW217553   1.175   1.701   3.355
 5552SOL     OW17554   0.384   2.435   1.343
 5552SOL    HW117555   0.437   2.412   1.425
 5552SOL    HW217556   0.389   2.534   1.328
 5553SOL     OW17557   5.254   6.239   0.824
 5553SOL    HW117558   5.346   6.201   0.835
 5553SOL    HW217559   5.257   6.311   0.754
 5554SOL     OW17560   2.700   1.946   5.002
 5554SOL    HW117561   2.795   1.957   4.974
 5554SOL    HW217562   2.696   1.935   5.102
 5555SOL     OW17563   0.113   4.974   3.732
 5555SOL    HW117564   0.181   4.902   3.744
 5555SOL    HW217565   0.113   5.004   3.637
 5556SOL     OW17566   0.463   2.137   5.137
 5556SOL    HW117567   0.533   2.067   5.126
 5556SOL    HW217568   0.374   2.098   5.112
 5557SOL     OW17569   2.016   6.953   3.908
 5557SOL    HW117570   2.084   6.879   3.902
 5557SOL    HW217571   1.934   6.928   3.857
 5558SOL     OW17572   5.085   3.083   5.182
 5558SOL    HW117573   5.045   3.084   5.274
 5558SOL    HW217574   5.118   3.175   5.160
 5559SOL     OW17575   2.287   0.551   0.962
 5559SOL    HW117576   2.339   0.612   0.902
 5559SOL    HW217577   2.189   0.560   0.942
 5560SOL     OW17578   0.157   1.017   3.881
 5560SOL    HW117579   0.177   0.920   3.867
 5560SOL    HW217580   0.138   1.060   3.793
 5561SOL     OW17581   1.690   2.630   3.418
 5561SOL    HW117582   1.664   2.727   3.413
 5561SOL    HW217583   1.669   2.585   3.332
 5562SOL     OW17584   2.528   3.252   6.289
 5562SOL    HW117585   2.566   3.265   6.381
 5562SOL    HW217586   2.585   3.186   6.239
 5563SOL     OW17587   4.597   5.760   1.809
 5563SOL    HW117588   4.663   5.786   1.739
 5563SOL    HW217589   4.643   5.756   1.898
 5564SOL     OW17590   5.226   3.940   1.725
 5564SOL    HW117591   5.127   3.957   1.717
 5564SOL    HW217592   5.241   3.856   1.777
 5565SOL     OW17593   3.253   2.831   5.465
 5565SOL    HW117594   3.259   2.796   5.372
 5565SOL    HW217595   3.255   2.931   5.464
 5566SOL     OW17596   1.769   4.981   1.041
 5566SOL    HW117597   1.736   4.890   1.020
 5566SOL    HW217598   1.767   5.038   0.959
 5567SOL     OW17599   1.340   5.155   2.034
 5567SOL    HW117600   1.369   5.102   2.113
 5567SOL    HW217601   1.409   5.150   1.963
 5568SOL     OW17602   3.316   1.415   1.764
 5568SOL    HW117603   3.404   1.456   1.789
 5568SOL    HW217604   3.325   1.315   1.764
 5569SOL     OW17605   4.895   1.618   0.056
 5569SOL    HW117606   4.863   1.530   0.090
 5569SOL    HW217607   4.915   1.679   0.133
 5570SOL     OW17608   0.003   4.005   5.621
 5570SOL    HW117609   6.953   4.021   5.688
 5570SOL    HW217610   7.016   3.914   5.581
 5571SOL     OW17611   6.910   4.819   6.810
 5571SOL    HW117612   6.984   4.794   6.748
 5571SOL    HW217613   6.946   4.830   6.903
 5572SOL     OW17614   4.940   2.512   6.614
 5572SOL    HW117615   4.857   2.461   6.636
 5572SOL    HW217616   4.957   2.508   6.516
 5573SOL     OW17617   1.403   3.769   0.628
 5573SOL    HW117618   1.366   3.709   0.699
 5573SOL    HW217619   1.358   3.750   0.541
 5574SOL     OW17620   0.560   5.845   5.497
 5574SOL    HW117621   0.576   5.942   5.476
 5574SOL    HW217622   0.648   5.798   5.505
 5575SOL     OW17623   1.543   1.318   0.839
 5575SOL    HW117624   1.565   1.249   0.771
 5575SOL    HW217625   1.586   1.295   0.926
 5576SOL     OW17626   6.077   6.428   0.319
 5576SOL    HW117627   6.125   6.461   0.237
 5576SOL    HW217628   6.144   6.394   0.385
 5577SOL     OW17629   2.039   3.940   5.401
 5577SOL    HW117630   1.957   3.886   5.424
 5577SOL    HW217631   2.120   3.881   5.405
 5578SOL     OW17632   4.247   2.837   6.800
 5578SOL    HW117633   4.252   2.741   6.772
 5578SOL    HW217634   4.336   2.880   6.787
 5579SOL     OW17635   4.892   4.045   6.530
 5579SOL    HW117636   4.875   3.948   6.519
 5579SOL    HW217637   4.813   4.089   6.572
 5580SOL     OW17638   6.027   1.717   0.657
 5580SOL    HW117639   6.041   1.784   0.583
 5580SOL    HW217640   6.092   1.642   0.647
 5581SOL     OW17641   2.493   1.902   6.468
 5581SOL    HW117642   2.513   1.937   6.377
 5581SOL    HW217643   2.406   1.851   6.465
 5582SOL     OW17644   4.033   3.300   3.667
 5582SOL    HW117645   3.983   3.288   3.581
 5582SOL    HW217646   3.968   3.299   3.743
 5583SOL     OW17647   3.946   6.832   1.655
 5583SOL    HW117648   3.849   6.820   1.674
 5583SOL    HW217649   3.960   6.841   1.556
 5584SOL     OW17650   6.878   3.010   3.234
 5584SOL    HW117651   6.948   3.018   3.305
 5584SOL    HW217652   6.918   3.033   3.145
 5585SOL     OW17653   6.054   0.273   4.477
 5585SOL    HW117654   6.029   0.215   4.554
 5585SOL    HW217655   5.971   0.312   4.436
 5586SOL     OW17656   1.957   0.732   6.054
 5586SOL    HW117657   1.912   0.719   6.143
 5586SOL    HW217658   1.887   0.743   5.983
 5587SOL     OW17659   3.495   0.152   4.023
 5587SOL    HW117660   3.520   0.103   3.939
 5587SOL    HW217661   3.577   0.185   4.068
 5588SOL     OW17662   3.398   6.974   5.888
 5588SOL    HW117663   3.330   6.916   5.932
 5588SOL    HW217664   3.479   6.920   5.865
 5589SOL     OW17665   4.847   2.963   6.754
 5589SOL    HW117666   4.773   2.921   6.808
 5589SOL    HW217667   4.844   3.062   6.767
 5590SOL     OW17668   6.888   6.061   3.720
 5590SOL    HW117669   6.954   6.085   3.792
 5590SOL    HW217670   6.810   6.014   3.762
 5591SOL     OW17671   5.219   0.938   0.268
 5591SOL    HW117672   5.178   1.015   0.317
 5591SOL    HW217673   5.156   0.861   0.268
 5592SOL     OW17674   1.998   3.198   2.886
 5592SOL    HW117675   2.022   3.245   2.970
 5592SOL    HW217676   1.905   3.222   2.858
 5593SOL     OW17677   1.804   3.190   5.734
 5593SOL    HW117678   1.718   3.180   5.783
 5593SOL    HW217679   1.880   3.179   5.798
 5594SOL     OW17680   1.973   0.965   0.177
 5594SOL    HW117681   2.065   0.938   0.208
 5594SOL    HW217682   1.905   0.913   0.227
 5595SOL     OW17683   6.528   2.277   5.632
 5595SOL    HW117684   6.596   2.214   5.668
 5595SOL    HW217685   6.436   2.239   5.648
 5596SOL     OW17686   4.634   1.303   3.524
 5596SOL    HW117687   4.610   1.233   3.456
 5596SOL    HW217688   4.600   1.392   3.493
 5597SOL     OW17689   0.008   0.981   6.098
 5597SOL    HW117690   0.035   0.944   6.010
 5597SOL    HW217691   6.979   0.911   6.148
 5598SOL     OW17692   6.746   1.873   4.174
 5598SOL    HW117693   6.671   1.830   4.124
 5598SOL    HW217694   6.741   1.972   4.164
 5599SOL     OW17695   5.263   3.092   3.215
 5599SOL    HW117696   5.339   3.043   3.259
 5599SOL    HW217697   5.203   3.129   3.286
 5600SOL     OW17698   2.627   1.480   2.286
 5600SOL    HW117699   2.651   1.383   2.291
 5600SOL    HW217700   2.660   1.518   2.200
 5601SOL     OW17701   5.638   2.523   5.456
 5601SOL    HW117702   5.546   2.484   5.459
 5601SOL    HW217703   5.640   2.599   5.392
 5602SOL     OW17704   0.057   2.041   2.720
 5602SOL    HW117705   0.130   2.028   2.652
 5602SOL    HW217706   0.042   2.139   2.735
 5603SOL     OW17707   3.961   2.015   4.953
 5603SOL    HW117708   3.909   1.979   4.875
 5603SOL    HW217709   3.980   1.941   5.017
 5604SOL     OW17710   0.929   0.501   4.653
 5604SOL    HW117711   0.887   0.561   4.585
 5604SOL    HW217712   0.858   0.449   4.701
 5605SOL     OW17713   2.882   6.472   3.976
 5605SOL    HW117714   2.980   6.481   3.964
 5605SOL    HW217715   2.860   6.380   4.009
 5606SOL     OW17716   4.613   2.362   0.558
 5606SOL    HW117717   4.692   2.338   0.502
 5606SOL    HW217718   4.612   2.305   0.641
 5607SOL     OW17719   6.493   2.433   2.494
 5607SOL    HW117720   6.475   2.336   2.477
 5607SOL    HW217721   6.414   2.486   2.465
 5608SOL     OW17722   5.076   0.587   3.982
 5608SOL    HW117723   5.152   0.640   3.945
 5608SOL    HW217724   4.991   0.641   3.975
 5609SOL     OW17725   6.463   0.421   0.815
 5609SOL    HW117726   6.475   0.513   0.776
 5609SOL    HW217727   6.551   0.387   0.847
 5610SOL     OW17728   5.260   4.575   0.405
 5610SOL    HW117729   5.173   4.558   0.358
 5610SOL    HW217730   5.333   4.580   0.337
 5611SOL     OW17731   6.833   4.473   1.284
 5611SOL    HW117732   6.844   4.477   1.185
 5611SOL    HW217733   6.777   4.551   1.315
 5612SOL     OW17734   3.024   1.312   0.629
 5612SOL    HW117735   2.965   1.341   0.554
 5612SOL    HW217736   3.117   1.300   0.596
 5613SOL     OW17737   6.637   5.137   5.846
 5613SOL    HW117738   6.646   5.236   5.832
 5613SOL    HW217739   6.686   5.090   5.773
 5614SOL     OW17740   5.541   2.337   3.882
 5614SOL    HW117741   5.522   2.296   3.971
 5614SOL    HW217742   5.475   2.409   3.864
 5615SOL     OW17743   0.341   3.209   3.013
 5615SOL    HW117744   0.285   3.143   3.063
 5615SOL    HW217745   0.322   3.200   2.915
 5616SOL     OW17746   1.566   3.346   2.500
 5616SOL    HW117747   1.537   3.261   2.544
 5616SOL    HW217748   1.666   3.347   2.493
 5617SOL     OW17749   1.675   5.206   6.129
 5617SOL    HW117750   1.613   5.254   6.190
 5617SOL    HW217751   1.710   5.124   6.175
 5618SOL     OW17752   6.600   5.897   3.154
 5618SOL    HW117753   6.594   5.971   3.088
 5618SOL    HW217754   6.689   5.898   3.199
 5619SOL     OW17755   3.513   2.913   4.133
 5619SOL    HW117756   3.442   2.843   4.132
 5619SOL    HW217757   3.537   2.935   4.228
 5620SOL     OW17758   4.889   4.414   5.144
 5620SOL    HW117759   4.792   4.400   5.161
 5620SOL    HW217760   4.941   4.397   5.228
 5621SOL     OW17761   1.118   2.394   5.283
 5621SOL    HW117762   1.047   2.352   5.340
 5621SOL    HW217763   1.124   2.491   5.303
 5622SOL     OW17764   4.474   6.257   4.653
 5622SOL    HW117765   4.504   6.329   4.591
 5622SOL    HW217766   4.457   6.173   4.602
 5623SOL     OW17767   4.896   5.528   3.782
 5623SOL    HW117768   4.975   5.508   3.725
 5623SOL    HW217769   4.869   5.624   3.770
 5624SOL     OW17770   6.392   5.834   4.312
 5624SOL    HW117771   6.309   5.826   4.257
 5624SOL    HW217772   6.468   5.789   4.265
 5625SOL     OW17773   0.639   6.166   5.373
 5625SOL    HW117774   0.738   6.158   5.371
 5625SOL    HW217775   0.611   6.225   5.448
 5626SOL     OW17776   1.115   4.373   5.562
 5626SOL    HW117777   1.183   4.299   5.562
 5626SOL    HW217778   1.121   4.423   5.648
 5627SOL     OW17779   0.929   5.765   6.956
 5627SOL    HW117780   0.990   5.844   6.944
 5627SOL    HW217781   0.896   5.763   0.027
 5628SOL     OW17782   2.385   2.463   2.121
 5628SOL    HW117783   2.406   2.440   2.026
 5628SOL    HW217784   2.470   2.473   2.172
 5629SOL     OW17785   5.177   3.753   1.442
 5629SOL    HW117786   5.112   3.680   1.464
 5629SOL    HW217787   5.191   3.811   1.522
 5630SOL     OW17788   1.167   4.480   0.250
 5630SOL    HW117789   1.130   4.466   0.158
 5630SOL    HW217790   1.167   4.393   0.299
 5631SOL     OW17791   3.953   1.327   1.839
 5631SOL    HW117792   3.923   1.236   1.811
 5631SOL    HW217793   4.007   1.368   1.765
 5632SOL     OW17794   5.415   6.784   5.834
 5632SOL    HW117795   5.439   6.878   5.810
 5632SOL    HW217796   5.473   6.721   5.782
 5633SOL     OW17797   0.217   5.271   5.990
 5633SOL    HW117798   0.293   5.301   6.048
 5633SOL    HW217799   0.241   5.283   5.894
 5634SOL     OW17800   2.486   6.891   0.815
 5634SOL    HW117801   2.529   6.831   0.883
 5634SOL    HW217802   2.556   6.952   0.776
 5635SOL     OW17803   1.836   1.172   6.393
 5635SOL    HW117804   1.928   1.164   6.431
 5635SOL    HW217805   1.840   1.161   6.294
 5636SOL     OW17806   5.793   1.722   5.386
 5636SOL    HW117807   5.810   1.726   5.484
 5636SOL    HW217808   5.872   1.684   5.339
 5637SOL     OW17809   4.383   6.701   4.597
 5637SOL    HW117810   4.352   6.650   4.677
 5637SOL    HW217811   4.418   6.637   4.528
 5638SOL     OW17812   6.277   5.423   1.148
 5638SOL    HW117813   6.236   5.351   1.093
 5638SOL    HW217814   6.223   5.507   1.138
 5639SOL     OW17815   1.221   0.345   0.864
 5639SOL    HW117816   1.167   0.427   0.845
 5639SOL    HW217817   1.160   0.268   0.882
 5640SOL     OW17818   2.706   5.628   2.839
 5640SOL    HW117819   2.637   5.627   2.911
 5640SOL    HW217820   2.661   5.627   2.750
 5641SOL     OW17821   0.597   4.280   4.177
 5641SOL    HW117822   0.505   4.251   4.200
 5641SOL    HW217823   0.651   4.289   4.260
 5642SOL     OW17824   1.518   4.921   6.998
 5642SOL    HW117825   1.463   4.863   6.939
 5642SOL    HW217826   1.468   4.941   0.059
 5643SOL     OW17827   4.406   1.998   4.961
 5643SOL    HW117828   4.471   1.970   4.891
 5643SOL    HW217829   4.325   1.941   4.957
 5644SOL     OW17830   4.138   0.726   4.987
 5644SOL    HW117831   4.188   0.806   4.952
 5644SOL    HW217832   4.103   0.746   5.078
 5645SOL     OW17833   5.292   5.400   4.178
 5645SOL    HW117834   5.223   5.385   4.249
 5645SOL    HW217835   5.358   5.468   4.210
 5646SOL     OW17836   0.563   6.025   4.560
 5646SOL    HW117837   0.660   6.045   4.574
 5646SOL    HW217838   0.542   5.933   4.593
 5647SOL     OW17839   5.571   5.310   5.965
 5647SOL    HW117840   5.588   5.406   5.943
 5647SOL    HW217841   5.545   5.261   5.882
 5648SOL     OW17842   1.736   1.914   4.544
 5648SOL    HW117843   1.758   1.832   4.492
 5648SOL    HW217844   1.663   1.964   4.498
 5649SOL     OW17845   0.472   0.974   5.369
 5649SOL    HW117846   0.569   0.950   5.363
 5649SOL    HW217847   0.423   0.902   5.417
 5650SOL     OW17848   6.136   5.043   6.567
 5650SOL    HW117849   6.082   5.126   6.556
 5650SOL    HW217850   6.076   4.963   6.563
 5651SOL     OW17851   6.935   0.164   2.947
 5651SOL    HW117852   6.933   0.262   2.924
 5651SOL    HW217853   6.864   0.144   3.014
 5652SOL     OW17854   4.747   5.006   0.964
 5652SOL    HW117855   4.705   5.005   1.055
 5652SOL    HW217856   4.812   5.081   0.958
 5653SOL     OW17857   0.894   6.272   6.161
 5653SOL    HW117858   0.954   6.218   6.219
 5653SOL    HW217859   0.905   6.369   6.183
 5654SOL     OW17860   6.505   6.599   5.466
 5654SOL    HW117861   6.515   6.697   5.449
 5654SOL    HW217862   6.410   6.579   5.491
 5655SOL     OW17863   6.829   3.484   4.015
 5655SOL    HW117864   6.750   3.515   4.069
 5655SOL    HW217865   6.856   3.393   4.046
 5656SOL     OW17866   3.567   4.501   0.269
 5656SOL    HW117867   3.489   4.497   0.332
 5656SOL    HW217868   3.548   4.443   0.190
 5657SOL     OW17869   3.753   0.192   1.838
 5657SOL    HW117870   3.676   0.194   1.774
 5657SOL    HW217871   3.730   0.134   1.916
 5658SOL     OW17872   3.887   6.866   6.016
 5658SOL    HW117873   3.960   6.919   5.970
 5658SOL    HW217874   3.852   6.919   6.094
 5659SOL     OW17875   3.015   3.875   2.761
 5659SOL    HW117876   2.974   3.932   2.690
 5659SOL    HW217877   3.080   3.930   2.814
 5660SOL     OW17878   5.459   6.416   6.960
 5660SOL    HW117879   5.439   6.501   6.912
 5660SOL    HW217880   5.550   6.422   7.003
 5661SOL     OW17881   5.927   5.534   4.141
 5661SOL    HW117882   5.975   5.524   4.229
 5661SOL    HW217883   5.942   5.626   4.105
 5662SOL     OW17884   2.263   4.657   4.103
 5662SOL    HW117885   2.242   4.626   4.010
 5662SOL    HW217886   2.276   4.756   4.103
 5663SOL     OW17887   1.529   4.450   0.665
 5663SOL    HW117888   1.452   4.514   0.677
 5663SOL    HW217889   1.601   4.472   0.731
 5664SOL     OW17890   0.211   4.517   2.360
 5664SOL    HW117891   0.232   4.443   2.296
 5664SOL    HW217892   0.207   4.479   2.453
 5665SOL     OW17893   2.538   3.248   5.759
 5665SOL    HW117894   2.494   3.214   5.842
 5665SOL    HW217895   2.596   3.326   5.781
 5666SOL     OW17896   5.775   4.377   1.200
 5666SOL    HW117897   5.782   4.405   1.296
 5666SOL    HW217898   5.847   4.311   1.179
 5667SOL     OW17899   0.020   4.785   3.044
 5667SOL    HW117900   0.025   4.687   3.025
 5667SOL    HW217901   0.100   4.813   3.097
 5668SOL     OW17902   5.784   1.966   6.512
 5668SOL    HW117903   5.763   2.062   6.532
 5668SOL    HW217904   5.827   1.959   6.422
 5669SOL     OW17905   0.335   4.767   6.254
 5669SOL    HW117906   0.411   4.701   6.256
 5669SOL    HW217907   0.270   4.742   6.182
 5670SOL     OW17908   0.473   3.783   3.763
 5670SOL    HW117909   0.521   3.791   3.676
 5670SOL    HW217910   0.406   3.858   3.771
 5671SOL     OW17911   1.124   0.856   5.663
 5671SOL    HW117912   1.150   0.936   5.717
 5671SOL    HW217913   1.198   0.789   5.664
 5672SOL     OW17914   4.891   4.652   5.703
 5672SOL    HW117915   4.936   4.685   5.786
 5672SOL    HW217916   4.852   4.730   5.653
 5673SOL     OW17917   0.514   0.418   2.131
 5673SOL    HW117918   0.531   0.331   2.178
 5673SOL    HW217919   0.527   0.494   2.195
 5674SOL     OW17920   6.696   3.439   1.372
 5674SOL    HW117921   6.667   3.508   1.439
 5674SOL    HW217922   6.697   3.480   1.281
 5675SOL     OW17923   4.359   2.279   5.376
 5675SOL    HW117924   4.307   2.365   5.373
 5675SOL    HW217925   4.376   2.248   5.283
 5676SOL     OW17926   2.258   0.244   1.989
 5676SOL    HW117927   2.234   0.216   1.896
 5676SOL    HW217928   2.351   0.281   1.990
 5677SOL     OW17929   6.457   1.091   3.412
 5677SOL    HW117930   6.460   1.054   3.505
 5677SOL    HW217931   6.538   1.148   3.397
 5678SOL     OW17932   2.957   6.606   3.261
 5678SOL    HW117933   2.961   6.528   3.198
 5678SOL    HW217934   2.952   6.572   3.355
 5679SOL     OW17935   1.970   6.680   4.972
 5679SOL    HW117936   1.940   6.741   4.899
 5679SOL    HW217937   2.008   6.597   4.932
 5680SOL     OW17938   1.658   5.493   6.334
 5680SOL    HW117939   1.707   5.485   6.421
 5680SOL    HW217940   1.716   5.538   6.267
 5681SOL     OW17941   1.618   3.013   6.840
 5681SOL    HW117942   1.632   3.065   6.755
 5681SOL    HW217943   1.524   3.025   6.871
 5682SOL     OW17944   1.311   3.347   5.268
 5682SOL    HW117945   1.322   3.403   5.350
 5682SOL    HW217946   1.214   3.323   5.257
 5683SOL     OW17947   3.338   2.403   5.911
 5683SOL    HW117948   3.437   2.411   5.903
 5683SOL    HW217949   3.299   2.383   5.821
 5684SOL     OW17950   3.580   3.892   3.783
 5684SOL    HW117951   3.537   3.886   3.873
 5684SOL    HW217952   3.630   3.979   3.775
 5685SOL     OW17953   0.096   4.935   2.137
 5685SOL    HW117954   0.022   4.991   2.099
 5685SOL    HW217955   0.127   4.869   2.068
 5686SOL     OW17956   3.568   6.949   0.602
 5686SOL    HW117957   3.480   6.973   0.559
 5686SOL    HW217958   3.622   0.009   0.614
 5687SOL     OW17959   5.287   5.140   5.299
 5687SOL    HW117960   5.229   5.064   5.270
 5687SOL    HW217961   5.241   5.227   5.278
 5688SOL     OW17962   5.460   1.599   1.748
 5688SOL    HW117963   5.548   1.637   1.720
 5688SOL    HW217964   5.386   1.657   1.715
 5689SOL     OW17965   3.766   2.192   0.598
 5689SOL    HW117966   3.714   2.254   0.657
 5689SOL    HW217967   3.731   2.099   0.606
 5690SOL     OW17968   4.911   5.951   0.889
 5690SOL    HW117969   4.963   5.876   0.847
 5690SOL    HW217970   4.959   6.037   0.874
 5691SOL     OW17971   2.223   0.162   1.710
 5691SOL    HW117972   2.167   0.202   1.637
 5691SOL    HW217973   2.232   0.064   1.694
 5692SOL     OW17974   6.717   2.848   7.011
 5692SOL    HW117975   6.625   2.838   6.973
 5692SOL    HW217976   6.765   2.920   6.962
 5693SOL     OW17977   4.554   2.561   2.552
 5693SOL    HW117978   4.637   2.617   2.548
 5693SOL    HW217979   4.513   2.555   2.461
 5694SOL     OW17980   0.357   0.938   3.644
 5694SOL    HW117981   0.451   0.966   3.665
 5694SOL    HW217982   0.299   1.019   3.637
 5695SOL     OW17983   1.761   3.334   3.475
 5695SOL    HW117984   1.801   3.424   3.493
 5695SOL    HW217985   1.776   3.309   3.380
 5696SOL     OW17986   2.882   0.466   4.717
 5696SOL    HW117987   2.787   0.436   4.715
 5696SOL    HW217988   2.893   0.536   4.788
 5697SOL     OW17989   6.537   2.617   0.140
 5697SOL    HW117990   6.568   2.563   0.219
 5697SOL    HW217991   6.578   2.708   0.145
 5698SOL     OW17992   0.748   3.681   1.996
 5698SOL    HW117993   0.845   3.688   2.017
 5698SOL    HW217994   0.728   3.592   1.956
 5699SOL     OW17995   5.621   0.802   5.188
 5699SOL    HW117996   5.571   0.818   5.103
 5699SOL    HW217997   5.668   0.714   5.183
 5700SOL     OW17998   1.662   5.971   4.464
 5700SOL    HW117999   1.613   6.041   4.413
 5700SOL    HW218000   1.688   5.896   4.403
 5701SOL     OW18001   6.183   5.415   1.974
 5701SOL    HW118002   6.194   5.456   1.884
 5701SOL    HW218003   6.097   5.364   1.978
 5702SOL     OW18004   2.786   0.563   6.507
 5702SOL    HW118005   2.691   0.589   6.523
 5702SOL    HW218006   2.831   0.544   6.594
 5703SOL     OW18007   4.368   4.839   0.257
 5703SOL    HW118008   4.333   4.790   0.177
 5703SOL    HW218009   4.308   4.917   0.276
 5704SOL     OW18010   4.520   5.238   3.917
 5704SOL    HW118011   4.456   5.161   3.918
 5704SOL    HW218012   4.519   5.283   4.006
 5705SOL     OW18013   5.924   0.492   1.508
 5705SOL    HW118014   5.832   0.498   1.470
 5705SOL    HW218015   5.966   0.583   1.508
 5706SOL     OW18016   1.293   1.141   6.994
 5706SOL    HW118017   1.321   1.108   6.904
 5706SOL    HW218018   1.199   1.176   6.989
 5707SOL     OW18019   2.076   1.257   6.493
 5707SOL    HW118020   2.033   1.308   6.567
 5707SOL    HW218021   2.147   1.197   6.531
 5708SOL     OW18022   4.971   6.839   2.636
 5708SOL    HW118023   5.004   6.930   2.661
 5708SOL    HW218024   4.967   6.781   2.718
 5709SOL     OW18025   0.371   6.557   3.126
 5709SOL    HW118026   0.347   6.651   3.104
 5709SOL    HW218027   0.460   6.555   3.173
 5710SOL     OW18028   3.296   3.283   6.025
 5710SOL    HW118029   3.199   3.285   6.002
 5710SOL    HW218030   3.320   3.192   6.059
 5711SOL     OW18031   4.419   1.096   4.162
 5711SOL    HW118032   4.412   1.110   4.261
 5711SOL    HW218033   4.377   1.009   4.138
 5712SOL     OW18034   0.292   6.529   6.164
 5712SOL    HW118035   0.227   6.459   6.131
 5712SOL    HW218036   0.317   6.589   6.088
 5713SOL     OW18037   6.865   2.706   2.637
 5713SOL    HW118038   6.817   2.623   2.608
 5713SOL    HW218039   6.919   2.686   2.718
 5714SOL     OW18040   1.212   1.096   5.753
 5714SOL    HW118041   1.246   1.141   5.836
 5714SOL    HW218042   1.244   1.146   5.672
 5715SOL     OW18043   1.604   6.463   2.629
 5715SOL    HW118044   1.593   6.469   2.530
 5715SOL    HW218045   1.514   6.461   2.673
 5716SOL     OW18046   1.781   3.698   5.945
 5716SOL    HW118047   1.770   3.709   5.847
 5716SOL    HW218048   1.871   3.657   5.964
 5717SOL     OW18049   1.080   4.110   0.821
 5717SOL    HW118050   1.129   4.044   0.765
 5717SOL    HW218051   0.987   4.077   0.837
 5718SOL     OW18052   3.058   4.770   6.849
 5718SOL    HW118053   2.998   4.779   6.769
 5718SOL    HW218054   3.003   4.761   6.932
 5719SOL     OW18055   3.123   0.628   6.582
 5719SOL    HW118056   3.183   0.565   6.534
 5719SOL    HW218057   3.066   0.576   6.647
 5720SOL     OW18058   1.935   5.515   5.314
 5720SOL    HW118059   1.850   5.509   5.263
 5720SOL    HW218060   2.010   5.540   5.253
 5721SOL     OW18061   0.700   3.289   1.478
 5721SOL    HW118062   0.671   3.384   1.490
 5721SOL    HW218063   0.652   3.249   1.401
 5722SOL     OW18064   5.115   6.756   4.846
 5722SOL    HW118065   5.175   6.835   4.834
 5722SOL    HW218066   5.168   6.681   4.886
 5723SOL     OW18067   3.779   5.726   0.414
 5723SOL    HW118068   3.769   5.628   0.402
 5723SOL    HW218069   3.788   5.747   0.511
 5724SOL     OW18070   5.409   2.068   6.015
 5724SOL    HW118071   5.431   2.136   5.945
 5724SOL    HW218072   5.494   2.034   6.057
 5725SOL     OW18073   5.663   4.848   4.989
 5725SOL    HW118074   5.722   4.880   4.915
 5725SOL    HW218075   5.702   4.877   5.077
 5726SOL     OW18076   5.893   3.689   6.029
 5726SOL    HW118077   5.882   3.706   5.931
 5726SOL    HW218078   5.810   3.715   6.078
 5727SOL     OW18079   5.667   1.764   3.646
 5727SOL    HW118080   5.670   1.851   3.696
 5727SOL    HW218081   5.586   1.762   3.588
 5728SOL     OW18082   5.894   0.785   4.859
 5728SOL    HW118083   5.909   0.848   4.935
 5728SOL    HW218084   5.900   0.834   4.772
 5729SOL     OW18085   0.262   1.644   6.390
 5729SOL    HW118086   0.163   1.639   6.406
 5729SOL    HW218087   0.291   1.569   6.331
 5730SOL     OW18088   4.000   5.003   5.785
 5730SOL    HW118089   4.045   4.996   5.696
 5730SOL    HW218090   3.901   4.989   5.773
 5731SOL     OW18091   3.006   1.094   4.136
 5731SOL    HW118092   2.967   1.174   4.091
 5731SOL    HW218093   2.947   1.015   4.120
 5732SOL     OW18094   6.080   5.084   5.031
 5732SOL    HW118095   5.985   5.105   5.055
 5732SOL    HW218096   6.140   5.114   5.104
 5733SOL     OW18097   3.594   0.872   6.956
 5733SOL    HW118098   3.534   0.792   6.955
 5733SOL    HW218099   3.542   0.954   6.978
 5734SOL     OW18100   1.442   6.718   5.647
 5734SOL    HW118101   1.467   6.783   5.720
 5734SOL    HW218102   1.442   6.765   5.559
 5735SOL     OW18103   4.010   0.523   2.278
 5735SOL    HW118104   3.989   0.462   2.201
 5735SOL    HW218105   3.960   0.609   2.266
 5736SOL     OW18106   4.670   4.163   6.715
 5736SOL    HW118107   4.632   4.094   6.777
 5736SOL    HW218108   4.595   4.207   6.665
 5737SOL     OW18109   4.859   5.487   1.429
 5737SOL    HW118110   4.947   5.507   1.472
 5737SOL    HW218111   4.788   5.542   1.473
 5738SOL     OW18112   3.294   1.190   6.431
 5738SOL    HW118113   3.328   1.097   6.414
 5738SOL    HW218114   3.354   1.235   6.497
 5739SOL     OW18115   3.005   0.486   5.657
 5739SOL    HW118116   3.013   0.577   5.615
 5739SOL    HW218117   2.979   0.419   5.587
 5740SOL     OW18118   5.430   3.705   1.362
 5740SOL    HW118119   5.434   3.698   1.262
 5740SOL    HW218120   5.335   3.703   1.392
 5741SOL     OW18121   0.692   3.864   4.238
 5741SOL    HW118122   0.677   3.940   4.302
 5741SOL    HW218123   0.605   3.819   4.219
 5742SOL     OW18124   4.370   0.298   3.459
 5742SOL    HW118125   4.383   0.298   3.360
 5742SOL    HW218126   4.324   0.382   3.487
 5743SOL     OW18127   3.404   3.934   5.306
 5743SOL    HW118128   3.430   4.030   5.296
 5743SOL    HW218129   3.364   3.901   5.220
 5744SOL     OW18130   5.767   6.053   3.063
 5744SOL    HW118131   5.803   6.043   3.156
 5744SOL    HW218132   5.740   6.148   3.048
 5745SOL     OW18133   2.418   2.696   3.700
 5745SOL    HW118134   2.442   2.716   3.795
 5745SOL    HW218135   2.322   2.666   3.695
 5746SOL     OW18136   4.102   0.175   3.699
 5746SOL    HW118137   4.096   0.273   3.714
 5746SOL    HW218138   4.053   0.150   3.615
 5747SOL     OW18139   1.223   5.769   1.688
 5747SOL    HW118140   1.171   5.737   1.768
 5747SOL    HW218141   1.180   5.851   1.651
 5748SOL     OW18142   0.297   6.029   0.793
 5748SOL    HW118143   0.267   6.117   0.831
 5748SOL    HW218144   0.252   6.014   0.705
 5749SOL     OW18145   1.707   6.398   4.748
 5749SOL    HW118146   1.625   6.342   4.760
 5749SOL    HW218147   1.768   6.356   4.681
 5750SOL     OW18148   6.953   4.513   4.533
 5750SOL    HW118149   6.916   4.558   4.452
 5750SOL    HW218150   6.896   4.535   4.613
 5751SOL     OW18151   2.172   3.659   4.327
 5751SOL    HW118152   2.212   3.576   4.368
 5751SOL    HW218153   2.192   3.737   4.386
 5752SOL     OW18154   5.269   0.076   0.881
 5752SOL    HW118155   5.264   0.057   0.979
 5752SOL    HW218156   5.270   7.013   0.830
 5753SOL     OW18157   3.227   4.134   4.839
 5753SOL    HW118158   3.207   4.082   4.922
 5753SOL    HW218159   3.190   4.226   4.848
 5754SOL     OW18160   0.913   6.325   1.584
 5754SOL    HW118161   0.925   6.331   1.484
 5754SOL    HW218162   0.897   6.230   1.609
 5755SOL     OW18163   2.476   2.347   7.006
 5755SOL    HW118164   2.465   2.257   6.964
 5755SOL    HW218165   2.399   2.406   6.980
 5756SOL     OW18166   6.202   6.089   1.977
 5756SOL    HW118167   6.240   6.181   1.981
 5756SOL    HW218168   6.220   6.041   2.063
 5757SOL     OW18169   6.988   6.829   3.526
 5757SOL    HW118170   6.925   6.753   3.512
 5757SOL    HW218171   0.039   6.823   3.460
 5758SOL     OW18172   1.248   6.609   3.351
 5758SOL    HW118173   1.296   6.522   3.364
 5758SOL    HW218174   1.305   6.670   3.297
 5759SOL     OW18175   4.263   6.452   1.714
 5759SOL    HW118176   4.214   6.519   1.659
 5759SOL    HW218177   4.250   6.472   1.811
 5760SOL     OW18178   6.643   3.415   1.777
 5760SOL    HW118179   6.631   3.330   1.726
 5760SOL    HW218180   6.597   3.407   1.866
 5761SOL     OW18181   5.356   5.552   4.864
 5761SOL    HW118182   5.371   5.626   4.798
 5761SOL    HW218183   5.433   5.489   4.861
 5762SOL     OW18184   5.594   4.270   6.745
 5762SOL    HW118185   5.534   4.270   6.825
 5762SOL    HW218186   5.614   4.364   6.719
 5763SOL     OW18187   5.627   0.256   0.745
 5763SOL    HW118188   5.670   0.343   0.721
 5763SOL    HW218189   5.663   0.183   0.687
 5764SOL     OW18190   4.493   5.013   3.132
 5764SOL    HW118191   4.398   4.985   3.124
 5764SOL    HW218192   4.508   5.056   3.221
 5765SOL     OW18193   6.201   4.914   1.129
 5765SOL    HW118194   6.239   4.824   1.152
 5765SOL    HW218195   6.156   4.953   1.209
 5766SOL     OW18196   0.863   1.597   4.748
 5766SOL    HW118197   0.792   1.527   4.746
 5766SOL    HW218198   0.924   1.584   4.669
 5767SOL     OW18199   2.299   0.329   0.743
 5767SOL    HW118200   2.253   0.242   0.760
 5767SOL    HW218201   2.285   0.390   0.820
 5768SOL     OW18202   6.615   6.402   3.954
 5768SOL    HW118203   6.641   6.309   3.978
 5768SOL    HW218204   6.516   6.405   3.937
 5769SOL     OW18205   1.347   5.095   6.272
 5769SOL    HW118206   1.347   5.015   6.332
 5769SOL    HW218207   1.432   5.146   6.283
 5770SOL     OW18208   0.597   6.052   1.087
 5770SOL    HW118209   0.568   5.972   1.139
 5770SOL    HW218210   0.547   6.132   1.120
 5771SOL     OW18211   1.838   5.294   4.087
 5771SOL    HW118212   1.802   5.205   4.116
 5771SOL    HW218213   1.917   5.318   4.143
 5772SOL     OW18214   4.390   7.012   2.078
 5772SOL    HW118215   4.378   6.984   2.173
 5772SOL    HW218216   4.308   0.040   2.049
 5773SOL     OW18217   4.330   2.141   2.009
 5773SOL    HW118218   4.298   2.099   1.924
 5773SOL    HW218219   4.309   2.238   2.007
 5774SOL     OW18220   1.076   6.752   3.514
 5774SOL    HW118221   1.060   6.697   3.596
 5774SOL    HW218222   1.127   6.699   3.447
 5775SOL     OW18223   0.625   5.555   2.759
 5775SOL    HW118224   0.623   5.468   2.810
 5775SOL    HW218225   0.595   5.629   2.820
 5776SOL     OW18226   1.830   0.029   2.899
 5776SOL    HW118227   1.832   0.001   2.995
 5776SOL    HW218228   1.874   6.982   2.843
 5777SOL     OW18229   1.218   0.572   3.292
 5777SOL    HW118230   1.247   0.649   3.350
 5777SOL    HW218231   1.243   0.486   3.337
 5778SOL     OW18232   1.251   1.419   6.662
 5778SOL    HW118233   1.203   1.481   6.724
 5778SOL    HW218234   1.194   1.401   6.582
 5779SOL     OW18235   4.573   2.127   6.850
 5779SOL    HW118236   4.538   2.177   6.929
 5779SOL    HW218237   4.501   2.122   6.780
 5780SOL     OW18238   5.242   5.072   4.415
 5780SOL    HW118239   5.291   5.117   4.489
 5780SOL    HW218240   5.304   5.010   4.366
 5781SOL     OW18241   0.069   4.208   4.812
 5781SOL    HW118242   0.157   4.198   4.766
 5781SOL    HW218243   0.048   4.124   4.862
 5782SOL     OW18244   0.987   1.490   0.346
 5782SOL    HW118245   1.065   1.534   0.390
 5782SOL    HW218246   1.017   1.407   0.299
 5783SOL     OW18247   1.923   1.648   1.709
 5783SOL    HW118248   1.959   1.557   1.690
 5783SOL    HW218249   1.825   1.650   1.692
 5784SOL     OW18250   0.199   6.310   0.149
 5784SOL    HW118251   0.163   6.223   0.114
 5784SOL    HW218252   0.180   6.315   0.248
 5785SOL     OW18253   2.526   1.570   0.747
 5785SOL    HW118254   2.608   1.586   0.801
 5785SOL    HW218255   2.498   1.475   0.756
 5786SOL     OW18256   6.898   3.647   0.126
 5786SOL    HW118257   6.869   3.701   0.205
 5786SOL    HW218258   6.981   3.687   0.087
 5787SOL     OW18259   2.220   1.886   5.843
 5787SOL    HW118260   2.140   1.853   5.892
 5787SOL    HW218261   2.202   1.977   5.806
 5788SOL     OW18262   2.240   1.063   3.085
 5788SOL    HW118263   2.183   1.075   3.004
 5788SOL    HW218264   2.285   0.974   3.082
 5789SOL     OW18265   3.427   5.391   6.589
 5789SOL    HW118266   3.385   5.317   6.536
 5789SOL    HW218267   3.422   5.476   6.537
 5790SOL     OW18268   0.284   2.988   4.261
 5790SOL    HW118269   0.368   2.979   4.314
 5790SOL    HW218270   0.206   3.000   4.323
 5791SOL     OW18271   3.024   0.311   2.765
 5791SOL    HW118272   3.038   0.235   2.702
 5791SOL    HW218273   3.013   0.276   2.858
 5792SOL     OW18274   6.940   2.054   2.986
 5792SOL    HW118275   6.920   2.028   2.891
 5792SOL    HW218276   0.014   2.075   2.995
 5793SOL     OW18277   6.826   1.178   3.634
 5793SOL    HW118278   6.752   1.243   3.614
 5793SOL    HW218279   6.848   1.182   3.731
 5794SOL     OW18280   3.628   2.947   0.682
 5794SOL    HW118281   3.686   2.872   0.714
 5794SOL    HW218282   3.627   3.020   0.751
 5795SOL     OW18283   5.841   4.969   5.605
 5795SOL    HW118284   5.863   4.925   5.692
 5795SOL    HW218285   5.774   5.041   5.620
 5796SOL     OW18286   3.285   0.892   0.414
 5796SOL    HW118287   3.208   0.828   0.421
 5796SOL    HW218288   3.252   0.982   0.389
 5797SOL     OW18289   3.608   2.092   4.593
 5797SOL    HW118290   3.702   2.091   4.558
 5797SOL    HW218291   3.603   2.151   4.674
 5798SOL     OW18292   0.547   4.612   5.011
 5798SOL    HW118293   0.587   4.701   5.030
 5798SOL    HW218294   0.539   4.600   4.912
 5799SOL     OW18295   5.695   0.489   3.633
 5799SOL    HW118296   5.722   0.445   3.547
 5799SOL    HW218297   5.672   0.418   3.700
 5800SOL     OW18298   5.794   4.990   1.179
 5800SOL    HW118299   5.713   5.049   1.177
 5800SOL    HW218300   5.805   4.946   1.090
 5801SOL     OW18301   0.692   2.149   3.631
 5801SOL    HW118302   0.788   2.123   3.617
 5801SOL    HW218303   0.669   2.141   3.728
 5802SOL     OW18304   0.257   4.274   6.064
 5802SOL    HW118305   0.271   4.354   6.121
 5802SOL    HW218306   0.250   4.302   5.968
 5803SOL     OW18307   1.726   4.874   1.467
 5803SOL    HW118308   1.811   4.822   1.456
 5803SOL    HW218309   1.651   4.826   1.422
 5804SOL     OW18310   6.098   4.209   4.138
 5804SOL    HW118311   6.187   4.255   4.136
 5804SOL    HW218312   6.107   4.124   4.190
 5805SOL     OW18313   3.853   4.455   6.550
 5805SOL    HW118314   3.783   4.482   6.484
 5805SOL    HW218315   3.815   4.458   6.642
 5806SOL     OW18316   1.111   6.740   0.334
 5806SOL    HW118317   1.127   6.825   0.383
 5806SOL    HW218318   1.048   6.757   0.258
 5807SOL     OW18319   1.396   3.881   1.212
 5807SOL    HW118320   1.337   3.824   1.155
 5807SOL    HW218321   1.473   3.827   1.246
 5808SOL     OW18322   5.377   4.043   2.671
 5808SOL    HW118323   5.403   4.090   2.756
 5808SOL    HW218324   5.444   4.063   2.600
 5809SOL     OW18325   6.652   3.310   4.325
 5809SOL    HW118326   6.678   3.224   4.281
 5809SOL    HW218327   6.587   3.291   4.399
 5810SOL     OW18328   3.087   1.107   4.396
 5810SOL    HW118329   3.088   1.011   4.425
 5810SOL    HW218330   3.072   1.111   4.297
 5811SOL     OW18331   2.960   0.135   4.908
 5811SOL    HW118332   2.937   0.173   4.998
 5811SOL    HW218333   3.041   0.078   4.916
 5812SOL     OW18334   4.919   6.818   4.051
 5812SOL    HW118335   4.930   6.828   3.952
 5812SOL    HW218336   4.935   6.722   4.076
 5813SOL     OW18337   1.271   1.201   6.007
 5813SOL    HW118338   1.220   1.137   6.064
 5813SOL    HW218339   1.249   1.295   6.035
 5814SOL     OW18340   6.549   4.002   0.373
 5814SOL    HW118341   6.575   4.096   0.396
 5814SOL    HW218342   6.554   3.945   0.455
 5815SOL     OW18343   4.589   2.482   3.088
 5815SOL    HW118344   4.495   2.450   3.102
 5815SOL    HW218345   4.653   2.408   3.106
 5816SOL     OW18346   5.587   6.908   0.325
 5816SOL    HW118347   5.549   6.916   0.417
 5816SOL    HW218348   5.652   6.982   0.309
 5817SOL     OW18349   5.947   2.978   5.758
 5817SOL    HW118350   5.939   3.058   5.698
 5817SOL    HW218351   5.856   2.945   5.782
 5818SOL     OW18352   6.368   6.134   5.134
 5818SOL    HW118353   6.272   6.162   5.143
 5818SOL    HW218354   6.378   6.072   5.057
 5819SOL     OW18355   4.391   0.433   0.985
 5819SOL    HW118356   4.387   0.427   0.886
 5819SOL    HW218357   4.304   0.467   1.021
 5820SOL     OW18358   4.856   7.014   3.543
 5820SOL    HW118359   4.771   6.963   3.558
 5820SOL    HW218360   4.878   7.013   3.446
 5821SOL     OW18361   2.443   0.497   1.759
 5821SOL    HW118362   2.469   0.461   1.848
 5821SOL    HW218363   2.451   0.425   1.690
 5822SOL     OW18364   0.691   2.535   1.532
 5822SOL    HW118365   0.748   2.512   1.454
 5822SOL    HW218366   0.744   2.586   1.599
 5823SOL     OW18367   0.785   0.842   5.281
 5823SOL    HW118368   0.781   0.744   5.264
 5823SOL    HW218369   0.816   0.859   5.374
 5824SOL     OW18370   6.671   6.469   2.838
 5824SOL    HW118371   6.606   6.436   2.769
 5824SOL    HW218372   6.650   6.428   2.926
 5825SOL     OW18373   2.054   1.745   6.052
 5825SOL    HW118374   2.008   1.679   6.113
 5825SOL    HW218375   1.985   1.790   5.995
 5826SOL     OW18376   6.654   6.198   5.717
 5826SOL    HW118377   6.611   6.226   5.631
 5826SOL    HW218378   6.728   6.132   5.698
 5827SOL     OW18379   0.672   5.437   5.243
 5827SOL    HW118380   0.770   5.440   5.224
 5827SOL    HW218381   0.634   5.352   5.206
 5828SOL     OW18382   0.694   3.473   1.786
 5828SOL    HW118383   0.748   3.391   1.799
 5828SOL    HW218384   0.698   3.501   1.689
 5829SOL     OW18385   2.733   1.230   2.361
 5829SOL    HW118386   2.786   1.201   2.281
 5829SOL    HW218387   2.683   1.152   2.398
 5830SOL     OW18388   3.715   0.648   6.019
 5830SOL    HW118389   3.740   0.713   5.947
 5830SOL    HW218390   3.677   0.566   5.978
 5831SOL     OW18391   5.942   6.392   3.814
 5831SOL    HW118392   5.934   6.486   3.846
 5831SOL    HW218393   5.892   6.382   3.727
 5832SOL     OW18394   4.142   3.827   5.742
 5832SOL    HW118395   4.104   3.744   5.783
 5832SOL    HW218396   4.108   3.835   5.648
 5833SOL     OW18397   3.216   3.588   4.276
 5833SOL    HW118398   3.172   3.676   4.262
 5833SOL    HW218399   3.245   3.579   4.371
 5834SOL     OW18400   6.122   1.751   0.308
 5834SOL    HW118401   6.096   1.739   0.213
 5834SOL    HW218402   6.176   1.673   0.338
 5835SOL     OW18403   5.223   2.680   3.519
 5835SOL    HW118404   5.231   2.735   3.602
 5835SOL    HW218405   5.200   2.586   3.543
 5836SOL     OW18406   2.985   5.599   2.851
 5836SOL    HW118407   2.885   5.597   2.843
 5836SOL    HW218408   3.014   5.532   2.920
 5837SOL     OW18409   4.307   4.324   0.127
 5837SOL    HW118410   4.366   4.328   0.047
 5837SOL    HW218411   4.278   4.229   0.142
 5838SOL     OW18412   1.694   1.773   6.086
 5838SOL    HW118413   1.730   1.840   6.150
 5838SOL    HW218414   1.762   1.701   6.071
 5839SOL     OW18415   0.335   2.783   2.282
 5839SOL    HW118416   0.356   2.798   2.185
 5839SOL    HW218417   0.288   2.863   2.319
 5840SOL     OW18418   1.345   5.699   6.932
 5840SOL    HW118419   1.377   5.792   6.915
 5840SOL    HW218420   1.340   5.682   0.008
 5841SOL     OW18421   5.983   2.947   2.245
 5841SOL    HW118422   5.901   2.935   2.301
 5841SOL    HW218423   5.966   3.017   2.176
 5842SOL     OW18424   3.874   3.174   0.604
 5842SOL    HW118425   3.873   3.216   0.695
 5842SOL    HW218426   3.813   3.224   0.543
 5843SOL     OW18427   2.108   3.749   2.382
 5843SOL    HW118428   2.127   3.669   2.440
 5843SOL    HW218429   2.170   3.749   2.303
 5844SOL     OW18430   0.474   6.463   6.361
 5844SOL    HW118431   0.411   6.498   6.293
 5844SOL    HW218432   0.568   6.475   6.329
 5845SOL     OW18433   0.708   1.487   3.423
 5845SOL    HW118434   0.730   1.481   3.521
 5845SOL    HW218435   0.785   1.452   3.370
 5846SOL     OW18436   6.591   2.960   4.814
 5846SOL    HW118437   6.586   2.866   4.782
 5846SOL    HW218438   6.503   2.987   4.852
 5847SOL     OW18439   2.305   1.973   2.073
 5847SOL    HW118440   2.338   1.958   2.166
 5847SOL    HW218441   2.382   1.970   2.009
 5848SOL     OW18442   1.959   4.520   3.770
 5848SOL    HW118443   1.936   4.505   3.674
 5848SOL    HW218444   1.879   4.502   3.827
 5849SOL     OW18445   0.985   0.368   5.634
 5849SOL    HW118446   1.069   0.353   5.686
 5849SOL    HW218447   0.930   0.438   5.679
 5850SOL     OW18448   0.804   3.485   2.223
 5850SOL    HW118449   0.771   3.577   2.198
 5850SOL    HW218450   0.828   3.435   2.140
 5851SOL     OW18451   6.038   3.417   2.598
 5851SOL    HW118452   6.020   3.328   2.557
 5851SOL    HW218453   6.073   3.480   2.529
 5852SOL     OW18454   4.203   6.058   2.889
 5852SOL    HW118455   4.140   6.132   2.865
 5852SOL    HW218456   4.186   5.980   2.829
 5853SOL     OW18457   2.919   5.700   6.138
 5853SOL    HW118458   2.885   5.617   6.094
 5853SOL    HW218459   2.885   5.780   6.089
 5854SOL     OW18460   6.494   3.188   5.910
 5854SOL    HW118461   6.582   3.179   5.957
 5854SOL    HW218462   6.453   3.277   5.933
 5855SOL     OW18463   1.355   0.926   4.462
 5855SOL    HW118464   1.267   0.879   4.471
 5855SOL    HW218465   1.419   0.890   4.531
 5856SOL     OW18466   2.210   5.413   3.396
 5856SOL    HW118467   2.160   5.388   3.313
 5856SOL    HW218468   2.146   5.447   3.465
 5857SOL     OW18469   6.208   3.124   4.776
 5857SOL    HW118470   6.111   3.142   4.761
 5857SOL    HW218471   6.244   3.184   4.847
 5858SOL     OW18472   2.864   1.644   1.890
 5858SOL    HW118473   2.964   1.650   1.880
 5858SOL    HW218474   2.842   1.587   1.969
 5859SOL     OW18475   5.904   6.450   0.660
 5859SOL    HW118476   5.906   6.527   0.597
 5859SOL    HW218477   5.816   6.446   0.707
 5860SOL     OW18478   1.916   4.413   1.629
 5860SOL    HW118479   1.892   4.493   1.684
 5860SOL    HW218480   1.850   4.403   1.554
 5861SOL     OW18481   5.571   1.547   3.891
 5861SOL    HW118482   5.476   1.528   3.865
 5861SOL    HW218483   5.627   1.554   3.809
 5862SOL     OW18484   3.927   5.347   3.362
 5862SOL    HW118485   3.846   5.363   3.418
 5862SOL    HW218486   4.004   5.321   3.421
 5863SOL     OW18487   2.377   0.657   5.530
 5863SOL    HW118488   2.421   0.570   5.508
 5863SOL    HW218489   2.401   0.725   5.461
 5864SOL     OW18490   4.249   3.998   1.711
 5864SOL    HW118491   4.182   3.952   1.768
 5864SOL    HW218492   4.312   4.050   1.769
 5865SOL     OW18493   5.421   0.409   4.261
 5865SOL    HW118494   5.397   0.478   4.329
 5865SOL    HW218495   5.378   0.322   4.285
 5866SOL     OW18496   4.204   6.332   6.517
 5866SOL    HW118497   4.260   6.263   6.563
 5866SOL    HW218498   4.110   6.324   6.548
 5867SOL     OW18499   0.352   2.586   0.928
 5867SOL    HW118500   0.303   2.538   1.001
 5867SOL    HW218501   0.295   2.589   0.846
 5868SOL     OW18502   0.235   0.334   5.325
 5868SOL    HW118503   0.287   0.338   5.410
 5868SOL    HW218504   0.298   0.325   5.248
 5869SOL     OW18505   2.217   4.521   3.859
 5869SOL    HW118506   2.128   4.541   3.817
 5869SOL    HW218507   2.254   4.437   3.819
 5870SOL     OW18508   4.873   4.808   4.938
 5870SOL    HW118509   4.841   4.791   4.844
 5870SOL    HW218510   4.960   4.762   4.952
 5871SOL     OW18511   3.738   4.063   0.237
 5871SOL    HW118512   3.767   4.157   0.254
 5871SOL    HW218513   3.657   4.043   0.292
 5872SOL     OW18514   4.197   5.906   6.840
 5872SOL    HW118515   4.235   5.924   6.931
 5872SOL    HW218516   4.098   5.920   6.843
 5873SOL     OW18517   2.459   2.891   0.518
 5873SOL    HW118518   2.474   2.876   0.615
 5873SOL    HW218519   2.388   2.828   0.485
 5874SOL     OW18520   2.621   3.136   1.352
 5874SOL    HW118521   2.707   3.169   1.314
 5874SOL    HW218522   2.571   3.083   1.283
 5875SOL     OW18523   3.608   1.481   0.367
 5875SOL    HW118524   3.656   1.422   0.302
 5875SOL    HW218525   3.624   1.447   0.460
 5876SOL     OW18526   3.225   3.087   6.378
 5876SOL    HW118527   3.132   3.063   6.406
 5876SOL    HW218528   3.281   3.103   6.459
 5877SOL     OW18529   6.494   6.962   1.607
 5877SOL    HW118530   6.511   6.879   1.659
 5877SOL    HW218531   6.444   6.940   1.524
 5878SOL     OW18532   4.817   5.862   2.437
 5878SOL    HW118533   4.865   5.855   2.524
 5878SOL    HW218534   4.746   5.932   2.444
 5879SOL     OW18535   3.498   3.057   6.106
 5879SOL    HW118536   3.535   3.136   6.154
 5879SOL    HW218537   3.566   3.022   6.042
 5880SOL     OW18538   5.165   3.364   5.366
 5880SOL    HW118539   5.165   3.441   5.302
 5880SOL    HW218540   5.073   3.351   5.401
 5881SOL     OW18541   1.033   6.095   2.403
 5881SOL    HW118542   1.131   6.111   2.391
 5881SOL    HW218543   0.982   6.169   2.360
 5882SOL     OW18544   1.241   6.387   5.621
 5882SOL    HW118545   1.165   6.332   5.654
 5882SOL    HW218546   1.296   6.334   5.556
 5883SOL     OW18547   0.340   3.415   0.693
 5883SOL    HW118548   0.305   3.396   0.601
 5883SOL    HW218549   0.440   3.415   0.692
 5884SOL     OW18550   6.217   1.143   3.798
 5884SOL    HW118551   6.231   1.087   3.880
 5884SOL    HW218552   6.297   1.202   3.784
 5885SOL     OW18553   0.368   5.298   0.344
 5885SOL    HW118554   0.304   5.288   0.420
 5885SOL    HW218555   0.431   5.373   0.362
 5886SOL     OW18556   1.322   3.025   2.994
 5886SOL    HW118557   1.242   3.069   3.036
 5886SOL    HW218558   1.312   3.025   2.894
 5887SOL     OW18559   2.580   1.869   1.478
 5887SOL    HW118560   2.597   1.877   1.380
 5887SOL    HW218561   2.635   1.937   1.527
 5888SOL     OW18562   2.488   6.898   1.232
 5888SOL    HW118563   2.468   6.995   1.217
 5888SOL    HW218564   2.575   6.875   1.189
 5889SOL     OW18565   0.197   1.477   1.501
 5889SOL    HW118566   0.286   1.501   1.461
 5889SOL    HW218567   0.168   1.550   1.563
 5890SOL     OW18568   2.411   5.826   2.294
 5890SOL    HW118569   2.453   5.882   2.366
 5890SOL    HW218570   2.319   5.799   2.323
 5891SOL     OW18571   3.144   3.151   0.811
 5891SOL    HW118572   3.132   3.055   0.787
 5891SOL    HW218573   3.201   3.196   0.741
 5892SOL     OW18574   0.200   3.781   0.457
 5892SOL    HW118575   0.184   3.806   0.362
 5892SOL    HW218576   0.120   3.731   0.492
 5893SOL     OW18577   1.025   5.648   1.868
 5893SOL    HW118578   1.038   5.586   1.946
 5893SOL    HW218579   1.044   5.599   1.783
 5894SOL     OW18580   0.784   5.674   5.504
 5894SOL    HW118581   0.766   5.578   5.528
 5894SOL    HW218582   0.807   5.681   5.407
 5895SOL     OW18583   5.947   3.140   5.035
 5895SOL    HW118584   6.030   3.115   5.085
 5895SOL    HW218585   5.958   3.231   4.995
 5896SOL     OW18586   5.519   1.953   1.755
 5896SOL    HW118587   5.423   1.976   1.744
 5896SOL    HW218588   5.556   2.002   1.834
 5897SOL     OW18589   4.284   1.248   1.992
 5897SOL    HW118590   4.210   1.223   1.931
 5897SOL    HW218591   4.264   1.337   2.034
 5898SOL     OW18592   1.487   1.430   5.534
 5898SOL    HW118593   1.486   1.468   5.626
 5898SOL    HW218594   1.579   1.437   5.496
 5899SOL     OW18595   6.839   5.393   6.459
 5899SOL    HW118596   6.879   5.355   6.375
 5899SOL    HW218597   6.894   5.470   6.490
 5900SOL     OW18598   0.033   5.521   3.219
 5900SOL    HW118599   0.072   5.465   3.146
 5900SOL    HW218600   7.004   5.463   3.282
 5901SOL     OW18601   1.390   0.047   6.560
 5901SOL    HW118602   1.412   0.077   6.467
 5901SOL    HW218603   1.416   6.975   6.571
 5902SOL     OW18604   5.839   3.966   4.783
 5902SOL    HW118605   5.887   4.024   4.717
 5902SOL    HW218606   5.894   3.884   4.801
 5903SOL     OW18607   5.637   2.855   6.594
 5903SOL    HW118608   5.578   2.781   6.628
 5903SOL    HW218609   5.655   2.920   6.668
 5904SOL     OW18610   1.883   5.323   2.827
 5904SOL    HW118611   1.813   5.260   2.860
 5904SOL    HW218612   1.904   5.390   2.897
 5905SOL     OW18613   5.406   0.816   3.925
 5905SOL    HW118614   5.333   0.787   3.863
 5905SOL    HW218615   5.428   0.912   3.907
 5906SOL     OW18616   5.295   1.327   5.465
 5906SOL    HW118617   5.302   1.396   5.393
 5906SOL    HW218618   5.351   1.355   5.544
 5907SOL     OW18619   1.330   1.014   0.241
 5907SOL    HW118620   1.289   1.075   0.173
 5907SOL    HW218621   1.389   1.066   0.303
 5908SOL     OW18622   4.220   3.316   6.619
 5908SOL    HW118623   4.219   3.221   6.647
 5908SOL    HW218624   4.274   3.326   6.535
 5909SOL     OW18625   0.058   4.668   5.368
 5909SOL    HW118626   7.000   4.687   5.313
 5909SOL    HW218627   0.039   4.591   5.429
 5910SOL     OW18628   2.192   4.057   1.517
 5910SOL    HW118629   2.158   4.138   1.567
 5910SOL    HW218630   2.131   4.038   1.440
 5911SOL     OW18631   6.285   5.044   6.337
 5911SOL    HW118632   6.247   5.051   6.429
 5911SOL    HW218633   6.375   5.002   6.341
 5912SOL     OW18634   6.236   3.130   0.007
 5912SOL    HW118635   6.153   3.184   0.021
 5912SOL    HW218636   6.266   3.139   6.936
 5913SOL     OW18637   2.205   2.515   5.575
 5913SOL    HW118638   2.192   2.418   5.593
 5913SOL    HW218639   2.267   2.527   5.497
 5914SOL     OW18640   2.084   6.151   0.599
 5914SOL    HW118641   2.102   6.053   0.599
 5914SOL    HW218642   2.170   6.201   0.591
 5915SOL     OW18643   5.114   2.936   2.665
 5915SOL    HW118644   5.161   2.877   2.731
 5915SOL    HW218645   5.114   3.030   2.699
 5916SOL     OW18646   4.076   7.020   5.885
 5916SOL    HW118647   3.997   0.044   5.848
 5916SOL    HW218648   4.143   0.064   5.918
 5917SOL     OW18649   3.731   3.305   3.004
 5917SOL    HW118650   3.676   3.222   3.012
 5917SOL    HW218651   3.713   3.365   3.082
 5918SOL     OW18652   1.459   3.530   4.076
 5918SOL    HW118653   1.545   3.577   4.095
 5918SOL    HW218654   1.473   3.431   4.084
 5919SOL     OW18655   3.015   2.455   0.828
 5919SOL    HW118656   2.979   2.495   0.744
 5919SOL    HW218657   3.001   2.356   0.827
 5920SOL     OW18658   3.585   0.300   6.768
 5920SOL    HW118659   3.498   0.251   6.770
 5920SOL    HW218660   3.660   0.236   6.783
 5921SOL     OW18661   3.758   5.238   5.765
 5921SOL    HW118662   3.705   5.319   5.791
 5921SOL    HW218663   3.742   5.165   5.831
 5922SOL     OW18664   6.639   4.917   2.893
 5922SOL    HW118665   6.619   4.821   2.912
 5922SOL    HW218666   6.735   4.936   2.912
 5923SOL     OW18667   6.467   0.155   3.604
 5923SOL    HW118668   6.398   0.200   3.547
 5923SOL    HW218669   6.461   0.189   3.698
 5924SOL     OW18670   5.062   2.444   4.622
 5924SOL    HW118671   4.998   2.521   4.623
 5924SOL    HW218672   5.011   2.358   4.617
 5925SOL     OW18673   5.660   5.702   1.915
 5925SOL    HW118674   5.629   5.746   1.999
 5925SOL    HW218675   5.597   5.724   1.841
 5926SOL     OW18676   3.759   5.168   1.606
 5926SOL    HW118677   3.757   5.079   1.651
 5926SOL    HW218678   3.759   5.155   1.507
 5927SOL     OW18679   2.671   5.557   1.283
 5927SOL    HW118680   2.642   5.586   1.192
 5927SOL    HW218681   2.655   5.458   1.292
 5928SOL     OW18682   1.609   0.340   2.733
 5928SOL    HW118683   1.634   0.415   2.671
 5928SOL    HW218684   1.691   0.302   2.775
 5929SOL     OW18685   0.940   6.715   5.599
 5929SOL    HW118686   0.925   6.774   5.678
 5929SOL    HW218687   1.038   6.693   5.592
 5930SOL     OW18688   6.139   1.208   4.236
 5930SOL    HW118689   6.042   1.194   4.215
 5930SOL    HW218690   6.161   1.305   4.228
 5931SOL     OW18691   5.866   5.570   1.841
 5931SOL    HW118692   5.780   5.587   1.889
 5931SOL    HW218693   5.910   5.658   1.820
 5932SOL     OW18694   1.904   6.805   1.100
 5932SOL    HW118695   1.972   6.817   1.028
 5932SOL    HW218696   1.901   6.709   1.128
 5933SOL     OW18697   6.907   4.077   2.272
 5933SOL    HW118698   6.872   4.025   2.350
 5933SOL    HW218699   6.905   4.020   2.190
 5934SOL     OW18700   3.603   3.645   2.939
 5934SOL    HW118701   3.637   3.590   2.863
 5934SOL    HW218702   3.613   3.594   3.025
 5935SOL     OW18703   3.598   4.108   5.027
 5935SOL    HW118704   3.698   4.118   5.025
 5935SOL    HW218705   3.565   4.122   5.120
 5936SOL     OW18706   5.076   4.491   6.643
 5936SOL    HW118707   4.984   4.450   6.637
 5936SOL    HW218708   5.068   4.590   6.633
 5937SOL     OW18709   1.021   3.883   1.177
 5937SOL    HW118710   1.057   3.974   1.198
 5937SOL    HW218711   1.093   3.827   1.136
 5938SOL     OW18712   2.048   4.467   3.060
 5938SOL    HW118713   2.078   4.481   3.154
 5938SOL    HW218714   2.109   4.515   2.997
 5939SOL     OW18715   3.206   0.877   3.204
 5939SOL    HW118716   3.181   0.885   3.107
 5939SOL    HW218717   3.301   0.905   3.216
 5940SOL     OW18718   3.479   6.786   2.864
 5940SOL    HW118719   3.546   6.838   2.917
 5940SOL    HW218720   3.526   6.711   2.817
 5941SOL     OW18721   6.424   5.014   2.032
 5941SOL    HW118722   6.376   5.076   2.095
 5941SOL    HW218723   6.357   4.964   1.977
 5942SOL     OW18724   3.814   3.221   5.849
 5942SOL    HW118725   3.758   3.221   5.766
 5942SOL    HW218726   3.775   3.283   5.916
 5943SOL     OW18727   2.112   5.842   0.279
 5943SOL    HW118728   2.170   5.884   0.350
 5943SOL    HW218729   2.017   5.869   0.294
 5944SOL     OW18730   4.967   1.637   2.622
 5944SOL    HW118731   4.946   1.722   2.671
 5944SOL    HW218732   4.881   1.589   2.601
 5945SOL     OW18733   6.541   5.059   5.159
 5945SOL    HW118734   6.572   4.976   5.113
 5945SOL    HW218735   6.445   5.077   5.134
 5946SOL     OW18736   3.687   3.963   5.914
 5946SOL    HW118737   3.619   3.900   5.951
 5946SOL    HW218738   3.735   3.918   5.838
 5947SOL     OW18739   4.277   3.343   1.835
 5947SOL    HW118740   4.319   3.271   1.780
 5947SOL    HW218741   4.184   3.316   1.860
 5948SOL     OW18742   3.575   4.933   3.191
 5948SOL    HW118743   3.652   4.933   3.254
 5948SOL    HW218744   3.492   4.905   3.240
 5949SOL     OW18745   4.170   4.989   0.971
 5949SOL    HW118746   4.143   4.972   1.066
 5949SOL    HW218747   4.089   4.983   0.912
 5950SOL     OW18748   6.122   2.070   4.220
 5950SOL    HW118749   6.037   2.116   4.194
 5950SOL    HW218750   6.146   2.095   4.314
 5951SOL     OW18751   1.758   6.489   4.301
 5951SOL    HW118752   1.831   6.505   4.368
 5951SOL    HW218753   1.798   6.474   4.211
 5952SOL     OW18754   6.508   5.895   3.612
 5952SOL    HW118755   6.499   5.983   3.659
 5952SOL    HW218756   6.440   5.890   3.538
 5953SOL     OW18757   6.643   3.367   5.573
 5953SOL    HW118758   6.670   3.421   5.653
 5953SOL    HW218759   6.721   3.360   5.511
 5954SOL     OW18760   6.906   4.815   6.107
 5954SOL    HW118761   6.903   4.798   6.009
 5954SOL    HW218762   6.864   4.905   6.126
 5955SOL     OW18763   5.320   5.270   1.839
 5955SOL    HW118764   5.375   5.187   1.848
 5955SOL    HW218765   5.298   5.305   1.930
 5956SOL     OW18766   4.162   2.355   6.929
 5956SOL    HW118767   4.160   2.280   6.995
 5956SOL    HW218768   4.198   2.437   6.973
 5957SOL     OW18769   5.348   6.489   6.119
 5957SOL    HW118770   5.441   6.468   6.090
 5957SOL    HW218771   5.330   6.586   6.106
 5958SOL     OW18772   6.622   6.335   1.869
 5958SOL    HW118773   6.524   6.353   1.878
 5958SOL    HW218774   6.662   6.320   1.959
 5959SOL     OW18775   2.889   1.916   5.610
 5959SOL    HW118776   2.928   1.844   5.666
 5959SOL    HW218777   2.799   1.888   5.576
 5960SOL     OW18778   3.021   0.237   3.673
 5960SOL    HW118779   3.059   0.270   3.587
 5960SOL    HW218780   3.001   0.314   3.733
 5961SOL     OW18781   3.494   0.644   4.932
 5961SOL    HW118782   3.428   0.569   4.933
 5961SOL    HW218783   3.446   0.730   4.914
 5962SOL     OW18784   4.989   6.006   2.267
 5962SOL    HW118785   4.957   6.047   2.182
 5962SOL    HW218786   4.912   5.969   2.317
 5963SOL     OW18787   4.082   3.660   3.156
 5963SOL    HW118788   4.061   3.563   3.147
 5963SOL    HW218789   4.063   3.690   3.250
 5964SOL     OW18790   0.408   5.131   0.078
 5964SOL    HW118791   0.398   5.230   0.071
 5964SOL    HW218792   0.462   5.109   0.159
 5965SOL     OW18793   1.637   2.374   6.424
 5965SOL    HW118794   1.654   2.277   6.405
 5965SOL    HW218795   1.720   2.415   6.462
 5966SOL     OW18796   3.259   5.977   4.856
 5966SOL    HW118797   3.238   5.911   4.929
 5966SOL    HW218798   3.310   6.054   4.894
 5967SOL     OW18799   4.320   6.676   2.963
 5967SOL    HW118800   4.391   6.607   2.951
 5967SOL    HW218801   4.297   6.716   2.874
 5968SOL     OW18802   6.238   2.083   3.236
 5968SOL    HW118803   6.295   2.007   3.267
 5968SOL    HW218804   6.234   2.082   3.136
 5969SOL     OW18805   5.813   2.834   4.121
 5969SOL    HW118806   5.898   2.841   4.068
 5969SOL    HW218807   5.834   2.816   4.217
 5970SOL     OW18808   1.213   3.320   2.994
 5970SOL    HW118809   1.232   3.286   3.086
 5970SOL    HW218810   1.259   3.407   2.980
 5971SOL     OW18811   2.200   6.993   2.829
 5971SOL    HW118812   2.110   6.955   2.810
 5971SOL    HW218813   2.192   0.069   2.840
 5972SOL     OW18814   5.147   6.701   0.201
 5972SOL    HW118815   5.068   6.738   0.152
 5972SOL    HW218816   5.176   6.617   0.156
 5973SOL     OW18817   1.655   4.216   2.641
 5973SOL    HW118818   1.635   4.262   2.728
 5973SOL    HW218819   1.729   4.150   2.653
 5974SOL     OW18820   6.874   3.709   6.385
 5974SOL    HW118821   6.885   3.639   6.314
 5974SOL    HW218822   6.790   3.691   6.437
 5975SOL     OW18823   3.880   2.335   1.142
 5975SOL    HW118824   3.927   2.392   1.210
 5975SOL    HW218825   3.885   2.239   1.169
 5976SOL     OW18826   3.066   3.239   4.600
 5976SOL    HW118827   3.020   3.308   4.654
 5976SOL    HW218828   3.153   3.276   4.565
 5977SOL     OW18829   2.106   4.627   2.104
 5977SOL    HW118830   2.073   4.532   2.098
 5977SOL    HW218831   2.077   4.667   2.191
 5978SOL     OW18832   5.320   4.680   2.388
 5978SOL    HW118833   5.278   4.663   2.299
 5978SOL    HW218834   5.416   4.704   2.375
 5979SOL     OW18835   5.921   0.700   3.660
 5979SOL    HW118836   5.843   0.696   3.723
 5979SOL    HW218837   5.951   0.795   3.651
 5980SOL     OW18838   4.700   4.497   0.282
 5980SOL    HW118839   4.701   4.503   0.382
 5980SOL    HW218840   4.659   4.410   0.254
 5981SOL     OW18841   6.475   1.447   2.440
 5981SOL    HW118842   6.552   1.386   2.421
 5981SOL    HW218843   6.390   1.400   2.418
 5982SOL     OW18844   6.862   1.966   6.534
 5982SOL    HW118845   6.797   2.041   6.526
 5982SOL    HW218846   6.921   1.963   6.453
 5983SOL     OW18847   1.870   2.384   4.125
 5983SOL    HW118848   1.850   2.476   4.093
 5983SOL    HW218849   1.818   2.318   4.071
 5984SOL     OW18850   6.668   6.290   4.271
 5984SOL    HW118851   6.692   6.359   4.340
 5984SOL    HW218852   6.727   6.302   4.191
 5985SOL     OW18853   5.210   2.027   3.375
 5985SOL    HW118854   5.220   2.061   3.469
 5985SOL    HW218855   5.225   2.102   3.311
 5986SOL     OW18856   3.135   3.031   3.346
 5986SOL    HW118857   3.110   3.022   3.442
 5986SOL    HW218858   3.229   3.000   3.333
 5987SOL     OW18859   4.390   0.252   5.247
 5987SOL    HW118860   4.342   0.181   5.299
 5987SOL    HW218861   4.357   0.342   5.275
 5988SOL     OW18862   4.502   6.906   4.443
 5988SOL    HW118863   4.439   6.982   4.426
 5988SOL    HW218864   4.460   6.842   4.507
 5989SOL     OW18865   2.248   0.253   6.281
 5989SOL    HW118866   2.283   0.197   6.356
 5989SOL    HW218867   2.315   0.254   6.207
 5990SOL     OW18868   3.628   4.511   0.645
 5990SOL    HW118869   3.668   4.576   0.580
 5990SOL    HW218870   3.623   4.420   0.602
 5991SOL     OW18871   3.602   5.347   5.192
 5991SOL    HW118872   3.569   5.253   5.195
 5991SOL    HW218873   3.696   5.348   5.156
 5992SOL     OW18874   3.866   0.817   3.718
 5992SOL    HW118875   3.919   0.830   3.802
 5992SOL    HW218876   3.919   0.760   3.654
 5993SOL     OW18877   2.691   6.495   5.709
 5993SOL    HW118878   2.734   6.407   5.689
 5993SOL    HW218879   2.734   6.567   5.654
 5994SOL     OW18880   6.139   2.179   2.104
 5994SOL    HW118881   6.235   2.178   2.131
 5994SOL    HW218882   6.115   2.092   2.061
 5995SOL     OW18883   6.791   5.280   1.115
 5995SOL    HW118884   6.748   5.232   1.191
 5995SOL    HW218885   6.888   5.253   1.109
 5996SOL     OW18886   0.291   6.177   6.706
 5996SOL    HW118887   0.195   6.159   6.726
 5996SOL    HW218888   0.327   6.103   6.648
 5997SOL     OW18889   0.352   6.930   1.724
 5997SOL    HW118890   0.407   6.958   1.803
 5997SOL    HW218891   0.255   6.940   1.746
 5998SOL     OW18892   5.414   2.010   2.326
 5998SOL    HW118893   5.327   1.965   2.307
 5998SOL    HW218894   5.403   2.109   2.319
 5999SOL     OW18895   1.495   1.303   3.552
 5999SOL    HW118896   1.396   1.294   3.565
 5999SOL    HW218897   1.525   1.392   3.588
 6000SOL     OW18898   4.036   4.734   2.362
 6000SOL    HW118899   3.951   4.763   2.320
 6000SOL    HW218900   4.108   4.728   2.292
 6001SOL     OW18901   0.067   2.954   0.082
 6001SOL    HW118902   0.099   2.872   0.035
 6001SOL    HW218903   7.023   3.001   0.025
 6002SOL     OW18904   1.377   0.183   1.425
 6002SOL    HW118905   1.398   0.279   1.408
 6002SOL    HW218906   1.284   0.163   1.395
 6003SOL     OW18907   5.585   4.071   4.443
 6003SOL    HW118908   5.671   4.120   4.447
 6003SOL    HW218909   5.601   3.973   4.458
 6004SOL     OW18910   0.754   3.204   2.898
 6004SOL    HW118911   0.678   3.240   2.953
 6004SOL    HW218912   0.755   3.249   2.809
 6005SOL     OW18913   3.886   5.454   4.411
 6005SOL    HW118914   3.887   5.362   4.372
 6005SOL    HW218915   3.870   5.449   4.509
 6006SOL     OW18916   2.844   6.992   6.605
 6006SOL    HW118917   2.818   6.925   6.674
 6006SOL    HW218918   2.832   6.953   6.514
 6007SOL     OW18919   5.269   2.421   3.636
 6007SOL    HW118920   5.319   2.380   3.560
 6007SOL    HW218921   5.240   2.350   3.700
 6008SOL     OW18922   3.286   5.433   6.093
 6008SOL    HW118923   3.364   5.394   6.142
 6008SOL    HW218924   3.303   5.431   5.995
 6009SOL     OW18925   2.531   1.840   4.341
 6009SOL    HW118926   2.568   1.928   4.368
 6009SOL    HW218927   2.606   1.774   4.328
 6010SOL     OW18928   2.036   4.261   2.357
 6010SOL    HW118929   2.030   4.287   2.260
 6010SOL    HW218930   2.007   4.166   2.367
 6011SOL     OW18931   5.340   2.666   2.210
 6011SOL    HW118932   5.309   2.689   2.302
 6011SOL    HW218933   5.437   2.687   2.200
 6012SOL     OW18934   0.004   2.302   6.670
 6012SOL    HW118935   0.019   2.216   6.720
 6012SOL    HW218936   6.969   2.362   6.725
 6013SOL     OW18937   6.372   0.881   2.236
 6013SOL    HW118938   6.345   0.955   2.298
 6013SOL    HW218939   6.321   0.798   2.259
 6014SOL     OW18940   6.128   1.335   0.756
 6014SOL    HW118941   6.141   1.241   0.722
 6014SOL    HW218942   6.210   1.389   0.736
 6015SOL     OW18943   5.853   2.094   4.606
 6015SOL    HW118944   5.813   2.185   4.596
 6015SOL    HW218945   5.825   2.036   4.529
 6016SOL     OW18946   0.761   0.562   5.234
 6016SOL    HW118947   0.836   0.512   5.277
 6016SOL    HW218948   0.716   0.503   5.167
 6017SOL     OW18949   5.913   5.047   3.365
 6017SOL    HW118950   5.991   5.061   3.304
 6017SOL    HW218951   5.945   5.033   3.458
 6018SOL     OW18952   2.855   3.475   0.423
 6018SOL    HW118953   2.933   3.454   0.364
 6018SOL    HW218954   2.838   3.398   0.485
 6019SOL     OW18955   4.680   1.284   4.088
 6019SOL    HW118956   4.620   1.218   4.134
 6019SOL    HW218957   4.702   1.252   3.996
 6020SOL     OW18958   3.391   0.692   2.670
 6020SOL    HW118959   3.476   0.729   2.708
 6020SOL    HW218960   3.377   0.599   2.704
 6021SOL     OW18961   4.621   1.129   2.775
 6021SOL    HW118962   4.717   1.151   2.791
 6021SOL    HW218963   4.581   1.091   2.858
 6022SOL     OW18964   4.717   1.130   3.236
 6022SOL    HW118965   4.792   1.073   3.269
 6022SOL    HW218966   4.634   1.109   3.289
 6023SOL     OW18967   0.230   1.202   3.180
 6023SOL    HW118968   0.295   1.248   3.239
 6023SOL    HW218969   0.242   1.103   3.187
 6024SOL     OW18970   0.553   4.626   1.857
 6024SOL    HW118971   0.536   4.536   1.816
 6024SOL    HW218972   0.545   4.697   1.787
 6025SOL     OW18973   4.710   1.054   2.050
 6025SOL    HW118974   4.775   0.998   2.000
 6025SOL    HW218975   4.737   1.057   2.147
 6026SOL     OW18976   6.960   4.829   4.946
 6026SOL    HW118977   6.993   4.923   4.931
 6026SOL    HW218978   0.014   4.766   4.946
 6027SOL     OW18979   2.662   3.727   6.253
 6027SOL    HW118980   2.649   3.697   6.347
 6027SOL    HW218981   2.666   3.647   6.193
 6028SOL     OW18982   1.656   4.568   0.455
 6028SOL    HW118983   1.620   4.518   0.375
 6028SOL    HW218984   1.598   4.550   0.534
 6029SOL     OW18985   1.576   6.241   0.494
 6029SOL    HW118986   1.524   6.258   0.578
 6029SOL    HW218987   1.649   6.309   0.485
 6030SOL     OW18988   2.226   1.063   2.022
 6030SOL    HW118989   2.238   0.982   1.965
 6030SOL    HW218990   2.241   1.145   1.968
 6031SOL     OW18991   5.060   6.955   6.026
 6031SOL    HW118992   5.025   6.927   6.116
 6031SOL    HW218993   5.158   6.938   6.022
 6032SOL     OW18994   1.594   3.882   2.318
 6032SOL    HW118995   1.692   3.863   2.317
 6032SOL    HW218996   1.578   3.977   2.344
 6033SOL     OW18997   1.953   1.988   3.044
 6033SOL    HW118998   1.982   2.058   3.109
 6033SOL    HW218999   1.944   1.900   3.092
 6034SOL     OW19000   2.224   4.565   4.793
 6034SOL    HW119001   2.276   4.647   4.815
 6034SOL    HW219002   2.206   4.513   4.876
 6035SOL     OW19003   4.791   0.822   4.281
 6035SOL    HW119004   4.886   0.846   4.301
 6035SOL    HW219005   4.756   0.761   4.352
 6036SOL     OW19006   0.182   7.001   4.915
 6036SOL    HW119007   0.123   6.939   4.863
 6036SOL    HW219008   0.220   0.047   4.854
 6037SOL     OW19009   4.655   4.752   5.925
 6037SOL    HW119010   4.734   4.696   5.951
 6037SOL    HW219011   4.608   4.783   6.008
 6038SOL     OW19012   6.888   3.527   6.170
 6038SOL    HW119013   6.954   3.542   6.097
 6038SOL    HW219014   6.801   3.498   6.131
 6039SOL     OW19015   3.505   3.485   2.366
 6039SOL    HW119016   3.495   3.486   2.266
 6039SOL    HW219017   3.594   3.523   2.390
 6040SOL     OW19018   0.627   1.855   6.310
 6040SOL    HW119019   0.618   1.798   6.228
 6040SOL    HW219020   0.540   1.854   6.360
 6041SOL     OW19021   1.132   1.559   6.992
 6041SOL    HW119022   1.076   1.616   0.029
 6041SOL    HW219023   1.131   1.598   6.900
 6042SOL     OW19024   5.312   5.005   2.373
 6042SOL    HW119025   5.313   4.936   2.300
 6042SOL    HW219026   5.218   5.022   2.403
 6043SOL     OW19027   1.156   5.087   4.561
 6043SOL    HW119028   1.154   5.103   4.660
 6043SOL    HW219029   1.236   5.031   4.538
 6044SOL     OW19030   0.452   1.229   1.078
 6044SOL    HW119031   0.540   1.182   1.084
 6044SOL    HW219032   0.384   1.180   1.131
 6045SOL     OW19033   5.524   5.154   0.875
 6045SOL    HW119034   5.498   5.230   0.816
 6045SOL    HW219035   5.598   5.102   0.832
 6046SOL     OW19036   2.687   2.356   0.141
 6046SOL    HW119037   2.779   2.373   0.106
 6046SOL    HW219038   2.621   2.355   0.065
 6047SOL     OW19039   6.115   0.575   4.211
 6047SOL    HW119040   6.184   0.647   4.204
 6047SOL    HW219041   6.155   0.494   4.253
 6048SOL     OW19042   4.002   0.397   3.800
 6048SOL    HW119043   4.025   0.467   3.868
 6048SOL    HW219044   3.963   0.317   3.847
 6049SOL     OW19045   4.572   3.827   6.459
 6049SOL    HW119046   4.544   3.780   6.543
 6049SOL    HW219047   4.617   3.762   6.398
 6050SOL     OW19048   3.647   4.519   5.764
 6050SOL    HW119049   3.564   4.520   5.709
 6050SOL    HW219050   3.665   4.426   5.796
 6051SOL     OW19051   2.617   2.476   2.305
 6051SOL    HW119052   2.577   2.392   2.343
 6051SOL    HW219053   2.716   2.463   2.294
 6052SOL     OW19054   6.853   1.277   0.387
 6052SOL    HW119055   6.774   1.327   0.352
 6052SOL    HW219056   6.933   1.338   0.389
 6053SOL     OW19057   2.978   0.490   6.770
 6053SOL    HW119058   3.041   0.412   6.766
 6053SOL    HW219059   2.974   0.525   6.864
 6054SOL     OW19060   1.416   5.119   0.754
 6054SOL    HW119061   1.371   5.206   0.734
 6054SOL    HW219062   1.506   5.117   0.710
 6055SOL     OW19063   4.743   1.074   5.519
 6055SOL    HW119064   4.726   1.103   5.614
 6055SOL    HW219065   4.732   0.975   5.512
 6056SOL     OW19066   3.995   1.194   6.323
 6056SOL    HW119067   3.931   1.130   6.280
 6056SOL    HW219068   4.087   1.176   6.290
 6057SOL     OW19069   4.054   1.341   5.186
 6057SOL    HW119070   4.086   1.247   5.202
 6057SOL    HW219071   3.987   1.341   5.111
 6058SOL     OW19072   5.205   3.174   4.155
 6058SOL    HW119073   5.229   3.145   4.248
 6058SOL    HW219074   5.212   3.096   4.093
 6059SOL     OW19075   4.738   4.737   6.302
 6059SOL    HW119076   4.790   4.796   6.365
 6059SOL    HW219077   4.646   4.774   6.290
 6060SOL     OW19078   4.275   4.768   5.887
 6060SOL    HW119079   4.307   4.863   5.885
 6060SOL    HW219080   4.267   4.733   5.794
 6061SOL     OW19081   3.356   1.971   6.698
 6061SOL    HW119082   3.342   1.924   6.785
 6061SOL    HW219083   3.283   2.038   6.684
 6062SOL     OW19084   1.894   1.419   4.558
 6062SOL    HW119085   1.929   1.327   4.544
 6062SOL    HW219086   1.970   1.482   4.573
 6063SOL     OW19087   4.058   0.672   6.794
 6063SOL    HW119088   3.985   0.740   6.800
 6063SOL    HW219089   4.056   0.628   6.704
 6064SOL     OW19090   1.359   5.922   3.104
 6064SOL    HW119091   1.361   6.004   3.048
 6064SOL    HW219092   1.277   5.869   3.082
 6065SOL     OW19093   5.923   6.974   1.203
 6065SOL    HW119094   5.907   6.934   1.113
 6065SOL    HW219095   6.005   6.933   1.243
 6066SOL     OW19096   4.451   1.969   1.441
 6066SOL    HW119097   4.367   2.006   1.401
 6066SOL    HW219098   4.440   1.871   1.455
 6067SOL     OW19099   6.445   1.403   6.048
 6067SOL    HW119100   6.520   1.462   6.078
 6067SOL    HW219101   6.440   1.324   6.109
 6068SOL     OW19102   4.795   3.084   5.107
 6068SOL    HW119103   4.750   3.127   5.185
 6068SOL    HW219104   4.893   3.103   5.109
 6069SOL     OW19105   0.162   4.176   5.486
 6069SOL    HW119106   0.111   4.117   5.549
 6069SOL    HW219107   0.254   4.139   5.474
 6070SOL     OW19108   4.354   2.484   6.487
 6070SOL    HW119109   4.297   2.516   6.411
 6070SOL    HW219110   4.434   2.543   6.496
 6071SOL     OW19111   4.277   6.238   5.258
 6071SOL    HW119112   4.366   6.196   5.239
 6071SOL    HW219113   4.206   6.189   5.207
 6072SOL     OW19114   1.229   2.125   1.771
 6072SOL    HW119115   1.187   2.072   1.845
 6072SOL    HW219116   1.261   2.213   1.807
 6073SOL     OW19117   6.513   3.245   0.294
 6073SOL    HW119118   6.483   3.161   0.248
 6073SOL    HW219119   6.611   3.257   0.281
 6074SOL     OW19120   0.869   6.673   4.464
 6074SOL    HW119121   0.834   6.694   4.556
 6074SOL    HW219122   0.798   6.627   4.411
 6075SOL     OW19123   6.050   3.554   0.116
 6075SOL    HW119124   6.039   3.461   0.080
 6075SOL    HW219125   5.971   3.610   0.091
 6076SOL     OW19126   2.207   6.769   4.102
 6076SOL    HW119127   2.282   6.721   4.056
 6076SOL    HW219128   2.244   6.827   4.174
 6077SOL     OW19129   5.997   5.809   2.420
 6077SOL    HW119130   5.962   5.768   2.504
 6077SOL    HW219131   6.053   5.889   2.443
 6078SOL     OW19132   2.969   5.108   3.747
 6078SOL    HW119133   3.031   5.115   3.825
 6078SOL    HW219134   2.988   5.182   3.683
 6079SOL     OW19135   2.530   3.003   0.132
 6079SOL    HW119136   2.446   3.025   0.081
 6079SOL    HW219137   2.527   2.907   0.161
 6080SOL     OW19138   6.214   2.078   1.322
 6080SOL    HW119139   6.271   2.040   1.248
 6080SOL    HW219140   6.208   2.011   1.396
 6081SOL     OW19141   6.338   3.393   3.964
 6081SOL    HW119142   6.321   3.459   3.890
 6081SOL    HW219143   6.253   3.373   4.012
 6082SOL     OW19144   4.469   0.518   2.968
 6082SOL    HW119145   4.474   0.607   2.922
 6082SOL    HW219146   4.377   0.505   3.005
 6083SOL     OW19147   0.779   5.631   6.743
 6083SOL    HW119148   0.704   5.692   6.718
 6083SOL    HW219149   0.837   5.676   6.810
 6084SOL     OW19150   6.320   5.441   4.830
 6084SOL    HW119151   6.371   5.436   4.916
 6084SOL    HW219152   6.230   5.400   4.842
 6085SOL     OW19153   6.762   3.211   0.202
 6085SOL    HW119154   6.774   3.112   0.204
 6085SOL    HW219155   6.751   3.242   0.108
 6086SOL     OW19156   4.254   1.242   4.653
 6086SOL    HW119157   4.282   1.319   4.711
 6086SOL    HW219158   4.178   1.269   4.595
 6087SOL     OW19159   5.484   0.039   6.863
 6087SOL    HW119160   5.542   0.120   6.854
 6087SOL    HW219161   5.395   0.057   6.821
 6088SOL     OW19162   0.599   6.834   4.883
 6088SOL    HW119163   0.510   6.869   4.912
 6088SOL    HW219164   0.609   6.739   4.914
 6089SOL     OW19165   0.785   3.787   0.957
 6089SOL    HW119166   0.759   3.753   1.047
 6089SOL    HW219167   0.876   3.753   0.934
 6090SOL     OW19168   0.602   5.984   5.890
 6090SOL    HW119169   0.685   5.930   5.902
 6090SOL    HW219170   0.526   5.924   5.866
 6091SOL     OW19171   6.814   1.747   2.058
 6091SOL    HW119172   6.890   1.687   2.084
 6091SOL    HW219173   6.832   1.840   2.091
 6092SOL     OW19174   2.529   1.012   2.362
 6092SOL    HW119175   2.504   0.915   2.368
 6092SOL    HW219176   2.451   1.064   2.325
 6093SOL     OW19177   1.516   3.226   1.152
 6093SOL    HW119178   1.566   3.161   1.209
 6093SOL    HW219179   1.521   3.197   1.057
 6094SOL     OW19180   1.618   1.381   1.256
 6094SOL    HW119181   1.666   1.467   1.238
 6094SOL    HW219182   1.639   1.315   1.185
 6095SOL     OW19183   5.489   3.247   6.859
 6095SOL    HW119184   5.573   3.219   6.812
 6095SOL    HW219185   5.488   3.208   6.951
 6096SOL     OW19186   4.527   1.336   4.401
 6096SOL    HW119187   4.482   1.248   4.420
 6096SOL    HW219188   4.458   1.409   4.403
 6097SOL     OW19189   2.397   0.628   2.536
 6097SOL    HW119190   2.439   0.703   2.586
 6097SOL    HW219191   2.351   0.663   2.454
 6098SOL     OW19192   2.369   2.550   5.880
 6098SOL    HW119193   2.308   2.528   5.955
 6098SOL    HW219194   2.347   2.640   5.843
 6099SOL     OW19195   6.027   5.529   5.151
 6099SOL    HW119196   5.981   5.476   5.079
 6099SOL    HW219197   6.100   5.583   5.110
 6100SOL     OW19198   6.462   2.895   6.935
 6100SOL    HW119199   6.399   2.818   6.937
 6100SOL    HW219200   6.432   2.961   6.867
 6101SOL     OW19201   6.790   2.120   5.485
 6101SOL    HW119202   6.733   2.039   5.492
 6101SOL    HW219203   6.861   2.118   5.555
 6102SOL     OW19204   3.150   0.762   5.089
 6102SOL    HW119205   3.084   0.803   5.026
 6102SOL    HW219206   3.227   0.726   5.037
 6103SOL     OW19207   0.143   0.755   4.214
 6103SOL    HW119208   0.123   0.821   4.142
 6103SOL    HW219209   0.178   0.670   4.173
 6104SOL     OW19210   5.720   2.015   0.026
 6104SOL    HW119211   5.748   2.040   0.118
 6104SOL    HW219212   5.764   1.929   7.023
 6105SOL     OW19213   3.467   6.021   6.308
 6105SOL    HW119214   3.488   6.117   6.290
 6105SOL    HW219215   3.541   5.981   6.362
 6106SOL     OW19216   3.030   5.333   6.711
 6106SOL    HW119217   2.945   5.285   6.686
 6106SOL    HW219218   3.008   5.407   6.776
 6107SOL     OW19219   2.075   4.939   4.662
 6107SOL    HW119220   2.032   4.849   4.664
 6107SOL    HW219221   2.167   4.933   4.700
 6108SOL     OW19222   0.798   2.434   4.260
 6108SOL    HW119223   0.820   2.462   4.353
 6108SOL    HW219224   0.874   2.456   4.199
 6109SOL     OW19225   5.685   3.028   0.491
 6109SOL    HW119226   5.591   3.024   0.457
 6109SOL    HW219227   5.689   3.092   0.568
 6110SOL     OW19228   3.076   2.036   5.778
 6110SOL    HW119229   3.007   2.038   5.706
 6110SOL    HW219230   3.043   2.086   5.858
 6111SOL     OW19231   1.068   4.763   2.957
 6111SOL    HW119232   1.025   4.839   3.005
 6111SOL    HW219233   1.095   4.693   3.022
 6112SOL     OW19234   1.523   1.621   3.143
 6112SOL    HW119235   1.501   1.546   3.081
 6112SOL    HW219236   1.607   1.599   3.193
 6113SOL     OW19237   1.504   1.040   5.989
 6113SOL    HW119238   1.589   1.071   6.030
 6113SOL    HW219239   1.436   1.113   5.992
 6114SOL     OW19240   5.070   6.044   0.353
 6114SOL    HW119241   5.166   6.069   0.370
 6114SOL    HW219242   5.010   6.113   0.393
 6115SOL     OW19243   4.785   5.279   2.669
 6115SOL    HW119244   4.704   5.224   2.692
 6115SOL    HW219245   4.764   5.375   2.682
 6116SOL     OW19246   3.541   1.172   1.870
 6116SOL    HW119247   3.466   1.159   1.805
 6116SOL    HW219248   3.622   1.123   1.838
 6117SOL     OW19249   6.278   6.851   4.389
 6117SOL    HW119250   6.237   6.913   4.456
 6117SOL    HW219251   6.220   6.770   4.378
 6118SOL     OW19252   6.221   1.252   3.362
 6118SOL    HW119253   6.297   1.188   3.378
 6118SOL    HW219254   6.237   1.302   3.277
 6119SOL     OW19255   0.197   5.433   4.817
 6119SOL    HW119256   0.146   5.371   4.877
 6119SOL    HW219257   0.137   5.465   4.743
 6120SOL     OW19258   3.400   0.224   3.241
 6120SOL    HW119259   3.473   0.189   3.183
 6120SOL    HW219260   3.366   0.151   3.300
 6121SOL     OW19261   0.296   2.434   3.369
 6121SOL    HW119262   0.262   2.520   3.406
 6121SOL    HW219263   0.366   2.397   3.430
 6122SOL     OW19264   3.973   6.007   3.089
 6122SOL    HW119265   3.885   6.050   3.070
 6122SOL    HW219266   4.033   6.072   3.135
 6123SOL     OW19267   0.002   0.988   1.565
 6123SOL    HW119268   6.951   0.921   1.570
 6123SOL    HW219269   7.005   1.054   1.493
 6124SOL     OW19270   3.297   0.285   5.428
 6124SOL    HW119271   3.309   0.278   5.329
 6124SOL    HW219272   3.377   0.246   5.474
 6125SOL     OW19273   1.686   5.917   1.841
 6125SOL    HW119274   1.713   5.848   1.908
 6125SOL    HW219275   1.749   5.915   1.764
 6126SOL     OW19276   4.840   4.718   3.251
 6126SOL    HW119277   4.910   4.682   3.313
 6126SOL    HW219278   4.827   4.655   3.174
 6127SOL     OW19279   2.064   6.220   1.360
 6127SOL    HW119280   2.150   6.173   1.381
 6127SOL    HW219281   2.077   6.319   1.366
 6128SOL     OW19282   0.363   2.738   0.470
 6128SOL    HW119283   0.398   2.810   0.530
 6128SOL    HW219284   0.308   2.779   0.397
 6129SOL     OW19285   6.270   3.757   2.608
 6129SOL    HW119286   6.251   3.693   2.534
 6129SOL    HW219287   6.237   3.848   2.583
 6130SOL     OW19288   5.189   2.876   3.699
 6130SOL    HW119289   5.233   2.958   3.663
 6130SOL    HW219290   5.101   2.900   3.741
 6131SOL     OW19291   6.727   1.338   6.049
 6131SOL    HW119292   6.806   1.339   5.989
 6131SOL    HW219293   6.711   1.430   6.086
 6132SOL     OW19294   3.699   2.564   0.491
 6132SOL    HW119295   3.791   2.599   0.510
 6132SOL    HW219296   3.633   2.639   0.497
 6133SOL     OW19297   0.625   3.585   1.546
 6133SOL    HW119298   0.532   3.618   1.528
 6133SOL    HW219299   0.687   3.663   1.551
 6134SOL     OW19300   3.323   3.784   6.619
 6134SOL    HW119301   3.276   3.872   6.630
 6134SOL    HW219302   3.258   3.715   6.589
 6135SOL     OW19303   6.540   6.982   1.101
 6135SOL    HW119304   6.593   0.024   1.046
 6135SOL    HW219305   6.445   6.984   1.070
 6136SOL     OW19306   1.055   1.839   2.293
 6136SOL    HW119307   1.082   1.759   2.240
 6136SOL    HW219308   1.134   1.872   2.346
 6137SOL     OW19309   3.162   6.566   5.997
 6137SOL    HW119310   3.195   6.510   6.073
 6137SOL    HW219311   3.127   6.506   5.924
 6138SOL     OW19312   3.874   6.780   2.572
 6138SOL    HW119313   3.848   6.876   2.582
 6138SOL    HW219314   3.864   6.733   2.660
 6139SOL     OW19315   1.599   4.199   5.051
 6139SOL    HW119316   1.698   4.210   5.061
 6139SOL    HW219317   1.557   4.194   5.142
 6140SOL     OW19318   0.991   0.391   2.102
 6140SOL    HW119319   0.960   0.467   2.045
 6140SOL    HW219320   1.080   0.413   2.142
 6141SOL     OW19321   6.715   5.407   5.815
 6141SOL    HW119322   6.634   5.447   5.859
 6141SOL    HW219323   6.797   5.444   5.857
 6142SOL     OW19324   6.658   3.789   0.833
 6142SOL    HW119325   6.670   3.801   0.932
 6142SOL    HW219326   6.655   3.691   0.812
 6143SOL     OW19327   5.981   5.258   6.507
 6143SOL    HW119328   5.986   5.332   6.574
 6143SOL    HW219329   5.970   5.297   6.415
 6144SOL     OW19330   0.098   4.097   3.238
 6144SOL    HW119331   0.125   4.117   3.144
 6144SOL    HW219332   0.023   4.031   3.238
 6145SOL     OW19333   5.081   5.451   2.936
 6145SOL    HW119334   4.992   5.427   2.974
 6145SOL    HW219335   5.070   5.520   2.864
 6146SOL     OW19336   5.220   1.324   3.107
 6146SOL    HW119337   5.146   1.264   3.138
 6146SOL    HW219338   5.247   1.385   3.182
 6147SOL     OW19339   2.300   4.225   2.930
 6147SOL    HW119340   2.351   4.166   2.867
 6147SOL    HW219341   2.239   4.169   2.987
 6148SOL     OW19342   5.886   6.301   4.364
 6148SOL    HW119343   5.833   6.367   4.417
 6148SOL    HW219344   5.979   6.296   4.400
 6149SOL     OW19345   3.359   5.081   3.019
 6149SOL    HW119346   3.415   5.024   3.078
 6149SOL    HW219347   3.269   5.096   3.061
 6150SOL     OW19348   4.783   6.000   6.417
 6150SOL    HW119349   4.700   6.051   6.399
 6150SOL    HW219350   4.760   5.903   6.430
 6151SOL     OW19351   4.629   2.449   5.567
 6151SOL    HW119352   4.616   2.351   5.553
 6151SOL    HW219353   4.609   2.498   5.482
 6152SOL     OW19354   5.524   4.605   6.537
 6152SOL    HW119355   5.541   4.661   6.456
 6152SOL    HW219356   5.610   4.589   6.586
 6153SOL     OW19357   4.648   4.010   1.343
 6153SOL    HW119358   4.719   3.971   1.402
 6153SOL    HW219359   4.653   3.968   1.253
 6154SOL     OW19360   6.093   2.117   2.531
 6154SOL    HW119361   6.018   2.072   2.482
 6154SOL    HW219362   6.173   2.057   2.533
 6155SOL     OW19363   0.551   3.577   4.476
 6155SOL    HW119364   0.507   3.505   4.422
 6155SOL    HW219365   0.643   3.593   4.441
 6156SOL     OW19366   5.807   6.530   3.133
 6156SOL    HW119367   5.796   6.564   3.040
 6156SOL    HW219368   5.882   6.578   3.178
 6157SOL     OW19369   1.651   1.919   3.719
 6157SOL    HW119370   1.674   1.965   3.633
 6157SOL    HW219371   1.584   1.847   3.701
 6158SOL     OW19372   4.593   0.582   6.845
 6158SOL    HW119373   4.528   0.621   6.779
 6158SOL    HW219374   4.663   0.531   6.795
 6159SOL     OW19375   5.401   2.290   0.217
 6159SOL    HW119376   5.403   2.303   0.316
 6159SOL    HW219377   5.387   2.377   0.172
 6160SOL     OW19378   5.754   5.852   1.157
 6160SOL    HW119379   5.766   5.851   1.058
 6160SOL    HW219380   5.766   5.759   1.192
 6161SOL     OW19381   5.892   0.549   5.966
 6161SOL    HW119382   5.863   0.455   5.983
 6161SOL    HW219383   5.868   0.606   6.045
 6162SOL     OW19384   0.902   5.397   4.631
 6162SOL    HW119385   0.853   5.475   4.669
 6162SOL    HW219386   0.978   5.429   4.575
 6163SOL     OW19387   5.840   4.025   0.581
 6163SOL    HW119388   5.793   4.014   0.493
 6163SOL    HW219389   5.833   4.120   0.611
 6164SOL     OW19390   3.053   1.001   0.957
 6164SOL    HW119391   3.135   1.049   0.926
 6164SOL    HW219392   2.974   1.061   0.948
 6165SOL     OW19393   4.289   6.182   0.437
 6165SOL    HW119394   4.354   6.253   0.462
 6165SOL    HW219395   4.200   6.202   0.478
 6166SOL     OW19396   2.869   1.535   5.894
 6166SOL    HW119397   2.810   1.471   5.845
 6166SOL    HW219398   2.845   1.536   5.990
 6167SOL     OW19399   0.525   4.367   2.835
 6167SOL    HW119400   0.471   4.411   2.763
 6167SOL    HW219401   0.518   4.268   2.825
 6168SOL     OW19402   0.193   3.975   1.994
 6168SOL    HW119403   0.200   3.942   2.088
 6168SOL    HW219404   0.244   4.061   1.985
 6169SOL     OW19405   2.268   4.206   2.106
 6169SOL    HW119406   2.287   4.198   2.008
 6169SOL    HW219407   2.207   4.284   2.121
 6170SOL     OW19408   0.009   3.330   5.426
 6170SOL    HW119409   0.053   3.365   5.509
 6170SOL    HW219410   6.998   3.406   5.371
 6171SOL     OW19411   0.498   0.783   0.315
 6171SOL    HW119412   0.447   0.808   0.397
 6171SOL    HW219413   0.498   0.683   0.304
 6172SOL     OW19414   0.608   2.397   2.743
 6172SOL    HW119415   0.681   2.349   2.694
 6172SOL    HW219416   0.647   2.473   2.794
 6173SOL     OW19417   6.389   6.637   2.800
 6173SOL    HW119418   6.367   6.703   2.729
 6173SOL    HW219419   6.475   6.664   2.844
 6174SOL     OW19420   5.542   4.100   2.434
 6174SOL    HW119421   5.563   4.047   2.353
 6174SOL    HW219422   5.536   4.197   2.410
 6175SOL     OW19423   2.483   1.224   5.318
 6175SOL    HW119424   2.528   1.169   5.248
 6175SOL    HW219425   2.540   1.226   5.400
 6176SOL     OW19426   4.205   4.243   5.262
 6176SOL    HW119427   4.195   4.339   5.234
 6176SOL    HW219428   4.287   4.233   5.317
 6177SOL     OW19429   5.728   1.195   1.577
 6177SOL    HW119430   5.795   1.184   1.651
 6177SOL    HW219431   5.647   1.241   1.612
 6178SOL     OW19432   5.564   3.973   2.179
 6178SOL    HW119433   5.528   3.901   2.119
 6178SOL    HW219434   5.504   4.053   2.173
 6179SOL     OW19435   6.289   5.217   2.183
 6179SOL    HW119436   6.196   5.179   2.177
 6179SOL    HW219437   6.309   5.270   2.102
 6180SOL     OW19438   2.472   4.803   0.381
 6180SOL    HW119439   2.557   4.798   0.433
 6180SOL    HW219440   2.482   4.751   0.296
 6181SOL     OW19441   5.028   5.209   6.613
 6181SOL    HW119442   5.011   5.189   6.517
 6181SOL    HW219443   5.058   5.304   6.622
 6182SOL     OW19444   3.133   3.332   0.304
 6182SOL    HW119445   3.229   3.311   0.286
 6182SOL    HW219446   3.076   3.283   0.238
 6183SOL     OW19447   1.099   1.902   1.018
 6183SOL    HW119448   1.048   1.833   1.070
 6183SOL    HW219449   1.046   1.928   0.937
 6184SOL     OW19450   2.890   0.866   5.905
 6184SOL    HW119451   2.979   0.882   5.862
 6184SOL    HW219452   2.861   0.772   5.887
 6185SOL     OW19453   3.583   2.870   5.143
 6185SOL    HW119454   3.585   2.845   5.046
 6185SOL    HW219455   3.500   2.834   5.185
 6186SOL     OW19456   6.474   1.903   1.946
 6186SOL    HW119457   6.524   1.827   1.988
 6186SOL    HW219458   6.535   1.954   1.886
 6187SOL     OW19459   5.357   2.491   5.343
 6187SOL    HW119460   5.375   2.457   5.251
 6187SOL    HW219461   5.300   2.573   5.338
 6188SOL     OW19462   1.819   2.111   5.003
 6188SOL    HW119463   1.758   2.124   4.926
 6188SOL    HW219464   1.777   2.048   5.069
 6189SOL     OW19465   5.021   6.363   2.151
 6189SOL    HW119466   4.980   6.451   2.125
 6189SOL    HW219467   4.965   6.289   2.113
 6190SOL     OW19468   6.444   1.943   5.100
 6190SOL    HW119469   6.459   1.999   5.181
 6190SOL    HW219470   6.442   2.001   5.019
 6191SOL     OW19471   3.146   3.617   6.527
 6191SOL    HW119472   3.066   3.581   6.576
 6191SOL    HW219473   3.122   3.636   6.432
 6192SOL     OW19474   2.686   1.953   0.489
 6192SOL    HW119475   2.731   2.023   0.545
 6192SOL    HW219476   2.609   1.994   0.440
 6193SOL     OW19477   5.010   5.617   0.533
 6193SOL    HW119478   5.050   5.662   0.452
 6193SOL    HW219479   4.928   5.567   0.506
 6194SOL     OW19480   6.688   0.670   6.325
 6194SOL    HW119481   6.738   0.756   6.329
 6194SOL    HW219482   6.600   0.684   6.279
 6195SOL     OW19483   6.277   6.748   5.358
 6195SOL    HW119484   6.339   6.827   5.364
 6195SOL    HW219485   6.281   6.710   5.265
 6196SOL     OW19486   5.244   3.544   2.798
 6196SOL    HW119487   5.221   3.543   2.896
 6196SOL    HW219488   5.233   3.637   2.763
 6197SOL     OW19489   2.756   5.377   2.090
 6197SOL    HW119490   2.706   5.371   2.176
 6197SOL    HW219491   2.691   5.388   2.014
 6198SOL     OW19492   6.007   6.473   6.787
 6198SOL    HW119493   5.995   6.381   6.750
 6198SOL    HW219494   6.041   6.468   6.881
 6199SOL     OW19495   1.038   6.990   0.684
 6199SOL    HW119496   1.089   6.976   0.600
 6199SOL    HW219497   0.966   6.920   0.692
 6200SOL     OW19498   2.459   2.253   2.385
 6200SOL    HW119499   2.360   2.257   2.368
 6200SOL    HW219500   2.498   2.177   2.332
 6201SOL     OW19501   6.645   3.363   3.831
 6201SOL    HW119502   6.549   3.369   3.858
 6201SOL    HW219503   6.700   3.425   3.886
 6202SOL     OW19504   6.287   1.220   2.861
 6202SOL    HW119505   6.305   1.155   2.787
 6202SOL    HW219506   6.298   1.313   2.827
 6203SOL     OW19507   6.494   5.361   1.915
 6203SOL    HW119508   6.406   5.342   1.872
 6203SOL    HW219509   6.511   5.460   1.916
 6204SOL     OW19510   1.653   6.967   5.160
 6204SOL    HW119511   1.643   0.020   5.224
 6204SOL    HW219512   1.741   6.974   5.113
 6205SOL     OW19513   4.966   3.945   2.118
 6205SOL    HW119514   5.055   3.924   2.159
 6205SOL    HW219515   4.908   3.991   2.186
 6206SOL     OW19516   5.380   1.991   4.215
 6206SOL    HW119517   5.286   2.025   4.212
 6206SOL    HW219518   5.441   2.065   4.245
 6207SOL     OW19519   2.095   5.820   4.555
 6207SOL    HW119520   2.059   5.846   4.645
 6207SOL    HW219521   2.019   5.793   4.496
 6208SOL     OW19522   3.732   3.004   5.976
 6208SOL    HW119523   3.760   3.086   5.925
 6208SOL    HW219524   3.759   2.922   5.926
 6209SOL     OW19525   4.097   4.089   1.318
 6209SOL    HW119526   4.087   4.010   1.258
 6209SOL    HW219527   4.183   4.082   1.368
 6210SOL     OW19528   4.722   2.807   3.621
 6210SOL    HW119529   4.678   2.739   3.679
 6210SOL    HW219530   4.785   2.762   3.557
 6211SOL     OW19531   4.696   5.237   5.001
 6211SOL    HW119532   4.607   5.263   4.961
 6211SOL    HW219533   4.756   5.316   5.001
 6212SOL     OW19534   3.972   5.078   6.049
 6212SOL    HW119535   3.984   5.046   5.955
 6212SOL    HW219536   4.014   5.013   6.112
 6213SOL     OW19537   4.437   5.936   0.528
 6213SOL    HW119538   4.417   6.033   0.533
 6213SOL    HW219539   4.520   5.922   0.474
 6214SOL     OW19540   6.136   5.937   5.298
 6214SOL    HW119541   6.078   5.980   5.228
 6214SOL    HW219542   6.078   5.898   5.369
 6215SOL     OW19543   5.004   2.459   6.345
 6215SOL    HW119544   5.079   2.489   6.286
 6215SOL    HW219545   5.005   2.359   6.353
 6216SOL     OW19546   4.811   2.910   3.125
 6216SOL    HW119547   4.833   2.964   3.206
 6216SOL    HW219548   4.758   2.830   3.151
 6217SOL     OW19549   1.012   4.446   2.531
 6217SOL    HW119550   1.002   4.351   2.501
 6217SOL    HW219551   0.999   4.507   2.453
 6218SOL     OW19552   4.525   6.859   0.377
 6218SOL    HW119553   4.430   6.870   0.407
 6218SOL    HW219554   4.529   6.865   0.277
 6219SOL     OW19555   1.149   1.116   5.318
 6219SOL    HW119556   1.123   1.133   5.222
 6219SOL    HW219557   1.178   1.021   5.329
 6220SOL     OW19558   4.041   0.954   1.137
 6220SOL    HW119559   3.988   1.006   1.070
 6220SOL    HW219560   4.079   1.016   1.205
 6221SOL     OW19561   6.250   6.094   6.339
 6221SOL    HW119562   6.207   6.094   6.249
 6221SOL    HW219563   6.214   6.018   6.393
 6222SOL     OW19564   6.481   1.416   2.710
 6222SOL    HW119565   6.564   1.366   2.732
 6222SOL    HW219566   6.473   1.426   2.611
 6223SOL     OW19567   0.297   5.459   3.883
 6223SOL    HW119568   0.324   5.456   3.979
 6223SOL    HW219569   0.243   5.377   3.861
 6224SOL     OW19570   4.325   1.930   6.406
 6224SOL    HW119571   4.314   2.028   6.426
 6224SOL    HW219572   4.420   1.912   6.380
 6225SOL     OW19573   3.871   6.845   6.394
 6225SOL    HW119574   3.940   6.904   6.435
 6225SOL    HW219575   3.917   6.779   6.333
 6226SOL     OW19576   1.004   1.500   4.177
 6226SOL    HW119577   1.054   1.438   4.238
 6226SOL    HW219578   0.976   1.451   4.094
 6227SOL     OW19579   3.288   3.833   5.083
 6227SOL    HW119580   3.341   3.804   5.004
 6227SOL    HW219581   3.208   3.885   5.053
 6228SOL     OW19582   1.992   2.759   3.941
 6228SOL    HW119583   1.915   2.706   3.905
 6228SOL    HW219584   2.073   2.701   3.946
 6229SOL     OW19585   0.476   3.789   4.092
 6229SOL    HW119586   0.387   3.743   4.092
 6229SOL    HW219587   0.514   3.788   3.999
 6230SOL     OW19588   0.470   0.868   1.890
 6230SOL    HW119589   0.474   0.853   1.792
 6230SOL    HW219590   0.504   0.960   1.911
 6231SOL     OW19591   6.707   4.650   0.254
 6231SOL    HW119592   6.798   4.607   0.255
 6231SOL    HW219593   6.715   4.743   0.218
 6232SOL     OW19594   5.062   1.203   0.075
 6232SOL    HW119595   4.989   1.151   0.120
 6232SOL    HW219596   5.090   1.279   0.133
 6233SOL     OW19597   0.068   3.671   1.095
 6233SOL    HW119598   0.125   3.632   1.022
 6233SOL    HW219599   0.118   3.743   1.142
 6234SOL     OW19600   6.196   0.030   4.551
 6234SOL    HW119601   6.226   0.044   4.645
 6234SOL    HW219602   6.229   0.105   4.494
 6235SOL     OW19603   6.632   0.912   2.477
 6235SOL    HW119604   6.618   0.813   2.483
 6235SOL    HW219605   6.613   0.942   2.384
 6236SOL     OW19606   0.551   4.370   0.921
 6236SOL    HW119607   0.645   4.335   0.915
 6236SOL    HW219608   0.553   4.470   0.923
 6237SOL     OW19609   3.724   0.855   1.494
 6237SOL    HW119610   3.701   0.760   1.510
 6237SOL    HW219611   3.821   0.870   1.513
 6238SOL     OW19612   2.307   6.557   4.402
 6238SOL    HW119613   2.304   6.652   4.434
 6238SOL    HW219614   2.341   6.499   4.476
 6239SOL     OW19615   4.782   0.699   3.366
 6239SOL    HW119616   4.799   0.601   3.361
 6239SOL    HW219617   4.782   0.728   3.461
 6240SOL     OW19618   3.994   3.095   4.415
 6240SOL    HW119619   3.984   3.042   4.499
 6240SOL    HW219620   3.939   3.053   4.343
 6241SOL     OW19621   2.992   6.711   3.772
 6241SOL    HW119622   3.051   6.632   3.790
 6241SOL    HW219623   2.897   6.686   3.790
 6242SOL     OW19624   3.178   1.649   3.600
 6242SOL    HW119625   3.255   1.710   3.578
 6242SOL    HW219626   3.151   1.663   3.696
 6243SOL     OW19627   5.333   1.489   6.085
 6243SOL    HW119628   5.326   1.398   6.125
 6243SOL    HW219629   5.410   1.538   6.126
 6244SOL     OW19630   4.547   4.552   2.664
 6244SOL    HW119631   4.614   4.625   2.652
 6244SOL    HW219632   4.544   4.494   2.582
 6245SOL     OW19633   0.610   4.442   2.441
 6245SOL    HW119634   0.560   4.440   2.355
 6245SOL    HW219635   0.680   4.370   2.441
 6246SOL     OW19636   0.270   6.761   4.388
 6246SOL    HW119637   0.339   6.800   4.326
 6246SOL    HW219638   0.295   6.667   4.409
 6247SOL     OW19639   6.534   5.628   3.144
 6247SOL    HW119640   6.484   5.598   3.063
 6247SOL    HW219641   6.565   5.722   3.132
 6248SOL     OW19642   3.300   3.149   6.684
 6248SOL    HW119643   3.201   3.153   6.671
 6248SOL    HW219644   3.323   3.081   6.753
 6249SOL     OW19645   6.336   2.671   1.048
 6249SOL    HW119646   6.424   2.718   1.047
 6249SOL    HW219647   6.270   2.726   1.099
 6250SOL     OW19648   0.100   0.801   0.709
 6250SOL    HW119649   0.049   0.793   0.624
 6250SOL    HW219650   0.093   0.716   0.761
 6251SOL     OW19651   2.931   6.717   4.363
 6251SOL    HW119652   2.953   6.806   4.403
 6251SOL    HW219653   2.984   6.645   4.409
 6252SOL     OW19654   2.466   5.847   0.168
 6252SOL    HW119655   2.482   5.763   0.219
 6252SOL    HW219656   2.435   5.825   0.076
 6253SOL     OW19657   3.191   5.038   4.955
 6253SOL    HW119658   3.098   5.010   4.929
 6253SOL    HW219659   3.190   5.078   5.046
 6254SOL     OW19660   6.996   6.097   0.721
 6254SOL    HW119661   6.920   6.146   0.677
 6254SOL    HW219662   0.025   6.049   0.651
 6255SOL     OW19663   0.190   1.707   1.260
 6255SOL    HW119664   0.273   1.718   1.204
 6255SOL    HW219665   0.170   1.610   1.271
 6256SOL     OW19666   4.699   5.581   2.683
 6256SOL    HW119667   4.611   5.533   2.677
 6256SOL    HW219668   4.700   5.641   2.763
 6257SOL     OW19669   4.360   4.006   1.459
 6257SOL    HW119670   4.459   3.997   1.466
 6257SOL    HW219671   4.319   3.993   1.549
 6258SOL     OW19672   4.636   6.140   5.701
 6258SOL    HW119673   4.539   6.165   5.699
 6258SOL    HW219674   4.670   6.145   5.795
 6259SOL     OW19675   2.456   0.426   5.039
 6259SOL    HW119676   2.483   0.350   5.099
 6259SOL    HW219677   2.416   0.499   5.093
 6260SOL     OW19678   2.161   1.039   0.392
 6260SOL    HW119679   2.193   1.010   0.482
 6260SOL    HW219680   2.147   1.138   0.391
 6261SOL     OW19681   3.674   6.097   1.483
 6261SOL    HW119682   3.680   6.162   1.559
 6261SOL    HW219683   3.708   6.008   1.513
 6262SOL     OW19684   7.003   6.842   2.050
 6262SOL    HW119685   7.000   6.835   2.150
 6262SOL    HW219686   0.058   6.791   2.016
 6263SOL     OW19687   6.567   6.297   5.452
 6263SOL    HW119688   6.501   6.226   5.427
 6263SOL    HW219689   6.519   6.384   5.462
 6264SOL     OW19690   1.251   6.903   1.061
 6264SOL    HW119691   1.195   6.973   1.016
 6264SOL    HW219692   1.348   6.924   1.050
 6265SOL     OW19693   4.907   2.056   0.092
 6265SOL    HW119694   4.862   2.047   0.181
 6265SOL    HW219695   4.858   2.000   0.025
 6266SOL     OW19696   2.880   5.699   3.671
 6266SOL    HW119697   2.795   5.728   3.628
 6266SOL    HW219698   2.933   5.780   3.698
 6267SOL     OW19699   1.246   6.786   4.913
 6267SOL    HW119700   1.218   6.878   4.886
 6267SOL    HW219701   1.168   6.737   4.951
 6268SOL     OW19702   3.167   0.583   1.852
 6268SOL    HW119703   3.212   0.508   1.900
 6268SOL    HW219704   3.164   0.664   1.912
 6269SOL     OW19705   5.854   5.558   1.299
 6269SOL    HW119706   5.843   5.459   1.311
 6269SOL    HW219707   5.789   5.606   1.357
 6270SOL     OW19708   1.407   6.213   0.261
 6270SOL    HW119709   1.450   6.269   0.190
 6270SOL    HW219710   1.446   6.237   0.350
 6271SOL     OW19711   6.001   3.335   6.601
 6271SOL    HW119712   5.951   3.357   6.517
 6271SOL    HW219713   6.056   3.253   6.586
 6272SOL     OW19714   6.408   0.277   0.591
 6272SOL    HW119715   6.424   0.330   0.674
 6272SOL    HW219716   6.348   0.329   0.530
 6273SOL     OW19717   7.012   0.370   1.591
 6273SOL    HW119718   6.971   0.455   1.625
 6273SOL    HW219719   6.986   0.294   1.650
 6274SOL     OW19720   3.820   5.761   5.075
 6274SOL    HW119721   3.722   5.744   5.070
 6274SOL    HW219722   3.868   5.673   5.083
 6275SOL     OW19723   1.617   5.405   6.778
 6275SOL    HW119724   1.589   5.497   6.807
 6275SOL    HW219725   1.600   5.341   6.853
 6276SOL     OW19726   2.054   5.548   2.967
 6276SOL    HW119727   2.135   5.489   2.965
 6276SOL    HW219728   2.052   5.598   3.054
 6277SOL     OW19729   5.701   2.922   1.510
 6277SOL    HW119730   5.620   2.945   1.564
 6277SOL    HW219731   5.771   2.993   1.522
 6278SOL     OW19732   2.982   0.071   6.178
 6278SOL    HW119733   2.946   0.002   6.241
 6278SOL    HW219734   3.048   0.129   6.227
 6279SOL     OW19735   2.944   6.968   1.719
 6279SOL    HW119736   2.861   6.925   1.683
 6279SOL    HW219737   2.953   6.947   1.817
 6280SOL     OW19738   6.708   1.746   6.643
 6280SOL    HW119739   6.673   1.754   6.736
 6280SOL    HW219740   6.754   1.831   6.617
 6281SOL     OW19741   6.079   4.249   5.319
 6281SOL    HW119742   6.012   4.298   5.262
 6281SOL    HW219743   6.060   4.267   5.415
 6282SOL     OW19744   0.602   3.458   5.957
 6282SOL    HW119745   0.694   3.420   5.947
 6282SOL    HW219746   0.545   3.428   5.880
 6283SOL     OW19747   0.930   6.229   5.389
 6283SOL    HW119748   1.018   6.212   5.345
 6283SOL    HW219749   0.938   6.305   5.453
 6284SOL     OW19750   2.248   4.923   6.534
 6284SOL    HW119751   2.330   4.869   6.515
 6284SOL    HW219752   2.240   4.936   6.633
 6285SOL     OW19753   1.130   3.448   3.530
 6285SOL    HW119754   1.229   3.443   3.527
 6285SOL    HW219755   1.098   3.435   3.624
 6286SOL     OW19756   0.878   3.130   4.893
 6286SOL    HW119757   0.831   3.196   4.834
 6286SOL    HW219758   0.819   3.051   4.908
 6287SOL     OW19759   4.452   4.887   5.042
 6287SOL    HW119760   4.429   4.894   4.945
 6287SOL    HW219761   4.545   4.920   5.057
 6288SOL     OW19762   3.719   3.193   6.682
 6288SOL    HW119763   3.692   3.121   6.618
 6288SOL    HW219764   3.799   3.163   6.734
 6289SOL     OW19765   2.957   4.755   5.936
 6289SOL    HW119766   2.859   4.751   5.956
 6289SOL    HW219767   2.993   4.663   5.927
 6290SOL     OW19768   5.176   5.639   5.063
 6290SOL    HW119769   5.225   5.598   4.986
 6290SOL    HW219770   5.233   5.712   5.103
 6291SOL     OW19771   2.950   3.190   2.775
 6291SOL    HW119772   2.936   3.135   2.857
 6291SOL    HW219773   3.047   3.210   2.765
 6292SOL     OW19774   1.746   3.291   4.792
 6292SOL    HW119775   1.665   3.296   4.850
 6292SOL    HW219776   1.796   3.206   4.811
 6293SOL     OW19777   4.206   1.051   6.714
 6293SOL    HW119778   4.112   1.035   6.685
 6293SOL    HW219779   4.269   1.031   6.639
 6294SOL     OW19780   2.374   1.541   3.610
 6294SOL    HW119781   2.320   1.468   3.568
 6294SOL    HW219782   2.446   1.569   3.546
 6295SOL     OW19783   5.663   3.931   5.424
 6295SOL    HW119784   5.599   3.900   5.354
 6295SOL    HW219785   5.640   4.024   5.451
 6296SOL     OW19786   0.531   2.541   6.427
 6296SOL    HW119787   0.438   2.528   6.391
 6296SOL    HW219788   0.560   2.458   6.474
 6297SOL     OW19789   5.937   0.609   4.005
 6297SOL    HW119790   6.018   0.607   4.063
 6297SOL    HW219791   5.906   0.703   3.992
 6298SOL     OW19792   6.054   5.065   0.503
 6298SOL    HW119793   5.963   5.035   0.475
 6298SOL    HW219794   6.079   5.147   0.450
 6299SOL     OW19795   5.046   2.104   2.736
 6299SOL    HW119796   5.137   2.100   2.775
 6299SOL    HW219797   5.049   2.152   2.648
 6300SOL     OW19798   3.121   0.143   5.950
 6300SOL    HW119799   3.218   0.144   5.975
 6300SOL    HW219800   3.066   0.126   6.032
 6301SOL     OW19801   3.331   6.386   0.616
 6301SOL    HW119802   3.305   6.472   0.660
 6301SOL    HW219803   3.332   6.313   0.684
 6302SOL     OW19804   2.678   0.978   5.765
 6302SOL    HW119805   2.588   0.987   5.809
 6302SOL    HW219806   2.745   0.950   5.833
 6303SOL     OW19807   1.262   5.785   5.734
 6303SOL    HW119808   1.163   5.777   5.730
 6303SOL    HW219809   1.303   5.709   5.682
 6304SOL     OW19810   3.943   1.229   3.389
 6304SOL    HW119811   3.845   1.227   3.409
 6304SOL    HW219812   3.968   1.318   3.351
 6305SOL     OW19813   0.575   6.440   5.886
 6305SOL    HW119814   0.642   6.366   5.881
 6305SOL    HW219815   0.558   6.476   5.795
 6306SOL     OW19816   6.960   4.581   3.854
 6306SOL    HW119817   6.967   4.487   3.885
 6306SOL    HW219818   6.995   4.588   3.760
 6307SOL     OW19819   4.101   3.354   3.162
 6307SOL    HW119820   4.018   3.329   3.213
 6307SOL    HW219821   4.158   3.272   3.151
 6308SOL     OW19822   0.449   2.789   6.986
 6308SOL    HW119823   0.518   2.837   0.019
 6308SOL    HW219824   0.464   2.691   6.993
 6309SOL     OW19825   1.728   5.779   4.278
 6309SOL    HW119826   1.753   5.715   4.350
 6309SOL    HW219827   1.811   5.824   4.244
 6310SOL     OW19828   1.889   6.455   3.195
 6310SOL    HW119829   1.977   6.410   3.211
 6310SOL    HW219830   1.882   6.481   3.099
 6311SOL     OW19831   5.016   1.077   6.466
 6311SOL    HW119832   4.995   1.030   6.552
 6311SOL    HW219833   4.948   1.150   6.451
 6312SOL     OW19834   3.202   6.523   6.917
 6312SOL    HW119835   3.116   6.481   6.890
 6312SOL    HW219836   3.235   6.479   7.001
 6313SOL     OW19837   5.669   6.161   3.400
 6313SOL    HW119838   5.639   6.072   3.367
 6313SOL    HW219839   5.669   6.227   3.325
 6314SOL     OW19840   2.057   6.680   1.780
 6314SOL    HW119841   1.983   6.657   1.844
 6314SOL    HW219842   2.028   6.756   1.722
 6315SOL     OW19843   2.408   2.687   4.004
 6315SOL    HW119844   2.356   2.771   4.019
 6315SOL    HW219845   2.486   2.685   4.066
 6316SOL     OW19846   5.700   1.476   4.698
 6316SOL    HW119847   5.661   1.540   4.764
 6316SOL    HW219848   5.658   1.491   4.608
 6317SOL     OW19849   4.853   4.885   1.889
 6317SOL    HW119850   4.773   4.855   1.838
 6317SOL    HW219851   4.927   4.907   1.826
 6318SOL     OW19852   6.408   0.248   5.579
 6318SOL    HW119853   6.437   0.214   5.669
 6318SOL    HW219854   6.368   0.339   5.589
 6319SOL     OW19855   5.750   1.957   4.373
 6319SOL    HW119856   5.737   2.053   4.349
 6319SOL    HW219857   5.663   1.917   4.402
 6320SOL     OW19858   6.323   1.062   4.389
 6320SOL    HW119859   6.357   1.130   4.454
 6320SOL    HW219860   6.257   1.105   4.327
 6321SOL     OW19861   5.558   2.083   0.312
 6321SOL    HW119862   5.502   2.013   0.355
 6321SOL    HW219863   5.499   2.154   0.274
 6322SOL     OW19864   1.428   0.750   1.517
 6322SOL    HW119865   1.423   0.700   1.603
 6322SOL    HW219866   1.512   0.805   1.515
 6323SOL     OW19867   2.935   3.187   1.499
 6323SOL    HW119868   2.906   3.217   1.408
 6323SOL    HW219869   3.021   3.231   1.523
 6324SOL     OW19870   4.420   1.653   0.974
 6324SOL    HW119871   4.330   1.653   0.930
 6324SOL    HW219872   4.412   1.620   1.068
 6325SOL     OW19873   1.958   2.421   3.218
 6325SOL    HW119874   1.885   2.485   3.193
 6325SOL    HW219875   2.009   2.457   3.295
 6326SOL     OW19876   5.266   4.771   6.294
 6326SOL    HW119877   5.202   4.697   6.317
 6326SOL    HW219878   5.251   4.849   6.354
 6327SOL     OW19879   6.995   0.351   3.375
 6327SOL    HW119880   0.040   0.278   3.385
 6327SOL    HW219881   6.945   0.362   3.461
 6328SOL     OW19882   4.384   3.702   5.773
 6328SOL    HW119883   4.477   3.736   5.761
 6328SOL    HW219884   4.319   3.767   5.734
 6329SOL     OW19885   1.560   3.063   5.460
 6329SOL    HW119886   1.636   3.037   5.400
 6329SOL    HW219887   1.594   3.119   5.535
 6330SOL     OW19888   5.408   1.081   3.272
 6330SOL    HW119889   5.380   1.044   3.184
 6330SOL    HW219890   5.469   1.015   3.317
 6331SOL     OW19891   0.069   3.289   2.547
 6331SOL    HW119892   6.999   3.323   2.544
 6331SOL    HW219893   0.103   3.277   2.454
 6332SOL     OW19894   2.709   1.319   0.916
 6332SOL    HW119895   2.689   1.297   1.011
 6332SOL    HW219896   2.629   1.299   0.859
 6333SOL     OW19897   4.533   1.393   0.595
 6333SOL    HW119898   4.475   1.457   0.546
 6333SOL    HW219899   4.533   1.415   0.693
 6334SOL     OW19900   1.833   0.746   1.646
 6334SOL    HW119901   1.879   0.834   1.628
 6334SOL    HW219902   1.743   0.764   1.685
 6335SOL     OW19903   6.137   1.692   0.945
 6335SOL    HW119904   6.228   1.649   0.941
 6335SOL    HW219905   6.102   1.703   0.852
 6336SOL     OW19906   1.019   3.110   5.922
 6336SOL    HW119907   1.006   3.011   5.925
 6336SOL    HW219908   1.096   3.135   5.981
 6337SOL     OW19909   4.491   5.879   5.036
 6337SOL    HW119910   4.460   5.881   4.940
 6337SOL    HW219911   4.555   5.804   5.049
 6338SOL     OW19912   3.047   1.930   4.054
 6338SOL    HW119913   3.078   1.987   4.130
 6338SOL    HW219914   2.998   1.850   4.089
 6339SOL     OW19915   1.303   4.516   3.497
 6339SOL    HW119916   1.310   4.421   3.526
 6339SOL    HW219917   1.207   4.545   3.500
 6340SOL     OW19918   2.187   4.330   1.613
 6340SOL    HW119919   2.229   4.392   1.547
 6340SOL    HW219920   2.090   4.351   1.623
 6341SOL     OW19921   1.043   4.641   3.561
 6341SOL    HW119922   1.105   4.719   3.573
 6341SOL    HW219923   0.964   4.652   3.621
 6342SOL     OW19924   2.194   1.775   1.927
 6342SOL    HW119925   2.240   1.851   1.973
 6342SOL    HW219926   2.141   1.810   1.849
 6343SOL     OW19927   2.283   6.084   1.375
 6343SOL    HW119928   2.261   5.995   1.415
 6343SOL    HW219929   2.359   6.073   1.311
 6344SOL     OW19930   6.606   1.359   3.577
 6344SOL    HW119931   6.608   1.323   3.484
 6344SOL    HW219932   6.642   1.453   3.577
 6345SOL     OW19933   5.908   3.677   1.565
 6345SOL    HW119934   5.847   3.648   1.491
 6345SOL    HW219935   5.873   3.760   1.607
 6346SOL     OW19936   0.005   4.445   5.518
 6346SOL    HW119937   0.060   4.365   5.494
 6346SOL    HW219938   6.991   4.433   5.610
 6347SOL     OW19939   2.336   1.756   2.842
 6347SOL    HW119940   2.241   1.787   2.834
 6347SOL    HW219941   2.373   1.740   2.751
 6348SOL     OW19942   6.792   2.433   5.516
 6348SOL    HW119943   6.828   2.353   5.468
 6348SOL    HW219944   6.783   2.413   5.613
 6349SOL     OW19945   6.959   1.109   6.974
 6349SOL    HW119946   7.013   1.044   0.005
 6349SOL    HW219947   6.998   1.116   6.882
 6350SOL     OW19948   1.619   4.801   1.727
 6350SOL    HW119949   1.641   4.820   1.632
 6350SOL    HW219950   1.629   4.885   1.781
 6351SOL     OW19951   5.850   3.215   2.203
 6351SOL    HW119952   5.872   3.304   2.244
 6351SOL    HW219953   5.754   3.213   2.178
 6352SOL     OW19954   2.472   0.195   4.833
 6352SOL    HW119955   2.553   0.153   4.874
 6352SOL    HW219956   2.470   0.293   4.855
 6353SOL     OW19957   3.260   6.220   6.655
 6353SOL    HW119958   3.337   6.280   6.632
 6353SOL    HW219959   3.192   6.224   6.582
 6354SOL     OW19960   4.536   4.901   2.403
 6354SOL    HW119961   4.449   4.870   2.365
 6354SOL    HW219962   4.611   4.849   2.361
 6355SOL     OW19963   2.804   4.759   0.863
 6355SOL    HW119964   2.781   4.687   0.928
 6355SOL    HW219965   2.873   4.819   0.902
 6356SOL     OW19966   5.842   3.776   6.399
 6356SOL    HW119967   5.872   3.836   6.473
 6356SOL    HW219968   5.825   3.830   6.317
 6357SOL     OW19969   5.538   1.438   1.437
 6357SOL    HW119970   5.468   1.485   1.385
 6357SOL    HW219971   5.507   1.424   1.531
 6358SOL     OW19972   1.197   2.394   6.907
 6358SOL    HW119973   1.118   2.451   6.885
 6358SOL    HW219974   1.250   2.377   6.824
 6359SOL     OW19975   5.911   6.165   0.212
 6359SOL    HW119976   5.931   6.164   0.310
 6359SOL    HW219977   5.817   6.135   0.196
 6360SOL     OW19978   0.967   2.656   1.956
 6360SOL    HW119979   0.988   2.561   1.978
 6360SOL    HW219980   1.050   2.711   1.966
 6361SOL     OW19981   0.694   0.544   0.075
 6361SOL    HW119982   0.629   0.536   0.150
 6361SOL    HW219983   0.694   0.459   0.022
 6362SOL     OW19984   0.916   5.457   6.967
 6362SOL    HW119985   0.979   5.529   6.939
 6362SOL    HW219986   0.825   5.495   6.982
 6363SOL     OW19987   2.688   5.154   3.780
 6363SOL    HW119988   2.785   5.133   3.777
 6363SOL    HW219989   2.646   5.108   3.859
 6364SOL     OW19990   2.462   2.604   4.988
 6364SOL    HW119991   2.386   2.570   4.934
 6364SOL    HW219992   2.496   2.690   4.949
 6365SOL     OW19993   6.231   5.329   3.711
 6365SOL    HW119994   6.243   5.236   3.747
 6365SOL    HW219995   6.138   5.339   3.677
 6366SOL     OW19996   5.762   6.887   4.747
 6366SOL    HW119997   5.673   6.927   4.724
 6366SOL    HW219998   5.813   6.869   4.662
 6367SOL     OW19999   2.502   1.966   2.975
 6367SOL    HW120000   2.441   1.899   2.933
 6367SOL    HW220001   2.469   1.991   3.066
 6368SOL     OW20002   5.030   3.142   4.726
 6368SOL    HW120003   5.049   3.193   4.810
 6368SOL    HW220004   5.070   3.190   4.648
 6369SOL     OW20005   2.930   5.954   6.301
 6369SOL    HW120006   2.952   5.872   6.247
 6369SOL    HW220007   2.854   5.933   6.362
 6370SOL     OW20008   5.486   3.603   3.896
 6370SOL    HW120009   5.424   3.598   3.817
 6370SOL    HW220010   5.446   3.551   3.972
 6371SOL     OW20011   5.412   3.854   1.963
 6371SOL    HW120012   5.337   3.787   1.959
 6371SOL    HW220013   5.493   3.815   1.920
 6372SOL     OW20014   7.009   1.218   3.032
 6372SOL    HW120015   0.077   1.223   3.073
 6372SOL    HW220016   6.980   1.123   3.026
 6373SOL     OW20017   5.158   4.139   1.420
 6373SOL    HW120018   5.106   4.184   1.493
 6373SOL    HW220019   5.244   4.103   1.457
 6374SOL     OW20020   4.909   2.879   0.213
 6374SOL    HW120021   4.952   2.797   0.176
 6374SOL    HW220022   4.813   2.882   0.183
 6375SOL     OW20023   6.503   2.662   1.783
 6375SOL    HW120024   6.530   2.618   1.698
 6375SOL    HW220025   6.549   2.617   1.860
 6376SOL     OW20026   3.307   0.904   6.530
 6376SOL    HW120027   3.380   0.860   6.478
 6376SOL    HW220028   3.343   0.935   6.618
 6377SOL     OW20029   6.714   0.543   0.479
 6377SOL    HW120030   6.722   0.469   0.545
 6377SOL    HW220031   6.619   0.573   0.473
 6378SOL     OW20032   5.493   5.532   3.183
 6378SOL    HW120033   5.507   5.626   3.151
 6378SOL    HW220034   5.395   5.518   3.201
 6379SOL     OW20035   2.831   6.019   0.282
 6379SOL    HW120036   2.902   5.950   0.268
 6379SOL    HW220037   2.866   6.109   0.256
 6380SOL     OW20038   1.190   3.821   5.128
 6380SOL    HW120039   1.105   3.769   5.114
 6380SOL    HW220040   1.258   3.790   5.061
 6381SOL     OW20041   4.638   2.863   0.165
 6381SOL    HW120042   4.581   2.939   0.193
 6381SOL    HW220043   4.623   2.843   0.068
 6382SOL     OW20044   1.998   1.721   1.316
 6382SOL    HW120045   1.967   1.752   1.406
 6382SOL    HW220046   2.092   1.689   1.323
 6383SOL     OW20047   2.130   2.360   2.402
 6383SOL    HW120048   2.102   2.455   2.416
 6383SOL    HW220049   2.125   2.338   2.305
 6384SOL     OW20050   6.290   2.705   1.956
 6384SOL    HW120051   6.251   2.613   1.945
 6384SOL    HW220052   6.353   2.724   1.880
 6385SOL     OW20053   0.170   2.937   0.920
 6385SOL    HW120054   0.077   2.903   0.911
 6385SOL    HW220055   0.196   2.940   1.017
 6386SOL     OW20056   2.288   3.426   0.030
 6386SOL    HW120057   2.328   3.400   0.118
 6386SOL    HW220058   2.287   3.347   6.992
 6387SOL     OW20059   6.925   0.331   6.844
 6387SOL    HW120060   6.848   0.304   6.902
 6387SOL    HW220061   6.977   0.250   6.817
 6388SOL     OW20062   6.172   5.537   2.533
 6388SOL    HW120063   6.137   5.629   2.515
 6388SOL    HW220064   6.175   5.485   2.448
 6389SOL     OW20065   1.257   0.794   6.670
 6389SOL    HW120066   1.255   0.879   6.723
 6389SOL    HW220067   1.342   0.791   6.617
 6390SOL     OW20068   6.728   1.505   6.374
 6390SOL    HW120069   6.709   1.411   6.344
 6390SOL    HW220070   6.756   1.504   6.470
 6391SOL     OW20071   1.142   1.449   5.113
 6391SOL    HW120072   1.145   1.522   5.045
 6391SOL    HW220073   1.196   1.476   5.193
 6392SOL     OW20074   4.237   6.305   3.600
 6392SOL    HW120075   4.283   6.228   3.556
 6392SOL    HW220076   4.143   6.278   3.625
 6393SOL     OW20077   6.816   5.531   1.273
 6393SOL    HW120078   6.906   5.496   1.300
 6393SOL    HW220079   6.770   5.463   1.216
 6394SOL     OW20080   1.113   5.701   1.207
 6394SOL    HW120081   1.134   5.796   1.228
 6394SOL    HW220082   1.192   5.644   1.229
 6395SOL     OW20083   1.908   4.413   3.525
 6395SOL    HW120084   1.976   4.350   3.487
 6395SOL    HW220085   1.832   4.424   3.461
 6396SOL     OW20086   0.773   3.240   0.448
 6396SOL    HW120087   0.817   3.228   0.358
 6396SOL    HW220088   0.750   3.150   0.486
 6397SOL     OW20089   6.069   2.399   3.679
 6397SOL    HW120090   5.970   2.410   3.681
 6397SOL    HW220091   6.091   2.301   3.673
 6398SOL     OW20092   1.574   0.044   0.952
 6398SOL    HW120093   1.671   0.055   0.933
 6398SOL    HW220094   1.531   7.015   0.878
 6399SOL     OW20095   2.556   0.823   6.089
 6399SOL    HW120096   2.488   0.831   6.162
 6399SOL    HW220097   2.641   0.867   6.118
 6400SOL     OW20098   1.150   5.752   3.005
 6400SOL    HW120099   1.063   5.802   3.004
 6400SOL    HW220100   1.134   5.657   3.033
 6401SOL     OW20101   3.703   6.109   3.446
 6401SOL    HW120102   3.672   6.104   3.541
 6401SOL    HW220103   3.677   6.025   3.398
 6402SOL     OW20104   2.187   4.914   5.061
 6402SOL    HW120105   2.089   4.894   5.063
 6402SOL    HW220106   2.226   4.881   4.975
 6403SOL     OW20107   4.402   5.886   4.782
 6403SOL    HW120108   4.336   5.951   4.820
 6403SOL    HW220109   4.428   5.916   4.690
 6404SOL     OW20110   4.252   0.476   2.055
 6404SOL    HW120111   4.217   0.535   2.127
 6404SOL    HW220112   4.285   0.390   2.095
 6405SOL     OW20113   5.396   1.526   2.283
 6405SOL    HW120114   5.308   1.483   2.261
 6405SOL    HW220115   5.443   1.550   2.198
 6406SOL     OW20116   1.255   2.153   2.555
 6406SOL    HW120117   1.262   2.124   2.460
 6406SOL    HW220118   1.167   2.197   2.570
 6407SOL     OW20119   1.966   6.131   2.776
 6407SOL    HW120120   1.948   6.162   2.683
 6407SOL    HW220121   1.898   6.169   2.839
 6408SOL     OW20122   6.540   0.691   0.772
 6408SOL    HW120123   6.561   0.704   0.675
 6408SOL    HW220124   6.625   0.693   0.824
 6409SOL     OW20125   6.489   4.700   3.369
 6409SOL    HW120126   6.463   4.716   3.274
 6409SOL    HW220127   6.410   4.716   3.428
 6410SOL     OW20128   2.672   1.605   5.615
 6410SOL    HW120129   2.653   1.702   5.625
 6410SOL    HW220130   2.669   1.561   5.705
 6411SOL     OW20131   0.480   2.259   2.341
 6411SOL    HW120132   0.471   2.323   2.417
 6411SOL    HW220133   0.564   2.280   2.290
 6412SOL     OW20134   3.204   0.291   0.137
 6412SOL    HW120135   3.139   0.231   0.184
 6412SOL    HW220136   3.153   0.360   0.085
 6413SOL     OW20137   4.780   5.271   3.800
 6413SOL    HW120138   4.803   5.365   3.774
 6413SOL    HW220139   4.683   5.266   3.824
 6414SOL     OW20140   1.331   6.866   0.208
 6414SOL    HW120141   1.266   6.843   0.281
 6414SOL    HW220142   1.360   6.961   0.217
 6415SOL     OW20143   1.026   2.531   2.985
 6415SOL    HW120144   1.075   2.458   2.939
 6415SOL    HW220145   1.087   2.608   3.001
 6416SOL     OW20146   2.952   0.715   0.185
 6416SOL    HW120147   2.938   0.808   0.152
 6416SOL    HW220148   2.999   0.717   0.273
 6417SOL     OW20149   3.677   1.714   0.562
 6417SOL    HW120150   3.681   1.665   0.476
 6417SOL    HW220151   3.648   1.652   0.635
 6418SOL     OW20152   4.482   5.331   1.153
 6418SOL    HW120153   4.579   5.353   1.161
 6418SOL    HW220154   4.433   5.363   1.234
 6419SOL     OW20155   0.629   0.015   0.041
 6419SOL    HW120156   0.624   0.049   6.971
 6419SOL    HW220157   0.700   0.065   0.091
 6420SOL     OW20158   1.884   3.708   4.108
 6420SOL    HW120159   1.809   3.709   4.041
 6420SOL    HW220160   1.940   3.626   4.094
 6421SOL     OW20161   4.801   0.121   1.955
 6421SOL    HW120162   4.889   0.132   2.001
 6421SOL    HW220163   4.801   0.174   1.870
 6422SOL     OW20164   6.149   2.339   4.574
 6422SOL    HW120165   6.162   2.242   4.556
 6422SOL    HW220166   6.209   2.368   4.648
 6423SOL     OW20167   2.232   4.272   4.264
 6423SOL    HW120168   2.311   4.324   4.232
 6423SOL    HW220169   2.166   4.334   4.307
 6424SOL     OW20170   0.148   4.776   4.492
 6424SOL    HW120171   0.212   4.825   4.431
 6424SOL    HW220172   0.196   4.752   4.576
 6425SOL     OW20173   0.155   6.242   3.211
 6425SOL    HW120174   0.132   6.294   3.293
 6425SOL    HW220175   0.087   6.261   3.139
 6426SOL     OW20176   4.485   4.578   4.769
 6426SOL    HW120177   4.452   4.541   4.856
 6426SOL    HW220178   4.556   4.519   4.732
 6427SOL     OW20179   3.059   3.291   3.371
 6427SOL    HW120180   3.044   3.332   3.281
 6427SOL    HW220181   3.078   3.194   3.361
 6428SOL     OW20182   5.197   2.641   0.385
 6428SOL    HW120183   5.194   2.541   0.382
 6428SOL    HW220184   5.280   2.672   0.338
 6429SOL     OW20185   2.110   0.900   5.524
 6429SOL    HW120186   2.183   0.933   5.464
 6429SOL    HW220187   2.033   0.869   5.467
 6430SOL     OW20188   6.376   0.402   5.009
 6430SOL    HW120189   6.318   0.344   5.067
 6430SOL    HW220190   6.471   0.373   5.017
 6431SOL     OW20191   4.037   4.465   1.725
 6431SOL    HW120192   4.115   4.520   1.697
 6431SOL    HW220193   4.059   4.368   1.713
 6432SOL     OW20194   4.805   4.559   6.053
 6432SOL    HW120195   4.742   4.587   6.125
 6432SOL    HW220196   4.856   4.478   6.083
 6433SOL     OW20197   2.247   5.830   6.610
 6433SOL    HW120198   2.232   5.776   6.693
 6433SOL    HW220199   2.324   5.892   6.624
 6434SOL     OW20200   3.479   5.622   5.636
 6434SOL    HW120201   3.451   5.678   5.558
 6434SOL    HW220202   3.558   5.664   5.681
 6435SOL     OW20203   4.965   1.091   1.177
 6435SOL    HW120204   4.940   1.065   1.270
 6435SOL    HW220205   5.024   1.172   1.180
 6436SOL     OW20206   0.320   4.219   4.270
 6436SOL    HW120207   0.281   4.297   4.320
 6436SOL    HW220208   0.337   4.144   4.333
 6437SOL     OW20209   0.319   1.613   5.751
 6437SOL    HW120210   0.241   1.618   5.814
 6437SOL    HW220211   0.404   1.612   5.803
 6438SOL     OW20212   0.390   5.682   0.483
 6438SOL    HW120213   0.465   5.617   0.470
 6438SOL    HW220214   0.355   5.711   0.394
 6439SOL     OW20215   5.930   7.019   2.693
 6439SOL    HW120216   6.018   6.997   2.650
 6439SOL    HW220217   5.946   0.033   2.784
 6440SOL     OW20218   2.409   1.250   6.120
 6440SOL    HW120219   2.490   1.201   6.151
 6440SOL    HW220220   2.424   1.282   6.026
 6441SOL     OW20221   0.641   0.867   2.827
 6441SOL    HW120222   0.593   0.827   2.749
 6441SOL    HW220223   0.717   0.807   2.853
 6442SOL     OW20224   3.003   2.845   5.290
 6442SOL    HW120225   3.000   2.880   5.384
 6442SOL    HW220226   3.003   2.745   5.292
 6443SOL     OW20227   4.666   2.621   1.087
 6443SOL    HW120228   4.754   2.640   1.043
 6443SOL    HW220229   4.655   2.681   1.166
 6444SOL     OW20230   6.996   3.356   4.985
 6444SOL    HW120231   6.919   3.344   4.922
 6444SOL    HW220232   6.978   3.304   5.069
 6445SOL     OW20233   3.089   3.972   3.442
 6445SOL    HW120234   3.032   3.966   3.360
 6445SOL    HW220235   3.142   4.057   3.439
 6446SOL     OW20236   2.587   1.143   6.274
 6446SOL    HW120237   2.585   1.075   6.347
 6446SOL    HW220238   2.682   1.161   6.248
 6447SOL     OW20239   6.397   3.798   0.997
 6447SOL    HW120240   6.466   3.830   0.932
 6447SOL    HW220241   6.334   3.735   0.951
 6448SOL     OW20242   4.177   5.435   1.586
 6448SOL    HW120243   4.275   5.451   1.600
 6448SOL    HW220244   4.125   5.511   1.623
 6449SOL     OW20245   2.575   6.106   1.158
 6449SOL    HW120246   2.506   6.058   1.103
 6449SOL    HW220247   2.570   6.204   1.140
 6450SOL     OW20248   0.087   3.902   0.848
 6450SOL    HW120249   0.164   3.951   0.888
 6450SOL    HW220250   0.119   3.818   0.804
 6451SOL     OW20251   3.761   2.275   1.451
 6451SOL    HW120252   3.672   2.308   1.421
 6451SOL    HW220253   3.789   2.198   1.394
 6452SOL     OW20254   5.089   2.868   3.378
 6452SOL    HW120255   5.058   2.789   3.432
 6452SOL    HW220256   5.173   2.843   3.329
 6453SOL     OW20257   3.428   6.797   0.836
 6453SOL    HW120258   3.510   6.813   0.782
 6453SOL    HW220259   3.423   6.865   0.910
 6454SOL     OW20260   5.597   2.726   2.633
 6454SOL    HW120261   5.686   2.754   2.670
 6454SOL    HW220262   5.574   2.634   2.666
 6455SOL     OW20263   6.280   3.318   3.461
 6455SOL    HW120264   6.306   3.252   3.532
 6455SOL    HW220265   6.342   3.397   3.464
 6456SOL     OW20266   5.989   1.301   3.118
 6456SOL    HW120267   5.970   1.392   3.156
 6456SOL    HW220268   6.049   1.310   3.039
 6457SOL     OW20269   4.613   0.548   2.294
 6457SOL    HW120270   4.641   0.558   2.199
 6457SOL    HW220271   4.563   0.630   2.323
 6458SOL     OW20272   0.650   4.868   3.696
 6458SOL    HW120273   0.600   4.798   3.747
 6458SOL    HW220274   0.590   4.945   3.675
 6459SOL     OW20275   6.668   2.633   2.363
 6459SOL    HW120276   6.698   2.601   2.453
 6459SOL    HW220277   6.590   2.579   2.332
 6460SOL     OW20278   0.393   5.705   6.862
 6460SOL    HW120279   0.468   5.768   6.844
 6460SOL    HW220280   0.345   5.733   6.945
 6461SOL     OW20281   2.929   5.064   1.273
 6461SOL    HW120282   3.004   5.123   1.244
 6461SOL    HW220283   2.903   5.087   1.367
 6462SOL     OW20284   1.489   3.765   5.225
 6462SOL    HW120285   1.457   3.716   5.144
 6462SOL    HW220286   1.548   3.705   5.279
 6463SOL     OW20287   4.440   1.510   1.799
 6463SOL    HW120288   4.358   1.474   1.754
 6463SOL    HW220289   4.422   1.602   1.834
 6464SOL     OW20290   0.864   6.018   4.639
 6464SOL    HW120291   0.825   5.993   4.728
 6464SOL    HW220292   0.898   5.936   4.593
 6465SOL     OW20293   4.426   1.526   3.438
 6465SOL    HW120294   4.519   1.527   3.401
 6465SOL    HW220295   4.394   1.620   3.449
 6466SOL     OW20296   0.470   2.976   6.641
 6466SOL    HW120297   0.532   2.997   6.717
 6466SOL    HW220298   0.418   2.893   6.663
 6467SOL     OW20299   3.310   1.063   0.857
 6467SOL    HW120300   3.349   1.027   0.772
 6467SOL    HW220301   3.354   1.151   0.879
 6468SOL     OW20302   3.112   0.260   0.566
 6468SOL    HW120303   3.030   0.316   0.583
 6468SOL    HW220304   3.191   0.320   0.553
 6469SOL     OW20305   3.830   1.769   3.264
 6469SOL    HW120306   3.746   1.822   3.270
 6469SOL    HW220307   3.891   1.808   3.195
 6470SOL     OW20308   6.483   1.910   6.843
 6470SOL    HW120309   6.403   1.897   6.900
 6470SOL    HW220310   6.551   1.840   6.863
 6471SOL     OW20311   6.866   6.042   5.608
 6471SOL    HW120312   6.924   6.106   5.558
 6471SOL    HW220313   6.922   5.986   5.669
 6472SOL     OW20314   6.963   5.611   2.895
 6472SOL    HW120315   6.909   5.689   2.864
 6472SOL    HW220316   0.017   5.643   2.949
 6473SOL     OW20317   2.361   1.063   3.796
 6473SOL    HW120318   2.378   1.161   3.784
 6473SOL    HW220319   2.434   1.024   3.852
 6474SOL     OW20320   4.268   5.609   5.269
 6474SOL    HW120321   4.260   5.563   5.180
 6474SOL    HW220322   4.284   5.706   5.254
 6475SOL     OW20323   5.651   4.546   2.591
 6475SOL    HW120324   5.709   4.582   2.665
 6475SOL    HW220325   5.617   4.622   2.536
 6476SOL     OW20326   3.747   1.469   6.297
 6476SOL    HW120327   3.678   1.396   6.293
 6476SOL    HW220328   3.808   1.452   6.375
 6477SOL     OW20329   6.536   6.292   1.383
 6477SOL    HW120330   6.617   6.309   1.440
 6477SOL    HW220331   6.564   6.282   1.288
 6478SOL     OW20332   3.499   5.711   1.801
 6478SOL    HW120333   3.519   5.620   1.839
 6478SOL    HW220334   3.463   5.701   1.708
 6479SOL     OW20335   3.149   6.297   4.078
 6479SOL    HW120336   3.094   6.224   4.037
 6479SOL    HW220337   3.189   6.264   4.163
 6480SOL     OW20338   3.296   1.363   6.975
 6480SOL    HW120339   3.321   1.267   6.975
 6480SOL    HW220340   3.245   1.385   0.035
 6481SOL     OW20341   3.247   2.473   1.587
 6481SOL    HW120342   3.195   2.550   1.622
 6481SOL    HW220343   3.210   2.388   1.623
 6482SOL     OW20344   6.457   3.531   5.490
 6482SOL    HW120345   6.531   3.468   5.516
 6482SOL    HW220346   6.402   3.489   5.418
 6483SOL     OW20347   0.951   5.509   5.264
 6483SOL    HW120348   1.037   5.514   5.215
 6483SOL    HW220349   0.951   5.429   5.323
 6484SOL     OW20350   2.616   0.694   4.491
 6484SOL    HW120351   2.699   0.731   4.532
 6484SOL    HW220352   2.547   0.766   4.486
 6485SOL     OW20353   2.318   6.969   4.259
 6485SOL    HW120354   2.243   0.012   4.250
 6485SOL    HW220355   2.405   7.015   4.237
 6486SOL     OW20356   1.823   5.451   3.137
 6486SOL    HW120357   1.727   5.444   3.111
 6486SOL    HW220358   1.854   5.546   3.126
 6487SOL     OW20359   6.690   4.662   3.792
 6487SOL    HW120360   6.698   4.761   3.778
 6487SOL    HW220361   6.780   4.620   3.788
 6488SOL     OW20362   4.468   5.353   4.729
 6488SOL    HW120363   4.411   5.279   4.763
 6488SOL    HW220364   4.410   5.431   4.705
 6489SOL     OW20365   4.090   3.468   5.681
 6489SOL    HW120366   4.155   3.496   5.752
 6489SOL    HW220367   4.135   3.472   5.592
 6490SOL     OW20368   2.049   1.996   6.619
 6490SOL    HW120369   2.095   1.961   6.701
 6490SOL    HW220370   1.966   1.944   6.603
 6491SOL     OW20371   2.097   0.605   0.411
 6491SOL    HW120372   2.045   0.621   0.495
 6491SOL    HW220373   2.191   0.580   0.434
 6492SOL     OW20374   3.698   3.798   4.727
 6492SOL    HW120375   3.736   3.712   4.691
 6492SOL    HW220376   3.769   3.847   4.777
 6493SOL     OW20377   1.280   4.216   5.739
 6493SOL    HW120378   1.329   4.159   5.805
 6493SOL    HW220379   1.315   4.197   5.647
 6494SOL     OW20380   6.232   6.619   1.956
 6494SOL    HW120381   6.154   6.676   1.984
 6494SOL    HW220382   6.305   6.628   2.024
 6495SOL     OW20383   6.581   6.936   3.566
 6495SOL    HW120384   6.628   6.888   3.640
 6495SOL    HW220385   6.554   0.004   3.597
 6496SOL     OW20386   4.792   0.918   1.754
 6496SOL    HW120387   4.806   0.897   1.657
 6496SOL    HW220388   4.792   1.017   1.768
 6497SOL     OW20389   0.333   1.936   0.649
 6497SOL    HW120390   0.253   1.961   0.594
 6497SOL    HW220391   0.306   1.922   0.744
 6498SOL     OW20392   0.904   4.476   4.202
 6498SOL    HW120393   0.899   4.386   4.159
 6498SOL    HW220394   0.998   4.494   4.232
 6499SOL     OW20395   5.720   3.544   3.494
 6499SOL    HW120396   5.744   3.591   3.409
 6499SOL    HW220397   5.791   3.561   3.562
 6500SOL     OW20398   1.596   4.069   3.038
 6500SOL    HW120399   1.501   4.083   3.010
 6500SOL    HW220400   1.599   4.050   3.136
 6501SOL     OW20401   6.334   2.067   0.846
 6501SOL    HW120402   6.341   2.162   0.876
 6501SOL    HW220403   6.319   2.008   0.925
 6502SOL     OW20404   6.440   3.978   1.183
 6502SOL    HW120405   6.456   3.920   1.103
 6502SOL    HW220406   6.475   3.932   1.265
 6503SOL     OW20407   6.435   3.063   5.084
 6503SOL    HW120408   6.480   3.104   5.163
 6503SOL    HW220409   6.398   2.974   5.110
 6504SOL     OW20410   4.207   6.180   6.275
 6504SOL    HW120411   4.187   6.254   6.210
 6504SOL    HW220412   4.223   6.219   6.366
 6505SOL     OW20413   6.000   5.808   0.133
 6505SOL    HW120414   5.998   5.813   0.232
 6505SOL    HW220415   5.994   5.713   0.104
 6506SOL     OW20416   0.179   2.979   2.366
 6506SOL    HW120417   0.239   2.979   2.446
 6506SOL    HW220418   0.150   3.073   2.346
 6507SOL     OW20419   4.048   4.548   6.845
 6507SOL    HW120420   4.018   4.486   6.917
 6507SOL    HW220421   3.984   4.626   6.839
 6508SOL     OW20422   1.174   6.406   2.119
 6508SOL    HW120423   1.203   6.422   2.025
 6508SOL    HW220424   1.145   6.311   2.129
 6509SOL     OW20425   3.242   1.807   6.063
 6509SOL    HW120426   3.316   1.843   6.119
 6509SOL    HW220427   3.268   1.811   5.966
 6510SOL     OW20428   4.661   5.866   5.599
 6510SOL    HW120429   4.581   5.828   5.644
 6510SOL    HW220430   4.665   5.965   5.614
 6511SOL     OW20431   2.951   0.958   0.525
 6511SOL    HW120432   3.015   0.992   0.456
 6511SOL    HW220433   3.001   0.910   0.597
 6512SOL     OW20434   3.474   0.650   1.350
 6512SOL    HW120435   3.458   0.703   1.433
 6512SOL    HW220436   3.463   0.710   1.270
 6513SOL     OW20437   2.376   5.669   3.988
 6513SOL    HW120438   2.356   5.571   3.990
 6513SOL    HW220439   2.425   5.695   4.071
 6514SOL     OW20440   6.052   0.275   5.770
 6514SOL    HW120441   5.992   0.261   5.848
 6514SOL    HW220442   6.113   0.353   5.788
 6515SOL     OW20443   2.288   4.910   2.533
 6515SOL    HW120444   2.233   4.829   2.554
 6515SOL    HW220445   2.290   4.924   2.434
 6516SOL     OW20446   6.900   3.317   0.706
 6516SOL    HW120447   6.914   3.413   0.730
 6516SOL    HW220448   6.935   3.300   0.614
 6517SOL     OW20449   0.109   2.532   6.824
 6517SOL    HW120450   0.053   2.609   6.855
 6517SOL    HW220451   0.080   2.449   6.871
 6518SOL     OW20452   1.454   1.375   3.013
 6518SOL    HW120453   1.456   1.348   3.110
 6518SOL    HW220454   1.465   1.294   2.956
 6519SOL     OW20455   0.877   1.415   3.017
 6519SOL    HW120456   0.784   1.446   2.998
 6519SOL    HW220457   0.897   1.425   3.114
 6520SOL     OW20458   0.309   5.777   0.242
 6520SOL    HW120459   0.274   5.867   0.214
 6520SOL    HW220460   0.271   5.707   0.182
 6521SOL     OW20461   1.324   3.342   4.320
 6521SOL    HW120462   1.373   3.422   4.354
 6521SOL    HW220463   1.385   3.262   4.325
 6522SOL     OW20464   2.608   3.844   5.346
 6522SOL    HW120465   2.547   3.882   5.277
 6522SOL    HW220466   2.701   3.838   5.309
 6523SOL     OW20467   6.167   0.579   6.791
 6523SOL    HW120468   6.068   0.593   6.787
 6523SOL    HW220469   6.196   0.525   6.711
 6524SOL     OW20470   1.952   2.431   1.626
 6524SOL    HW120471   1.867   2.479   1.605
 6524SOL    HW220472   1.947   2.394   1.719
 6525SOL     OW20473   1.121   4.666   3.214
 6525SOL    HW120474   1.070   4.595   3.264
 6525SOL    HW220475   1.140   4.742   3.276
 6526SOL     OW20476   0.015   6.975   0.754
 6526SOL    HW120477   6.988   6.899   0.713
 6526SOL    HW220478   0.073   7.018   0.686
 6527SOL     OW20479   0.666   2.378   0.466
 6527SOL    HW120480   0.603   2.301   0.456
 6527SOL    HW220481   0.701   2.404   0.375
 6528SOL     OW20482   5.492   0.773   5.943
 6528SOL    HW120483   5.450   0.693   5.987
 6528SOL    HW220484   5.469   0.773   5.846
 6529SOL     OW20485   0.065   1.240   2.186
 6529SOL    HW120486   7.011   1.290   2.147
 6529SOL    HW220487   0.049   1.142   2.177
 6530SOL     OW20488   0.526   2.558   2.320
 6530SOL    HW120489   0.491   2.507   2.399
 6530SOL    HW220490   0.458   2.628   2.294
 6531SOL     OW20491   4.133   3.560   5.410
 6531SOL    HW120492   4.121   3.641   5.467
 6531SOL    HW220493   4.207   3.576   5.344
 6532SOL     OW20494   1.117   0.588   0.842
 6532SOL    HW120495   1.202   0.637   0.859
 6532SOL    HW220496   1.041   0.653   0.837
 6533SOL     OW20497   4.852   3.740   0.232
 6533SOL    HW120498   4.776   3.801   0.211
 6533SOL    HW220499   4.819   3.646   0.239
 6534SOL     OW20500   6.461   4.434   2.728
 6534SOL    HW120501   6.418   4.520   2.757
 6534SOL    HW220502   6.458   4.368   2.802
 6535SOL     OW20503   6.226   3.389   5.139
 6535SOL    HW120504   6.141   3.442   5.133
 6535SOL    HW220505   6.233   3.347   5.229
 6536SOL     OW20506   1.011   3.983   4.844
 6536SOL    HW120507   1.019   4.074   4.804
 6536SOL    HW220508   1.076   3.972   4.918
 6537SOL     OW20509   5.989   5.356   3.962
 6537SOL    HW120510   5.950   5.419   4.029
 6537SOL    HW220511   5.937   5.362   3.877
 6538SOL     OW20512   2.491   3.606   5.426
 6538SOL    HW120513   2.552   3.679   5.396
 6538SOL    HW220514   2.515   3.521   5.379
 6539SOL     OW20515   6.479   0.691   6.110
 6539SOL    HW120516   6.436   0.766   6.060
 6539SOL    HW220517   6.457   0.604   6.064
 6540SOL     OW20518   4.940   2.654   6.063
 6540SOL    HW120519   4.849   2.653   6.105
 6540SOL    HW220520   5.008   2.681   6.131
 6541SOL     OW20521   5.899   1.087   4.623
 6541SOL    HW120522   5.896   1.148   4.543
 6541SOL    HW220523   5.922   0.994   4.593
 6542SOL     OW20524   1.616   3.786   4.306
 6542SOL    HW120525   1.712   3.770   4.283
 6542SOL    HW220526   1.585   3.871   4.263
 6543SOL     OW20527   3.734   2.123   5.203
 6543SOL    HW120528   3.685   2.154   5.121
 6543SOL    HW220529   3.707   2.029   5.225
 6544SOL     OW20530   0.718   6.437   1.921
 6544SOL    HW120531   0.748   6.342   1.916
 6544SOL    HW220532   0.784   6.496   1.875
 6545SOL     OW20533   4.443   6.996   1.315
 6545SOL    HW120534   4.397   6.908   1.304
 6545SOL    HW220535   4.387   0.033   1.372
 6546SOL     OW20536   5.135   3.549   6.060
 6546SOL    HW120537   5.057   3.490   6.076
 6546SOL    HW220538   5.218   3.506   6.097
 6547SOL     OW20539   5.957   5.627   6.847
 6547SOL    HW120540   6.048   5.663   6.868
 6547SOL    HW220541   5.911   5.600   6.932
 6548SOL     OW20542   0.550   2.355   5.344
 6548SOL    HW120543   0.490   2.298   5.289
 6548SOL    HW220544   0.579   2.306   5.426
 6549SOL     OW20545   5.165   6.970   2.002
 6549SOL    HW120546   5.099   7.002   1.935
 6549SOL    HW220547   5.258   6.982   1.966
 6550SOL     OW20548   6.121   0.036   3.490
 6550SOL    HW120549   6.176   0.021   3.407
 6550SOL    HW220550   6.137   6.986   3.555
 6551SOL     OW20551   3.141   3.333   1.572
 6551SOL    HW120552   3.096   3.393   1.506
 6551SOL    HW220553   3.240   3.347   1.569
 6552SOL     OW20554   2.063   6.660   0.250
 6552SOL    HW120555   2.117   6.710   0.182
 6552SOL    HW220556   2.010   6.725   0.304
 6553SOL     OW20557   0.121   0.743   2.937
 6553SOL    HW120558   0.217   0.748   2.962
 6553SOL    HW220559   0.064   0.769   3.014
 6554SOL     OW20560   3.117   1.517   4.757
 6554SOL    HW120561   3.059   1.569   4.820
 6554SOL    HW220562   3.063   1.488   4.678
 6555SOL     OW20563   6.825   2.353   4.183
 6555SOL    HW120564   6.749   2.415   4.198
 6555SOL    HW220565   6.911   2.403   4.188
 6556SOL     OW20566   4.951   2.932   3.806
 6556SOL    HW120567   4.883   2.878   3.756
 6556SOL    HW220568   4.905   3.008   3.853
 6557SOL     OW20569   1.954   6.982   2.102
 6557SOL    HW120570   1.927   6.982   2.198
 6557SOL    HW220571   1.945   6.890   2.065
 6558SOL     OW20572   5.387   5.120   0.320
 6558SOL    HW120573   5.296   5.142   0.355
 6558SOL    HW220574   5.379   5.077   0.230
 6559SOL     OW20575   6.456   2.867   6.321
 6559SOL    HW120576   6.438   2.901   6.229
 6559SOL    HW220577   6.532   2.802   6.318
 6560SOL     OW20578   5.089   4.783   0.297
 6560SOL    HW120579   5.144   4.735   0.365
 6560SOL    HW220580   5.067   4.875   0.331
 6561SOL     OW20581   3.801   4.700   0.519
 6561SOL    HW120582   3.757   4.762   0.584
 6561SOL    HW220583   3.890   4.672   0.555
 6562SOL     OW20584   5.806   2.932   1.250
 6562SOL    HW120585   5.758   2.872   1.314
 6562SOL    HW220586   5.850   3.006   1.300
 6563SOL     OW20587   5.269   5.935   4.742
 6563SOL    HW120588   5.184   5.886   4.761
 6563SOL    HW220589   5.250   6.013   4.683
 6564SOL     OW20590   0.003   3.951   2.728
 6564SOL    HW120591   0.007   4.030   2.790
 6564SOL    HW220592   6.974   3.977   2.646
 6565SOL     OW20593   5.676   0.204   3.146
 6565SOL    HW120594   5.744   0.159   3.204
 6565SOL    HW220595   5.670   0.301   3.171
 6566SOL     OW20596   4.111   6.161   2.525
 6566SOL    HW120597   4.140   6.257   2.530
 6566SOL    HW220598   4.180   6.103   2.568
 6567SOL     OW20599   4.126   0.421   1.086
 6567SOL    HW120600   4.048   0.463   1.040
 6567SOL    HW220601   4.121   0.322   1.077
 6568SOL     OW20602   3.591   1.459   1.898
 6568SOL    HW120603   3.596   1.494   1.991
 6568SOL    HW220604   3.585   1.359   1.900
 6569SOL     OW20605   0.641   3.714   6.007
 6569SOL    HW120606   0.571   3.737   6.075
 6569SOL    HW220607   0.657   3.615   6.009
 6570SOL     OW20608   3.816   6.340   2.138
 6570SOL    HW120609   3.843   6.411   2.203
 6570SOL    HW220610   3.850   6.251   2.171
 6571SOL     OW20611   2.494   5.046   3.135
 6571SOL    HW120612   2.483   5.145   3.127
 6571SOL    HW220613   2.524   5.009   3.047
 6572SOL     OW20614   0.756   5.777   3.751
 6572SOL    HW120615   0.778   5.680   3.738
 6572SOL    HW220616   0.658   5.787   3.762
 6573SOL     OW20617   1.903   1.246   3.017
 6573SOL    HW120618   1.967   1.207   3.083
 6573SOL    HW220619   1.838   1.176   2.988
 6574SOL     OW20620   2.001   5.958   2.120
 6574SOL    HW120621   2.016   6.053   2.092
 6574SOL    HW220622   1.969   5.905   2.042
 6575SOL     OW20623   6.533   0.049   2.848
 6575SOL    HW120624   6.532   0.072   2.751
 6575SOL    HW220625   6.580   0.121   2.899
 6576SOL     OW20626   3.479   5.902   0.542
 6576SOL    HW120627   3.569   5.871   0.572
 6576SOL    HW220628   3.481   5.921   0.444
 6577SOL     OW20629   1.665   2.206   4.036
 6577SOL    HW120630   1.661   2.227   3.938
 6577SOL    HW220631   1.676   2.108   4.048
 6578SOL     OW20632   1.656   4.977   2.028
 6578SOL    HW120633   1.737   4.944   1.979
 6578SOL    HW220634   1.630   4.909   2.097
 6579SOL     OW20635   6.901   1.386   4.103
 6579SOL    HW120636   6.848   1.421   4.180
 6579SOL    HW220637   6.922   1.462   4.041
 6580SOL     OW20638   0.948   0.129   0.173
 6580SOL    HW120639   0.993   0.146   0.260
 6580SOL    HW220640   0.849   0.143   0.183
 6581SOL     OW20641   1.587   1.681   6.991
 6581SOL    HW120642   1.521   1.623   0.014
 6581SOL    HW220643   1.544   1.723   6.911
 6582SOL     OW20644   6.289   1.012   2.669
 6582SOL    HW120645   6.245   0.936   2.718
 6582SOL    HW220646   6.385   0.988   2.652
 6583SOL     OW20647   4.321   6.326   0.092
 6583SOL    HW120648   4.398   6.390   0.098
 6583SOL    HW220649   4.282   6.329   0.000
 6584SOL     OW20650   3.009   2.027   1.078
 6584SOL    HW120651   2.975   1.975   1.156
 6584SOL    HW220652   3.071   2.098   1.111
 6585SOL     OW20653   5.494   0.270   1.520
 6585SOL    HW120654   5.497   0.367   1.546
 6585SOL    HW220655   5.575   0.223   1.557
 6586SOL     OW20656   6.257   2.180   6.200
 6586SOL    HW120657   6.214   2.258   6.245
 6586SOL    HW220658   6.320   2.135   6.264
 6587SOL     OW20659   1.618   4.078   5.547
 6587SOL    HW120660   1.586   3.995   5.593
 6587SOL    HW220661   1.712   4.098   5.576
 6588SOL     OW20662   0.752   2.972   0.489
 6588SOL    HW120663   0.764   2.899   0.422
 6588SOL    HW220664   0.659   2.969   0.526
 6589SOL     OW20665   6.844   1.056   1.814
 6589SOL    HW120666   6.770   1.114   1.780
 6589SOL    HW220667   6.918   1.053   1.746
 6590SOL     OW20668   1.062   0.373   4.143
 6590SOL    HW120669   1.132   0.303   4.150
 6590SOL    HW220670   1.103   0.464   4.152
 6591SOL     OW20671   5.464   4.655   3.794
 6591SOL    HW120672   5.375   4.670   3.751
 6591SOL    HW220673   5.468   4.702   3.882
 6592SOL     OW20674   4.964   6.325   3.211
 6592SOL    HW120675   5.021   6.406   3.224
 6592SOL    HW220676   5.006   6.265   3.143
 6593SOL     OW20677   2.773   1.875   2.864
 6593SOL    HW120678   2.764   1.872   2.764
 6593SOL    HW220679   2.694   1.923   2.902
 6594SOL     OW20680   3.889   1.854   6.217
 6594SOL    HW120681   3.838   1.811   6.142
 6594SOL    HW220682   3.977   1.807   6.227
 6595SOL     OW20683   1.484   2.356   4.965
 6595SOL    HW120684   1.530   2.443   4.982
 6595SOL    HW220685   1.477   2.341   4.866
 6596SOL     OW20686   5.649   6.080   2.731
 6596SOL    HW120687   5.625   6.006   2.669
 6596SOL    HW220688   5.742   6.112   2.710
 6597SOL     OW20689   1.566   4.731   2.619
 6597SOL    HW120690   1.471   4.740   2.647
 6597SOL    HW220691   1.623   4.794   2.672
 6598SOL     OW20692   1.824   4.771   4.147
 6598SOL    HW120693   1.905   4.824   4.123
 6598SOL    HW220694   1.757   4.777   4.073
 6599SOL     OW20695   5.890   5.871   6.259
 6599SOL    HW120696   5.809   5.825   6.222
 6599SOL    HW220697   5.898   5.851   6.357
 6600SOL     OW20698   4.483   6.915   5.495
 6600SOL    HW120699   4.425   6.957   5.425
 6600SOL    HW220700   4.427   6.888   5.573
 6601SOL     OW20701   1.502   2.888   1.901
 6601SOL    HW120702   1.599   2.885   1.878
 6601SOL    HW220703   1.475   2.982   1.922
 6602SOL     OW20704   2.053   6.847   1.560
 6602SOL    HW120705   2.068   6.778   1.489
 6602SOL    HW220706   2.141   6.882   1.592
 6603SOL     OW20707   0.478   2.925   3.287
 6603SOL    HW120708   0.568   2.968   3.290
 6603SOL    HW220709   0.452   2.894   3.378
 6604SOL     OW20710   1.606   6.684   2.046
 6604SOL    HW120711   1.538   6.721   1.983
 6604SOL    HW220712   1.593   6.586   2.056
 6605SOL     OW20713   6.504   5.422   1.334
 6605SOL    HW120714   6.548   5.340   1.296
 6605SOL    HW220715   6.426   5.448   1.277
 6606SOL     OW20716   1.816   3.480   3.870
 6606SOL    HW120717   1.735   3.473   3.811
 6606SOL    HW220718   1.802   3.423   3.952
 6607SOL     OW20719   5.731   3.964   3.466
 6607SOL    HW120720   5.746   3.873   3.427
 6607SOL    HW220721   5.719   3.957   3.565
 6608SOL     OW20722   0.417   0.014   6.177
 6608SOL    HW120723   0.405   0.084   6.247
 6608SOL    HW220724   0.485   6.970   6.208
 6609SOL     OW20725   4.360   2.087   5.707
 6609SOL    HW120726   4.310   2.016   5.658
 6609SOL    HW220727   4.373   2.059   5.802
 6610SOL     OW20728   3.150   5.200   1.217
 6610SOL    HW120729   3.111   5.285   1.183
 6610SOL    HW220730   3.211   5.220   1.294
 6611SOL     OW20731   4.862   1.855   4.033
 6611SOL    HW120732   4.785   1.904   3.991
 6611SOL    HW220733   4.827   1.793   4.103
 6612SOL     OW20734   5.617   2.034   6.206
 6612SOL    HW120735   5.715   2.054   6.213
 6612SOL    HW220736   5.566   2.092   6.270
 6613SOL     OW20737   5.102   0.354   6.785
 6613SOL    HW120738   5.010   0.329   6.756
 6613SOL    HW220739   5.099   0.396   6.876
 6614SOL     OW20740   4.301   5.864   1.813
 6614SOL    HW120741   4.309   5.959   1.844
 6614SOL    HW220742   4.387   5.836   1.771
 6615SOL     OW20743   2.695   5.758   0.527
 6615SOL    HW120744   2.735   5.848   0.546
 6615SOL    HW220745   2.763   5.687   0.547
 6616SOL     OW20746   4.570   1.109   5.854
 6616SOL    HW120747   4.518   1.166   5.790
 6616SOL    HW220748   4.661   1.092   5.816
 6617SOL     OW20749   4.250   0.613   3.894
 6617SOL    HW120750   4.275   0.516   3.886
 6617SOL    HW220751   4.285   0.663   3.815
 6618SOL     OW20752   0.398   2.210   2.810
 6618SOL    HW120753   0.311   2.239   2.769
 6618SOL    HW220754   0.461   2.288   2.814
 6619SOL     OW20755   5.059   6.559   3.779
 6619SOL    HW120756   4.964   6.558   3.810
 6619SOL    HW220757   5.068   6.622   3.702
 6620SOL     OW20758   0.611   3.503   3.518
 6620SOL    HW120759   0.519   3.517   3.482
 6620SOL    HW220760   0.604   3.467   3.612
 6621SOL     OW20761   3.970   3.143   4.786
 6621SOL    HW120762   3.895   3.093   4.744
 6621SOL    HW220763   3.973   3.124   4.884
 6622SOL     OW20764   0.212   6.282   0.860
 6622SOL    HW120765   0.127   6.231   0.846
 6622SOL    HW220766   0.212   6.363   0.800
 6623SOL     OW20767   3.325   4.414   5.869
 6623SOL    HW120768   3.253   4.354   5.836
 6623SOL    HW220769   3.392   4.361   5.922
 6624SOL     OW20770   0.939   2.454   4.506
 6624SOL    HW120771   1.009   2.406   4.559
 6624SOL    HW220772   0.946   2.552   4.521
 6625SOL     OW20773   5.871   2.370   5.499
 6625SOL    HW120774   5.923   2.393   5.581
 6625SOL    HW220775   5.781   2.413   5.503
 6626SOL     OW20776   3.075   6.413   4.918
 6626SOL    HW120777   3.009   6.485   4.893
 6626SOL    HW220778   3.036   6.357   4.991
 6627SOL     OW20779   1.148   5.994   4.650
 6627SOL    HW120780   1.112   6.079   4.688
 6627SOL    HW220781   1.080   5.953   4.589
 6628SOL     OW20782   4.544   5.418   4.142
 6628SOL    HW120783   4.472   5.484   4.123
 6628SOL    HW220784   4.632   5.465   4.147
 6629SOL     OW20785   5.651   6.155   0.047
 6629SOL    HW120786   5.680   6.251   0.040
 6629SOL    HW220787   5.678   6.106   6.988
 6630SOL     OW20788   2.279   1.682   1.382
 6630SOL    HW120789   2.314   1.689   1.475
 6630SOL    HW220790   2.299   1.767   1.332
 6631SOL     OW20791   1.741   4.739   5.721
 6631SOL    HW120792   1.736   4.765   5.625
 6631SOL    HW220793   1.834   4.754   5.755
 6632SOL     OW20794   1.069   0.197   0.415
 6632SOL    HW120795   1.000   0.223   0.482
 6632SOL    HW220796   1.129   0.275   0.398
 6633SOL     OW20797   3.257   5.761   6.683
 6633SOL    HW120798   3.273   5.765   6.585
 6633SOL    HW220799   3.297   5.842   6.727
 6634SOL     OW20800   4.813   1.581   4.819
 6634SOL    HW120801   4.778   1.621   4.904
 6634SOL    HW220802   4.819   1.482   4.829
 6635SOL     OW20803   5.405   4.798   2.137
 6635SOL    HW120804   5.309   4.772   2.147
 6635SOL    HW220805   5.452   4.732   2.078
 6636SOL     OW20806   3.549   0.127   2.030
 6636SOL    HW120807   3.497   0.139   1.946
 6636SOL    HW220808   3.534   0.035   2.067
 6637SOL     OW20809   1.589   1.105   0.674
 6637SOL    HW120810   1.572   1.010   0.699
 6637SOL    HW220811   1.567   1.119   0.577
 6638SOL     OW20812   3.147   4.069   3.804
 6638SOL    HW120813   3.112   4.111   3.720
 6638SOL    HW220814   3.246   4.084   3.809
 6639SOL     OW20815   4.927   2.797   1.388
 6639SOL    HW120816   4.995   2.773   1.319
 6639SOL    HW220817   4.842   2.825   1.343
 6640SOL     OW20818   0.983   2.879   5.180
 6640SOL    HW120819   0.883   2.876   5.182
 6640SOL    HW220820   1.013   2.974   5.184
 6641SOL     OW20821   4.175   2.086   1.355
 6641SOL    HW120822   4.189   2.153   1.282
 6641SOL    HW220823   4.181   2.132   1.444
 6642SOL     OW20824   1.216   5.434   0.279
 6642SOL    HW120825   1.255   5.424   0.371
 6642SOL    HW220826   1.268   5.379   0.214
 6643SOL     OW20827   4.810   6.899   0.140
 6643SOL    HW120828   4.823   6.802   0.119
 6643SOL    HW220829   4.878   6.954   0.090
 6644SOL     OW20830   2.124   6.723   3.039
 6644SOL    HW120831   2.186   6.661   3.087
 6644SOL    HW220832   2.171   6.809   3.019
 6645SOL     OW20833   6.312   2.614   0.496
 6645SOL    HW120834   6.310   2.631   0.397
 6645SOL    HW220835   6.286   2.519   0.513
 6646SOL     OW20836   3.792   0.122   6.872
 6646SOL    HW120837   3.781   0.025   6.891
 6646SOL    HW220838   3.820   0.170   6.955
 6647SOL     OW20839   4.542   5.047   1.170
 6647SOL    HW120840   4.506   5.050   1.264
 6647SOL    HW220841   4.538   5.138   1.130
 6648SOL     OW20842   2.513   6.365   5.324
 6648SOL    HW120843   2.481   6.460   5.321
 6648SOL    HW220844   2.613   6.363   5.322
 6649SOL     OW20845   5.944   2.116   6.920
 6649SOL    HW120846   5.977   2.062   6.842
 6649SOL    HW220847   5.847   2.098   6.933
 6650SOL     OW20848   2.927   1.126   5.164
 6650SOL    HW120849   3.020   1.117   5.200
 6650SOL    HW220850   2.930   1.171   5.075
 6651SOL     OW20851   0.547   1.823   6.942
 6651SOL    HW120852   0.464   1.789   6.897
 6651SOL    HW220853   0.621   1.758   6.927
 6652SOL     OW20854   0.919   4.543   0.368
 6652SOL    HW120855   0.929   4.553   0.467
 6652SOL    HW220856   1.010   4.536   0.326
 6653SOL     OW20857   5.561   2.621   0.631
 6653SOL    HW120858   5.585   2.697   0.691
 6653SOL    HW220859   5.473   2.582   0.659
 6654SOL     OW20860   0.762   4.447   2.954
 6654SOL    HW120861   0.684   4.389   2.930
 6654SOL    HW220862   0.754   4.477   3.049
 6655SOL     OW20863   6.889   5.087   1.569
 6655SOL    HW120864   6.900   5.187   1.563
 6655SOL    HW220865   6.793   5.065   1.581
 6656SOL     OW20866   4.536   1.765   2.721
 6656SOL    HW120867   4.478   1.686   2.702
 6656SOL    HW220868   4.604   1.774   2.648
 6657SOL     OW20869   5.725   2.210   4.289
 6657SOL    HW120870   5.695   2.221   4.383
 6657SOL    HW220871   5.656   2.248   4.227
 6658SOL     OW20872   6.257   6.454   4.988
 6658SOL    HW120873   6.206   6.368   4.991
 6658SOL    HW220874   6.209   6.518   4.928
 6659SOL     OW20875   1.204   4.791   2.022
 6659SOL    HW120876   1.180   4.699   1.991
 6659SOL    HW220877   1.229   4.847   1.943
 6660SOL     OW20878   0.610   6.076   3.281
 6660SOL    HW120879   0.650   6.024   3.205
 6660SOL    HW220880   0.577   6.012   3.351
 6661SOL     OW20881   3.134   6.501   3.877
 6661SOL    HW120882   3.155   6.436   3.950
 6661SOL    HW220883   3.187   6.476   3.795
 6662SOL     OW20884   2.891   7.004   2.286
 6662SOL    HW120885   2.883   0.072   2.247
 6662SOL    HW220886   2.813   6.948   2.256
 6663SOL     OW20887   1.725   4.523   5.903
 6663SOL    HW120888   1.711   4.605   5.847
 6663SOL    HW220889   1.665   4.450   5.871
 6664SOL     OW20890   2.935   0.788   1.987
 6664SOL    HW120891   3.024   0.832   1.997
 6664SOL    HW220892   2.873   0.849   1.937
 6665SOL     OW20893   2.618   0.563   5.954
 6665SOL    HW120894   2.713   0.548   5.925
 6665SOL    HW220895   2.609   0.655   5.992
 6666SOL     OW20896   5.664   6.068   4.861
 6666SOL    HW120897   5.694   5.975   4.840
 6666SOL    HW220898   5.654   6.077   4.960
 6667SOL     OW20899   6.352   6.499   6.569
 6667SOL    HW120900   6.394   6.494   6.478
 6667SOL    HW220901   6.402   6.441   6.633
 6668SOL     OW20902   6.906   6.229   1.233
 6668SOL    HW120903   6.903   6.156   1.302
 6668SOL    HW220904   6.814   6.264   1.218
 6669SOL     OW20905   1.961   1.631   1.978
 6669SOL    HW120906   2.041   1.683   2.010
 6669SOL    HW220907   1.939   1.660   1.885
 6670SOL     OW20908   3.449   2.450   0.284
 6670SOL    HW120909   3.409   2.377   0.228
 6670SOL    HW220910   3.539   2.421   0.318
 6671SOL     OW20911   5.220   6.456   0.073
 6671SOL    HW120912   5.142   6.424   0.020
 6671SOL    HW220913   5.304   6.441   0.020
 6672SOL     OW20914   1.443   2.268   0.671
 6672SOL    HW120915   1.430   2.311   0.760
 6672SOL    HW220916   1.483   2.335   0.607
 6673SOL     OW20917   5.923   3.584   4.227
 6673SOL    HW120918   5.861   3.554   4.301
 6673SOL    HW220919   5.877   3.653   4.171
 6674SOL     OW20920   0.187   2.774   6.934
 6674SOL    HW120921   0.275   2.808   6.965
 6674SOL    HW220922   0.198   2.682   6.895
 6675SOL     OW20923   4.525   2.896   6.707
 6675SOL    HW120924   4.500   2.993   6.712
 6675SOL    HW220925   4.533   2.869   6.611
 6676SOL     OW20926   1.480   3.881   3.709
 6676SOL    HW120927   1.506   3.914   3.618
 6676SOL    HW220928   1.410   3.810   3.700
 6677SOL     OW20929   0.367   1.577   0.313
 6677SOL    HW120930   0.398   1.643   0.382
 6677SOL    HW220931   0.271   1.557   0.327
 6678SOL     OW20932   1.412   4.820   0.442
 6678SOL    HW120933   1.413   4.917   0.418
 6678SOL    HW220934   1.436   4.810   0.539
 6679SOL     OW20935   2.547   1.044   4.034
 6679SOL    HW120936   2.601   1.127   4.020
 6679SOL    HW220937   2.548   1.019   4.131
 6680SOL     OW20938   5.601   6.505   0.335
 6680SOL    HW120939   5.566   6.560   0.260
 6680SOL    HW220940   5.697   6.526   0.351
 6681SOL     OW20941   4.381   5.604   1.304
 6681SOL    HW120942   4.473   5.631   1.334
 6681SOL    HW220943   4.317   5.614   1.379
 6682SOL     OW20944   3.269   5.257   6.786
 6682SOL    HW120945   3.174   5.280   6.763
 6682SOL    HW220946   3.325   5.268   6.704
 6683SOL     OW20947   6.074   3.468   6.829
 6683SOL    HW120948   6.064   3.433   6.736
 6683SOL    HW220949   6.007   3.422   6.888
 6684SOL     OW20950   3.477   6.991   1.629
 6684SOL    HW120951   3.495   0.048   1.687
 6684SOL    HW220952   3.378   6.977   1.622
 6685SOL     OW20953   3.910   3.472   6.924
 6685SOL    HW120954   3.935   3.561   6.964
 6685SOL    HW220955   3.920   3.401   6.993
 6686SOL     OW20956   5.693   5.367   3.743
 6686SOL    HW120957   5.615   5.417   3.780
 6686SOL    HW220958   5.705   5.281   3.793
 6687SOL     OW20959   6.608   2.220   2.021
 6687SOL    HW120960   6.558   2.288   1.969
 6687SOL    HW220961   6.681   2.264   2.074
 6688SOL     OW20962   3.920   5.107   1.326
 6688SOL    HW120963   3.937   5.205   1.337
 6688SOL    HW220964   3.995   5.066   1.273
 6689SOL     OW20965   2.871   5.280   6.402
 6689SOL    HW120966   2.941   5.348   6.424
 6689SOL    HW220967   2.886   5.246   6.309
 6690SOL     OW20968   0.724   0.176   5.839
 6690SOL    HW120969   0.772   0.217   5.916
 6690SOL    HW220970   0.790   0.146   5.770
 6691SOL     OW20971   2.039   1.760   2.603
 6691SOL    HW120972   2.050   1.810   2.517
 6691SOL    HW220973   2.045   1.823   2.680
 6692SOL     OW20974   4.471   4.795   1.478
 6692SOL    HW120975   4.394   4.858   1.471
 6692SOL    HW220976   4.556   4.848   1.488
 6693SOL     OW20977   4.368   1.487   4.786
 6693SOL    HW120978   4.428   1.438   4.849
 6693SOL    HW220979   4.422   1.527   4.713
 6694SOL     OW20980   3.757   5.739   0.964
 6694SOL    HW120981   3.814   5.672   0.918
 6694SOL    HW220982   3.814   5.798   1.022
 6695SOL     OW20983   2.664   2.112   6.901
 6695SOL    HW120984   2.705   2.201   6.921
 6695SOL    HW220985   2.685   2.048   6.975
 6696SOL     OW20986   4.147   3.600   4.299
 6696SOL    HW120987   4.161   3.501   4.304
 6696SOL    HW220988   4.147   3.629   4.203
 6697SOL     OW20989   4.737   2.376   2.348
 6697SOL    HW120990   4.797   2.411   2.420
 6697SOL    HW220991   4.792   2.350   2.269
 6698SOL     OW20992   3.544   4.229   1.765
 6698SOL    HW120993   3.459   4.220   1.712
 6698SOL    HW220994   3.602   4.298   1.723
 6699SOL     OW20995   1.053   4.885   5.518
 6699SOL    HW120996   1.135   4.860   5.466
 6699SOL    HW220997   1.079   4.946   5.592
 6700SOL     OW20998   6.110   0.504   0.760
 6700SOL    HW120999   6.086   0.601   0.760
 6700SOL    HW221000   6.148   0.478   0.848
 6701SOL     OW21001   5.728   6.862   1.605
 6701SOL    HW121002   5.645   6.838   1.656
 6701SOL    HW221003   5.704   6.891   1.513
 6702SOL     OW21004   2.502   2.120   0.752
 6702SOL    HW121005   2.478   2.188   0.821
 6702SOL    HW221006   2.601   2.116   0.741
 6703SOL     OW21007   1.897   1.856   5.893
 6703SOL    HW121008   1.881   1.922   5.820
 6703SOL    HW221009   1.841   1.775   5.878
 6704SOL     OW21010   3.812   1.628   4.992
 6704SOL    HW121011   3.714   1.647   4.984
 6704SOL    HW221012   3.846   1.588   4.907
 6705SOL     OW21013   6.295   3.662   1.299
 6705SOL    HW121014   6.293   3.634   1.203
 6705SOL    HW221015   6.239   3.598   1.353
 6706SOL     OW21016   0.644   6.274   1.389
 6706SOL    HW121017   0.648   6.360   1.338
 6706SOL    HW221018   0.661   6.292   1.486
 6707SOL     OW21019   6.072   0.296   2.394
 6707SOL    HW121020   6.013   0.250   2.328
 6707SOL    HW221021   6.021   0.369   2.440
 6708SOL     OW21022   0.200   3.881   1.198
 6708SOL    HW121023   0.193   3.944   1.275
 6708SOL    HW221024   0.223   3.932   1.115
 6709SOL     OW21025   1.302   4.643   2.349
 6709SOL    HW121026   1.234   4.663   2.420
 6709SOL    HW221027   1.258   4.647   2.259
 6710SOL     OW21028   4.386   0.803   2.234
 6710SOL    HW121029   4.463   0.860   2.263
 6710SOL    HW221030   4.304   0.860   2.226
 6711SOL     OW21031   4.534   6.176   6.404
 6711SOL    HW121032   4.521   6.227   6.318
 6711SOL    HW221033   4.445   6.160   6.446
 6712SOL     OW21034   5.827   3.676   0.553
 6712SOL    HW121035   5.859   3.581   0.554
 6712SOL    HW221036   5.902   3.736   0.583
 6713SOL     OW21037   1.486   0.301   4.218
 6713SOL    HW121038   1.403   0.247   4.231
 6713SOL    HW221039   1.527   0.322   4.307
 6714SOL     OW21040   5.791   1.339   0.615
 6714SOL    HW121041   5.805   1.411   0.683
 6714SOL    HW221042   5.786   1.250   0.661
 6715SOL     OW21043   1.248   0.797   1.031
 6715SOL    HW121044   1.268   0.881   0.981
 6715SOL    HW221045   1.241   0.816   1.129
 6716SOL     OW21046   6.843   5.329   2.636
 6716SOL    HW121047   6.817   5.242   2.594
 6716SOL    HW221048   6.904   5.311   2.713
 6717SOL     OW21049   3.419   2.647   6.668
 6717SOL    HW121050   3.407   2.570   6.605
 6717SOL    HW221051   3.396   2.618   6.760
 6718SOL     OW21052   3.323   0.687   2.398
 6718SOL    HW121053   3.234   0.641   2.396
 6718SOL    HW221054   3.347   0.709   2.492
 6719SOL     OW21055   1.798   0.233   6.578
 6719SOL    HW121056   1.826   0.187   6.495
 6719SOL    HW221057   1.822   0.177   6.658
 6720SOL     OW21058   2.372   0.646   5.805
 6720SOL    HW121059   2.336   0.640   5.712
 6720SOL    HW221060   2.472   0.652   5.802
 6721SOL     OW21061   0.589   1.357   0.395
 6721SOL    HW121062   0.522   1.431   0.403
 6721SOL    HW221063   0.543   1.270   0.385
 6722SOL     OW21064   6.182   2.924   0.190
 6722SOL    HW121065   6.179   2.986   0.111
 6722SOL    HW221066   6.126   2.962   0.264
 6723SOL     OW21067   1.469   2.001   6.233
 6723SOL    HW121068   1.395   2.052   6.188
 6723SOL    HW221069   1.492   1.920   6.179
 6724SOL     OW21070   2.070   3.421   5.751
 6724SOL    HW121071   2.030   3.345   5.804
 6724SOL    HW221072   2.121   3.384   5.674
 6725SOL     OW21073   5.989   2.947   3.146
 6725SOL    HW121074   5.892   2.933   3.163
 6725SOL    HW221075   6.041   2.925   3.229
 6726SOL     OW21076   0.125   0.997   5.532
 6726SOL    HW121077   0.026   0.988   5.517
 6726SOL    HW221078   0.165   1.051   5.458
 6727SOL     OW21079   1.159   4.514   5.797
 6727SOL    HW121080   1.160   4.436   5.860
 6727SOL    HW221081   1.227   4.581   5.828
 6728SOL     OW21082   4.072   2.101   3.603
 6728SOL    HW121083   4.128   2.019   3.614
 6728SOL    HW221084   4.125   2.171   3.556
 6729SOL     OW21085   5.124   1.689   1.188
 6729SOL    HW121086   5.149   1.690   1.091
 6729SOL    HW221087   5.026   1.668   1.196
 6730SOL     OW21088   1.636   1.196   1.067
 6730SOL    HW121089   1.606   1.101   1.078
 6730SOL    HW221090   1.720   1.198   1.013
 6731SOL     OW21091   2.925   6.297   0.882
 6731SOL    HW121092   2.893   6.392   0.878
 6731SOL    HW221093   2.960   6.270   0.792
 6732SOL     OW21094   5.942   4.552   4.609
 6732SOL    HW121095   5.944   4.466   4.558
 6732SOL    HW221096   5.855   4.560   4.657
 6733SOL     OW21097   3.196   5.665   6.943
 6733SOL    HW121098   3.211   5.692   6.848
 6733SOL    HW221099   3.256   5.718   7.003
 6734SOL     OW21100   5.103   1.614   4.777
 6734SOL    HW121101   5.013   1.574   4.764
 6734SOL    HW221102   5.173   1.542   4.774
 6735SOL     OW21103   5.964   3.189   3.739
 6735SOL    HW121104   5.978   3.101   3.692
 6735SOL    HW221105   5.971   3.263   3.673
 6736SOL     OW21106   3.453   3.877   1.143
 6736SOL    HW121107   3.408   3.794   1.174
 6736SOL    HW221108   3.460   3.876   1.043
 6737SOL     OW21109   1.475   2.596   1.465
 6737SOL    HW121110   1.459   2.659   1.540
 6737SOL    HW221111   1.425   2.511   1.480
 6738SOL     OW21112   1.757   5.527   3.537
 6738SOL    HW121113   1.801   5.542   3.625
 6738SOL    HW221114   1.795   5.444   3.495
 6739SOL     OW21115   6.558   0.079   4.097
 6739SOL    HW121116   6.568   7.020   4.041
 6739SOL    HW221117   6.549   0.052   4.193
 6740SOL     OW21118   6.479   6.582   4.385
 6740SOL    HW121119   6.464   6.677   4.412
 6740SOL    HW221120   6.487   6.577   4.285
 6741SOL     OW21121   4.588   1.662   5.653
 6741SOL    HW121122   4.634   1.582   5.691
 6741SOL    HW221123   4.635   1.745   5.684
 6742SOL     OW21124   5.499   4.566   3.316
 6742SOL    HW121125   5.524   4.605   3.227
 6742SOL    HW221126   5.537   4.623   3.389
 6743SOL     OW21127   4.189   4.054   0.172
 6743SOL    HW121128   4.196   4.033   0.269
 6743SOL    HW221129   4.105   4.014   0.135
 6744SOL     OW21130   6.411   5.513   6.423
 6744SOL    HW121131   6.473   5.442   6.457
 6744SOL    HW221132   6.368   5.482   6.338
 6745SOL     OW21133   0.068   6.304   4.200
 6745SOL    HW121134   7.020   6.373   4.188
 6745SOL    HW221135   0.029   6.223   4.245
 6746SOL     OW21136   1.882   1.430   2.805
 6746SOL    HW121137   1.890   1.365   2.880
 6746SOL    HW221138   1.835   1.512   2.837
 6747SOL     OW21139   0.895   6.925   6.451
 6747SOL    HW121140   0.890   6.878   6.539
 6747SOL    HW221141   0.847   7.013   6.457
 6748SOL     OW21142   2.906   1.694   4.056
 6748SOL    HW121143   2.853   1.668   4.137
 6748SOL    HW221144   2.859   1.662   3.974
 6749SOL     OW21145   3.558   4.080   0.810
 6749SOL    HW121146   3.531   4.146   0.741
 6749SOL    HW221147   3.647   4.105   0.848
 6750SOL     OW21148   3.014   1.535   4.446
 6750SOL    HW121149   3.061   1.616   4.411
 6750SOL    HW221150   2.932   1.563   4.496
 6751SOL     OW21151   4.609   0.036   3.340
 6751SOL    HW121152   4.526   0.093   3.347
 6751SOL    HW221153   4.603   6.984   3.405
 6752SOL     OW21154   1.902   6.577   2.950
 6752SOL    HW121155   1.975   6.627   2.996
 6752SOL    HW221156   1.886   6.617   2.859
 6753SOL     OW21157   3.735   2.620   5.643
 6753SOL    HW121158   3.698   2.599   5.552
 6753SOL    HW221159   3.693   2.704   5.677
 6754SOL     OW21160   5.809   0.565   1.214
 6754SOL    HW121161   5.750   0.635   1.252
 6754SOL    HW221162   5.790   0.477   1.258
 6755SOL     OW21163   3.055   4.986   0.837
 6755SOL    HW121164   3.095   4.920   0.900
 6755SOL    HW221165   3.044   4.944   0.747
 6756SOL     OW21166   2.373   1.675   5.783
 6756SOL    HW121167   2.359   1.653   5.687
 6756SOL    HW221168   2.347   1.770   5.800
 6757SOL     OW21169   3.304   0.657   0.684
 6757SOL    HW121170   3.299   0.610   0.596
 6757SOL    HW221171   3.329   0.592   0.755
 6758SOL     OW21172   5.237   2.315   1.022
 6758SOL    HW121173   5.296   2.363   1.087
 6758SOL    HW221174   5.146   2.358   1.022
 6759SOL     OW21175   0.042   3.362   2.849
 6759SOL    HW121176   0.095   3.418   2.786
 6759SOL    HW221177   0.041   3.406   2.939
 6760SOL     OW21178   5.814   2.807   2.779
 6760SOL    HW121179   5.907   2.790   2.812
 6760SOL    HW221180   5.788   2.901   2.798
 6761SOL     OW21181   4.936   2.212   4.601
 6761SOL    HW121182   4.890   2.150   4.665
 6761SOL    HW221183   4.884   2.215   4.515
 6762SOL     OW21184   6.877   5.379   3.894
 6762SOL    HW121185   6.824   5.423   3.822
 6762SOL    HW221186   6.819   5.318   3.947
 6763SOL     OW21187   4.792   6.065   4.845
 6763SOL    HW121188   4.714   6.124   4.864
 6763SOL    HW221189   4.820   6.019   4.930
 6764SOL     OW21190   1.475   5.450   2.103
 6764SOL    HW121191   1.412   5.454   2.025
 6764SOL    HW221192   1.478   5.356   2.138
 6765SOL     OW21193   6.187   5.032   3.843
 6765SOL    HW121194   6.176   5.060   3.939
 6765SOL    HW221195   6.147   4.941   3.831
 6766SOL     OW21196   4.813   6.327   0.142
 6766SOL    HW121197   4.773   6.238   0.165
 6766SOL    HW221198   4.758   6.400   0.183
 6767SOL     OW21199   2.936   0.476   0.972
 6767SOL    HW121200   3.001   0.548   0.998
 6767SOL    HW221201   2.971   0.387   1.003
 6768SOL     OW21202   1.943   0.888   6.798
 6768SOL    HW121203   1.903   0.831   6.869
 6768SOL    HW221204   2.030   0.925   6.830
 6769SOL     OW21205   3.187   2.488   0.406
 6769SOL    HW121206   3.272   2.440   0.383
 6769SOL    HW221207   3.207   2.585   0.423
 6770SOL     OW21208   6.792   0.828   1.660
 6770SOL    HW121209   6.712   0.842   1.602
 6770SOL    HW221210   6.777   0.872   1.748
 6771SOL     OW21211   4.714   2.245   3.149
 6771SOL    HW121212   4.742   2.244   3.053
 6771SOL    HW221213   4.780   2.196   3.205
 6772SOL     OW21214   3.055   1.223   2.592
 6772SOL    HW121215   3.115   1.265   2.660
 6772SOL    HW221216   3.081   1.255   2.501
 6773SOL     OW21217   6.631   4.255   1.582
 6773SOL    HW121218   6.631   4.177   1.646
 6773SOL    HW221219   6.723   4.268   1.546
 6774SOL     OW21220   6.812   2.807   6.064
 6774SOL    HW121221   6.836   2.749   5.986
 6774SOL    HW221222   6.896   2.838   6.109
 6775SOL     OW21223   2.540   3.523   0.692
 6775SOL    HW121224   2.492   3.590   0.748
 6775SOL    HW221225   2.564   3.444   0.748
 6776SOL     OW21226   4.291   4.529   0.298
 6776SOL    HW121227   4.314   4.623   0.269
 6776SOL    HW221228   4.294   4.469   0.218
 6777SOL     OW21229   3.928   4.654   6.296
 6777SOL    HW121230   3.960   4.625   6.206
 6777SOL    HW221231   3.992   4.624   6.366
 6778SOL     OW21232   0.434   4.166   2.037
 6778SOL    HW121233   0.457   4.114   1.955
 6778SOL    HW221234   0.493   4.138   2.112
 6779SOL     OW21235   6.560   4.172   6.754
 6779SOL    HW121236   6.511   4.154   6.839
 6779SOL    HW221237   6.594   4.266   6.753
 6780SOL     OW21238   0.968   2.379   2.341
 6780SOL    HW121239   0.931   2.468   2.314
 6780SOL    HW221240   0.967   2.371   2.441
 6781SOL     OW21241   5.529   6.411   5.142
 6781SOL    HW121242   5.527   6.440   5.237
 6781SOL    HW221243   5.511   6.313   5.136
 6782SOL     OW21244   0.214   0.330   2.720
 6782SOL    HW121245   0.216   0.354   2.623
 6782SOL    HW221246   0.161   0.398   2.770
 6783SOL     OW21247   0.603   6.809   6.232
 6783SOL    HW121248   0.644   6.719   6.221
 6783SOL    HW221249   0.599   6.832   6.329
 6784SOL     OW21250   3.893   4.093   0.542
 6784SOL    HW121251   3.867   4.170   0.485
 6784SOL    HW221252   3.992   4.081   0.541
 6785SOL     OW21253   5.939   4.567   2.375
 6785SOL    HW121254   6.000   4.536   2.302
 6785SOL    HW221255   5.983   4.555   2.463
 6786SOL     OW21256   1.129   1.649   6.741
 6786SOL    HW121257   1.085   1.738   6.750
 6786SOL    HW221258   1.189   1.650   6.660
 6787SOL     OW21259   2.152   3.581   1.032
 6787SOL    HW121260   2.117   3.622   1.117
 6787SOL    HW221261   2.171   3.653   0.966
 6788SOL     OW21262   2.625   4.028   1.538
 6788SOL    HW121263   2.697   3.976   1.494
 6788SOL    HW221264   2.538   3.980   1.529
 6789SOL     OW21265   0.313   6.940   2.288
 6789SOL    HW121266   0.388   6.874   2.298
 6789SOL    HW221267   0.226   6.892   2.296
 6790SOL     OW21268   1.498   4.111   0.241
 6790SOL    HW121269   1.547   4.032   0.277
 6790SOL    HW221270   1.472   4.172   0.317
 6791SOL     OW21271   3.901   2.422   0.873
 6791SOL    HW121272   3.805   2.425   0.845
 6791SOL    HW221273   3.906   2.397   0.970
 6792SOL     OW21274   6.959   6.230   6.314
 6792SOL    HW121275   7.005   6.169   6.378
 6792SOL    HW221276   7.004   6.223   6.224
 6793SOL     OW21277   0.614   2.383   0.729
 6793SOL    HW121278   0.626   2.333   0.643
 6793SOL    HW221279   0.591   2.478   0.710
 6794SOL     OW21280   5.302   1.455   4.754
 6794SOL    HW121281   5.368   1.497   4.690
 6794SOL    HW221282   5.352   1.404   4.824
 6795SOL     OW21283   2.315   6.153   0.809
 6795SOL    HW121284   2.384   6.135   0.738
 6795SOL    HW221285   2.321   6.082   0.879
 6796SOL     OW21286   5.875   0.926   2.356
 6796SOL    HW121287   5.868   1.017   2.316
 6796SOL    HW221288   5.783   0.889   2.371
 6797SOL     OW21289   4.995   3.545   1.515
 6797SOL    HW121290   4.931   3.525   1.441
 6797SOL    HW221291   4.967   3.495   1.598
 6798SOL     OW21292   5.559   5.598   2.732
 6798SOL    HW121293   5.559   5.549   2.819
 6798SOL    HW221294   5.546   5.534   2.657
 6799SOL     OW21295   5.958   5.824   0.406
 6799SOL    HW121296   6.017   5.895   0.446
 6799SOL    HW221297   5.870   5.824   0.452
 6800SOL     OW21298   1.970   4.555   0.670
 6800SOL    HW121299   2.020   4.640   0.684
 6800SOL    HW221300   1.916   4.562   0.586
 6801SOL     OW21301   1.801   1.264   2.225
 6801SOL    HW121302   1.868   1.201   2.187
 6801SOL    HW221303   1.747   1.217   2.294
 6802SOL     OW21304   2.513   6.046   0.610
 6802SOL    HW121305   2.561   5.994   0.681
 6802SOL    HW221306   2.569   6.048   0.527
 6803SOL     OW21307   4.691   2.425   6.635
 6803SOL    HW121308   4.677   2.477   6.550
 6803SOL    HW221309   4.683   2.327   6.615
 6804SOL     OW21310   2.641   5.441   3.549
 6804SOL    HW121311   2.638   5.541   3.547
 6804SOL    HW221312   2.548   5.405   3.539
 6805SOL     OW21313   5.768   6.482   4.581
 6805SOL    HW121314   5.700   6.542   4.540
 6805SOL    HW221315   5.856   6.530   4.589
 6806SOL     OW21316   5.030   1.240   3.631
 6806SOL    HW121317   5.106   1.245   3.567
 6806SOL    HW221318   4.949   1.284   3.591
 6807SOL     OW21319   2.348   3.329   0.301
 6807SOL    HW121320   2.424   3.377   0.345
 6807SOL    HW221321   2.308   3.264   0.366
 6808SOL     OW21322   0.591   3.024   5.358
 6808SOL    HW121323   0.674   3.070   5.389
 6808SOL    HW221324   0.513   3.086   5.367
 6809SOL     OW21325   1.648   4.359   7.006
 6809SOL    HW121326   1.594   4.413   6.942
 6809SOL    HW221327   1.698   4.421   0.044
 6810SOL     OW21328   1.642   0.389   1.736
 6810SOL    HW121329   1.627   0.484   1.707
 6810SOL    HW221330   1.713   0.348   1.679
 6811SOL     OW21331   4.786   4.167   0.333
 6811SOL    HW121332   4.686   4.176   0.332
 6811SOL    HW221333   4.828   4.256   0.320
 6812SOL     OW21334   3.563   3.234   3.410
 6812SOL    HW121335   3.521   3.164   3.467
 6812SOL    HW221336   3.506   3.253   3.331
 6813SOL     OW21337   4.675   1.402   1.605
 6813SOL    HW121338   4.703   1.320   1.653
 6813SOL    HW221339   4.580   1.423   1.627
 6814SOL     OW21340   3.326   2.792   0.957
 6814SOL    HW121341   3.285   2.831   0.874
 6814SOL    HW221342   3.422   2.772   0.941
 6815SOL     OW21343   3.273   0.101   1.293
 6815SOL    HW121344   3.316   0.011   1.289
 6815SOL    HW221345   3.343   0.171   1.303
 6816SOL     OW21346   6.889   5.446   0.099
 6816SOL    HW121347   6.795   5.469   0.124
 6816SOL    HW221348   6.893   5.418   0.004
 6817SOL     OW21349   6.530   1.685   5.023
 6817SOL    HW121350   6.487   1.764   5.066
 6817SOL    HW221351   6.547   1.614   5.092
 6818SOL     OW21352   2.670   6.044   1.834
 6818SOL    HW121353   2.576   6.070   1.858
 6818SOL    HW221354   2.692   5.956   1.876
 6819SOL     OW21355   3.741   0.827   4.086
 6819SOL    HW121356   3.685   0.908   4.068
 6819SOL    HW221357   3.698   0.746   4.046
 6820SOL     OW21358   1.226   4.948   3.310
 6820SOL    HW121359   1.253   5.035   3.351
 6820SOL    HW221360   1.293   4.922   3.241
 6821SOL     OW21361   2.798   1.637   5.113
 6821SOL    HW121362   2.868   1.611   5.180
 6821SOL    HW221363   2.709   1.640   5.158
 6822SOL     OW21364   5.727   1.747   5.921
 6822SOL    HW121365   5.782   1.830   5.930
 6822SOL    HW221366   5.676   1.732   6.006
 6823SOL     OW21367   3.784   3.370   4.122
 6823SOL    HW121368   3.736   3.284   4.137
 6823SOL    HW221369   3.717   3.444   4.110
 6824SOL     OW21370   0.534   2.854   6.276
 6824SOL    HW121371   0.564   2.785   6.342
 6824SOL    HW221372   0.476   2.922   6.322
 6825SOL     OW21373   4.736   6.829   2.484
 6825SOL    HW121374   4.725   6.749   2.426
 6825SOL    HW221375   4.816   6.817   2.543
 6826SOL     OW21376   2.161   3.678   2.798
 6826SOL    HW121377   2.160   3.683   2.898
 6826SOL    HW221378   2.205   3.760   2.761
 6827SOL     OW21379   5.332   6.164   0.411
 6827SOL    HW121380   5.362   6.129   0.322
 6827SOL    HW221381   5.277   6.247   0.397
 6828SOL     OW21382   1.823   2.077   1.630
 6828SOL    HW121383   1.896   2.118   1.684
 6828SOL    HW221384   1.858   2.051   1.540
 6829SOL     OW21385   5.098   6.798   3.635
 6829SOL    HW121386   5.060   6.850   3.711
 6829SOL    HW221387   5.198   6.797   3.642
 6830SOL     OW21388   5.549   1.339   3.115
 6830SOL    HW121389   5.455   1.311   3.135
 6830SOL    HW221390   5.552   1.383   3.025
 6831SOL     OW21391   1.107   0.582   6.260
 6831SOL    HW121392   1.166   0.530   6.323
 6831SOL    HW221393   1.064   0.519   6.195
 6832SOL     OW21394   2.917   4.496   1.393
 6832SOL    HW121395   2.853   4.559   1.350
 6832SOL    HW221396   2.995   4.547   1.430
 6833SOL     OW21397   4.466   5.413   0.243
 6833SOL    HW121398   4.509   5.361   0.169
 6833SOL    HW221399   4.389   5.465   0.206
 6834SOL     OW21400   4.503   6.617   1.704
 6834SOL    HW121401   4.466   6.705   1.674
 6834SOL    HW221402   4.430   6.549   1.703
 6835SOL     OW21403   4.304   7.022   5.319
 6835SOL    HW121404   4.228   6.996   5.379
 6835SOL    HW221405   4.307   6.960   5.241
 6836SOL     OW21406   3.315   6.202   0.797
 6836SOL    HW121407   3.269   6.118   0.769
 6836SOL    HW221408   3.306   6.214   0.896
 6837SOL     OW21409   1.638   3.279   2.249
 6837SOL    HW121410   1.611   3.306   2.341
 6837SOL    HW221411   1.683   3.356   2.204
 6838SOL     OW21412   1.662   0.470   0.992
 6838SOL    HW121413   1.726   0.464   1.068
 6838SOL    HW221414   1.576   0.510   1.023
 6839SOL     OW21415   5.028   1.103   0.450
 6839SOL    HW121416   5.077   1.079   0.534
 6839SOL    HW221417   5.002   1.200   0.454
 6840SOL     OW21418   2.126   2.260   5.573
 6840SOL    HW121419   2.130   2.206   5.657
 6840SOL    HW221420   2.031   2.285   5.554
 6841SOL     OW21421   5.867   3.365   5.816
 6841SOL    HW121422   5.885   3.330   5.724
 6841SOL    HW221423   5.771   3.390   5.824
 6842SOL     OW21424   2.391   4.757   1.080
 6842SOL    HW121425   2.436   4.813   1.150
 6842SOL    HW221426   2.320   4.701   1.123
 6843SOL     OW21427   5.411   0.159   6.562
 6843SOL    HW121428   5.363   0.118   6.640
 6843SOL    HW221429   5.443   0.250   6.588
 6844SOL     OW21430   5.495   0.852   4.330
 6844SOL    HW121431   5.409   0.860   4.279
 6844SOL    HW221432   5.475   0.857   4.428
 6845SOL     OW21433   6.059   2.862   2.869
 6845SOL    HW121434   6.041   2.873   2.967
 6845SOL    HW221435   6.081   2.951   2.829
 6846SOL     OW21436   3.057   4.029   0.055
 6846SOL    HW121437   3.042   3.946   0.000
 6846SOL    HW221438   2.970   4.063   0.088
 6847SOL     OW21439   6.526   4.215   4.700
 6847SOL    HW121440   6.571   4.148   4.641
 6847SOL    HW221441   6.576   4.224   4.785
 6848SOL     OW21442   5.215   4.348   4.040
 6848SOL    HW121443   5.151   4.277   4.011
 6848SOL    HW221444   5.288   4.357   3.972
 6849SOL     OW21445   3.410   4.546   5.646
 6849SOL    HW121446   3.387   4.492   5.727
 6849SOL    HW221447   3.380   4.640   5.659
 6850SOL     OW21448   4.317   2.439   3.122
 6850SOL    HW121449   4.276   2.374   3.185
 6850SOL    HW221450   4.259   2.449   3.041
 6851SOL     OW21451   2.051   2.857   2.738
 6851SOL    HW121452   2.125   2.797   2.707
 6851SOL    HW221453   1.990   2.806   2.799
 6852SOL     OW21454   2.744   5.285   1.030
 6852SOL    HW121455   2.786   5.248   0.947
 6852SOL    HW221456   2.811   5.284   1.105
 6853SOL     OW21457   5.413   3.408   6.051
 6853SOL    HW121458   5.449   3.471   6.120
 6853SOL    HW221459   5.461   3.321   6.058
 6854SOL     OW21460   5.170   6.291   5.730
 6854SOL    HW121461   5.155   6.389   5.741
 6854SOL    HW221462   5.220   6.255   5.810
 6855SOL     OW21463   4.334   5.540   3.618
 6855SOL    HW121464   4.376   5.451   3.633
 6855SOL    HW221465   4.266   5.534   3.545
 6856SOL     OW21466   0.447   2.498   6.103
 6856SOL    HW121467   0.406   2.589   6.113
 6856SOL    HW221468   0.433   2.466   6.009
 6857SOL     OW21469   1.007   3.336   6.746
 6857SOL    HW121470   0.971   3.417   6.700
 6857SOL    HW221471   1.098   3.356   6.782
 6858SOL     OW21472   3.301   4.213   1.634
 6858SOL    HW121473   3.235   4.225   1.708
 6858SOL    HW221474   3.300   4.295   1.576
 6859SOL     OW21475   1.000   1.391   1.639
 6859SOL    HW121476   1.017   1.385   1.540
 6859SOL    HW221477   0.902   1.405   1.655
 6860SOL     OW21478   0.231   5.127   2.388
 6860SOL    HW121479   0.284   5.043   2.399
 6860SOL    HW221480   0.183   5.124   2.300
 6861SOL     OW21481   4.811   3.156   5.609
 6861SOL    HW121482   4.837   3.250   5.630
 6861SOL    HW221483   4.714   3.143   5.630
 6862SOL     OW21484   0.786   4.776   6.085
 6862SOL    HW121485   0.794   4.837   6.006
 6862SOL    HW221486   0.814   4.824   6.168
 6863SOL     OW21487   6.967   5.931   4.683
 6863SOL    HW121488   6.995   5.934   4.779
 6863SOL    HW221489   0.018   5.965   4.626
 6864SOL     OW21490   1.816   3.887   6.147
 6864SOL    HW121491   1.855   3.835   6.223
 6864SOL    HW221492   1.806   3.829   6.067
 6865SOL     OW21493   2.289   0.818   5.114
 6865SOL    HW121494   2.263   0.729   5.079
 6865SOL    HW221495   2.360   0.857   5.056
 6866SOL     OW21496   6.203   4.090   2.094
 6866SOL    HW121497   6.113   4.126   2.117
 6866SOL    HW221498   6.263   4.096   2.174
 6867SOL     OW21499   1.617   4.360   1.061
 6867SOL    HW121500   1.585   4.266   1.048
 6867SOL    HW221501   1.716   4.364   1.047
 6868SOL     OW21502   2.046   5.948   5.715
 6868SOL    HW121503   2.081   5.855   5.728
 6868SOL    HW221504   1.975   5.966   5.783
 6869SOL     OW21505   3.901   6.987   5.564
 6869SOL    HW121506   3.840   6.908   5.576
 6869SOL    HW221507   3.882   0.031   5.636
 6870SOL     OW21508   0.919   3.458   0.154
 6870SOL    HW121509   0.949   3.371   0.116
 6870SOL    HW221510   0.828   3.481   0.119
 6871SOL     OW21511   6.969   3.288   1.924
 6871SOL    HW121512   6.908   3.268   2.000
 6871SOL    HW221513   6.988   3.386   1.921
 6872SOL     OW21514   1.481   2.848   2.159
 6872SOL    HW121515   1.491   2.872   2.063
 6872SOL    HW221516   1.566   2.867   2.208
 6873SOL     OW21517   1.353   4.012   4.218
 6873SOL    HW121518   1.337   3.914   4.229
 6873SOL    HW221519   1.442   4.035   4.256
 6874SOL     OW21520   6.320   5.417   3.039
 6874SOL    HW121521   6.257   5.397   3.114
 6874SOL    HW221522   6.272   5.469   2.968
 6875SOL     OW21523   1.821   2.755   1.810
 6875SOL    HW121524   1.895   2.821   1.807
 6875SOL    HW221525   1.776   2.751   1.721
 6876SOL     OW21526   3.488   0.203   3.560
 6876SOL    HW121527   3.410   0.168   3.507
 6876SOL    HW221528   3.456   0.237   3.648
 6877SOL     OW21529   2.740   4.441   1.634
 6877SOL    HW121530   2.817   4.447   1.571
 6877SOL    HW221531   2.768   4.469   1.725
 6878SOL     OW21532   2.087   1.315   3.980
 6878SOL    HW121533   2.017   1.387   3.978
 6878SOL    HW221534   2.116   1.294   3.887
 6879SOL     OW21535   2.210   2.131   0.420
 6879SOL    HW121536   2.279   2.192   0.458
 6879SOL    HW221537   2.252   2.044   0.394
 6880SOL     OW21538   1.092   5.836   6.095
 6880SOL    HW121539   1.099   5.752   6.149
 6880SOL    HW221540   1.107   5.915   6.154
 6881SOL     OW21541   1.667   3.651   0.726
 6881SOL    HW121542   1.581   3.697   0.704
 6881SOL    HW221543   1.669   3.561   0.683
 6882SOL     OW21544   2.721   0.944   0.070
 6882SOL    HW121545   2.716   1.031   0.021
 6882SOL    HW221546   2.776   0.880   0.017
 6883SOL     OW21547   5.338   0.730   6.506
 6883SOL    HW121548   5.299   0.674   6.579
 6883SOL    HW221549   5.267   0.790   6.469
 6884SOL     OW21550   1.954   4.304   2.828
 6884SOL    HW121551   1.910   4.393   2.830
 6884SOL    HW221552   1.976   4.275   2.922
 6885SOL     OW21553   4.769   4.782   4.252
 6885SOL    HW121554   4.730   4.820   4.168
 6885SOL    HW221555   4.800   4.688   4.236
 6886SOL     OW21556   5.874   1.286   5.207
 6886SOL    HW121557   5.914   1.316   5.294
 6886SOL    HW221558   5.829   1.198   5.219
 6887SOL     OW21559   4.868   6.049   6.887
 6887SOL    HW121560   4.952   6.026   6.936
 6887SOL    HW221561   4.891   6.077   6.794
 6888SOL     OW21562   5.681   3.979   6.243
 6888SOL    HW121563   5.595   3.929   6.259
 6888SOL    HW221564   5.674   4.070   6.283
 6889SOL     OW21565   1.495   2.513   5.963
 6889SOL    HW121566   1.581   2.563   5.976
 6889SOL    HW221567   1.457   2.488   6.052
 6890SOL     OW21568   3.721   5.648   3.014
 6890SOL    HW121569   3.646   5.705   3.045
 6890SOL    HW221570   3.799   5.706   2.990
 6891SOL     OW21571   2.373   2.912   1.502
 6891SOL    HW121572   2.386   2.813   1.511
 6891SOL    HW221573   2.327   2.947   1.583
 6892SOL     OW21574   3.288   1.533   4.098
 6892SOL    HW121575   3.299   1.631   4.081
 6892SOL    HW221576   3.196   1.505   4.073
 6893SOL     OW21577   6.205   3.700   6.880
 6893SOL    HW121578   6.156   3.770   6.933
 6893SOL    HW221579   6.153   3.615   6.883
 6894SOL     OW21580   5.557   4.091   1.297
 6894SOL    HW121581   5.491   4.066   1.367
 6894SOL    HW221582   5.571   4.190   1.298
 6895SOL     OW21583   1.039   6.005   0.596
 6895SOL    HW121584   0.984   6.040   0.672
 6895SOL    HW221585   1.096   5.930   0.629
 6896SOL     OW21586   3.644   1.638   4.456
 6896SOL    HW121587   3.611   1.723   4.416
 6896SOL    HW221588   3.632   1.563   4.391
 6897SOL     OW21589   4.903   3.832   4.792
 6897SOL    HW121590   4.873   3.782   4.873
 6897SOL    HW221591   4.989   3.794   4.758
 6898SOL     OW21592   2.461   1.035   1.274
 6898SOL    HW121593   2.399   1.086   1.334
 6898SOL    HW221594   2.508   0.964   1.326
 6899SOL     OW21595   5.631   5.839   2.589
 6899SOL    HW121596   5.622   5.766   2.657
 6899SOL    HW221597   5.633   5.799   2.498
 6900SOL     OW21598   6.906   4.350   6.338
 6900SOL    HW121599   6.846   4.396   6.272
 6900SOL    HW221600   6.850   4.300   6.404
 6901SOL     OW21601   4.639   4.511   6.808
 6901SOL    HW121602   4.728   4.505   6.852
 6901SOL    HW221603   4.643   4.578   6.734
 6902SOL     OW21604   6.842   6.279   5.959
 6902SOL    HW121605   6.801   6.319   5.877
 6902SOL    HW221606   6.786   6.303   6.039
 6903SOL     OW21607   2.504   4.921   5.401
 6903SOL    HW121608   2.570   4.983   5.358
 6903SOL    HW221609   2.521   4.828   5.370
 6904SOL     OW21610   0.202   6.109   5.590
 6904SOL    HW121611   0.282   6.138   5.644
 6904SOL    HW221612   0.188   6.011   5.602
 6905SOL     OW21613   5.169   5.412   0.064
 6905SOL    HW121614   5.109   5.368   0.130
 6905SOL    HW221615   5.243   5.350   0.039
 6906SOL     OW21616   3.828   1.877   3.759
 6906SOL    HW121617   3.886   1.910   3.833
 6906SOL    HW221618   3.776   1.953   3.722
 6907SOL     OW21619   6.412   2.134   1.624
 6907SOL    HW121620   6.401   2.037   1.603
 6907SOL    HW221621   6.438   2.184   1.542
 6908SOL     OW21622   2.259   4.562   6.739
 6908SOL    HW121623   2.244   4.474   6.693
 6908SOL    HW221624   2.284   4.546   6.834
 6909SOL     OW21625   5.148   4.908   1.947
 6909SOL    HW121626   5.084   4.984   1.952
 6909SOL    HW221627   5.240   4.940   1.967
 6910SOL     OW21628   1.537   3.320   3.079
 6910SOL    HW121629   1.567   3.412   3.054
 6910SOL    HW221630   1.606   3.276   3.136
 6911SOL     OW21631   3.700   0.118   5.375
 6911SOL    HW121632   3.786   0.078   5.406
 6911SOL    HW221633   3.627   0.092   5.438
 6912SOL     OW21634   2.148   3.207   6.180
 6912SOL    HW121635   2.165   3.300   6.213
 6912SOL    HW221636   2.226   3.178   6.124
 6913SOL     OW21637   5.345   6.073   4.979
 6913SOL    HW121638   5.264   6.077   5.038
 6913SOL    HW221639   5.322   6.025   4.894
 6914SOL     OW21640   6.113   3.902   1.769
 6914SOL    HW121641   6.053   3.936   1.840
 6914SOL    HW221642   6.069   3.913   1.680
 6915SOL     OW21643   0.868   3.332   1.995
 6915SOL    HW121644   0.945   3.358   1.938
 6915SOL    HW221645   0.849   3.234   1.983
 6916SOL     OW21646   5.230   0.908   6.045
 6916SOL    HW121647   5.284   0.933   5.964
 6916SOL    HW221648   5.143   0.869   6.015
 6917SOL     OW21649   4.924   5.516   1.765
 6917SOL    HW121650   4.986   5.536   1.689
 6917SOL    HW221651   4.943   5.578   1.841
 6918SOL     OW21652   0.478   3.100   2.210
 6918SOL    HW121653   0.518   3.009   2.220
 6918SOL    HW221654   0.431   3.125   2.295
 6919SOL     OW21655   6.011   6.612   2.747
 6919SOL    HW121656   6.039   6.697   2.793
 6919SOL    HW221657   6.013   6.537   2.812
 6920SOL     OW21658   4.788   0.404   5.366
 6920SOL    HW121659   4.723   0.349   5.314
 6920SOL    HW221660   4.739   0.464   5.429
 6921SOL     OW21661   4.304   0.056   4.435
 6921SOL    HW121662   4.222   0.009   4.403
 6921SOL    HW221663   4.280   0.148   4.465
 6922SOL     OW21664   1.934   5.951   4.215
 6922SOL    HW121665   1.995   5.874   4.230
 6922SOL    HW221666   1.988   6.032   4.189
 6923SOL     OW21667   6.082   6.375   2.944
 6923SOL    HW121668   6.069   6.376   3.043
 6923SOL    HW221669   6.161   6.318   2.921
 6924SOL     OW21670   3.400   6.131   1.377
 6924SOL    HW121671   3.499   6.134   1.389
 6924SOL    HW221672   3.377   6.063   1.307
 6925SOL     OW21673   5.217   6.063   6.311
 6925SOL    HW121674   5.195   6.145   6.259
 6925SOL    HW221675   5.315   6.063   6.332
 6926SOL     OW21676   2.159   1.405   0.275
 6926SOL    HW121677   2.127   1.491   0.235
 6926SOL    HW221678   2.197   1.423   0.366
 6927SOL     OW21679   3.910   0.911   0.526
 6927SOL    HW121680   3.952   0.944   0.611
 6927SOL    HW221681   3.937   0.971   0.450
 6928SOL     OW21682   5.162   5.485   0.710
 6928SOL    HW121683   5.123   5.517   0.797
 6928SOL    HW221684   5.118   5.533   0.634
 6929SOL     OW21685   5.482   5.026   1.412
 6929SOL    HW121686   5.552   5.069   1.469
 6929SOL    HW221687   5.493   4.927   1.416
 6930SOL     OW21688   0.829   1.023   0.423
 6930SOL    HW121689   0.802   1.113   0.457
 6930SOL    HW221690   0.925   1.006   0.444
 6931SOL     OW21691   2.307   1.934   1.289
 6931SOL    HW121692   2.309   1.955   1.191
 6931SOL    HW221693   2.356   2.005   1.339
 6932SOL     OW21694   4.767   4.975   0.445
 6932SOL    HW121695   4.710   4.895   0.426
 6932SOL    HW221696   4.746   5.047   0.379
 6933SOL     OW21697   3.540   6.271   6.227
 6933SOL    HW121698   3.455   6.321   6.242
 6933SOL    HW221699   3.558   6.264   6.129
 6934SOL     OW21700   4.871   3.783   6.637
 6934SOL    HW121701   4.776   3.757   6.651
 6934SOL    HW221702   4.918   3.788   6.726
 6935SOL     OW21703   4.664   5.651   2.303
 6935SOL    HW121704   4.734   5.708   2.345
 6935SOL    HW221705   4.644   5.573   2.363
 6936SOL     OW21706   0.650   2.244   4.137
 6936SOL    HW121707   0.705   2.310   4.188
 6936SOL    HW221708   0.625   2.168   4.197
 6937SOL     OW21709   5.968   6.154   0.468
 6937SOL    HW121710   5.979   6.233   0.528
 6937SOL    HW221711   6.052   6.100   0.467
 6938SOL     OW21712   0.310   0.933   4.638
 6938SOL    HW121713   0.245   0.877   4.689
 6938SOL    HW221714   0.348   0.880   4.562
 6939SOL     OW21715   6.473   5.190   3.395
 6939SOL    HW121716   6.475   5.290   3.393
 6939SOL    HW221717   6.445   5.159   3.485
 6940SOL     OW21718   4.962   6.592   0.642
 6940SOL    HW121719   5.011   6.557   0.563
 6940SOL    HW221720   4.981   6.689   0.653
 6941SOL     OW21721   2.905   3.657   2.202
 6941SOL    HW121722   2.892   3.574   2.257
 6941SOL    HW221723   2.816   3.692   2.173
 6942SOL     OW21724   6.346   6.331   1.900
 6942SOL    HW121725   6.370   6.276   1.820
 6942SOL    HW221726   6.277   6.399   1.875
 6943SOL     OW21727   3.668   4.704   6.991
 6943SOL    HW121728   3.644   4.785   0.022
 6943SOL    HW221729   3.735   4.730   6.921
 6944SOL     OW21730   0.907   4.562   6.008
 6944SOL    HW121731   0.871   4.649   6.041
 6944SOL    HW221732   0.867   4.541   5.919
 6945SOL     OW21733   6.251   2.321   0.516
 6945SOL    HW121734   6.307   2.238   0.517
 6945SOL    HW221735   6.167   2.305   0.567
 6946SOL     OW21736   3.909   5.994   2.129
 6946SOL    HW121737   3.905   6.036   2.220
 6946SOL    HW221738   3.964   6.052   2.069
 6947SOL     OW21739   4.284   4.906   6.482
 6947SOL    HW121740   4.299   4.899   6.580
 6947SOL    HW221741   4.291   5.002   6.454
 6948SOL     OW21742   7.010   6.468   1.288
 6948SOL    HW121743   6.942   6.522   1.338
 6948SOL    HW221744   6.974   6.377   1.270
 6949SOL     OW21745   2.711   2.372   3.735
 6949SOL    HW121746   2.659   2.298   3.777
 6949SOL    HW221747   2.728   2.443   3.804
 6950SOL     OW21748   1.214   0.150   4.164
 6950SOL    HW121749   1.155   0.104   4.097
 6950SOL    HW221750   1.256   0.081   4.224
 6951SOL     OW21751   6.471   5.281   6.823
 6951SOL    HW121752   6.419   5.213   6.772
 6951SOL    HW221753   6.454   5.372   6.786
 6952SOL     OW21754   2.815   5.100   3.044
 6952SOL    HW121755   2.818   5.012   3.091
 6952SOL    HW221756   2.902   5.116   2.997
 6953SOL     OW21757   5.214   6.825   0.786
 6953SOL    HW121758   5.226   6.845   0.689
 6953SOL    HW221759   5.276   6.752   0.813
 6954SOL     OW21760   0.259   3.323   0.977
 6954SOL    HW121761   0.164   3.338   1.005
 6954SOL    HW221762   0.282   3.388   0.904
 6955SOL     OW21763   5.426   0.097   2.504
 6955SOL    HW121764   5.406   0.085   2.407
 6955SOL    HW221765   5.421   0.008   2.550
 6956SOL     OW21766   6.119   5.797   1.945
 6956SOL    HW121767   6.040   5.795   2.007
 6956SOL    HW221768   6.113   5.878   1.887
 6957SOL     OW21769   5.483   6.047   6.304
 6957SOL    HW121770   5.548   5.996   6.361
 6957SOL    HW221771   5.452   5.989   6.229
 6958SOL     OW21772   3.592   3.569   3.969
 6958SOL    HW121773   3.504   3.613   3.952
 6958SOL    HW221774   3.620   3.518   3.888
 6959SOL     OW21775   1.334   3.969   3.262
 6959SOL    HW121776   1.336   3.869   3.261
 6959SOL    HW221777   1.321   4.003   3.168
 6960SOL     OW21778   1.486   4.853   0.719
 6960SOL    HW121779   1.457   4.939   0.762
 6960SOL    HW221780   1.417   4.783   0.733
 6961SOL     OW21781   4.089   1.209   4.925
 6961SOL    HW121782   4.166   1.229   4.985
 6961SOL    HW221783   4.122   1.168   4.840
 6962SOL     OW21784   3.762   6.356   0.222
 6962SOL    HW121785   3.752   6.401   0.134
 6962SOL    HW221786   3.811   6.270   0.210
 6963SOL     OW21787   4.905   6.237   0.395
 6963SOL    HW121788   4.902   6.267   0.300
 6963SOL    HW221789   4.875   6.311   0.454
 6964SOL     OW21790   2.800   0.209   5.680
 6964SOL    HW121791   2.876   0.244   5.625
 6964SOL    HW221792   2.825   0.211   5.777
 6965SOL     OW21793   1.121   2.215   0.272
 6965SOL    HW121794   1.036   2.180   0.312
 6965SOL    HW221795   1.132   2.178   0.180
 6966SOL     OW21796   1.288   0.757   1.991
 6966SOL    HW121797   1.225   0.831   1.966
 6966SOL    HW221798   1.346   0.788   2.067
 6967SOL     OW21799   3.515   1.597   6.121
 6967SOL    HW121800   3.576   1.569   6.195
 6967SOL    HW221801   3.446   1.660   6.157
 6968SOL     OW21802   3.649   0.124   3.137
 6968SOL    HW121803   3.646   0.121   3.037
 6968SOL    HW221804   3.672   0.033   3.172
 6969SOL     OW21805   2.769   1.569   1.175
 6969SOL    HW121806   2.689   1.525   1.215
 6969SOL    HW221807   2.804   1.639   1.237
 6970SOL     OW21808   3.052   4.950   6.198
 6970SOL    HW121809   3.009   4.863   6.221
 6970SOL    HW221810   2.985   5.024   6.205
 6971SOL     OW21811   5.393   4.324   1.323
 6971SOL    HW121812   5.302   4.288   1.339
 6971SOL    HW221813   5.392   4.424   1.330
 6972SOL     OW21814   4.970   3.302   3.029
 6972SOL    HW121815   4.930   3.387   2.994
 6972SOL    HW221816   5.069   3.310   3.034
 6973SOL     OW21817   1.336   2.093   2.309
 6973SOL    HW121818   1.425   2.048   2.312
 6973SOL    HW221819   1.319   2.127   2.217
 6974SOL     OW21820   3.024   3.805   2.454
 6974SOL    HW121821   2.946   3.754   2.490
 6974SOL    HW221822   3.071   3.751   2.384
 6975SOL     OW21823   3.043   5.513   4.761
 6975SOL    HW121824   3.043   5.489   4.664
 6975SOL    HW221825   2.959   5.562   4.783
 6976SOL     OW21826   4.907   4.060   5.325
 6976SOL    HW121827   4.840   4.055   5.400
 6976SOL    HW221828   4.861   4.042   5.238
 6977SOL     OW21829   4.092   4.206   1.663
 6977SOL    HW121830   4.152   4.129   1.683
 6977SOL    HW221831   4.025   4.179   1.593
 6978SOL     OW21832   5.576   3.237   0.976
 6978SOL    HW121833   5.671   3.267   0.974
 6978SOL    HW221834   5.572   3.137   0.975
 6979SOL     OW21835   1.066   3.493   1.576
 6979SOL    HW121836   1.050   3.492   1.675
 6979SOL    HW221837   1.113   3.577   1.551
 6980SOL     OW21838   1.498   0.897   2.863
 6980SOL    HW121839   1.526   0.805   2.890
 6980SOL    HW221840   1.458   0.895   2.771
 6981SOL     OW21841   3.630   3.479   6.769
 6981SOL    HW121842   3.634   3.571   6.810
 6981SOL    HW221843   3.722   3.448   6.749
 6982SOL     OW21844   1.031   1.080   4.012
 6982SOL    HW121845   0.976   0.997   4.005
 6982SOL    HW221846   1.117   1.059   4.060
 6983SOL     OW21847   4.231   0.930   4.851
 6983SOL    HW121848   4.200   0.923   4.756
 6983SOL    HW221849   4.327   0.957   4.852
 6984SOL     OW21850   1.246   2.757   2.737
 6984SOL    HW121851   1.333   2.713   2.716
 6984SOL    HW221852   1.171   2.704   2.696
 6985SOL     OW21853   6.966   4.218   0.094
 6985SOL    HW121854   6.950   4.317   0.090
 6985SOL    HW221855   0.021   4.194   0.037
 6986SOL     OW21856   3.873   6.196   6.342
 6986SOL    HW121857   3.891   6.292   6.320
 6986SOL    HW221858   3.788   6.189   6.394
 6987SOL     OW21859   0.035   1.606   5.590
 6987SOL    HW121860   0.079   1.546   5.523
 6987SOL    HW221861   0.106   1.653   5.643
 6988SOL     OW21862   2.891   0.398   6.074
 6988SOL    HW121863   2.914   0.387   6.170
 6988SOL    HW221864   2.824   0.329   6.047
 6989SOL     OW21865   6.980   4.326   2.179
 6989SOL    HW121866   6.957   4.385   2.257
 6989SOL    HW221867   6.957   4.231   2.202
 6990SOL     OW21868   3.477   2.808   2.174
 6990SOL    HW121869   3.444   2.821   2.080
 6990SOL    HW221870   3.505   2.713   2.186
 6991SOL     OW21871   5.407   4.874   3.095
 6991SOL    HW121872   5.415   4.811   3.018
 6991SOL    HW221873   5.312   4.876   3.126
 6992SOL     OW21874   0.270   6.778   0.491
 6992SOL    HW121875   0.331   6.759   0.413
 6992SOL    HW221876   0.192   6.832   0.459
 6993SOL     OW21877   5.665   1.079   1.900
 6993SOL    HW121878   5.663   1.163   1.954
 6993SOL    HW221879   5.759   1.059   1.873
 6994SOL     OW21880   1.509   0.002   3.560
 6994SOL    HW121881   1.571   0.025   3.635
 6994SOL    HW221882   1.477   6.931   3.571
 6995SOL     OW21883   0.777   3.771   0.183
 6995SOL    HW121884   0.758   3.674   0.168
 6995SOL    HW221885   0.721   3.805   0.258
 6996SOL     OW21886   1.812   0.375   6.864
 6996SOL    HW121887   1.775   0.382   6.771
 6996SOL    HW221888   1.738   0.359   6.929
 6997SOL     OW21889   6.884   4.692   5.183
 6997SOL    HW121890   6.913   4.735   5.097
 6997SOL    HW221891   6.879   4.593   5.171
 6998SOL     OW21892   1.098   1.555   1.290
 6998SOL    HW121893   1.098   1.456   1.307
 6998SOL    HW221894   1.185   1.594   1.319
 6999SOL     OW21895   0.725   2.737   6.468
 6999SOL    HW121896   0.644   2.684   6.494
 6999SOL    HW221897   0.804   2.676   6.458
 7000SOL     OW21898   6.242   0.154   2.741
 7000SOL    HW121899   6.287   0.069   2.711
 7000SOL    HW221900   6.259   0.226   2.674
 7001SOL     OW21901   1.050   1.420   4.517
 7001SOL    HW121902   1.050   1.372   4.605
 7001SOL    HW221903   1.021   1.358   4.445
 7002SOL     OW21904   0.476   5.490   3.679
 7002SOL    HW121905   0.474   5.408   3.622
 7002SOL    HW221906   0.406   5.484   3.749
 7003SOL     OW21907   5.987   4.604   1.207
 7003SOL    HW121908   5.978   4.505   1.200
 7003SOL    HW221909   6.082   4.630   1.189
 7004SOL     OW21910   1.625   5.979   0.426
 7004SOL    HW121911   1.533   5.940   0.420
 7004SOL    HW221912   1.618   6.076   0.451
 7005SOL     OW21913   0.991   0.434   0.242
 7005SOL    HW121914   0.993   0.369   0.166
 7005SOL    HW221915   1.085   0.456   0.270
 7006SOL     OW21916   6.813   6.628   3.524
 7006SOL    HW121917   6.721   6.626   3.484
 7006SOL    HW221918   6.809   6.588   3.616
 7007SOL     OW21919   4.089   0.774   5.654
 7007SOL    HW121920   4.000   0.730   5.646
 7007SOL    HW221921   4.094   0.852   5.591
 7008SOL     OW21922   6.754   4.257   3.394
 7008SOL    HW121923   6.849   4.289   3.394
 7008SOL    HW221924   6.700   4.312   3.330
 7009SOL     OW21925   3.847   6.448   2.369
 7009SOL    HW121926   3.886   6.437   2.461
 7009SOL    HW221927   3.748   6.448   2.375
 7010SOL     OW21928   5.500   3.811   2.450
 7010SOL    HW121929   5.425   3.842   2.392
 7010SOL    HW221930   5.515   3.878   2.523
 7011SOL     OW21931   3.456   6.572   0.463
 7011SOL    HW121932   3.401   6.503   0.511
 7011SOL    HW221933   3.497   6.633   0.530
 7012SOL     OW21934   1.221   2.903   0.696
 7012SOL    HW121935   1.196   2.864   0.606
 7012SOL    HW221936   1.245   2.829   0.758
 7013SOL     OW21937   2.571   0.961   6.782
 7013SOL    HW121938   2.501   0.953   6.853
 7013SOL    HW221939   2.642   0.892   6.797
 7014SOL     OW21940   6.119   3.838   1.487
 7014SOL    HW121941   6.033   3.814   1.443
 7014SOL    HW221942   6.193   3.781   1.451
 7015SOL     OW21943   5.980   4.225   2.177
 7015SOL    HW121944   6.055   4.287   2.202
 7015SOL    HW221945   5.894   4.276   2.180
 7016SOL     OW21946   3.320   4.966   1.165
 7016SOL    HW121947   3.248   5.035   1.173
 7016SOL    HW221948   3.285   4.887   1.115
 7017SOL     OW21949   3.998   4.768   3.720
 7017SOL    HW121950   3.945   4.769   3.635
 7017SOL    HW221951   3.948   4.816   3.791
 7018SOL     OW21952   4.853   3.163   4.473
 7018SOL    HW121953   4.898   3.249   4.499
 7018SOL    HW221954   4.778   3.145   4.536
 7019SOL     OW21955   4.915   5.551   2.110
 7019SOL    HW121956   4.830   5.502   2.129
 7019SOL    HW221957   4.989   5.486   2.096
 7020SOL     OW21958   0.820   3.186   6.675
 7020SOL    HW121959   0.842   3.111   6.614
 7020SOL    HW221960   0.903   3.239   6.694
 7021SOL     OW21961   0.974   2.794   4.822
 7021SOL    HW121962   0.886   2.835   4.845
 7021SOL    HW221963   1.037   2.867   4.794
 7022SOL     OW21964   4.081   0.794   0.224
 7022SOL    HW121965   4.053   0.701   0.246
 7022SOL    HW221966   4.154   0.823   0.286
 7023SOL     OW21967   0.606   1.666   1.933
 7023SOL    HW121968   0.594   1.595   1.864
 7023SOL    HW221969   0.574   1.632   2.021
 7024SOL     OW21970   3.708   2.898   3.966
 7024SOL    HW121971   3.629   2.913   4.025
 7024SOL    HW221972   3.792   2.912   4.018
 7025SOL     OW21973   3.274   0.080   6.994
 7025SOL    HW121974   3.307   0.014   0.038
 7025SOL    HW221975   3.231   0.157   0.018
 7026SOL     OW21976   3.161   1.210   1.284
 7026SOL    HW121977   3.072   1.255   1.279
 7026SOL    HW221978   3.149   1.111   1.282
 7027SOL     OW21979   2.427   5.472   2.930
 7027SOL    HW121980   2.454   5.561   2.893
 7027SOL    HW221981   2.356   5.432   2.872
 7028SOL     OW21982   2.871   0.639   3.854
 7028SOL    HW121983   2.924   0.670   3.775
 7028SOL    HW221984   2.783   0.686   3.856
 7029SOL     OW21985   3.195   3.333   5.644
 7029SOL    HW121986   3.136   3.410   5.619
 7029SOL    HW221987   3.272   3.367   5.698
 7030SOL     OW21988   0.665   1.932   4.628
 7030SOL    HW121989   0.730   1.928   4.704
 7030SOL    HW221990   0.711   1.907   4.543
 7031SOL     OW21991   4.585   6.176   0.523
 7031SOL    HW121992   4.585   6.267   0.563
 7031SOL    HW221993   4.677   6.137   0.528
 7032SOL     OW21994   4.148   0.150   4.035
 7032SOL    HW121995   4.132   0.231   4.091
 7032SOL    HW221996   4.111   0.166   3.943
 7033SOL     OW21997   1.248   2.476   5.052
 7033SOL    HW121998   1.337   2.434   5.034
 7033SOL    HW221999   1.206   2.432   5.132
 7034SOL     OW22000   6.498   2.119   3.453
 7034SOL    HW122001   6.505   2.168   3.540
 7034SOL    HW222002   6.550   2.167   3.383
 7035SOL     OW22003   2.092   0.266   1.482
 7035SOL    HW122004   2.062   0.351   1.525
 7035SOL    HW222005   2.038   0.189   1.518
 7036SOL     OW22006   0.312   1.396   2.198
 7036SOL    HW122007   0.229   1.350   2.168
 7036SOL    HW222008   0.298   1.438   2.288
 7037SOL     OW22009   0.078   0.185   5.626
 7037SOL    HW122010   0.088   0.284   5.623
 7037SOL    HW222011   0.169   0.143   5.630
 7038SOL     OW22012   2.360   4.459   6.306
 7038SOL    HW122013   2.297   4.382   6.316
 7038SOL    HW222014   2.440   4.430   6.253
 7039SOL     OW22015   0.772   5.074   2.861
 7039SOL    HW122016   0.692   5.107   2.812
 7039SOL    HW222017   0.747   4.996   2.919
 7040SOL     OW22018   4.185   1.934   5.287
 7040SOL    HW122019   4.099   1.888   5.267
 7040SOL    HW222020   4.168   2.012   5.348
 7041SOL     OW22021   1.220   1.317   3.595
 7041SOL    HW122022   1.173   1.240   3.637
 7041SOL    HW222023   1.174   1.342   3.510
 7042SOL     OW22024   4.504   6.144   5.152
 7042SOL    HW122025   4.494   6.167   5.055
 7042SOL    HW222026   4.528   6.047   5.161
 7043SOL     OW22027   2.461   4.398   3.478
 7043SOL    HW122028   2.503   4.307   3.488
 7043SOL    HW222029   2.473   4.431   3.385
 7044SOL     OW22030   5.000   6.302   4.281
 7044SOL    HW122031   5.027   6.236   4.351
 7044SOL    HW222032   4.900   6.313   4.283
 7045SOL     OW22033   6.031   5.564   2.266
 7045SOL    HW122034   6.125   5.537   2.245
 7045SOL    HW222035   6.029   5.662   2.286
 7046SOL     OW22036   2.995   2.185   4.296
 7046SOL    HW122037   2.941   2.105   4.320
 7046SOL    HW222038   3.010   2.241   4.378
 7047SOL     OW22039   0.631   0.305   1.407
 7047SOL    HW122040   0.719   0.263   1.385
 7047SOL    HW222041   0.609   0.291   1.503
 7048SOL     OW22042   6.632   6.206   5.074
 7048SOL    HW122043   6.625   6.304   5.053
 7048SOL    HW222044   6.540   6.170   5.093
 7049SOL     OW22045   3.907   1.586   1.963
 7049SOL    HW122046   3.984   1.629   2.010
 7049SOL    HW222047   3.911   1.487   1.975
 7050SOL     OW22048   3.492   5.109   0.706
 7050SOL    HW122049   3.494   5.108   0.806
 7050SOL    HW222050   3.524   5.198   0.673
 7051SOL     OW22051   0.200   0.172   1.845
 7051SOL    HW122052   0.296   0.153   1.827
 7051SOL    HW222053   0.175   0.140   1.936
 7052SOL     OW22054   5.962   6.744   3.240
 7052SOL    HW122055   6.055   6.720   3.212
 7052SOL    HW222056   5.956   6.842   3.257
 7053SOL     OW22057   1.450   3.231   3.772
 7053SOL    HW122058   1.369   3.179   3.747
 7053SOL    HW222059   1.432   3.282   3.857
 7054SOL     OW22060   6.955   0.464   1.088
 7054SOL    HW122061   6.936   0.511   1.174
 7054SOL    HW222062   6.957   0.366   1.102
 7055SOL     OW22063   1.823   0.732   6.568
 7055SOL    HW122064   1.743   0.687   6.606
 7055SOL    HW222065   1.870   0.784   6.639
 7056SOL     OW22066   6.264   5.989   1.364
 7056SOL    HW122067   6.244   5.984   1.266
 7056SOL    HW222068   6.345   5.933   1.385
 7057SOL     OW22069   2.868   4.986   4.661
 7057SOL    HW122070   2.832   4.924   4.730
 7057SOL    HW222071   2.904   5.069   4.705
 7058SOL     OW22072   5.290   2.175   6.755
 7058SOL    HW122073   5.256   2.217   6.839
 7058SOL    HW222074   5.235   2.094   6.734
 7059SOL     OW22075   2.201   1.557   4.607
 7059SOL    HW122076   2.238   1.477   4.654
 7059SOL    HW222077   2.272   1.597   4.549
 7060SOL     OW22078   3.259   6.625   2.661
 7060SOL    HW122079   3.219   6.715   2.643
 7060SOL    HW222080   3.355   6.625   2.632
 7061SOL     OW22081   1.862   2.006   2.573
 7061SOL    HW122082   1.842   1.930   2.636
 7061SOL    HW222083   1.833   2.092   2.614
 7062SOL     OW22084   4.609   1.528   4.005
 7062SOL    HW122085   4.563   1.515   3.917
 7062SOL    HW222086   4.625   1.438   4.047
 7063SOL     OW22087   0.609   6.502   2.440
 7063SOL    HW122088   0.651   6.446   2.368
 7063SOL    HW222089   0.609   6.450   2.525
 7064SOL     OW22090   4.854   1.943   5.615
 7064SOL    HW122091   4.855   2.034   5.574
 7064SOL    HW222092   4.929   1.935   5.681
 7065SOL     OW22093   3.567   4.663   5.421
 7065SOL    HW122094   3.506   4.626   5.491
 7065SOL    HW222095   3.653   4.611   5.422
 7066SOL     OW22096   4.385   0.377   6.846
 7066SOL    HW122097   4.397   0.365   6.944
 7066SOL    HW222098   4.439   0.455   6.815
 7067SOL     OW22099   2.055   3.168   6.929
 7067SOL    HW122100   2.068   3.197   6.834
 7067SOL    HW222101   1.985   3.225   6.973
 7068SOL     OW22102   5.692   4.227   4.053
 7068SOL    HW122103   5.623   4.191   4.115
 7068SOL    HW222104   5.672   4.323   4.033
 7069SOL     OW22105   5.964   1.016   5.836
 7069SOL    HW122106   5.901   0.938   5.837
 7069SOL    HW222107   5.928   1.087   5.774
 7070SOL     OW22108   0.296   6.777   4.719
 7070SOL    HW122109   0.318   6.733   4.807
 7070SOL    HW222110   0.208   6.822   4.725
 7071SOL     OW22111   5.022   6.527   6.519
 7071SOL    HW122112   5.119   6.546   6.513
 7071SOL    HW222113   5.007   6.447   6.578
 7072SOL     OW22114   0.615   4.323   6.575
 7072SOL    HW122115   0.529   4.331   6.523
 7072SOL    HW222116   0.596   4.337   6.672
 7073SOL     OW22117   4.243   0.521   3.505
 7073SOL    HW122118   4.207   0.558   3.419
 7073SOL    HW222119   4.293   0.592   3.554
 7074SOL     OW22120   6.453   3.539   3.447
 7074SOL    HW122121   6.486   3.589   3.528
 7074SOL    HW222122   6.525   3.537   3.378
 7075SOL     OW22123   3.458   4.876   5.190
 7075SOL    HW122124   3.373   4.909   5.232
 7075SOL    HW222125   3.460   4.776   5.192
 7076SOL     OW22126   6.112   3.230   2.094
 7076SOL    HW122127   6.016   3.243   2.118
 7076SOL    HW222128   6.118   3.174   2.012
 7077SOL     OW22129   2.525   5.029   2.121
 7077SOL    HW122130   2.482   5.057   2.207
 7077SOL    HW222131   2.623   5.013   2.135
 7078SOL     OW22132   5.440   6.850   0.584
 7078SOL    HW122133   5.485   6.853   0.674
 7078SOL    HW222134   5.412   6.943   0.559
 7079SOL     OW22135   0.949   0.158   3.725
 7079SOL    HW122136   1.042   0.141   3.759
 7079SOL    HW222137   0.922   0.252   3.748
 7080SOL     OW22138   3.994   1.773   5.134
 7080SOL    HW122139   4.028   1.698   5.191
 7080SOL    HW222140   3.918   1.740   5.077
 7081SOL     OW22141   1.413   0.867   7.007
 7081SOL    HW122142   1.438   0.936   6.939
 7081SOL    HW222143   1.347   0.905   0.048
 7082SOL     OW22144   6.622   3.516   2.127
 7082SOL    HW122145   6.572   3.574   2.063
 7082SOL    HW222146   6.619   3.421   2.096
 7083SOL     OW22147   6.705   2.498   2.627
 7083SOL    HW122148   6.607   2.483   2.614
 7083SOL    HW222149   6.747   2.415   2.663
 7084SOL     OW22150   0.560   5.757   0.146
 7084SOL    HW122151   0.481   5.763   0.208
 7084SOL    HW222152   0.583   5.848   0.113
 7085SOL     OW22153   0.239   2.632   2.628
 7085SOL    HW122154   0.176   2.644   2.705
 7085SOL    HW222155   0.195   2.663   2.544
 7086SOL     OW22156   6.346   0.919   6.555
 7086SOL    HW122157   6.314   0.897   6.648
 7086SOL    HW222158   6.440   0.887   6.544
 7087SOL     OW22159   5.726   3.059   2.868
 7087SOL    HW122160   5.639   3.045   2.915
 7087SOL    HW222161   5.734   3.156   2.843
 7088SOL     OW22162   5.594   1.636   5.214
 7088SOL    HW122163   5.631   1.561   5.158
 7088SOL    HW222164   5.656   1.654   5.291
 7089SOL     OW22165   4.306   5.397   1.913
 7089SOL    HW122166   4.219   5.348   1.908
 7089SOL    HW222167   4.294   5.481   1.966
 7090SOL     OW22168   3.577   1.503   1.042
 7090SOL    HW122169   3.509   1.435   1.069
 7090SOL    HW222170   3.649   1.508   1.111
 7091SOL     OW22171   0.738   6.900   0.318
 7091SOL    HW122172   0.764   6.967   0.387
 7091SOL    HW222173   0.658   6.849   0.350
 7092SOL     OW22174   4.355   2.185   6.488
 7092SOL    HW122175   4.397   2.275   6.472
 7092SOL    HW222176   4.273   2.196   6.544
 7093SOL     OW22177   3.178   3.984   0.694
 7093SOL    HW122178   3.138   3.898   0.662
 7093SOL    HW222179   3.225   4.029   0.618
 7094SOL     OW22180   1.917   0.020   5.781
 7094SOL    HW122181   1.872   6.954   5.785
 7094SOL    HW222182   1.877   0.075   5.708
 7095SOL     OW22183   3.035   4.820   5.636
 7095SOL    HW122184   3.014   4.877   5.715
 7095SOL    HW222185   2.953   4.812   5.578
 7096SOL     OW22186   6.694   0.682   1.077
 7096SOL    HW122187   6.740   0.726   1.154
 7096SOL    HW222188   6.748   0.697   0.994
 7097SOL     OW22189   5.583   0.157   1.814
 7097SOL    HW122190   5.647   0.162   1.737
 7097SOL    HW222191   5.548   0.064   1.822
 7098SOL     OW22192   1.381   6.997   4.289
 7098SOL    HW122193   1.319   6.920   4.303
 7098SOL    HW222194   1.476   6.966   4.297
 7099SOL     OW22195   3.213   2.166   4.156
 7099SOL    HW122196   3.162   2.170   4.242
 7099SOL    HW222197   3.193   2.247   4.101
 7100SOL     OW22198   0.610   3.371   0.637
 7100SOL    HW122199   0.654   3.337   0.554
 7100SOL    HW222200   0.678   3.417   0.695
 7101SOL     OW22201   1.817   6.636   5.193
 7101SOL    HW122202   1.878   6.597   5.262
 7101SOL    HW222203   1.871   6.659   5.112
 7102SOL     OW22204   4.917   0.625   0.764
 7102SOL    HW122205   4.941   0.528   0.759
 7102SOL    HW222206   4.920   0.655   0.859
 7103SOL     OW22207   5.197   5.408   2.481
 7103SOL    HW122208   5.171   5.317   2.449
 7103SOL    HW222209   5.128   5.441   2.547
 7104SOL     OW22210   5.408   2.802   3.287
 7104SOL    HW122211   5.372   2.796   3.380
 7104SOL    HW222212   5.508   2.790   3.289
 7105SOL     OW22213   3.444   4.168   4.053
 7105SOL    HW122214   3.428   4.072   4.032
 7105SOL    HW222215   3.414   4.186   4.147
 7106SOL     OW22216   3.553   2.951   1.448
 7106SOL    HW122217   3.619   2.991   1.512
 7106SOL    HW222218   3.507   2.874   1.493
 7107SOL     OW22219   4.233   6.915   6.963
 7107SOL    HW122220   4.275   6.839   7.013
 7107SOL    HW222221   4.304   6.969   6.919
 7108SOL     OW22222   2.916   6.076   2.712
 7108SOL    HW122223   2.868   6.154   2.672
 7108SOL    HW222224   2.950   6.101   2.803
 7109SOL     OW22225   1.569   0.441   5.888
 7109SOL    HW122226   1.568   0.429   5.789
 7109SOL    HW222227   1.657   0.478   5.917
 7110SOL     OW22228   3.087   6.496   4.508
 7110SOL    HW122229   3.122   6.556   4.580
 7110SOL    HW222230   3.080   6.403   4.544
 7111SOL     OW22231   1.245   0.686   4.004
 7111SOL    HW122232   1.170   0.696   4.068
 7111SOL    HW222233   1.211   0.650   3.917
 7112SOL     OW22234   1.959   4.739   4.377
 7112SOL    HW122235   1.940   4.697   4.466
 7112SOL    HW222236   1.873   4.763   4.333
 7113SOL     OW22237   2.959   4.902   4.956
 7113SOL    HW122238   2.886   4.943   5.011
 7113SOL    HW222239   2.970   4.806   4.981
 7114SOL     OW22240   4.863   5.331   1.211
 7114SOL    HW122241   4.859   5.404   1.279
 7114SOL    HW222242   4.920   5.257   1.246
 7115SOL     OW22243   6.222   4.243   6.813
 7115SOL    HW122244   6.171   4.205   6.735
 7115SOL    HW222245   6.285   4.313   6.781
 7116SOL     OW22246   6.579   3.486   4.110
 7116SOL    HW122247   6.600   3.459   4.203
 7116SOL    HW222248   6.496   3.440   4.079
 7117SOL     OW22249   6.213   0.303   3.531
 7117SOL    HW122250   6.163   0.360   3.596
 7117SOL    HW222251   6.164   0.217   3.518
 7118SOL     OW22252   4.035   4.622   5.268
 7118SOL    HW122253   4.009   4.708   5.224
 7118SOL    HW222254   4.112   4.581   5.219
 7119SOL     OW22255   4.913   0.026   4.969
 7119SOL    HW122256   4.830   0.073   5.001
 7119SOL    HW222257   4.908   0.014   4.870
 7120SOL     OW22258   4.649   1.182   1.116
 7120SOL    HW122259   4.746   1.165   1.135
 7120SOL    HW222260   4.597   1.175   1.201
 7121SOL     OW22261   0.823   6.501   3.438
 7121SOL    HW122262   0.855   6.425   3.382
 7121SOL    HW222263   0.842   6.481   3.534
 7122SOL     OW22264   2.784   0.130   5.968
 7122SOL    HW122265   2.849   0.110   6.041
 7122SOL    HW222266   2.703   0.073   5.977
 7123SOL     OW22267   6.081   5.340   4.866
 7123SOL    HW122268   6.109   5.256   4.912
 7123SOL    HW222269   5.982   5.337   4.848
 7124SOL     OW22270   0.813   2.436   1.319
 7124SOL    HW122271   0.772   2.349   1.345
 7124SOL    HW222272   0.766   2.472   1.238
 7125SOL     OW22273   0.912   0.203   1.421
 7125SOL    HW122274   0.938   0.180   1.514
 7125SOL    HW222275   0.993   0.206   1.363
 7126SOL     OW22276   4.069   6.140   1.599
 7126SOL    HW122277   4.039   6.092   1.681
 7126SOL    HW222278   4.164   6.114   1.578
 7127SOL     OW22279   2.956   6.254   5.127
 7127SOL    HW122280   3.028   6.214   5.184
 7127SOL    HW222281   2.930   6.187   5.057
 7128SOL     OW22282   3.238   4.418   6.611
 7128SOL    HW122283   3.161   4.429   6.548
 7128SOL    HW222284   3.247   4.499   6.669
 7129SOL     OW22285   0.296   1.063   1.230
 7129SOL    HW122286   0.334   0.974   1.255
 7129SOL    HW222287   0.281   1.117   1.312
 7130SOL     OW22288   2.734   6.597   4.210
 7130SOL    HW122289   2.769   6.563   4.122
 7130SOL    HW222290   2.801   6.659   4.251
 7131SOL     OW22291   4.037   0.657   2.515
 7131SOL    HW122292   4.036   0.595   2.436
 7131SOL    HW222293   3.952   0.647   2.566
 7132SOL     OW22294   5.584   3.746   6.790
 7132SOL    HW122295   5.598   3.648   6.799
 7132SOL    HW222296   5.660   3.786   6.738
 7133SOL     OW22297   3.362   5.794   3.434
 7133SOL    HW122298   3.415   5.757   3.510
 7133SOL    HW222299   3.272   5.750   3.432
 7134SOL     OW22300   6.167   5.428   1.421
 7134SOL    HW122301   6.223   5.502   1.460
 7134SOL    HW222302   6.190   5.416   1.325
 7135SOL     OW22303   2.114   3.241   2.127
 7135SOL    HW122304   2.028   3.217   2.081
 7135SOL    HW222305   2.165   3.304   2.070
 7136SOL     OW22306   3.064   1.759   1.533
 7136SOL    HW122307   3.139   1.823   1.543
 7136SOL    HW222308   2.992   1.782   1.599
 7137SOL     OW22309   2.780   2.063   1.574
 7137SOL    HW122310   2.874   2.068   1.539
 7137SOL    HW222311   2.761   2.142   1.632
 7138SOL     OW22312   2.103   1.765   0.605
 7138SOL    HW122313   2.026   1.760   0.668
 7138SOL    HW222314   2.183   1.804   0.652
 7139SOL     OW22315   6.402   5.801   1.801
 7139SOL    HW122316   6.360   5.791   1.712
 7139SOL    HW222317   6.338   5.772   1.872
 7140SOL     OW22318   6.679   3.523   0.804
 7140SOL    HW122319   6.672   3.441   0.861
 7140SOL    HW222320   6.613   3.516   0.729
 7141SOL     OW22321   4.027   6.691   1.231
 7141SOL    HW122322   3.964   6.620   1.263
 7141SOL    HW222323   3.998   6.722   1.140
 7142SOL     OW22324   3.516   0.609   4.635
 7142SOL    HW122325   3.466   0.691   4.608
 7142SOL    HW222326   3.512   0.598   4.734
 7143SOL     OW22327   2.505   4.770   6.586
 7143SOL    HW122328   2.557   4.781   6.671
 7143SOL    HW222329   2.487   4.673   6.570
 7144SOL     OW22330   6.755   1.134   4.295
 7144SOL    HW122331   6.701   1.145   4.212
 7144SOL    HW222332   6.788   1.040   4.302
 7145SOL     OW22333   4.743   2.083   0.295
 7145SOL    HW122334   4.719   2.073   0.391
 7145SOL    HW222335   4.687   2.155   0.254
 7146SOL     OW22336   2.242   1.046   5.278
 7146SOL    HW122337   2.239   0.969   5.214
 7146SOL    HW222338   2.327   1.042   5.331
 7147SOL     OW22339   5.764   4.361   2.343
 7147SOL    HW122340   5.819   4.443   2.353
 7147SOL    HW222341   5.770   4.305   2.426
 7148SOL     OW22342   6.651   6.245   0.861
 7148SOL    HW122343   6.694   6.159   0.889
 7148SOL    HW222344   6.702   6.285   0.785
 7149SOL     OW22345   6.655   5.171   4.523
 7149SOL    HW122346   6.605   5.114   4.458
 7149SOL    HW222347   6.592   5.204   4.594
 7150SOL     OW22348   4.236   3.541   0.178
 7150SOL    HW122349   4.159   3.522   0.239
 7150SOL    HW222350   4.297   3.607   0.221
 7151SOL     OW22351   3.707   0.148   0.671
 7151SOL    HW122352   3.771   0.168   0.596
 7151SOL    HW222353   3.743   0.188   0.756
 7152SOL     OW22354   0.407   1.268   6.694
 7152SOL    HW122355   0.342   1.205   6.653
 7152SOL    HW222356   0.407   1.354   6.642
 7153SOL     OW22357   3.971   6.526   0.991
 7153SOL    HW122358   3.991   6.456   1.059
 7153SOL    HW222359   4.044   6.527   0.922
 7154SOL     OW22360   4.422   1.191   2.320
 7154SOL    HW122361   4.414   1.191   2.420
 7154SOL    HW222362   4.393   1.103   2.284
 7155SOL     OW22363   3.414   1.815   2.561
 7155SOL    HW122364   3.471   1.743   2.599
 7155SOL    HW222365   3.426   1.899   2.613
 7156SOL     OW22366   6.151   3.824   0.394
 7156SOL    HW122367   6.213   3.762   0.442
 7156SOL    HW222368   6.057   3.793   0.405
 7157SOL     OW22369   6.076   4.239   6.207
 7157SOL    HW122370   6.008   4.258   6.137
 7157SOL    HW222371   6.116   4.325   6.240
 7158SOL     OW22372   4.971   6.991   3.795
 7158SOL    HW122373   4.893   7.003   3.857
 7158SOL    HW222374   4.942   7.010   3.701
 7159SOL     OW22375   0.554   5.917   3.496
 7159SOL    HW122376   0.498   5.898   3.577
 7159SOL    HW222377   0.596   5.832   3.464
 7160SOL     OW22378   5.517   7.009   3.103
 7160SOL    HW122379   5.573   0.066   3.124
 7160SOL    HW222380   5.562   6.926   3.137
 7161SOL     OW22381   3.822   3.257   3.484
 7161SOL    HW122382   3.727   3.229   3.472
 7161SOL    HW222383   3.831   3.355   3.462
 7162SOL     OW22384   0.476   5.248   2.335
 7162SOL    HW122385   0.529   5.317   2.385
 7162SOL    HW222386   0.389   5.233   2.382
 7163SOL     OW22387   0.982   1.354   1.968
 7163SOL    HW122388   1.081   1.354   1.949
 7163SOL    HW222389   0.932   1.343   1.882
 7164SOL     OW22390   1.608   1.425   6.097
 7164SOL    HW122391   1.574   1.428   6.191
 7164SOL    HW222392   1.590   1.512   6.052
 7165SOL     OW22393   6.215   0.443   0.118
 7165SOL    HW122394   6.280   0.453   0.042
 7165SOL    HW222395   6.187   0.347   0.126
 7166SOL     OW22396   5.358   6.799   6.400
 7166SOL    HW122397   5.299   6.859   6.347
 7166SOL    HW222398   5.449   6.839   6.409
 7167SOL     OW22399   5.977   2.058   4.842
 7167SOL    HW122400   5.936   2.081   4.754
 7167SOL    HW222401   6.077   2.056   4.833
 7168SOL     OW22402   2.538   0.883   1.920
 7168SOL    HW122403   2.464   0.883   1.854
 7168SOL    HW222404   2.563   0.977   1.943
 7169SOL     OW22405   2.291   4.338   5.986
 7169SOL    HW122406   2.292   4.239   6.002
 7169SOL    HW222407   2.197   4.370   5.980
 7170SOL     OW22408   4.196   0.866   1.892
 7170SOL    HW122409   4.286   0.825   1.877
 7170SOL    HW222410   4.196   0.914   1.980
 7171SOL     OW22411   5.710   4.992   0.756
 7171SOL    HW122412   5.668   4.950   0.675
 7171SOL    HW222413   5.806   4.966   0.761
 7172SOL     OW22414   1.559   1.073   4.350
 7172SOL    HW122415   1.602   1.127   4.422
 7172SOL    HW222416   1.470   1.040   4.382
 7173SOL     OW22417   5.502   5.912   6.729
 7173SOL    HW122418   5.443   5.993   6.722
 7173SOL    HW222419   5.584   5.935   6.781
 7174SOL     OW22420   6.021   4.259   1.148
 7174SOL    HW122421   6.076   4.179   1.172
 7174SOL    HW222422   6.082   4.330   1.111
 7175SOL     OW22423   5.820   3.658   5.511
 7175SOL    HW122424   5.781   3.749   5.500
 7175SOL    HW222425   5.791   3.599   5.435
 7176SOL     OW22426   7.018   1.587   4.554
 7176SOL    HW122427   6.927   1.571   4.593
 7176SOL    HW222428   7.012   1.585   4.455
 7177SOL     OW22429   1.878   5.224   4.851
 7177SOL    HW122430   1.961   5.277   4.835
 7177SOL    HW222431   1.882   5.182   4.942
 7178SOL     OW22432   0.615   0.794   5.602
 7178SOL    HW122433   0.589   0.713   5.549
 7178SOL    HW222434   0.542   0.817   5.666
 7179SOL     OW22435   3.639   5.634   6.657
 7179SOL    HW122436   3.617   5.731   6.646
 7179SOL    HW222437   3.625   5.587   6.570
 7180SOL     OW22438   1.235   4.956   1.249
 7180SOL    HW122439   1.261   4.910   1.334
 7180SOL    HW222440   1.308   4.944   1.181
 7181SOL     OW22441   2.324   1.639   6.065
 7181SOL    HW122442   2.334   1.635   5.965
 7181SOL    HW222443   2.233   1.674   6.088
 7182SOL     OW22444   0.853   3.603   3.889
 7182SOL    HW122445   0.823   3.567   3.800
 7182SOL    HW222446   0.869   3.701   3.881
 7183SOL     OW22447   1.097   6.524   1.651
 7183SOL    HW122448   1.064   6.431   1.634
 7183SOL    HW222449   1.166   6.548   1.583
 7184SOL     OW22450   6.462   0.242   3.867
 7184SOL    HW122451   6.474   0.195   3.954
 7184SOL    HW222452   6.402   0.321   3.880
 7185SOL     OW22453   4.780   0.474   4.919
 7185SOL    HW122454   4.831   0.456   4.835
 7185SOL    HW222455   4.777   0.391   4.975
 7186SOL     OW22456   0.415   0.086   0.256
 7186SOL    HW122457   0.316   0.077   0.259
 7186SOL    HW222458   0.456   7.020   0.237
 7187SOL     OW22459   3.023   3.272   4.960
 7187SOL    HW122460   2.986   3.333   4.890
 7187SOL    HW222461   3.081   3.203   4.917
 7188SOL     OW22462   3.944   5.031   6.954
 7188SOL    HW122463   3.872   5.080   7.003
 7188SOL    HW222464   3.940   5.054   6.857
 7189SOL     OW22465   6.161   2.125   5.185
 7189SOL    HW122466   6.081   2.168   5.225
 7189SOL    HW222467   6.226   2.100   5.257
 7190SOL     OW22468   5.803   5.286   1.303
 7190SOL    HW122469   5.788   5.252   1.396
 7190SOL    HW222470   5.724   5.263   1.246
 7191SOL     OW22471   0.546   3.979   3.131
 7191SOL    HW122472   0.486   3.971   3.211
 7191SOL    HW222473   0.585   3.889   3.110
 7192SOL     OW22474   1.721   5.094   6.629
 7192SOL    HW122475   1.780   5.088   6.709
 7192SOL    HW222476   1.697   5.002   6.599
 7193SOL     OW22477   2.626   2.183   2.881
 7193SOL    HW122478   2.558   2.226   2.821
 7193SOL    HW222479   2.581   2.112   2.936
 7194SOL     OW22480   2.914   2.514   6.597
 7194SOL    HW122481   2.967   2.513   6.512
 7194SOL    HW222482   2.974   2.534   6.674
 7195SOL     OW22483   0.316   3.001   6.324
 7195SOL    HW122484   0.270   2.949   6.397
 7195SOL    HW222485   0.285   3.095   6.325
 7196SOL     OW22486   3.331   4.112   2.265
 7196SOL    HW122487   3.384   4.106   2.181
 7196SOL    HW222488   3.393   4.110   2.344
 7197SOL     OW22489   1.788   3.849   5.450
 7197SOL    HW122490   1.756   3.871   5.358
 7197SOL    HW222491   1.714   3.804   5.501
 7198SOL     OW22492   6.559   1.276   0.627
 7198SOL    HW122493   6.513   1.234   0.705
 7198SOL    HW222494   6.657   1.259   0.632
 7199SOL     OW22495   1.054   0.752   2.183
 7199SOL    HW122496   0.983   0.738   2.251
 7199SOL    HW222497   1.139   0.708   2.213
 7200SOL     OW22498   2.209   2.467   0.613
 7200SOL    HW122499   2.211   2.483   0.711
 7200SOL    HW222500   2.278   2.399   0.589
 7201SOL     OW22501   5.702   5.360   4.222
 7201SOL    HW122502   5.639   5.435   4.242
 7201SOL    HW222503   5.769   5.390   4.155
 7202SOL     OW22504   4.840   0.418   5.671
 7202SOL    HW122505   4.931   0.446   5.638
 7202SOL    HW222506   4.823   0.459   5.761
 7203SOL     OW22507   0.019   1.649   2.327
 7203SOL    HW122508   0.042   1.653   2.230
 7203SOL    HW222509   0.058   1.566   2.367
 7204SOL     OW22510   0.014   1.370   1.078
 7204SOL    HW122511   7.019   1.408   1.168
 7204SOL    HW222512   6.956   1.380   1.020
 7205SOL     OW22513   1.840   2.243   5.504
 7205SOL    HW122514   1.843   2.224   5.406
 7205SOL    HW222515   1.799   2.333   5.519
 7206SOL     OW22516   2.041   2.137   1.108
 7206SOL    HW122517   1.982   2.212   1.139
 7206SOL    HW222518   2.114   2.174   1.050
 7207SOL     OW22519   1.644   1.934   4.038
 7207SOL    HW122520   1.595   1.921   3.952
 7207SOL    HW222521   1.619   1.861   4.102
 7208SOL     OW22522   3.627   1.048   4.426
 7208SOL    HW122523   3.695   1.120   4.432
 7208SOL    HW222524   3.625   1.012   4.332
 7209SOL     OW22525   2.622   2.254   2.016
 7209SOL    HW122526   2.609   2.172   2.072
 7209SOL    HW222527   2.702   2.304   2.049
 7210SOL     OW22528   2.901   1.487   2.920
 7210SOL    HW122529   2.832   1.445   2.979
 7210SOL    HW222530   2.857   1.551   2.857
 7211SOL     OW22531   3.370   5.766   5.410
 7211SOL    HW122532   3.429   5.829   5.360
 7211SOL    HW222533   3.293   5.739   5.352
 7212SOL     OW22534   5.856   5.252   6.068
 7212SOL    HW122535   5.758   5.249   6.050
 7212SOL    HW222536   5.894   5.159   6.061
 7213SOL     OW22537   3.682   1.022   0.544
 7213SOL    HW122538   3.776   0.989   0.543
 7213SOL    HW222539   3.637   0.992   0.628
 7214SOL     OW22540   0.662   1.037   6.307
 7214SOL    HW122541   0.656   0.967   6.378
 7214SOL    HW222542   0.607   1.009   6.228
 7215SOL     OW22543   0.209   2.866   2.909
 7215SOL    HW122544   0.210   2.898   3.004
 7215SOL    HW222545   0.223   2.944   2.848
 7216SOL     OW22546   2.963   6.092   3.390
 7216SOL    HW122547   2.865   6.070   3.384
 7216SOL    HW222548   2.984   6.171   3.332
 7217SOL     OW22549   1.346   4.420   3.890
 7217SOL    HW122550   1.429   4.431   3.836
 7217SOL    HW222551   1.292   4.345   3.853
 7218SOL     OW22552   6.380   3.581   4.865
 7218SOL    HW122553   6.317   3.571   4.788
 7218SOL    HW222554   6.363   3.669   4.911
 7219SOL     OW22555   3.314   6.491   1.932
 7219SOL    HW122556   3.403   6.450   1.951
 7219SOL    HW222557   3.241   6.427   1.957
 7220SOL     OW22558   6.776   4.544   4.327
 7220SOL    HW122559   6.699   4.557   4.389
 7220SOL    HW222560   6.782   4.447   4.301
 7221SOL     OW22561   3.445   6.153   4.932
 7221SOL    HW122562   3.409   6.226   4.990
 7221SOL    HW222563   3.491   6.194   4.853
 7222SOL     OW22564   6.444   6.393   3.402
 7222SOL    HW122565   6.355   6.396   3.357
 7222SOL    HW222566   6.461   6.481   3.447
 7223SOL     OW22567   1.842   2.162   0.811
 7223SOL    HW122568   1.796   2.161   0.722
 7223SOL    HW222569   1.941   2.168   0.797
 7224SOL     OW22570   4.655   2.083   3.518
 7224SOL    HW122571   4.600   2.050   3.594
 7224SOL    HW222572   4.702   2.005   3.474
 7225SOL     OW22573   1.815   6.797   0.630
 7225SOL    HW122574   1.891   6.734   0.641
 7225SOL    HW222575   1.808   6.825   0.534
 7226SOL     OW22576   5.886   1.392   0.131
 7226SOL    HW122577   5.853   1.316   0.075
 7226SOL    HW222578   5.897   1.362   0.226
 7227SOL     OW22579   2.558   0.732   2.199
 7227SOL    HW122580   2.462   0.708   2.216
 7227SOL    HW222581   2.563   0.800   2.126
 7228SOL     OW22582   0.751   2.254   2.228
 7228SOL    HW122583   0.783   2.167   2.191
 7228SOL    HW222584   0.826   2.300   2.274
 7229SOL     OW22585   6.902   0.154   4.475
 7229SOL    HW122586   6.952   0.222   4.530
 7229SOL    HW222587   6.805   0.157   4.499
 7230SOL     OW22588   2.569   4.984   3.952
 7230SOL    HW122589   2.497   4.923   3.920
 7230SOL    HW222590   2.654   4.931   3.964
 7231SOL     OW22591   4.097   1.352   6.721
 7231SOL    HW122592   4.067   1.441   6.686
 7231SOL    HW222593   4.025   1.284   6.707
 7232SOL     OW22594   5.383   0.047   2.248
 7232SOL    HW122595   5.311   7.002   2.263
 7232SOL    HW222596   5.344   0.129   2.205
 7233SOL     OW22597   6.047   1.499   5.680
 7233SOL    HW122598   6.146   1.498   5.696
 7233SOL    HW222599   5.999   1.477   5.765
 7234SOL     OW22600   4.938   3.766   3.307
 7234SOL    HW122601   4.907   3.675   3.334
 7234SOL    HW222602   4.878   3.802   3.236
 7235SOL     OW22603   6.680   5.432   1.551
 7235SOL    HW122604   6.642   5.517   1.587
 7235SOL    HW222605   6.620   5.397   1.479
 7236SOL     OW22606   1.911   2.709   2.915
 7236SOL    HW122607   1.854   2.628   2.926
 7236SOL    HW222608   1.927   2.751   3.004
 7237SOL     OW22609   5.206   0.600   6.701
 7237SOL    HW122610   5.205   0.503   6.675
 7237SOL    HW222611   5.199   0.607   6.801
 7238SOL     OW22612   4.676   2.846   6.928
 7238SOL    HW122613   4.714   2.755   6.914
 7238SOL    HW222614   4.602   2.862   6.862
 7239SOL     OW22615   0.203   3.641   2.136
 7239SOL    HW122616   0.291   3.687   2.120
 7239SOL    HW222617   0.185   3.637   2.234
 7240SOL     OW22618   6.690   1.782   5.785
 7240SOL    HW122619   6.623   1.746   5.850
 7240SOL    HW222620   6.736   1.707   5.740
 7241SOL     OW22621   2.482   0.698   0.822
 7241SOL    HW122622   2.547   0.635   0.865
 7241SOL    HW222623   2.509   0.792   0.842
 7242SOL     OW22624   0.442   5.973   4.190
 7242SOL    HW122625   0.416   6.025   4.271
 7242SOL    HW222626   0.467   6.036   4.117
 7243SOL     OW22627   6.687   4.157   6.099
 7243SOL    HW122628   6.752   4.111   6.158
 7243SOL    HW222629   6.611   4.095   6.079
 7244SOL     OW22630   0.422   6.695   0.263
 7244SOL    HW122631   0.477   6.711   0.181
 7244SOL    HW222632   0.330   6.666   0.236
 7245SOL     OW22633   1.759   2.407   6.909
 7245SOL    HW122634   1.717   2.361   6.831
 7245SOL    HW222635   1.857   2.416   6.894
 7246SOL     OW22636   3.053   0.314   4.554
 7246SOL    HW122637   2.998   0.279   4.478
 7246SOL    HW222638   2.992   0.356   4.622
 7247SOL     OW22639   3.045   2.516   5.396
 7247SOL    HW122640   3.119   2.520   5.462
 7247SOL    HW222641   3.082   2.510   5.303
 7248SOL     OW22642   3.456   0.468   4.093
 7248SOL    HW122643   3.478   0.379   4.052
 7248SOL    HW222644   3.361   0.468   4.125
 7249SOL     OW22645   4.137   4.700   2.028
 7249SOL    HW122646   4.108   4.606   2.011
 7249SOL    HW222647   4.100   4.760   1.958
 7250SOL     OW22648   5.291   4.794   5.715
 7250SOL    HW122649   5.366   4.814   5.778
 7250SOL    HW222650   5.306   4.844   5.630
 7251SOL     OW22651   0.538   6.574   5.662
 7251SOL    HW122652   0.593   6.652   5.691
 7251SOL    HW222653   0.456   6.606   5.615
 7252SOL     OW22654   3.102   4.019   2.171
 7252SOL    HW122655   3.198   4.036   2.195
 7252SOL    HW222656   3.045   4.093   2.207
 7253SOL     OW22657   1.519   6.337   6.000
 7253SOL    HW122658   1.481   6.398   5.930
 7253SOL    HW222659   1.535   6.247   5.960
 7254SOL     OW22660   5.818   4.356   3.725
 7254SOL    HW122661   5.860   4.287   3.665
 7254SOL    HW222662   5.727   4.377   3.691
 7255SOL     OW22663   4.995   3.435   6.764
 7255SOL    HW122664   5.088   3.419   6.799
 7255SOL    HW222665   4.947   3.499   6.824
 7256SOL     OW22666   3.580   6.753   5.365
 7256SOL    HW122667   3.532   6.838   5.385
 7256SOL    HW222668   3.520   6.693   5.312
 7257SOL     OW22669   0.083   1.941   4.943
 7257SOL    HW122670   0.034   2.027   4.928
 7257SOL    HW222671   0.085   1.921   5.041
 7258SOL     OW22672   5.652   2.685   2.115
 7258SOL    HW122673   5.676   2.655   2.207
 7258SOL    HW222674   5.673   2.612   2.050
 7259SOL     OW22675   1.329   3.684   3.183
 7259SOL    HW122676   1.332   3.661   3.086
 7259SOL    HW222677   1.236   3.668   3.218
 7260SOL     OW22678   5.296   2.471   1.250
 7260SOL    HW122679   5.277   2.445   1.345
 7260SOL    HW222680   5.395   2.485   1.239
 7261SOL     OW22681   0.407   3.956   0.749
 7261SOL    HW122682   0.363   3.987   0.665
 7261SOL    HW222683   0.396   3.857   0.758
 7262SOL     OW22684   5.137   1.571   5.876
 7262SOL    HW122685   5.196   1.514   5.934
 7262SOL    HW222686   5.189   1.648   5.841
 7263SOL     OW22687   0.583   6.739   0.673
 7263SOL    HW122688   0.518   6.816   0.670
 7263SOL    HW222689   0.557   6.671   0.604
 7264SOL     OW22690   5.856   1.345   0.961
 7264SOL    HW122691   5.916   1.344   0.882
 7264SOL    HW222692   5.796   1.425   0.957
 7265SOL     OW22693   5.475   5.687   4.452
 7265SOL    HW122694   5.506   5.723   4.540
 7265SOL    HW222695   5.449   5.591   4.462
 7266SOL     OW22696   6.936   0.664   3.691
 7266SOL    HW122697   6.974   0.667   3.783
 7266SOL    HW222698   6.870   0.738   3.679
 7267SOL     OW22699   6.540   6.456   4.963
 7267SOL    HW122700   6.567   6.550   4.982
 7267SOL    HW222701   6.447   6.440   4.998
 7268SOL     OW22702   6.401   5.614   4.476
 7268SOL    HW122703   6.494   5.598   4.509
 7268SOL    HW222704   6.401   5.690   4.411
 7269SOL     OW22705   1.845   5.867   5.896
 7269SOL    HW122706   1.837   5.768   5.908
 7269SOL    HW222707   1.876   5.908   5.982
 7270SOL     OW22708   0.370   2.090   4.022
 7270SOL    HW122709   0.362   2.189   4.010
 7270SOL    HW222710   0.311   2.043   3.957
 7271SOL     OW22711   1.446   5.323   4.157
 7271SOL    HW122712   1.373   5.378   4.118
 7271SOL    HW222713   1.416   5.228   4.165
 7272SOL     OW22714   6.647   6.544   1.680
 7272SOL    HW122715   6.636   6.497   1.593
 7272SOL    HW222716   6.642   6.478   1.755
 7273SOL     OW22717   5.085   3.131   6.123
 7273SOL    HW122718   5.058   3.037   6.099
 7273SOL    HW222719   5.089   3.140   6.223
 7274SOL     OW22720   0.579   4.501   6.799
 7274SOL    HW122721   0.630   4.587   6.803
 7274SOL    HW222722   0.530   4.487   6.885
 7275SOL     OW22723   0.078   6.531   3.174
 7275SOL    HW122724   0.173   6.504   3.159
 7275SOL    HW222725   0.024   6.512   3.091
 7276SOL     OW22726   5.642   0.249   3.768
 7276SOL    HW122727   5.687   0.162   3.748
 7276SOL    HW222728   5.679   0.287   3.852
 7277SOL     OW22729   5.044   0.536   5.885
 7277SOL    HW122730   5.083   0.486   5.963
 7277SOL    HW222731   5.069   0.489   5.800
 7278SOL     OW22732   3.013   3.992   1.911
 7278SOL    HW122733   2.999   4.085   1.876
 7278SOL    HW222734   3.033   3.996   2.009
 7279SOL     OW22735   4.059   6.282   0.173
 7279SOL    HW122736   4.047   6.212   0.243
 7279SOL    HW222737   4.157   6.296   0.157
 7280SOL     OW22738   5.465   6.784   5.143
 7280SOL    HW122739   5.498   6.879   5.139
 7280SOL    HW222740   5.490   6.737   5.059
 7281SOL     OW22741   3.054   1.458   6.778
 7281SOL    HW122742   3.091   1.512   6.702
 7281SOL    HW222743   3.103   1.481   6.862
 7282SOL     OW22744   6.202   4.854   2.702
 7282SOL    HW122745   6.118   4.903   2.677
 7282SOL    HW222746   6.279   4.918   2.701
 7283SOL     OW22747   2.760   1.377   3.396
 7283SOL    HW122748   2.741   1.334   3.307
 7283SOL    HW222749   2.857   1.398   3.403
 7284SOL     OW22750   0.453   4.101   5.526
 7284SOL    HW122751   0.447   4.006   5.493
 7284SOL    HW222752   0.414   4.107   5.618
 7285SOL     OW22753   5.160   4.699   2.148
 7285SOL    HW122754   5.127   4.782   2.104
 7285SOL    HW222755   5.109   4.620   2.114
 7286SOL     OW22756   2.587   1.842   1.077
 7286SOL    HW122757   2.623   1.759   1.036
 7286SOL    HW222758   2.491   1.853   1.050
 7287SOL     OW22759   0.847   2.270   6.372
 7287SOL    HW122760   0.911   2.199   6.343
 7287SOL    HW222761   0.855   2.349   6.311
 7288SOL     OW22762   3.787   0.598   6.445
 7288SOL    HW122763   3.738   0.653   6.512
 7288SOL    HW222764   3.730   0.586   6.363
 7289SOL     OW22765   5.901   1.573   3.162
 7289SOL    HW122766   5.989   1.617   3.179
 7289SOL    HW222767   5.837   1.597   3.235
 7290SOL     OW22768   2.639   5.720   5.459
 7290SOL    HW122769   2.725   5.754   5.421
 7290SOL    HW222770   2.635   5.740   5.557
 7291SOL     OW22771   2.237   0.343   1.256
 7291SOL    HW122772   2.191   0.303   1.335
 7291SOL    HW222773   2.170   0.392   1.200
 7292SOL     OW22774   2.530   0.323   3.927
 7292SOL    HW122775   2.616   0.274   3.940
 7292SOL    HW222776   2.496   0.306   3.834
 7293SOL     OW22777   1.574   1.548   4.784
 7293SOL    HW122778   1.536   1.612   4.851
 7293SOL    HW222779   1.500   1.506   4.732
 7294SOL     OW22780   2.780   5.100   0.571
 7294SOL    HW122781   2.756   5.057   0.483
 7294SOL    HW222782   2.856   5.164   0.556
 7295SOL     OW22783   1.236   2.644   0.838
 7295SOL    HW122784   1.295   2.564   0.841
 7295SOL    HW222785   1.140   2.616   0.850
 7296SOL     OW22786   3.168   4.763   1.039
 7296SOL    HW122787   3.223   4.692   1.083
 7296SOL    HW222788   3.083   4.775   1.090
 7297SOL     OW22789   4.001   5.926   0.704
 7297SOL    HW122790   4.007   6.019   0.741
 7297SOL    HW222791   4.060   5.865   0.758
 7298SOL     OW22792   5.073   4.193   5.731
 7298SOL    HW122793   5.083   4.292   5.718
 7298SOL    HW222794   5.160   4.155   5.762
 7299SOL     OW22795   0.639   2.003   6.691
 7299SOL    HW122796   0.709   2.019   6.621
 7299SOL    HW222797   0.683   1.973   6.776
 7300SOL     OW22798   5.473   5.296   2.127
 7300SOL    HW122799   5.444   5.385   2.161
 7300SOL    HW222800   5.568   5.279   2.155
 7301SOL     OW22801   5.989   0.851   4.601
 7301SOL    HW122802   6.083   0.861   4.632
 7301SOL    HW222803   5.981   0.771   4.541
 7302SOL     OW22804   0.224   1.472   6.864
 7302SOL    HW122805   0.228   1.405   6.790
 7302SOL    HW222806   0.312   1.475   6.910
 7303SOL     OW22807   5.094   0.860   6.864
 7303SOL    HW122808   5.188   0.896   6.861
 7303SOL    HW222809   5.069   0.843   6.960
 7304SOL     OW22810   3.525   4.639   6.752
 7304SOL    HW122811   3.429   4.623   6.777
 7304SOL    HW222812   3.579   4.655   6.835
 7305SOL     OW22813   4.583   1.862   0.991
 7305SOL    HW122814   4.542   1.771   0.981
 7305SOL    HW222815   4.511   1.931   0.997
 7306SOL     OW22816   5.255   2.955   1.183
 7306SOL    HW122817   5.245   2.857   1.201
 7306SOL    HW222818   5.302   2.998   1.260
 7307SOL     OW22819   3.182   6.902   1.607
 7307SOL    HW122820   3.088   6.933   1.624
 7307SOL    HW222821   3.195   6.813   1.651
 7308SOL     OW22822   0.108   3.644   5.535
 7308SOL    HW122823   0.158   3.563   5.568
 7308SOL    HW222824   0.172   3.720   5.523
 7309SOL     OW22825   5.572   6.299   0.533
 7309SOL    HW122826   5.490   6.249   0.506
 7309SOL    HW222827   5.605   6.353   0.456
 7310SOL     OW22828   2.129   4.498   1.201
 7310SOL    HW122829   2.193   4.433   1.161
 7310SOL    HW222830   2.173   4.545   1.278
 7311SOL     OW22831   3.614   1.936   2.363
 7311SOL    HW122832   3.517   1.928   2.385
 7311SOL    HW222833   3.627   1.927   2.264
 7312SOL     OW22834   0.204   3.195   5.740
 7312SOL    HW122835   0.272   3.172   5.808
 7312SOL    HW222836   0.115   3.209   5.784
 7313SOL     OW22837   4.758   2.430   6.208
 7313SOL    HW122838   4.735   2.334   6.224
 7313SOL    HW222839   4.849   2.449   6.244
 7314SOL     OW22840   6.887   3.984   5.251
 7314SOL    HW122841   6.979   4.022   5.239
 7314SOL    HW222842   6.823   4.058   5.274
 7315SOL     OW22843   6.645   0.732   2.782
 7315SOL    HW122844   6.725   0.718   2.840
 7315SOL    HW222845   6.562   0.718   2.836
 7316SOL     OW22846   3.027   3.630   6.060
 7316SOL    HW122847   2.985   3.595   6.144
 7316SOL    HW222848   2.962   3.620   5.984
 7317SOL     OW22849   4.559   0.778   2.463
 7317SOL    HW122850   4.616   0.831   2.526
 7317SOL    HW222851   4.465   0.778   2.495
 7318SOL     OW22852   0.938   1.549   0.897
 7318SOL    HW122853   0.986   1.464   0.872
 7318SOL    HW222854   0.978   1.625   0.847
 7319SOL     OW22855   6.366   3.826   6.151
 7319SOL    HW122856   6.379   3.763   6.228
 7319SOL    HW222857   6.277   3.809   6.108
 7320SOL     OW22858   6.815   3.822   1.609
 7320SOL    HW122859   6.814   3.844   1.511
 7320SOL    HW222860   6.907   3.835   1.645
 7321SOL     OW22861   3.113   7.018   5.426
 7321SOL    HW122862   3.182   6.988   5.492
 7321SOL    HW222863   3.158   0.031   5.345
 7322SOL     OW22864   0.812   2.629   2.402
 7322SOL    HW122865   0.784   2.706   2.459
 7322SOL    HW222866   0.736   2.601   2.343
 7323SOL     OW22867   2.152   2.254   2.122
 7323SOL    HW122868   2.208   2.336   2.108
 7323SOL    HW222869   2.194   2.176   2.075
 7324SOL     OW22870   5.331   6.679   2.382
 7324SOL    HW122871   5.306   6.708   2.474
 7324SOL    HW222872   5.329   6.579   2.377
 7325SOL     OW22873   3.948   0.201   6.339
 7325SOL    HW122874   3.937   0.224   6.435
 7325SOL    HW222875   3.955   0.102   6.329
 7326SOL     OW22876   2.405   6.612   5.323
 7326SOL    HW122877   2.310   6.641   5.326
 7326SOL    HW222878   2.458   6.664   5.390
 7327SOL     OW22879   6.345   2.813   5.156
 7327SOL    HW122880   6.308   2.747   5.221
 7327SOL    HW222881   6.335   2.776   5.063
 7328SOL     OW22882   3.288   0.496   6.418
 7328SOL    HW122883   3.294   0.481   6.320
 7328SOL    HW222884   3.364   0.451   6.464
 7329SOL     OW22885   4.458   3.740   1.548
 7329SOL    HW122886   4.517   3.784   1.615
 7329SOL    HW222887   4.513   3.683   1.487
 7330SOL     OW22888   3.195   2.332   0.118
 7330SOL    HW122889   3.157   2.298   0.032
 7330SOL    HW222890   3.152   2.420   0.140
 7331SOL     OW22891   5.313   0.181   1.737
 7331SOL    HW122892   5.326   0.136   1.649
 7331SOL    HW222893   5.400   0.185   1.785
 7332SOL     OW22894   2.088   6.291   0.898
 7332SOL    HW122895   2.150   6.227   0.851
 7332SOL    HW222896   1.999   6.247   0.911
 7333SOL     OW22897   0.206   3.138   3.657
 7333SOL    HW122898   0.121   3.160   3.704
 7333SOL    HW222899   0.269   3.094   3.721
 7334SOL     OW22900   4.004   6.121   6.971
 7334SOL    HW122901   3.988   6.024   6.989
 7334SOL    HW222902   4.054   6.161   0.025
 7335SOL     OW22903   1.860   2.810   2.542
 7335SOL    HW122904   1.823   2.895   2.505
 7335SOL    HW222905   1.931   2.831   2.609
 7336SOL     OW22906   1.601   6.110   3.103
 7336SOL    HW122907   1.591   6.149   3.194
 7336SOL    HW222908   1.518   6.129   3.050
 7337SOL     OW22909   0.300   2.868   2.020
 7337SOL    HW122910   0.359   2.851   1.942
 7337SOL    HW222911   0.213   2.906   1.988
 7338SOL     OW22912   6.709   2.970   1.321
 7338SOL    HW122913   6.629   3.025   1.297
 7338SOL    HW222914   6.772   3.025   1.376
 7339SOL     OW22915   5.175   5.794   3.562
 7339SOL    HW122916   5.158   5.795   3.464
 7339SOL    HW222917   5.122   5.866   3.606
 7340SOL     OW22918   1.863   1.190   0.347
 7340SOL    HW122919   1.907   1.119   0.292
 7340SOL    HW222920   1.892   1.182   0.442
 7341SOL     OW22921   0.160   2.146   6.504
 7341SOL    HW122922   0.108   2.218   6.550
 7341SOL    HW222923   0.205   2.089   6.572
 7342SOL     OW22924   6.561   1.051   1.863
 7342SOL    HW122925   6.632   1.004   1.915
 7342SOL    HW222926   6.506   1.108   1.924
 7343SOL     OW22927   4.507   3.091   0.271
 7343SOL    HW122928   4.486   3.183   0.238
 7343SOL    HW222929   4.440   3.026   0.235
 7344SOL     OW22930   1.308   7.008   6.097
 7344SOL    HW122931   1.369   0.044   6.149
 7344SOL    HW222932   1.359   6.961   6.025
 7345SOL     OW22933   3.609   3.151   5.208
 7345SOL    HW122934   3.634   3.060   5.174
 7345SOL    HW222935   3.510   3.156   5.220
 7346SOL     OW22936   4.009   6.583   3.307
 7346SOL    HW122937   4.042   6.530   3.229
 7346SOL    HW222938   3.971   6.520   3.375
 7347SOL     OW22939   0.695   2.051   0.071
 7347SOL    HW122940   0.708   2.008   0.161
 7347SOL    HW222941   0.649   1.986   0.010
 7348SOL     OW22942   1.213   3.587   3.963
 7348SOL    HW122943   1.143   3.599   4.034
 7348SOL    HW222944   1.304   3.591   4.005
 7349SOL     OW22945   3.949   0.249   1.622
 7349SOL    HW122946   4.026   0.291   1.670
 7349SOL    HW222947   3.896   0.193   1.686
 7350SOL     OW22948   2.624   1.204   5.568
 7350SOL    HW122949   2.679   1.176   5.647
 7350SOL    HW222950   2.685   1.240   5.496
 7351SOL     OW22951   5.042   5.240   3.357
 7351SOL    HW122952   5.063   5.152   3.400
 7351SOL    HW222953   4.982   5.293   3.416
 7352SOL     OW22954   1.304   1.688   2.569
 7352SOL    HW122955   1.299   1.757   2.641
 7352SOL    HW222956   1.303   1.734   2.480
 7353SOL     OW22957   0.829   0.459   6.728
 7353SOL    HW122958   0.807   0.555   6.711
 7353SOL    HW222959   0.924   0.451   6.758
 7354SOL     OW22960   2.146   0.993   4.389
 7354SOL    HW122961   2.226   1.051   4.378
 7354SOL    HW222962   2.065   1.050   4.403
 7355SOL     OW22963   0.097   2.279   6.226
 7355SOL    HW122964   0.155   2.258   6.147
 7355SOL    HW222965   0.139   2.242   6.309
 7356SOL     OW22966   3.510   4.449   6.157
 7356SOL    HW122967   3.513   4.537   6.108
 7356SOL    HW222968   3.601   4.407   6.155
 7357SOL     OW22969   3.619   5.845   2.162
 7357SOL    HW122970   3.716   5.845   2.141
 7357SOL    HW222971   3.567   5.872   2.082
 7358SOL     OW22972   6.111   3.101   1.861
 7358SOL    HW122973   6.167   3.081   1.780
 7358SOL    HW222974   6.044   3.028   1.874
 7359SOL     OW22975   4.503   2.579   6.097
 7359SOL    HW122976   4.601   2.568   6.116
 7359SOL    HW222977   4.482   2.676   6.090
 7360SOL     OW22978   2.075   3.591   5.472
 7360SOL    HW122979   2.126   3.507   5.488
 7360SOL    HW222980   2.139   3.668   5.461
 7361SOL     OW22981   5.213   0.332   2.578
 7361SOL    HW122982   5.202   0.421   2.622
 7361SOL    HW222983   5.309   0.318   2.555
 7362SOL     OW22984   3.538   5.598   6.367
 7362SOL    HW122985   3.620   5.636   6.325
 7362SOL    HW222986   3.470   5.670   6.379
 7363SOL     OW22987   4.378   0.804   1.492
 7363SOL    HW122988   4.402   0.852   1.407
 7363SOL    HW222989   4.446   0.826   1.562
 7364SOL     OW22990   4.383   0.149   1.833
 7364SOL    HW122991   4.411   0.243   1.813
 7364SOL    HW222992   4.294   0.151   1.879
 7365SOL     OW22993   6.632   5.796   2.704
 7365SOL    HW122994   6.616   5.699   2.689
 7365SOL    HW222995   6.717   5.809   2.755
 7366SOL     OW22996   2.004   0.174   4.833
 7366SOL    HW122997   2.029   0.142   4.742
 7366SOL    HW222998   2.074   0.237   4.867
 7367SOL     OW22999   4.537   2.297   0.278
 7367SOL    HW123000   4.465   2.263   0.339
 7367SOL    HW223001   4.565   2.388   0.309
 7368SOL     OW23002   3.582   3.077   3.008
 7368SOL    HW123003   3.490   3.108   2.986
 7368SOL    HW223004   3.602   2.992   2.958
 7369SOL     OW23005   3.634   2.453   1.204
 7369SOL    HW123006   3.713   2.394   1.187
 7369SOL    HW223007   3.551   2.407   1.172
 7370SOL     OW23008   2.365   2.311   5.181
 7370SOL    HW123009   2.328   2.366   5.255
 7370SOL    HW223010   2.435   2.250   5.217
 7371SOL     OW23011   3.409   6.417   4.102
 7371SOL    HW123012   3.392   6.442   4.197
 7371SOL    HW223013   3.327   6.374   4.063
 7372SOL     OW23014   4.043   0.046   4.858
 7372SOL    HW123015   4.112   7.017   4.809
 7372SOL    HW223016   4.043   0.019   4.955
 7373SOL     OW23017   5.174   1.648   5.088
 7373SOL    HW123018   5.179   1.550   5.069
 7373SOL    HW223019   5.161   1.698   5.002
 7374SOL     OW23020   1.333   1.956   4.952
 7374SOL    HW123021   1.262   1.981   4.886
 7374SOL    HW223022   1.409   1.912   4.904
 7375SOL     OW23023   2.203   2.874   2.302
 7375SOL    HW123024   2.267   2.950   2.300
 7375SOL    HW223025   2.221   2.813   2.225
 7376SOL     OW23026   1.174   3.293   1.385
 7376SOL    HW123027   1.115   3.212   1.388
 7376SOL    HW223028   1.122   3.374   1.412
 7377SOL     OW23029   3.915   5.225   0.681
 7377SOL    HW123030   3.912   5.206   0.779
 7377SOL    HW223031   3.821   5.237   0.647
 7378SOL     OW23032   1.849   0.008   4.173
 7378SOL    HW123033   1.819   0.099   4.143
 7378SOL    HW223034   1.885   6.981   4.094
 7379SOL     OW23035   3.181   0.343   1.715
 7379SOL    HW123036   3.149   0.433   1.746
 7379SOL    HW223037   3.103   0.292   1.676
 7380SOL     OW23038   6.281   4.146   3.738
 7380SOL    HW123039   6.201   4.205   3.748
 7380SOL    HW223040   6.336   4.178   3.661
 7381SOL     OW23041   4.028   2.675   0.819
 7381SOL    HW123042   4.002   2.599   0.759
 7381SOL    HW223043   4.020   2.647   0.914
 7382SOL     OW23044   6.213   1.980   5.940
 7382SOL    HW123045   6.237   2.063   5.990
 7382SOL    HW223046   6.151   1.925   5.995
 7383SOL     OW23047   1.921   6.241   2.109
 7383SOL    HW123048   1.859   6.290   2.170
 7383SOL    HW223049   1.877   6.227   2.021
 7384SOL     OW23050   6.738   6.877   1.261
 7384SOL    HW123051   6.715   6.920   1.348
 7384SOL    HW223052   6.674   6.907   1.191
 7385SOL     OW23053   3.090   5.141   2.919
 7385SOL    HW123054   3.127   5.065   2.866
 7385SOL    HW223055   3.087   5.223   2.862
 7386SOL     OW23056   6.963   3.158   6.469
 7386SOL    HW123057   6.870   3.178   6.499
 7386SOL    HW223058   6.991   3.069   6.506
 7387SOL     OW23059   6.254   5.172   5.920
 7387SOL    HW123060   6.206   5.257   5.945
 7387SOL    HW223061   6.203   5.094   5.956
 7388SOL     OW23062   0.927   5.695   2.748
 7388SOL    HW123063   0.874   5.772   2.711
 7388SOL    HW223064   1.021   5.702   2.716
 7389SOL     OW23065   0.354   3.187   0.370
 7389SOL    HW123066   0.430   3.246   0.343
 7389SOL    HW223067   0.296   3.169   0.291
 7390SOL     OW23068   2.972   1.946   2.252
 7390SOL    HW123069   3.017   1.972   2.167
 7390SOL    HW223070   3.011   1.860   2.285
 7391SOL     OW23071   3.874   3.565   2.711
 7391SOL    HW123072   3.824   3.649   2.691
 7391SOL    HW223073   3.954   3.586   2.767
 7392SOL     OW23074   3.708   6.453   6.998
 7392SOL    HW123075   3.630   6.400   6.966
 7392SOL    HW223076   3.729   6.525   6.931
 7393SOL     OW23077   6.985   4.600   3.602
 7393SOL    HW123078   6.927   4.661   3.549
 7393SOL    HW223079   0.058   4.619   3.582
 7394SOL     OW23080   2.044   2.982   6.451
 7394SOL    HW123081   2.135   3.018   6.431
 7394SOL    HW223082   2.002   2.949   6.367
 7395SOL     OW23083   2.277   3.311   1.460
 7395SOL    HW123084   2.347   3.310   1.531
 7395SOL    HW223085   2.239   3.404   1.452
 7396SOL     OW23086   2.414   5.888   1.745
 7396SOL    HW123087   2.464   5.846   1.820
 7396SOL    HW223088   2.323   5.915   1.776
 7397SOL     OW23089   4.849   3.749   4.499
 7397SOL    HW123090   4.896   3.725   4.584
 7397SOL    HW223091   4.804   3.668   4.462
 7398SOL     OW23092   1.591   4.820   3.261
 7398SOL    HW123093   1.565   4.799   3.355
 7398SOL    HW223094   1.510   4.843   3.207
 7399SOL     OW23095   6.097   3.127   4.280
 7399SOL    HW123096   6.071   3.091   4.190
 7399SOL    HW223097   6.095   3.227   4.277
 7400SOL     OW23098   5.477   2.360   5.127
 7400SOL    HW123099   5.439   2.272   5.096
 7400SOL    HW223100   5.445   2.433   5.067
 7401SOL     OW23101   1.728   2.843   3.152
 7401SOL    HW123102   1.810   2.898   3.166
 7401SOL    HW223103   1.673   2.883   3.079
 7402SOL     OW23104   2.524   5.359   5.637
 7402SOL    HW123105   2.598   5.309   5.591
 7402SOL    HW223106   2.507   5.318   5.726
 7403SOL     OW23107   2.133   2.912   3.337
 7403SOL    HW123108   2.229   2.908   3.365
 7403SOL    HW223109   2.113   2.837   3.275
 7404SOL     OW23110   3.308   4.054   1.381
 7404SOL    HW123111   3.310   4.075   1.479
 7404SOL    HW223112   3.305   3.955   1.368
 7405SOL     OW23113   2.898   5.501   5.516
 7405SOL    HW123114   2.843   5.429   5.474
 7405SOL    HW223115   2.933   5.562   5.445
 7406SOL     OW23116   0.397   1.342   5.298
 7406SOL    HW123117   0.370   1.411   5.366
 7406SOL    HW223118   0.431   1.388   5.216
 7407SOL     OW23119   0.794   6.406   6.487
 7407SOL    HW123120   0.774   6.459   6.570
 7407SOL    HW223121   0.729   6.331   6.479
 7408SOL     OW23122   3.332   4.311   5.426
 7408SOL    HW123123   3.264   4.384   5.418
 7408SOL    HW223124   3.384   4.322   5.510
 7409SOL     OW23125   5.521   3.868   0.008
 7409SOL    HW123126   5.429   3.897   0.034
 7409SOL    HW223127   5.520   3.835   6.936
 7410SOL     OW23128   0.125   0.897   0.382
 7410SOL    HW123129   0.050   0.839   0.414
 7410SOL    HW223130   0.212   0.855   0.408
 7411SOL     OW23131   1.252   1.777   5.997
 7411SOL    HW123132   1.205   1.715   5.935
 7411SOL    HW223133   1.318   1.833   5.946
 7412SOL     OW23134   4.129   7.018   0.195
 7412SOL    HW123135   4.188   6.973   0.129
 7412SOL    HW223136   4.034   6.999   0.174
 7413SOL     OW23137   5.141   4.660   2.791
 7413SOL    HW123138   5.132   4.755   2.821
 7413SOL    HW223139   5.050   4.625   2.766
 7414SOL     OW23140   1.925   2.172   4.341
 7414SOL    HW123141   1.855   2.175   4.412
 7414SOL    HW223142   1.914   2.250   4.279
 7415SOL     OW23143   3.417   6.609   6.776
 7415SOL    HW123144   3.332   6.570   6.811
 7415SOL    HW223145   3.401   6.703   6.745
 7416SOL     OW23146   1.550   1.312   2.591
 7416SOL    HW123147   1.499   1.377   2.534
 7416SOL    HW223148   1.540   1.338   2.687
 7417SOL     OW23149   1.307   2.325   3.703
 7417SOL    HW123150   1.215   2.350   3.674
 7417SOL    HW223151   1.371   2.341   3.628
 7418SOL     OW23152   1.596   4.891   6.502
 7418SOL    HW123153   1.503   4.854   6.494
 7418SOL    HW223154   1.634   4.905   6.411
 7419SOL     OW23155   6.143   3.788   3.508
 7419SOL    HW123156   6.184   3.799   3.418
 7419SOL    HW223157   6.198   3.837   3.576
 7420SOL     OW23158   6.944   5.873   1.917
 7420SOL    HW123159   6.886   5.911   1.988
 7420SOL    HW223160   0.006   5.840   1.957
 7421SOL     OW23161   4.879   3.511   1.278
 7421SOL    HW123162   4.808   3.483   1.214
 7421SOL    HW223163   4.965   3.524   1.228
 7422SOL     OW23164   6.337   3.343   1.888
 7422SOL    HW123165   6.279   3.425   1.885
 7422SOL    HW223166   6.305   3.277   1.821
 7423SOL     OW23167   5.510   1.815   5.605
 7423SOL    HW123168   5.439   1.745   5.598
 7423SOL    HW223169   5.571   1.793   5.681
 7424SOL     OW23170   6.574   1.078   5.066
 7424SOL    HW123171   6.612   1.001   5.015
 7424SOL    HW223172   6.550   1.048   5.159
 7425SOL     OW23173   5.198   6.947   0.530
 7425SOL    HW123174   5.219   6.911   0.439
 7425SOL    HW223175   5.251   0.007   0.546
 7426SOL     OW23176   3.132   2.621   5.911
 7426SOL    HW123177   3.197   2.545   5.911
 7426SOL    HW223178   3.040   2.586   5.893
 7427SOL     OW23179   3.931   1.464   4.110
 7427SOL    HW123180   4.009   1.515   4.147
 7427SOL    HW223181   3.863   1.528   4.074
 7428SOL     OW23182   4.071   6.440   5.843
 7428SOL    HW123183   3.975   6.457   5.862
 7428SOL    HW223184   4.117   6.526   5.821
 7429SOL     OW23185   1.064   6.497   3.145
 7429SOL    HW123186   1.032   6.590   3.128
 7429SOL    HW223187   1.154   6.500   3.187
 7430SOL     OW23188   6.491   4.401   2.456
 7430SOL    HW123189   6.564   4.343   2.421
 7430SOL    HW223190   6.491   4.398   2.556
 7431SOL     OW23191   2.066   2.463   4.641
 7431SOL    HW123192   2.032   2.457   4.547
 7431SOL    HW223193   2.043   2.378   4.689
 7432SOL     OW23194   1.708   0.756   3.314
 7432SOL    HW123195   1.634   0.732   3.251
 7432SOL    HW223196   1.690   0.846   3.355
 7433SOL     OW23197   2.941   6.630   0.227
 7433SOL    HW123198   3.040   6.634   0.210
 7433SOL    HW223199   2.894   6.597   0.145
 7434SOL     OW23200   4.772   6.110   6.003
 7434SOL    HW123201   4.724   6.047   6.063
 7434SOL    HW223202   4.744   6.204   6.024
 7435SOL     OW23203   4.936   6.408   1.721
 7435SOL    HW123204   4.859   6.463   1.753
 7435SOL    HW223205   5.022   6.448   1.755
 7436SOL     OW23206   4.910   4.267   6.056
 7436SOL    HW123207   4.927   4.177   6.016
 7436SOL    HW223208   4.875   4.256   6.149
 7437SOL     OW23209   2.973   5.438   1.181
 7437SOL    HW123210   3.027   5.487   1.113
 7437SOL    HW223211   2.978   5.486   1.269
 7438SOL     OW23212   1.943   0.625   0.635
 7438SOL    HW123213   1.886   0.703   0.660
 7438SOL    HW223214   1.903   0.541   0.674
 7439SOL     OW23215   1.937   5.133   5.871
 7439SOL    HW123216   1.839   5.148   5.864
 7439SOL    HW223217   1.986   5.211   5.833
 7440SOL     OW23218   4.986   3.349   4.195
 7440SOL    HW123219   5.071   3.320   4.153
 7440SOL    HW223220   4.929   3.268   4.213
 7441SOL     OW23221   5.592   6.718   2.452
 7441SOL    HW123222   5.602   6.808   2.494
 7441SOL    HW223223   5.503   6.711   2.408
 7442SOL     OW23224   5.923   1.239   6.386
 7442SOL    HW123225   6.016   1.203   6.390
 7442SOL    HW223226   5.923   1.337   6.402
 7443SOL     OW23227   0.142   5.747   2.077
 7443SOL    HW123228   0.201   5.666   2.080
 7443SOL    HW223229   0.199   5.828   2.064
 7444SOL     OW23230   6.923   0.502   5.974
 7444SOL    HW123231   6.936   0.421   6.031
 7444SOL    HW223232   6.838   0.547   6.000
 7445SOL     OW23233   3.806   0.021   2.129
 7445SOL    HW123234   3.768   6.988   2.056
 7445SOL    HW223235   3.820   6.988   2.211
 7446SOL     OW23236   5.322   2.857   0.712
 7446SOL    HW123237   5.308   2.893   0.621
 7446SOL    HW223238   5.420   2.841   0.727
 7447SOL     OW23239   0.443   4.466   0.007
 7447SOL    HW123240   0.374   4.417   6.977
 7447SOL    HW223241   0.399   4.520   0.078
 7448SOL     OW23242   5.642   5.907   6.485
 7448SOL    HW123243   5.571   5.931   6.551
 7448SOL    HW223244   5.726   5.883   6.534
 7449SOL     OW23245   0.318   4.523   0.313
 7449SOL    HW123246   0.328   4.475   0.400
 7449SOL    HW223247   0.390   4.592   0.304
 7450SOL     OW23248   5.045   1.989   5.775
 7450SOL    HW123249   5.095   1.921   5.829
 7450SOL    HW223250   5.106   2.031   5.708
 7451SOL     OW23251   5.899   5.853   2.132
 7451SOL    HW123252   5.902   5.844   2.231
 7451SOL    HW223253   5.807   5.830   2.099
 7452SOL     OW23254   5.846   6.302   5.002
 7452SOL    HW123255   5.845   6.401   5.018
 7452SOL    HW223256   5.843   6.283   4.904
 7453SOL     OW23257   5.512   5.665   6.384
 7453SOL    HW123258   5.596   5.609   6.389
 7453SOL    HW223259   5.533   5.758   6.412
 7454SOL     OW23260   3.334   1.886   0.702
 7454SOL    HW123261   3.272   1.922   0.633
 7454SOL    HW223262   3.289   1.813   0.753
 7455SOL     OW23263   6.335   2.900   2.588
 7455SOL    HW123264   6.313   2.968   2.658
 7455SOL    HW223265   6.395   2.830   2.627
 7456SOL     OW23266   2.650   2.388   5.012
 7456SOL    HW123267   2.584   2.462   5.000
 7456SOL    HW223268   2.702   2.403   5.096
 7457SOL     OW23269   2.188   0.140   3.931
 7457SOL    HW123270   2.117   0.069   3.930
 7457SOL    HW223271   2.277   0.097   3.914
 7458SOL     OW23272   1.329   6.741   4.583
 7458SOL    HW123273   1.301   6.767   4.491
 7458SOL    HW223274   1.405   6.798   4.613
 7459SOL     OW23275   6.760   1.328   2.726
 7459SOL    HW123276   6.801   1.269   2.656
 7459SOL    HW223277   6.743   1.274   2.808
 7460SOL     OW23278   1.594   6.727   0.049
 7460SOL    HW123279   1.541   6.738   0.133
 7460SOL    HW223280   1.542   6.672   7.007
 7461SOL     OW23281   6.915   6.417   5.691
 7461SOL    HW123282   6.929   6.365   5.607
 7461SOL    HW223283   6.982   6.389   5.760
 7462SOL     OW23284   0.912   5.761   1.019
 7462SOL    HW123285   0.983   5.796   0.957
 7462SOL    HW223286   0.950   5.752   1.111
 7463SOL     OW23287   3.511   4.808   0.375
 7463SOL    HW123288   3.468   4.866   0.306
 7463SOL    HW223289   3.547   4.726   0.331
 7464SOL     OW23290   0.542   5.571   4.548
 7464SOL    HW123291   0.604   5.588   4.624
 7464SOL    HW223292   0.544   5.649   4.485
 7465SOL     OW23293   2.395   5.014   0.161
 7465SOL    HW123294   2.407   4.942   0.092
 7465SOL    HW223295   2.365   5.098   0.116
 7466SOL     OW23296   0.554   0.589   5.419
 7466SOL    HW123297   0.641   0.582   5.371
 7466SOL    HW223298   0.528   0.498   5.453
 7467SOL     OW23299   0.235   2.865   5.905
 7467SOL    HW123300   0.286   2.816   5.976
 7467SOL    HW223301   0.277   2.955   5.890
 7468SOL     OW23302   5.742   2.905   4.745
 7468SOL    HW123303   5.643   2.917   4.754
 7468SOL    HW223304   5.768   2.917   4.650
 7469SOL     OW23305   6.676   1.965   0.513
 7469SOL    HW123306   6.763   1.951   0.561
 7469SOL    HW223307   6.690   1.951   0.415
 7470SOL     OW23308   5.953   3.797   3.314
 7470SOL    HW123309   5.943   3.698   3.302
 7470SOL    HW223310   6.015   3.815   3.390
 7471SOL     OW23311   5.676   5.687   6.133
 7471SOL    HW123312   5.684   5.591   6.106
 7471SOL    HW223313   5.580   5.711   6.146
 7472SOL     OW23314   6.743   0.533   5.607
 7472SOL    HW123315   6.834   0.544   5.647
 7472SOL    HW223316   6.736   0.589   5.525
 7473SOL     OW23317   4.550   6.926   3.752
 7473SOL    HW123318   4.577   6.928   3.848
 7473SOL    HW223319   4.502   7.011   3.730
 7474SOL     OW23320   5.496   2.224   6.383
 7474SOL    HW123321   5.549   2.212   6.467
 7474SOL    HW223322   5.400   2.205   6.401
 7475SOL     OW23323   4.629   1.866   2.144
 7475SOL    HW123324   4.530   1.852   2.148
 7475SOL    HW223325   4.652   1.911   2.057
 7476SOL     OW23326   2.139   1.936   2.794
 7476SOL    HW123327   2.088   1.976   2.870
 7476SOL    HW223328   2.169   2.009   2.732
 7477SOL     OW23329   0.348   3.901   4.999
 7477SOL    HW123330   0.363   3.991   4.959
 7477SOL    HW223331   0.429   3.844   4.984
 7478SOL     OW23332   6.252   2.154   4.918
 7478SOL    HW123333   6.246   2.252   4.902
 7478SOL    HW223334   6.203   2.131   5.003
 7479SOL     OW23335   5.518   3.221   0.144
 7479SOL    HW123336   5.595   3.282   0.163
 7479SOL    HW223337   5.438   3.250   0.197
 7480SOL     OW23338   2.885   5.134   2.546
 7480SOL    HW123339   2.976   5.174   2.561
 7480SOL    HW223340   2.816   5.207   2.545
 7481SOL     OW23341   6.214   4.441   6.328
 7481SOL    HW123342   6.255   4.362   6.374
 7481SOL    HW223343   6.212   4.519   6.389
 7482SOL     OW23344   4.225   2.301   2.561
 7482SOL    HW123345   4.140   2.274   2.516
 7482SOL    HW223346   4.273   2.369   2.504
 7483SOL     OW23347   4.491   2.158   5.160
 7483SOL    HW123348   4.572   2.109   5.192
 7483SOL    HW223349   4.445   2.103   5.090
 7484SOL     OW23350   2.441   6.367   4.939
 7484SOL    HW123351   2.422   6.437   4.869
 7484SOL    HW223352   2.404   6.279   4.909
 7485SOL     OW23353   2.581   6.860   3.967
 7485SOL    HW123354   2.615   6.937   4.020
 7485SOL    HW223355   2.648   6.833   3.899
 7486SOL     OW23356   0.498   6.100   0.271
 7486SOL    HW123357   0.468   6.068   0.361
 7486SOL    HW223358   0.554   6.029   0.228
 7487SOL     OW23359   4.572   0.585   3.556
 7487SOL    HW123360   4.669   0.608   3.549
 7487SOL    HW223361   4.563   0.486   3.570
 7488SOL     OW23362   0.796   6.100   4.002
 7488SOL    HW123363   0.862   6.170   4.026
 7488SOL    HW223364   0.711   6.142   3.972
 7489SOL     OW23365   6.097   3.860   0.086
 7489SOL    HW123366   6.101   3.761   0.100
 7489SOL    HW223367   6.168   3.904   0.140
 7490SOL     OW23368   1.444   2.575   2.571
 7490SOL    HW123369   1.430   2.487   2.617
 7490SOL    HW223370   1.384   2.581   2.492
 7491SOL     OW23371   4.636   3.101   0.858
 7491SOL    HW123372   4.722   3.057   0.834
 7491SOL    HW223373   4.583   3.040   0.918
 7492SOL     OW23374   1.746   0.758   3.955
 7492SOL    HW123375   1.819   0.722   4.014
 7492SOL    HW223376   1.658   0.740   3.997
 7493SOL     OW23377   6.508   3.719   5.717
 7493SOL    HW123378   6.608   3.721   5.719
 7493SOL    HW223379   6.478   3.662   5.641
 7494SOL     OW23380   6.088   0.630   2.665
 7494SOL    HW123381   6.084   0.671   2.574
 7494SOL    HW223382   5.997   0.601   2.693
 7495SOL     OW23383   2.328   2.832   4.777
 7495SOL    HW123384   2.356   2.887   4.856
 7495SOL    HW223385   2.230   2.812   4.783
 7496SOL     OW23386   6.198   3.687   3.170
 7496SOL    HW123387   6.225   3.659   3.078
 7496SOL    HW223388   6.132   3.621   3.207
 7497SOL     OW23389   1.198   6.484   0.581
 7497SOL    HW123390   1.213   6.387   0.560
 7497SOL    HW223391   1.279   6.537   0.557
 7498SOL     OW23392   3.660   0.520   3.124
 7498SOL    HW123393   3.669   0.438   3.066
 7498SOL    HW223394   3.580   0.572   3.094
 7499SOL     OW23395   3.739   2.092   4.033
 7499SOL    HW123396   3.786   2.178   4.016
 7499SOL    HW223397   3.730   2.040   3.948
 7500SOL     OW23398   4.247   6.863   3.660
 7500SOL    HW123399   4.224   6.772   3.624
 7500SOL    HW223400   4.309   6.910   3.598
 7501SOL     OW23401   5.531   2.745   4.102
 7501SOL    HW123402   5.496   2.766   4.011
 7501SOL    HW223403   5.627   2.773   4.108
 7502SOL     OW23404   3.477   0.374   4.558
 7502SOL    HW123405   3.559   0.349   4.506
 7502SOL    HW223406   3.492   0.462   4.604
 7503SOL     OW23407   1.594   6.086   0.977
 7503SOL    HW123408   1.645   6.061   1.059
 7503SOL    HW223409   1.541   6.169   0.995
 7504SOL     OW23410   0.179   6.071   2.604
 7504SOL    HW123411   0.269   6.093   2.568
 7504SOL    HW223412   0.150   5.981   2.570
 7505SOL     OW23413   0.119   0.939   5.063
 7505SOL    HW123414   0.033   0.969   5.105
 7505SOL    HW223415   0.149   0.854   5.106
 7506SOL     OW23416   3.193   1.817   3.284
 7506SOL    HW123417   3.096   1.810   3.307
 7506SOL    HW223418   3.228   1.906   3.313
 7507SOL     OW23419   6.486   3.339   4.542
 7507SOL    HW123420   6.560   3.310   4.603
 7507SOL    HW223421   6.418   3.266   4.534
 7508SOL     OW23422   1.567   5.974   0.110
 7508SOL    HW123423   1.656   6.020   0.102
 7508SOL    HW223424   1.516   6.014   0.186
 7509SOL     OW23425   5.102   4.125   6.898
 7509SOL    HW123426   5.167   4.078   6.958
 7509SOL    HW223427   5.152   4.167   6.823
 7510SOL     OW23428   4.050   3.323   4.094
 7510SOL    HW123429   4.069   3.252   4.025
 7510SOL    HW223430   3.952   3.341   4.096
 7511SOL     OW23431   3.480   5.633   2.689
 7511SOL    HW123432   3.552   5.588   2.740
 7511SOL    HW223433   3.462   5.583   2.604
 7512SOL     OW23434   3.013   0.510   0.042
 7512SOL    HW123435   2.935   0.447   0.040
 7512SOL    HW223436   2.986   0.595   0.087
 7513SOL     OW23437   2.148   2.625   3.679
 7513SOL    HW123438   2.060   2.663   3.652
 7513SOL    HW223439   2.137   2.566   3.759
 7514SOL     OW23440   2.242   4.453   3.276
 7514SOL    HW123441   2.332   4.478   3.241
 7514SOL    HW223442   2.222   4.506   3.358
 7515SOL     OW23443   0.122   4.079   5.221
 7515SOL    HW123444   0.217   4.070   5.191
 7515SOL    HW223445   0.120   4.120   5.312
 7516SOL     OW23446   1.096   5.296   5.641
 7516SOL    HW123447   1.021   5.299   5.576
 7516SOL    HW223448   1.152   5.215   5.624
 7517SOL     OW23449   1.228   2.814   0.039
 7517SOL    HW123450   1.320   2.784   0.065
 7517SOL    HW223451   1.171   2.734   0.021
 7518SOL     OW23452   4.826   3.123   4.199
 7518SOL    HW123453   4.822   3.127   4.299
 7518SOL    HW223454   4.845   3.030   4.170
 7519SOL     OW23455   4.716   0.044   4.636
 7519SOL    HW123456   4.700   6.985   4.691
 7519SOL    HW223457   4.648   0.114   4.660
 7520SOL     OW23458   1.756   1.477   2.035
 7520SOL    HW123459   1.779   1.401   2.096
 7520SOL    HW223460   1.837   1.535   2.023
 7521SOL     OW23461   5.454   1.598   4.560
 7521SOL    HW123462   5.431   1.674   4.620
 7521SOL    HW223463   5.473   1.632   4.468
 7522SOL     OW23464   1.243   6.679   4.081
 7522SOL    HW123465   1.152   6.647   4.058
 7522SOL    HW223466   1.292   6.705   3.998
 7523SOL     OW23467   5.360   1.076   6.226
 7523SOL    HW123468   5.305   1.005   6.182
 7523SOL    HW223469   5.300   1.151   6.254
 7524SOL     OW23470   7.012   2.878   4.126
 7524SOL    HW123471   0.061   2.929   4.079
 7524SOL    HW223472   7.009   2.906   4.222
 7525SOL     OW23473   4.598   6.530   6.647
 7525SOL    HW123474   4.632   6.437   6.660
 7525SOL    HW223475   4.499   6.532   6.665
 7526SOL     OW23476   2.027   3.400   1.798
 7526SOL    HW123477   2.033   3.333   1.724
 7526SOL    HW223478   2.116   3.411   1.841
 7527SOL     OW23479   4.141   5.795   3.727
 7527SOL    HW123480   4.218   5.837   3.679
 7527SOL    HW223481   4.144   5.821   3.824
 7528SOL     OW23482   5.651   2.280   0.019
 7528SOL    HW123483   5.636   2.190   7.001
 7528SOL    HW223484   5.603   2.286   0.106
 7529SOL     OW23485   5.989   1.729   3.617
 7529SOL    HW123486   5.983   1.629   3.610
 7529SOL    HW223487   5.918   1.770   3.559
 7530SOL     OW23488   0.083   1.412   2.405
 7530SOL    HW123489   0.077   1.338   2.338
 7530SOL    HW223490   0.117   1.375   2.492
 7531SOL     OW23491   4.612   2.569   3.725
 7531SOL    HW123492   4.576   2.565   3.632
 7531SOL    HW223493   4.597   2.481   3.770
 7532SOL     OW23494   5.162   6.024   6.591
 7532SOL    HW123495   5.258   6.033   6.618
 7532SOL    HW223496   5.155   6.024   6.491
 7533SOL     OW23497   4.416   3.136   1.688
 7533SOL    HW123498   4.459   3.090   1.766
 7533SOL    HW223499   4.483   3.145   1.614
 7534SOL     OW23500   5.257   6.608   4.624
 7534SOL    HW123501   5.309   6.530   4.588
 7534SOL    HW223502   5.253   6.601   4.724
 7535SOL     OW23503   1.007   6.932   4.384
 7535SOL    HW123504   0.945   6.876   4.439
 7535SOL    HW223505   0.965   6.950   4.295
 7536SOL     OW23506   5.589   5.932   4.307
 7536SOL    HW123507   5.554   6.023   4.328
 7536SOL    HW223508   5.529   5.863   4.347
 7537SOL     OW23509   2.527   5.633   2.139
 7537SOL    HW123510   2.494   5.539   2.137
 7537SOL    HW223511   2.472   5.687   2.202
 7538SOL     OW23512   0.881   3.264   1.682
 7538SOL    HW123513   0.971   3.303   1.665
 7538SOL    HW223514   0.835   3.246   1.595
 7539SOL     OW23515   1.539   5.161   3.693
 7539SOL    HW123516   1.587   5.078   3.721
 7539SOL    HW223517   1.553   5.232   3.762
 7540SOL     OW23518   4.991   5.666   4.348
 7540SOL    HW123519   5.068   5.720   4.383
 7540SOL    HW223520   4.924   5.728   4.306
 7541SOL     OW23521   0.835   3.827   6.638
 7541SOL    HW123522   0.889   3.900   6.597
 7541SOL    HW223523   0.783   3.863   6.714
 7542SOL     OW23524   6.164   6.244   5.712
 7542SOL    HW123525   6.156   6.260   5.811
 7542SOL    HW223526   6.164   6.146   5.694
 7543SOL     OW23527   2.633   0.571   5.375
 7543SOL    HW123528   2.730   0.556   5.391
 7543SOL    HW223529   2.620   0.629   5.295
 7544SOL     OW23530   6.918   2.612   3.892
 7544SOL    HW123531   6.837   2.593   3.948
 7544SOL    HW223532   6.998   2.623   3.951
 7545SOL     OW23533   0.580   5.865   6.702
 7545SOL    HW123534   0.633   5.950   6.698
 7545SOL    HW223535   0.539   5.847   6.612
 7546SOL     OW23536   3.462   2.747   1.894
 7546SOL    HW123537   3.389   2.692   1.853
 7546SOL    HW223538   3.532   2.766   1.825
 7547SOL     OW23539   4.493   0.390   1.783
 7547SOL    HW123540   4.563   0.360   1.718
 7547SOL    HW223541   4.439   0.464   1.741
 7548SOL     OW23542   4.636   2.204   6.507
 7548SOL    HW123543   4.666   2.182   6.415
 7548SOL    HW223544   4.536   2.198   6.512
 7549SOL     OW23545   4.160   2.657   5.836
 7549SOL    HW123546   4.170   2.599   5.916
 7549SOL    HW223547   4.241   2.647   5.777
 7550SOL     OW23548   1.564   4.374   4.218
 7550SOL    HW123549   1.657   4.407   4.200
 7550SOL    HW223550   1.563   4.274   4.210
 7551SOL     OW23551   4.868   2.172   5.455
 7551SOL    HW123552   4.770   2.190   5.466
 7551SOL    HW223553   4.917   2.259   5.456
 7552SOL     OW23554   2.452   5.998   4.079
 7552SOL    HW123555   2.489   6.077   4.128
 7552SOL    HW223556   2.453   5.918   4.137
 7553SOL     OW23557   5.672   5.897   5.857
 7553SOL    HW123558   5.635   5.873   5.947
 7553SOL    HW223559   5.740   5.829   5.830
 7554SOL     OW23560   5.395   1.259   0.293
 7554SOL    HW123561   5.426   1.343   0.337
 7554SOL    HW223562   5.463   1.187   0.306
 7555SOL     OW23563   2.880   6.690   6.649
 7555SOL    HW123564   2.880   6.604   6.700
 7555SOL    HW223565   2.833   6.676   6.562
 7556SOL     OW23566   1.206   1.288   0.506
 7556SOL    HW123567   1.258   1.349   0.446
 7556SOL    HW223568   1.200   1.328   0.597
 7557SOL     OW23569   5.085   0.151   0.034
 7557SOL    HW123570   5.062   0.243   0.000
 7557SOL    HW223571   5.057   0.143   0.129
 7558SOL     OW23572   1.061   2.878   4.262
 7558SOL    HW123573   1.110   2.944   4.319
 7558SOL    HW223574   0.964   2.900   4.263
 7559SOL     OW23575   3.347   1.993   4.881
 7559SOL    HW123576   3.323   2.029   4.971
 7559SOL    HW223577   3.445   1.976   4.876
 7560SOL     OW23578   6.845   0.166   6.424
 7560SOL    HW123579   6.812   0.225   6.498
 7560SOL    HW223580   6.772   0.106   6.393
 7561SOL     OW23581   5.187   2.102   5.564
 7561SOL    HW123582   5.139   2.177   5.518
 7561SOL    HW223583   5.280   2.095   5.529
 7562SOL     OW23584   1.007   5.345   4.904
 7562SOL    HW123585   0.941   5.376   4.836
 7562SOL    HW223586   1.097   5.384   4.884
 7563SOL     OW23587   2.906   6.612   2.425
 7563SOL    HW123588   2.854   6.564   2.354
 7563SOL    HW223589   2.848   6.680   2.469
 7564SOL     OW23590   4.364   0.542   5.047
 7564SOL    HW123591   4.347   0.480   4.970
 7564SOL    HW223592   4.287   0.604   5.058
 7565SOL     OW23593   5.496   3.618   6.206
 7565SOL    HW123594   5.477   3.711   6.238
 7565SOL    HW223595   5.514   3.559   6.284
 7566SOL     OW23596   4.933   5.007   2.117
 7566SOL    HW123597   4.899   4.963   2.200
 7566SOL    HW223598   4.895   4.961   2.037
 7567SOL     OW23599   0.412   1.431   4.137
 7567SOL    HW123600   0.507   1.451   4.114
 7567SOL    HW223601   0.408   1.380   4.223
 7568SOL     OW23602   5.809   5.091   1.912
 7568SOL    HW123603   5.746   5.013   1.903
 7568SOL    HW223604   5.784   5.162   1.847
 7569SOL     OW23605   3.682   4.879   6.618
 7569SOL    HW123606   3.661   4.803   6.557
 7569SOL    HW223607   3.700   4.962   6.564
 7570SOL     OW23608   6.999   3.078   3.002
 7570SOL    HW123609   6.920   3.074   2.940
 7570SOL    HW223610   0.046   3.137   2.962
 7571SOL     OW23611   5.763   3.323   2.824
 7571SOL    HW123612   5.771   3.364   2.733
 7571SOL    HW223613   5.830   3.363   2.885
 7572SOL     OW23614   4.855   6.460   2.760
 7572SOL    HW123615   4.875   6.518   2.839
 7572SOL    HW223616   4.771   6.492   2.716
 7573SOL     OW23617   5.953   0.193   5.303
 7573SOL    HW123618   5.938   0.250   5.384
 7573SOL    HW223619   6.047   0.161   5.302
 7574SOL     OW23620   6.449   0.605   3.973
 7574SOL    HW123621   6.376   0.538   3.959
 7574SOL    HW223622   6.514   0.600   3.897
 7575SOL     OW23623   6.153   6.770   0.823
 7575SOL    HW123624   6.166   6.692   0.883
 7575SOL    HW223625   6.201   6.755   0.737
 7576SOL     OW23626   5.622   2.881   0.723
 7576SOL    HW123627   5.679   2.940   0.665
 7576SOL    HW223628   5.626   2.914   0.818
 7577SOL     OW23629   0.412   6.973   0.632
 7577SOL    HW123630   0.343   6.916   0.586
 7577SOL    HW223631   0.377   7.003   0.721
 7578SOL     OW23632   0.488   5.009   3.127
 7578SOL    HW123633   0.475   5.105   3.154
 7578SOL    HW223634   0.569   4.972   3.174
 7579SOL     OW23635   6.688   1.826   1.666
 7579SOL    HW123636   6.628   1.767   1.721
 7579SOL    HW223637   6.723   1.901   1.723
 7580SOL     OW23638   1.753   4.419   3.315
 7580SOL    HW123639   1.790   4.491   3.257
 7580SOL    HW223640   1.654   4.411   3.300
 7581SOL     OW23641   0.591   1.290   1.444
 7581SOL    HW123642   0.627   1.225   1.511
 7581SOL    HW223643   0.666   1.345   1.407
 7582SOL     OW23644   4.444   1.656   4.241
 7582SOL    HW123645   4.520   1.627   4.184
 7582SOL    HW223646   4.411   1.579   4.296
 7583SOL     OW23647   5.065   3.432   3.641
 7583SOL    HW123648   5.091   3.458   3.734
 7583SOL    HW223649   5.012   3.347   3.645
 7584SOL     OW23650   1.446   0.954   2.607
 7584SOL    HW123651   1.378   1.022   2.578
 7584SOL    HW223652   1.518   0.948   2.538
 7585SOL     OW23653   1.058   2.394   6.212
 7585SOL    HW123654   1.028   2.444   6.131
 7585SOL    HW223655   1.148   2.353   6.194
 7586SOL     OW23656   1.521   0.897   2.164
 7586SOL    HW123657   1.565   0.937   2.084
 7586SOL    HW223658   1.488   0.969   2.224
 7587SOL     OW23659   3.413   0.941   0.655
 7587SOL    HW123660   3.374   0.956   0.565
 7587SOL    HW223661   3.407   0.844   0.679
 7588SOL     OW23662   1.151   3.262   4.580
 7588SOL    HW123663   1.141   3.201   4.659
 7588SOL    HW223664   1.170   3.355   4.612
 7589SOL     OW23665   0.783   0.655   2.885
 7589SOL    HW123666   0.825   0.687   2.970
 7589SOL    HW223667   0.731   0.572   2.903
 7590SOL     OW23668   0.468   1.455   0.095
 7590SOL    HW123669   0.542   1.520   0.075
 7590SOL    HW223670   0.424   1.481   0.181
 7591SOL     OW23671   4.174   3.067   6.669
 7591SOL    HW123672   4.158   2.984   6.721
 7591SOL    HW223673   4.127   3.061   6.581
 7592SOL     OW23674   6.308   4.991   4.889
 7592SOL    HW123675   6.308   4.972   4.790
 7592SOL    HW223676   6.216   5.018   4.917
 7593SOL     OW23677   6.917   1.805   5.437
 7593SOL    HW123678   6.824   1.844   5.436
 7593SOL    HW223679   6.916   1.716   5.483
 7594SOL     OW23680   7.019   4.247   0.788
 7594SOL    HW123681   0.060   4.172   0.803
 7594SOL    HW223682   0.004   4.281   0.695
 7595SOL     OW23683   6.106   2.902   5.966
 7595SOL    HW123684   6.047   2.886   6.045
 7595SOL    HW223685   6.054   2.947   5.894
 7596SOL     OW23686   2.906   0.253   5.184
 7596SOL    HW123687   2.970   0.309   5.131
 7596SOL    HW223688   2.936   0.248   5.279
 7597SOL     OW23689   2.068   5.883   2.676
 7597SOL    HW123690   2.052   5.936   2.759
 7597SOL    HW223691   2.043   5.937   2.596
 7598SOL     OW23692   6.068   0.729   2.401
 7598SOL    HW123693   6.003   0.664   2.363
 7598SOL    HW223694   6.031   0.822   2.396
 7599SOL     OW23695   4.153   3.232   0.887
 7599SOL    HW123696   4.207   3.200   0.810
 7599SOL    HW223697   4.057   3.239   0.861
 7600SOL     OW23698   1.558   1.043   3.668
 7600SOL    HW123699   1.522   1.035   3.761
 7600SOL    HW223700   1.551   1.137   3.637
 7601SOL     OW23701   4.093   5.461   2.153
 7601SOL    HW123702   4.165   5.455   2.222
 7601SOL    HW223703   4.011   5.414   2.185
 7602SOL     OW23704   0.490   2.129   0.496
 7602SOL    HW123705   0.440   2.067   0.436
 7602SOL    HW223706   0.467   2.110   0.591
 7603SOL     OW23707   2.556   6.994   5.963
 7603SOL    HW123708   2.585   6.898   5.968
 7603SOL    HW223709   2.485   7.003   5.894
 7604SOL     OW23710   1.466   2.142   5.121
 7604SOL    HW123711   1.464   2.224   5.063
 7604SOL    HW223712   1.428   2.065   5.071
 7605SOL     OW23713   2.057   0.296   6.920
 7605SOL    HW123714   1.971   0.323   6.877
 7605SOL    HW223715   2.134   0.319   6.860
 7606SOL     OW23716   6.209   1.479   4.279
 7606SOL    HW123717   6.168   1.531   4.204
 7606SOL    HW223718   6.206   1.533   4.363
 7607SOL     OW23719   2.924   6.221   0.007
 7607SOL    HW123720   2.886   6.134   7.000
 7607SOL    HW223721   2.980   6.206   0.089
 7608SOL     OW23722   5.259   2.513   6.245
 7608SOL    HW123723   5.285   2.594   6.297
 7608SOL    HW223724   5.326   2.496   6.173
 7609SOL     OW23725   0.374   3.045   3.863
 7609SOL    HW123726   0.447   3.113   3.866
 7609SOL    HW223727   0.413   2.953   3.867
 7610SOL     OW23728   3.320   5.242   6.390
 7610SOL    HW123729   3.336   5.143   6.389
 7610SOL    HW223730   3.392   5.288   6.339
 7611SOL     OW23731   4.863   2.913   1.077
 7611SOL    HW123732   4.935   2.974   1.108
 7611SOL    HW223733   4.794   2.903   1.149
 7612SOL     OW23734   3.476   2.117   3.122
 7612SOL    HW123735   3.550   2.181   3.138
 7612SOL    HW223736   3.514   2.028   3.096
 7613SOL     OW23737   1.582   1.930   2.210
 7613SOL    HW123738   1.619   1.846   2.250
 7613SOL    HW223739   1.643   2.007   2.232
 7614SOL     OW23740   4.868   2.980   0.796
 7614SOL    HW123741   4.854   2.881   0.802
 7614SOL    HW223742   4.963   3.001   0.816
 7615SOL     OW23743   5.532   3.335   5.145
 7615SOL    HW123744   5.461   3.321   5.214
 7615SOL    HW223745   5.589   3.253   5.138
 7616SOL     OW23746   5.909   6.754   3.557
 7616SOL    HW123747   5.927   6.683   3.488
 7616SOL    HW223748   5.870   6.834   3.512
 7617SOL     OW23749   5.003   4.949   3.021
 7617SOL    HW123750   5.075   4.951   3.091
 7617SOL    HW223751   4.916   4.973   3.063
 7618SOL     OW23752   2.609   2.133   0.286
 7618SOL    HW123753   2.608   2.087   0.198
 7618SOL    HW223754   2.594   2.231   0.273
 7619SOL     OW23755   0.779   2.237   4.565
 7619SOL    HW123756   0.840   2.313   4.543
 7619SOL    HW223757   0.752   2.191   4.480
 7620SOL     OW23758   3.376   4.575   0.698
 7620SOL    HW123759   3.469   4.548   0.673
 7620SOL    HW223760   3.360   4.671   0.674
 7621SOL     OW23761   0.207   5.505   0.867
 7621SOL    HW123762   0.275   5.432   0.864
 7621SOL    HW223763   0.245   5.588   0.827
 7622SOL     OW23764   4.351   4.427   0.560
 7622SOL    HW123765   4.410   4.493   0.606
 7622SOL    HW223766   4.361   4.437   0.461
 7623SOL     OW23767   4.151   4.742   1.457
 7623SOL    HW123768   4.125   4.671   1.392
 7623SOL    HW223769   4.071   4.797   1.480
 7624SOL     OW23770   0.227   2.199   1.885
 7624SOL    HW123771   0.179   2.246   1.959
 7624SOL    HW223772   0.324   2.223   1.887
 7625SOL     OW23773   4.939   1.810   0.250
 7625SOL    HW123774   4.886   1.883   0.293
 7625SOL    HW223775   5.019   1.789   0.307
 7626SOL     OW23776   6.124   0.598   5.497
 7626SOL    HW123777   6.161   0.585   5.405
 7626SOL    HW223778   6.037   0.648   5.491
 7627SOL     OW23779   3.466   2.101   0.063
 7627SOL    HW123780   3.390   2.073   0.121
 7627SOL    HW223781   3.546   2.119   0.120
 7628SOL     OW23782   3.428   2.305   1.066
 7628SOL    HW123783   3.368   2.373   1.025
 7628SOL    HW223784   3.372   2.231   1.105
 7629SOL     OW23785   5.535   3.375   3.436
 7629SOL    HW123786   5.597   3.448   3.467
 7629SOL    HW223787   5.588   3.293   3.414
 7630SOL     OW23788   1.497   0.550   5.236
 7630SOL    HW123789   1.545   0.473   5.193
 7630SOL    HW223790   1.556   0.631   5.233
 7631SOL     OW23791   2.272   6.832   4.489
 7631SOL    HW123792   2.277   6.921   4.535
 7631SOL    HW223793   2.291   6.844   4.392
 7632SOL     OW23794   4.733   5.831   1.034
 7632SOL    HW123795   4.800   5.856   0.964
 7632SOL    HW223796   4.673   5.759   0.998
 7633SOL     OW23797   5.399   0.320   1.088
 7633SOL    HW123798   5.492   0.287   1.074
 7633SOL    HW223799   5.360   0.351   1.001
 7634SOL     OW23800   1.663   1.939   0.965
 7634SOL    HW123801   1.601   1.941   0.886
 7634SOL    HW223802   1.652   2.024   1.017
 7635SOL     OW23803   2.667   4.912   5.011
 7635SOL    HW123804   2.569   4.890   5.018
 7635SOL    HW223805   2.711   4.846   4.949
 7636SOL     OW23806   0.898   4.996   4.489
 7636SOL    HW123807   0.991   5.033   4.497
 7636SOL    HW223808   0.832   5.064   4.520
 7637SOL     OW23809   0.493   6.583   4.185
 7637SOL    HW123810   0.422   6.521   4.154
 7637SOL    HW223811   0.582   6.537   4.182
 7638SOL     OW23812   0.765   5.405   1.761
 7638SOL    HW123813   0.755   5.505   1.770
 7638SOL    HW223814   0.732   5.361   1.844
 7639SOL     OW23815   0.723   1.299   0.168
 7639SOL    HW123816   0.694   1.326   0.260
 7639SOL    HW223817   0.654   1.327   0.102
 7640SOL     OW23818   3.085   1.197   6.730
 7640SOL    HW123819   3.012   1.219   6.666
 7640SOL    HW223820   3.129   1.281   6.761
 7641SOL     OW23821   6.519   4.137   2.876
 7641SOL    HW123822   6.585   4.144   2.802
 7641SOL    HW223823   6.491   4.042   2.888
 7642SOL     OW23824   5.522   1.453   3.363
 7642SOL    HW123825   5.558   1.431   3.272
 7642SOL    HW223826   5.439   1.508   3.353
 7643SOL     OW23827   5.255   2.794   2.858
 7643SOL    HW123828   5.273   2.732   2.934
 7643SOL    HW223829   5.342   2.825   2.819
 7644SOL     OW23830   4.881   3.437   1.734
 7644SOL    HW123831   4.919   3.444   1.826
 7644SOL    HW223832   4.840   3.347   1.722
 7645SOL     OW23833   3.360   4.014   5.919
 7645SOL    HW123834   3.404   3.927   5.899
 7645SOL    HW223835   3.428   4.087   5.922
 7646SOL     OW23836   1.299   3.021   2.717
 7646SOL    HW123837   1.371   3.033   2.649
 7646SOL    HW223838   1.273   2.924   2.722
 7647SOL     OW23839   6.767   2.866   5.013
 7647SOL    HW123840   6.752   2.951   5.063
 7647SOL    HW223841   6.733   2.875   4.920
 7648SOL     OW23842   2.053   2.154   3.225
 7648SOL    HW123843   1.999   2.226   3.180
 7648SOL    HW223844   2.079   2.185   3.317
 7649SOL     OW23845   6.656   0.993   4.585
 7649SOL    HW123846   6.638   1.089   4.564
 7649SOL    HW223847   6.732   0.960   4.529
 7650SOL     OW23848   4.079   1.130   1.335
 7650SOL    HW123849   4.022   1.112   1.415
 7650SOL    HW223850   4.140   1.207   1.354
 7651SOL     OW23851   2.392   5.020   4.428
 7651SOL    HW123852   2.387   5.058   4.335
 7651SOL    HW223853   2.480   5.045   4.469
 7652SOL     OW23854   6.133   1.684   4.466
 7652SOL    HW123855   6.094   1.598   4.501
 7652SOL    HW223856   6.139   1.751   4.540
 7653SOL     OW23857   0.640   1.710   6.653
 7653SOL    HW123858   0.629   1.808   6.632
 7653SOL    HW223859   0.663   1.698   6.749
 7654SOL     OW23860   6.021   3.562   5.109
 7654SOL    HW123861   6.031   3.655   5.076
 7654SOL    HW223862   5.973   3.562   5.196
 7655SOL     OW23863   3.305   0.471   3.556
 7655SOL    HW123864   3.324   0.569   3.549
 7655SOL    HW223865   3.326   0.441   3.649
 7656SOL     OW23866   6.808   3.995   6.322
 7656SOL    HW123867   6.887   4.021   6.377
 7656SOL    HW223868   6.805   3.896   6.314
 7657SOL     OW23869   1.430   4.251   4.846
 7657SOL    HW123870   1.484   4.218   4.923
 7657SOL    HW223871   1.402   4.174   4.789
 7658SOL     OW23872   2.716   0.595   0.649
 7658SOL    HW123873   2.725   0.671   0.585
 7658SOL    HW223874   2.627   0.550   0.635
 7659SOL     OW23875   4.458   4.201   5.315
 7659SOL    HW123876   4.505   4.254   5.386
 7659SOL    HW223877   4.505   4.213   5.228
 7660SOL     OW23878   6.829   5.026   4.653
 7660SOL    HW123879   6.804   5.104   4.596
 7660SOL    HW223880   6.894   5.055   4.723
 7661SOL     OW23881   4.666   1.686   6.178
 7661SOL    HW123882   4.705   1.767   6.134
 7661SOL    HW223883   4.707   1.604   6.139
 7662SOL     OW23884   1.418   1.885   2.004
 7662SOL    HW123885   1.467   1.908   2.088
 7662SOL    HW223886   1.408   1.967   1.948
 7663SOL     OW23887   5.841   5.632   5.751
 7663SOL    HW123888   5.812   5.551   5.702
 7663SOL    HW223889   5.938   5.649   5.734
 7664SOL     OW23890   3.993   1.167   2.966
 7664SOL    HW123891   3.977   1.075   2.930
 7664SOL    HW223892   3.909   1.202   3.006
 7665SOL     OW23893   4.505   2.381   3.881
 7665SOL    HW123894   4.410   2.377   3.849
 7665SOL    HW223895   4.541   2.289   3.891
 7666SOL     OW23896   5.831   5.672   3.751
 7666SOL    HW123897   5.745   5.665   3.801
 7666SOL    HW223898   5.906   5.684   3.816
 7667SOL     OW23899   5.003   6.354   2.513
 7667SOL    HW123900   4.959   6.393   2.594
 7667SOL    HW223901   4.933   6.323   2.449
 7668SOL     OW23902   2.431   5.292   0.881
 7668SOL    HW123903   2.494   5.220   0.850
 7668SOL    HW223904   2.388   5.265   0.967
 7669SOL     OW23905   3.470   6.647   6.344
 7669SOL    HW123906   3.484   6.663   6.246
 7669SOL    HW223907   3.394   6.582   6.356
 7670SOL     OW23908   0.455   6.315   0.058
 7670SOL    HW123909   0.508   6.256   0.119
 7670SOL    HW223910   0.358   6.301   0.073
 7671SOL     OW23911   5.291   0.300   2.123
 7671SOL    HW123912   5.374   0.313   2.068
 7671SOL    HW223913   5.263   0.387   2.163
 7672SOL     OW23914   5.760   4.577   2.982
 7672SOL    HW123915   5.767   4.644   3.056
 7672SOL    HW223916   5.816   4.607   2.905
 7673SOL     OW23917   1.288   5.938   3.557
 7673SOL    HW123918   1.325   5.862   3.610
 7673SOL    HW223919   1.322   6.025   3.594
 7674SOL     OW23920   3.751   0.384   4.427
 7674SOL    HW123921   3.782   0.290   4.418
 7674SOL    HW223922   3.830   0.444   4.437
 7675SOL     OW23923   3.660   6.574   3.024
 7675SOL    HW123924   3.626   6.488   2.987
 7675SOL    HW223925   3.665   6.568   3.124
 7676SOL     OW23926   3.045   3.146   5.799
 7676SOL    HW123927   3.119   3.078   5.799
 7676SOL    HW223928   3.080   3.232   5.763
 7677SOL     OW23929   6.413   4.777   1.408
 7677SOL    HW123930   6.373   4.867   1.428
 7677SOL    HW223931   6.455   4.741   1.491
 7678SOL     OW23932   1.595   1.891   5.542
 7678SOL    HW123933   1.529   1.956   5.503
 7678SOL    HW223934   1.546   1.812   5.579
 7679SOL     OW23935   2.228   5.187   4.999
 7679SOL    HW123936   2.203   5.094   5.028
 7679SOL    HW223937   2.314   5.184   4.949
 7680SOL     OW23938   1.824   0.593   5.168
 7680SOL    HW123939   1.785   0.673   5.214
 7680SOL    HW223940   1.916   0.576   5.202
 7681SOL     OW23941   3.166   2.871   6.075
 7681SOL    HW123942   3.144   2.789   6.023
 7681SOL    HW223943   3.246   2.854   6.134
 7682SOL     OW23944   2.971   1.725   2.768
 7682SOL    HW123945   3.053   1.779   2.747
 7682SOL    HW223946   2.930   1.758   2.853
 7683SOL     OW23947   0.039   1.217   4.519
 7683SOL    HW123948   7.015   1.173   4.595
 7683SOL    HW223949   7.003   1.285   4.477
 7684SOL     OW23950   4.157   2.629   1.696
 7684SOL    HW123951   4.098   2.549   1.708
 7684SOL    HW223952   4.101   2.712   1.693
 7685SOL     OW23953   3.497   0.776   0.287
 7685SOL    HW123954   3.422   0.825   0.332
 7685SOL    HW223955   3.567   0.841   0.258
 7686SOL     OW23956   4.568   0.414   4.580
 7686SOL    HW123957   4.630   0.492   4.594
 7686SOL    HW223958   4.562   0.394   4.482
 7687SOL     OW23959   5.541   5.205   4.467
 7687SOL    HW123960   5.581   5.126   4.513
 7687SOL    HW223961   5.495   5.176   4.383
 7688SOL     OW23962   0.671   5.115   6.308
 7688SOL    HW123963   0.573   5.121   6.325
 7688SOL    HW223964   0.718   5.190   6.354
 7689SOL     OW23965   4.318   0.546   1.614
 7689SOL    HW123966   4.295   0.504   1.526
 7689SOL    HW223967   4.318   0.645   1.604
 7690SOL     OW23968   6.078   5.269   0.342
 7690SOL    HW123969   5.985   5.275   0.304
 7690SOL    HW223970   6.103   5.357   0.382
 7691SOL     OW23971   4.200   4.681   3.276
 7691SOL    HW123972   4.273   4.669   3.344
 7691SOL    HW223973   4.231   4.646   3.187
 7692SOL     OW23974   1.310   6.770   2.185
 7692SOL    HW123975   1.229   6.739   2.136
 7692SOL    HW223976   1.286   6.849   2.242
 7693SOL     OW23977   2.582   0.968   0.837
 7693SOL    HW123978   2.611   0.994   0.745
 7693SOL    HW223979   2.659   0.928   0.887
 7694SOL     OW23980   5.874   2.404   4.607
 7694SOL    HW123981   5.967   2.373   4.628
 7694SOL    HW223982   5.867   2.426   4.509
 7695SOL     OW23983   6.510   0.347   3.061
 7695SOL    HW123984   6.492   0.404   2.981
 7695SOL    HW223985   6.474   0.393   3.143
 7696SOL     OW23986   0.502   2.264   6.254
 7696SOL    HW123987   0.536   2.278   6.347
 7696SOL    HW223988   0.484   2.352   6.211
 7697SOL     OW23989   3.693   6.906   3.008
 7697SOL    HW123990   3.743   6.919   2.922
 7697SOL    HW223991   3.754   6.867   3.076
 7698SOL     OW23992   6.143   2.203   6.706
 7698SOL    HW123993   6.223   2.154   6.671
 7698SOL    HW223994   6.159   2.229   6.801
 7699SOL     OW23995   3.132   5.502   0.145
 7699SOL    HW123996   3.171   5.547   0.226
 7699SOL    HW223997   3.160   5.553   0.063
 7700SOL     OW23998   4.619   5.997   2.747
 7700SOL    HW123999   4.605   6.080   2.801
 7700SOL    HW224000   4.612   5.917   2.807
 7701SOL     OW24001   0.338   2.740   6.136
 7701SOL    HW124002   0.389   2.808   6.189
 7701SOL    HW224003   0.245   2.734   6.171
 7702SOL     OW24004   4.749   6.888   5.477
 7702SOL    HW124005   4.771   6.880   5.574
 7702SOL    HW224006   4.651   6.902   5.465
 7703SOL     OW24007   6.601   0.173   4.502
 7703SOL    HW124008   6.580   0.110   4.428
 7703SOL    HW224009   6.553   0.260   4.487
 7704SOL     OW24010   6.390   1.415   4.029
 7704SOL    HW124011   6.407   1.352   3.954
 7704SOL    HW224012   6.300   1.458   4.017
 7705SOL     OW24013   2.223   4.773   0.526
 7705SOL    HW124014   2.275   4.711   0.585
 7705SOL    HW224015   2.135   4.793   0.568
 7706SOL     OW24016   3.793   2.925   2.795
 7706SOL    HW124017   3.856   2.939   2.719
 7706SOL    HW224018   3.844   2.921   2.881
 7707SOL     OW24019   6.603   5.853   0.431
 7707SOL    HW124020   6.541   5.899   0.367
 7707SOL    HW224021   6.556   5.774   0.472
 7708SOL     OW24022   2.411   6.640   3.958
 7708SOL    HW124023   2.471   6.718   3.974
 7708SOL    HW224024   2.465   6.561   3.927
 7709SOL     OW24025   6.595   4.629   0.821
 7709SOL    HW124026   6.646   4.647   0.737
 7709SOL    HW224027   6.516   4.691   0.826
 7710SOL     OW24028   1.966   3.418   0.619
 7710SOL    HW124029   1.980   3.324   0.590
 7710SOL    HW224030   1.991   3.428   0.716
 7711SOL     OW24031   6.636   4.433   5.512
 7711SOL    HW124032   6.638   4.533   5.504
 7711SOL    HW224033   6.653   4.407   5.607
 7712SOL     OW24034   6.666   4.621   5.985
 7712SOL    HW124035   6.763   4.638   5.969
 7712SOL    HW224036   6.612   4.694   5.944
 7713SOL     OW24037   1.773   4.848   0.710
 7713SOL    HW124038   1.675   4.827   0.721
 7713SOL    HW224039   1.790   4.943   0.736
 7714SOL     OW24040   6.621   0.527   4.284
 7714SOL    HW124041   6.712   0.489   4.301
 7714SOL    HW224042   6.616   0.559   4.190
 7715SOL     OW24043   1.846   2.541   6.578
 7715SOL    HW124044   1.943   2.522   6.595
 7715SOL    HW224045   1.803   2.572   6.663
 7716SOL     OW24046   0.639   6.173   6.519
 7716SOL    HW124047   0.708   6.106   6.489
 7716SOL    HW224048   0.558   6.164   6.462
 7717SOL     OW24049   1.275   2.125   6.434
 7717SOL    HW124050   1.300   2.197   6.499
 7717SOL    HW224051   1.299   2.155   6.341
 7718SOL     OW24052   1.373   4.274   2.555
 7718SOL    HW124053   1.418   4.355   2.518
 7718SOL    HW224054   1.367   4.204   2.483
 7719SOL     OW24055   1.565   3.953   4.887
 7719SOL    HW124056   1.510   3.870   4.890
 7719SOL    HW224057   1.578   3.987   4.980
 7720SOL     OW24058   6.082   1.987   6.390
 7720SOL    HW124059   6.157   2.049   6.413
 7720SOL    HW224060   6.066   1.924   6.466
 7721SOL     OW24061   1.347   0.312   2.755
 7721SOL    HW124062   1.320   0.278   2.845
 7721SOL    HW224063   1.444   0.291   2.740
 7722SOL     OW24064   2.010   4.970   4.041
 7722SOL    HW124065   1.949   5.043   4.009
 7722SOL    HW224066   2.029   4.983   4.138
 7723SOL     OW24067   5.177   3.104   6.869
 7723SOL    HW124068   5.138   3.110   6.777
 7723SOL    HW224069   5.135   3.172   6.928
 7724SOL     OW24070   2.914   4.154   1.539
 7724SOL    HW124071   2.916   4.169   1.441
 7724SOL    HW224072   2.820   4.152   1.571
 7725SOL     OW24073   5.863   2.494   2.456
 7725SOL    HW124074   5.935   2.431   2.427
 7725SOL    HW224075   5.903   2.569   2.508
 7726SOL     OW24076   0.658   3.134   6.017
 7726SOL    HW124077   0.757   3.150   6.026
 7726SOL    HW224078   0.642   3.061   5.950
 7727SOL     OW24079   4.936   2.585   2.218
 7727SOL    HW124080   4.850   2.636   2.218
 7727SOL    HW224081   4.923   2.497   2.173
 7728SOL     OW24082   2.412   2.948   5.443
 7728SOL    HW124083   2.450   2.926   5.353
 7728SOL    HW224084   2.330   2.893   5.459
 7729SOL     OW24085   5.918   1.769   2.689
 7729SOL    HW124086   5.880   1.714   2.763
 7729SOL    HW224087   5.978   1.712   2.633
 7730SOL     OW24088   5.699   4.810   5.431
 7730SOL    HW124089   5.685   4.892   5.486
 7730SOL    HW224090   5.616   4.754   5.432
 7731SOL     OW24091   6.020   0.182   0.958
 7731SOL    HW124092   6.102   0.223   0.919
 7731SOL    HW224093   5.969   0.250   1.010
 7732SOL     OW24094   4.710   0.480   6.418
 7732SOL    HW124095   4.703   0.505   6.514
 7732SOL    HW224096   4.622   0.496   6.373
 7733SOL     OW24097   6.523   5.707   2.430
 7733SOL    HW124098   6.423   5.705   2.430
 7733SOL    HW224099   6.558   5.619   2.463
 7734SOL     OW24100   2.777   4.477   5.599
 7734SOL    HW124101   2.684   4.454   5.627
 7734SOL    HW224102   2.800   4.429   5.514
 7735SOL     OW24103   6.269   6.320   0.482
 7735SOL    HW124104   6.265   6.317   0.582
 7735SOL    HW224105   6.349   6.270   0.450
 7736SOL     OW24106   2.873   3.143   0.861
 7736SOL    HW124107   2.970   3.168   0.857
 7736SOL    HW224108   2.853   3.100   0.950
 7737SOL     OW24109   4.050   5.444   1.036
 7737SOL    HW124110   4.003   5.486   1.114
 7737SOL    HW224111   4.139   5.488   1.023
 7738SOL     OW24112   2.628   6.084   6.740
 7738SOL    HW124113   2.706   6.050   6.793
 7738SOL    HW224114   2.621   6.183   6.752
 7739SOL     OW24115   1.329   3.119   1.906
 7739SOL    HW124116   1.257   3.138   1.973
 7739SOL    HW224117   1.293   3.057   1.836
 7740SOL     OW24118   1.118   0.752   3.712
 7740SOL    HW124119   1.087   0.669   3.664
 7740SOL    HW224120   1.215   0.744   3.733
 7741SOL     OW24121   1.839   4.800   6.060
 7741SOL    HW124122   1.923   4.757   6.092
 7741SOL    HW224123   1.854   4.838   5.969
 7742SOL     OW24124   3.710   1.840   4.213
 7742SOL    HW124125   3.681   1.930   4.181
 7742SOL    HW224126   3.725   1.780   4.134
 7743SOL     OW24127   5.380   1.215   6.669
 7743SOL    HW124128   5.342   1.307   6.672
 7743SOL    HW224129   5.345   1.161   6.746
 7744SOL     OW24130   0.749   5.890   4.890
 7744SOL    HW124131   0.761   5.973   4.944
 7744SOL    HW224132   0.774   5.810   4.944
 7745SOL     OW24133   1.789   6.360   0.050
 7745SOL    HW124134   1.869   6.418   0.033
 7745SOL    HW224135   1.819   6.264   0.058
 7746SOL     OW24136   0.848   6.159   1.111
 7746SOL    HW124137   0.928   6.114   1.072
 7746SOL    HW224138   0.766   6.104   1.092
 7747SOL     OW24139   6.860   6.544   0.809
 7747SOL    HW124140   6.945   6.516   0.853
 7747SOL    HW224141   6.790   6.562   0.879
 7748SOL     OW24142   3.900   2.794   5.872
 7748SOL    HW124143   3.898   2.845   5.786
 7748SOL    HW224144   3.988   2.747   5.880
 7749SOL     OW24145   3.794   3.558   3.400
 7749SOL    HW124146   3.893   3.573   3.391
 7749SOL    HW224147   3.754   3.635   3.451
 7750SOL     OW24148   5.543   4.992   6.157
 7750SOL    HW124149   5.588   5.069   6.203
 7750SOL    HW224150   5.446   5.015   6.142
 7751SOL     OW24151   6.749   1.526   4.287
 7751SOL    HW124152   6.736   1.625   4.281
 7751SOL    HW224153   6.661   1.482   4.306
 7752SOL     OW24154   5.987   5.324   5.479
 7752SOL    HW124155   6.059   5.393   5.492
 7752SOL    HW224156   5.923   5.328   5.555
 7753SOL     OW24157   2.565   0.032   4.268
 7753SOL    HW124158   2.559   0.132   4.272
 7753SOL    HW224159   2.659   0.004   4.289
 7754SOL     OW24160   5.703   0.349   1.322
 7754SOL    HW124161   5.623   0.302   1.361
 7754SOL    HW224162   5.777   0.283   1.309
 7755SOL     OW24163   0.434   6.158   5.735
 7755SOL    HW124164   0.495   6.118   5.804
 7755SOL    HW224165   0.482   6.230   5.686
 7756SOL     OW24166   2.640   5.007   2.394
 7756SOL    HW124167   2.735   5.019   2.364
 7756SOL    HW224168   2.604   5.095   2.425
 7757SOL     OW24169   4.803   6.157   5.483
 7757SOL    HW124170   4.754   6.213   5.416
 7757SOL    HW224171   4.766   6.176   5.575
 7758SOL     OW24172   2.324   2.719   6.179
 7758SOL    HW124173   2.258   2.645   6.188
 7758SOL    HW224174   2.312   2.764   6.090
 7759SOL     OW24175   2.243   0.687   4.293
 7759SOL    HW124176   2.300   0.756   4.338
 7759SOL    HW224177   2.174   0.733   4.237
 7760SOL     OW24178   5.359   3.279   1.686
 7760SOL    HW124179   5.368   3.259   1.783
 7760SOL    HW224180   5.371   3.194   1.633
 7761SOL     OW24181   3.135   6.857   6.305
 7761SOL    HW124182   3.154   6.951   6.332
 7761SOL    HW224183   3.150   6.796   6.383
 7762SOL     OW24184   4.389   1.215   0.076
 7762SOL    HW124185   4.373   1.130   0.026
 7762SOL    HW224186   4.308   1.274   0.068
 7763SOL     OW24187   1.350   2.188   1.009
 7763SOL    HW124188   1.409   2.178   1.089
 7763SOL    HW224189   1.254   2.184   1.037
 7764SOL     OW24190   3.895   3.380   2.505
 7764SOL    HW124191   3.885   3.408   2.601
 7764SOL    HW224192   3.827   3.427   2.449
 7765SOL     OW24193   6.015   3.363   3.539
 7765SOL    HW124194   6.109   3.366   3.505
 7765SOL    HW224195   5.982   3.456   3.552
 7766SOL     OW24196   5.876   1.689   0.156
 7766SOL    HW124197   5.791   1.690   0.210
 7766SOL    HW224198   5.900   1.594   0.134
 7767SOL     OW24199   3.931   6.429   3.509
 7767SOL    HW124200   3.955   6.339   3.474
 7767SOL    HW224201   3.880   6.419   3.595
 7768SOL     OW24202   3.437   4.875   2.329
 7768SOL    HW124203   3.467   4.820   2.251
 7768SOL    HW224204   3.338   4.866   2.340
 7769SOL     OW24205   4.641   2.090   1.262
 7769SOL    HW124206   4.630   2.044   1.174
 7769SOL    HW224207   4.583   2.045   1.330
 7770SOL     OW24208   2.919   5.023   1.906
 7770SOL    HW124209   2.967   4.935   1.904
 7770SOL    HW224210   2.951   5.080   1.831
 7771SOL     OW24211   2.602   2.074   4.660
 7771SOL    HW124212   2.655   2.074   4.575
 7771SOL    HW224213   2.505   2.064   4.638
 7772SOL     OW24214   5.148   1.109   4.127
 7772SOL    HW124215   5.131   1.126   4.030
 7772SOL    HW224216   5.094   1.173   4.182
 7773SOL     OW24217   3.768   4.320   6.184
 7773SOL    HW124218   3.819   4.254   6.129
 7773SOL    HW224219   3.737   4.277   6.268
 7774SOL     OW24220   5.209   1.308   6.274
 7774SOL    HW124221   5.227   1.382   6.340
 7774SOL    HW224222   5.114   1.314   6.242
 7775SOL     OW24223   3.508   6.764   3.193
 7775SOL    HW124224   3.440   6.822   3.149
 7775SOL    HW224225   3.552   6.706   3.125
 7776SOL     OW24226   3.428   3.510   6.079
 7776SOL    HW124227   3.379   3.425   6.061
 7776SOL    HW224228   3.364   3.586   6.086
 7777SOL     OW24229   1.961   1.179   6.045
 7777SOL    HW124230   1.992   1.084   6.047
 7777SOL    HW224231   2.034   1.238   6.081
 7778SOL     OW24232   5.830   0.536   0.770
 7778SOL    HW124233   5.897   0.607   0.792
 7778SOL    HW224234   5.867   0.476   0.699
 7779SOL     OW24235   3.272   2.489   0.928
 7779SOL    HW124236   3.288   2.583   0.958
 7779SOL    HW224237   3.184   2.483   0.881
 7780SOL     OW24238   1.039   6.418   4.405
 7780SOL    HW124239   0.992   6.498   4.443
 7780SOL    HW224240   1.136   6.422   4.430
 7781SOL     OW24241   1.524   3.673   5.908
 7781SOL    HW124242   1.536   3.578   5.878
 7781SOL    HW224243   1.611   3.711   5.936
 7782SOL     OW24244   2.274   4.076   6.014
 7782SOL    HW124245   2.274   4.020   6.096
 7782SOL    HW224246   2.227   4.028   5.939
 7783SOL     OW24247   2.522   6.622   6.535
 7783SOL    HW124248   2.595   6.598   6.471
 7783SOL    HW224249   2.482   6.710   6.510
 7784SOL     OW24250   1.251   3.257   0.039
 7784SOL    HW124251   1.284   3.265   0.133
 7784SOL    HW224252   1.152   3.245   0.040
 7785SOL     OW24253   2.209   6.779   3.786
 7785SOL    HW124254   2.206   6.753   3.689
 7785SOL    HW224255   2.303   6.800   3.812
 7786SOL     OW24256   3.049   4.737   5.332
 7786SOL    HW124257   3.129   4.701   5.381
 7786SOL    HW224258   3.018   4.669   5.265
 7787SOL     OW24259   2.182   2.907   5.209
 7787SOL    HW124260   2.278   2.923   5.184
 7787SOL    HW224261   2.129   2.991   5.194
 7788SOL     OW24262   1.650   1.655   1.696
 7788SOL    HW124263   1.624   1.737   1.747
 7788SOL    HW224264   1.634   1.671   1.598
 7789SOL     OW24265   2.506   0.141   1.136
 7789SOL    HW124266   2.505   0.233   1.173
 7789SOL    HW224267   2.572   0.136   1.061
 7790SOL     OW24268   6.597   4.303   3.078
 7790SOL    HW124269   6.577   4.251   2.995
 7790SOL    HW224270   6.549   4.263   3.156
 7791SOL     OW24271   2.666   5.882   4.364
 7791SOL    HW124272   2.759   5.887   4.328
 7791SOL    HW224273   2.658   5.942   4.444
 7792SOL     OW24274   1.357   5.555   6.403
 7792SOL    HW124275   1.356   5.480   6.469
 7792SOL    HW224276   1.426   5.536   6.333
 7793SOL     OW24277   1.481   1.135   5.269
 7793SOL    HW124278   1.497   1.060   5.205
 7793SOL    HW224279   1.564   1.191   5.276
 7794SOL     OW24280   4.874   4.931   4.460
 7794SOL    HW124281   4.840   4.871   4.388
 7794SOL    HW224282   4.904   4.876   4.538
 7795SOL     OW24283   1.890   4.296   5.630
 7795SOL    HW124284   1.923   4.232   5.699
 7795SOL    HW224285   1.915   4.263   5.539
 7796SOL     OW24286   4.011   3.795   3.627
 7796SOL    HW124287   4.085   3.730   3.649
 7796SOL    HW224288   3.997   3.857   3.705
 7797SOL     OW24289   0.874   6.225   3.329
 7797SOL    HW124290   0.833   6.217   3.238
 7797SOL    HW224291   0.858   6.141   3.381
 7798SOL     OW24292   2.901   5.410   0.273
 7798SOL    HW124293   2.830   5.383   0.208
 7798SOL    HW224294   2.974   5.458   0.224
 7799SOL     OW24295   7.022   5.921   1.534
 7799SOL    HW124296   6.943   5.962   1.580
 7799SOL    HW224297   0.003   5.823   1.555
 7800SOL     OW24298   0.728   4.635   1.388
 7800SOL    HW124299   0.632   4.656   1.369
 7800SOL    HW224300   0.780   4.719   1.398
 7801SOL     OW24301   2.496   1.211   0.498
 7801SOL    HW124302   2.591   1.184   0.514
 7801SOL    HW224303   2.492   1.307   0.472
 7802SOL     OW24304   6.045   2.701   1.596
 7802SOL    HW124305   6.012   2.709   1.690
 7802SOL    HW224306   5.967   2.692   1.534
 7803SOL     OW24307   4.369   3.309   5.787
 7803SOL    HW124308   4.418   3.225   5.762
 7803SOL    HW224309   4.434   3.386   5.789
 7804SOL     OW24310   5.868   1.227   4.399
 7804SOL    HW124311   5.868   1.308   4.340
 7804SOL    HW224312   5.792   1.167   4.372
 7805SOL     OW24313   5.273   1.786   1.660
 7805SOL    HW124314   5.269   1.873   1.710
 7805SOL    HW224315   5.242   1.800   1.566
 7806SOL     OW24316   5.420   2.852   5.905
 7806SOL    HW124317   5.487   2.785   5.939
 7806SOL    HW224318   5.328   2.817   5.919
 7807SOL     OW24319   0.140   4.721   6.066
 7807SOL    HW124320   0.052   4.757   6.097
 7807SOL    HW224321   0.159   4.754   5.974
 7808SOL     OW24322   0.816   1.557   5.256
 7808SOL    HW124323   0.891   1.500   5.221
 7808SOL    HW224324   0.765   1.505   5.325
 7809SOL     OW24325   2.307   5.598   4.676
 7809SOL    HW124326   2.324   5.508   4.637
 7809SOL    HW224327   2.320   5.669   4.607
 7810SOL     OW24328   3.032   0.754   5.585
 7810SOL    HW124329   3.059   0.832   5.528
 7810SOL    HW224330   2.938   0.768   5.617
 7811SOL     OW24331   6.097   4.733   4.154
 7811SOL    HW124332   6.020   4.715   4.215
 7811SOL    HW224333   6.066   4.786   4.075
 7812SOL     OW24334   1.398   1.833   4.483
 7812SOL    HW124335   1.351   1.753   4.521
 7812SOL    HW224336   1.335   1.885   4.426
 7813SOL     OW24337   5.228   3.179   6.576
 7813SOL    HW124338   5.244   3.255   6.513
 7813SOL    HW224339   5.261   3.204   6.667
 7814SOL     OW24340   6.867   2.511   3.451
 7814SOL    HW124341   6.875   2.576   3.374
 7814SOL    HW224342   6.911   2.425   3.427
 7815SOL     OW24343   5.024   1.331   6.847
 7815SOL    HW124344   5.004   1.280   6.930
 7815SOL    HW224345   4.973   1.291   6.770
 7816SOL     OW24346   0.865   3.357   5.891
 7816SOL    HW124347   0.925   3.279   5.909
 7816SOL    HW224348   0.823   3.347   5.801
 7817SOL     OW24349   6.110   3.776   4.178
 7817SOL    HW124350   6.076   3.685   4.202
 7817SOL    HW224351   6.164   3.771   4.094
 7818SOL     OW24352   5.747   0.135   1.574
 7818SOL    HW124353   5.819   0.145   1.504
 7818SOL    HW224354   5.715   0.041   1.575
 7819SOL     OW24355   0.152   3.032   1.436
 7819SOL    HW124356   0.198   2.954   1.480
 7819SOL    HW224357   0.186   3.117   1.476
 7820SOL     OW24358   1.920   2.266   5.197
 7820SOL    HW124359   1.885   2.359   5.202
 7820SOL    HW224360   1.874   2.217   5.123
 7821SOL     OW24361   4.141   5.795   0.886
 7821SOL    HW124362   4.201   5.715   0.891
 7821SOL    HW224363   4.115   5.824   0.979
 7822SOL     OW24364   0.773   6.718   5.368
 7822SOL    HW124365   0.674   6.707   5.379
 7822SOL    HW224366   0.818   6.709   5.457
 7823SOL     OW24367   2.148   4.258   4.556
 7823SOL    HW124368   2.218   4.320   4.590
 7823SOL    HW224369   2.159   4.246   4.457
 7824SOL     OW24370   6.862   2.630   5.352
 7824SOL    HW124371   6.807   2.714   5.357
 7824SOL    HW224372   6.837   2.569   5.427
 7825SOL     OW24373   2.431   3.073   6.646
 7825SOL    HW124374   2.469   2.984   6.625
 7825SOL    HW224375   2.354   3.092   6.585
 7826SOL     OW24376   0.032   2.052   0.147
 7826SOL    HW124377   6.985   2.119   0.172
 7826SOL    HW224378   0.123   2.090   0.165
 7827SOL     OW24379   0.525   5.730   2.951
 7827SOL    HW124380   0.438   5.691   2.982
 7827SOL    HW224381   0.507   5.806   2.889
 7828SOL     OW24382   0.019   3.789   6.596
 7828SOL    HW124383   0.108   3.826   6.569
 7828SOL    HW224384   6.989   3.766   6.514
 7829SOL     OW24385   3.302   3.069   1.362
 7829SOL    HW124386   3.233   3.027   1.419
 7829SOL    HW224387   3.393   3.037   1.390
 7830SOL     OW24388   3.291   5.522   5.084
 7830SOL    HW124389   3.304   5.435   5.132
 7830SOL    HW224390   3.279   5.504   4.986
 7831SOL     OW24391   2.112   1.462   1.043
 7831SOL    HW124392   2.030   1.519   1.034
 7831SOL    HW224393   2.181   1.511   1.096
 7832SOL     OW24394   5.261   0.429   4.518
 7832SOL    HW124395   5.182   0.484   4.491
 7832SOL    HW224396   5.329   0.488   4.562
 7833SOL     OW24397   1.406   0.460   4.013
 7833SOL    HW124398   1.389   0.550   4.054
 7833SOL    HW224399   1.429   0.395   4.085
 7834SOL     OW24400   6.413   2.070   4.171
 7834SOL    HW124401   6.323   2.105   4.145
 7834SOL    HW224402   6.404   1.977   4.206
 7835SOL     OW24403   3.839   1.729   5.640
 7835SOL    HW124404   3.812   1.644   5.684
 7835SOL    HW224405   3.932   1.753   5.669
 7836SOL     OW24406   3.945   4.213   5.198
 7836SOL    HW124407   4.041   4.205   5.222
 7836SOL    HW224408   3.935   4.212   5.098
 7837SOL     OW24409   5.859   6.574   0.386
 7837SOL    HW124410   5.923   6.503   0.357
 7837SOL    HW224411   5.874   6.657   0.332
 7838SOL     OW24412   5.290   5.217   1.329
 7838SOL    HW124413   5.283   5.295   1.391
 7838SOL    HW224414   5.361   5.154   1.362
 7839SOL     OW24415   6.225   4.539   4.979
 7839SOL    HW124416   6.267   4.456   5.016
 7839SOL    HW224417   6.294   4.610   4.971
 7840SOL     OW24418   1.260   3.989   3.906
 7840SOL    HW124419   1.229   4.017   3.997
 7840SOL    HW224420   1.358   4.005   3.897
 7841SOL     OW24421   4.892   1.518   6.517
 7841SOL    HW124422   4.918   1.540   6.611
 7841SOL    HW224423   4.804   1.560   6.496
 7842SOL     OW24424   2.443   1.942   2.549
 7842SOL    HW124425   2.436   1.852   2.592
 7842SOL    HW224426   2.454   2.012   2.619
 7843SOL     OW24427   6.581   6.636   4.124
 7843SOL    HW124428   6.646   6.703   4.161
 7843SOL    HW224429   6.631   6.572   4.064
 7844SOL     OW24430   3.739   1.288   2.508
 7844SOL    HW124431   3.777   1.352   2.575
 7844SOL    HW224432   3.640   1.294   2.508
 7845SOL     OW24433   5.765   1.681   1.739
 7845SOL    HW124434   5.767   1.761   1.798
 7845SOL    HW224435   5.725   1.705   1.650
 7846SOL     OW24436   1.622   2.807   0.362
 7846SOL    HW124437   1.648   2.716   0.394
 7846SOL    HW224438   1.596   2.865   0.439
 7847SOL     OW24439   5.776   2.353   3.725
 7847SOL    HW124440   5.804   2.258   3.734
 7847SOL    HW224441   5.728   2.382   3.808
 7848SOL     OW24442   2.797   4.526   0.974
 7848SOL    HW124443   2.775   4.429   0.960
 7848SOL    HW224444   2.896   4.536   0.981
 7849SOL     OW24445   5.484   3.078   5.641
 7849SOL    HW124446   5.397   3.100   5.685
 7849SOL    HW224447   5.478   2.987   5.599
 7850SOL     OW24448   6.943   1.375   3.380
 7850SOL    HW124449   6.920   1.342   3.472
 7850SOL    HW224450   7.008   1.312   3.337
 7851SOL     OW24451   0.926   3.839   1.671
 7851SOL    HW124452   1.005   3.867   1.617
 7851SOL    HW224453   0.845   3.833   1.612
 7852SOL     OW24454   3.150   1.474   0.162
 7852SOL    HW124455   3.205   1.498   0.242
 7852SOL    HW224456   3.102   1.555   0.129
 7853SOL     OW24457   3.911   3.206   1.636
 7853SOL    HW124458   3.969   3.160   1.704
 7853SOL    HW224459   3.959   3.206   1.547
 7854SOL     OW24460   4.383   1.696   6.073
 7854SOL    HW124461   4.478   1.677   6.100
 7854SOL    HW224462   4.335   1.610   6.059
 7855SOL     OW24463   4.751   6.642   4.557
 7855SOL    HW124464   4.758   6.546   4.584
 7855SOL    HW224465   4.829   6.692   4.596
 7856SOL     OW24466   1.766   4.489   4.931
 7856SOL    HW124467   1.815   4.465   5.015
 7856SOL    HW224468   1.670   4.505   4.952
 7857SOL     OW24469   5.285   4.014   0.122
 7857SOL    HW124470   5.257   3.940   0.183
 7857SOL    HW224471   5.233   4.097   0.144
 7858SOL     OW24472   6.967   5.448   5.912
 7858SOL    HW124473   6.991   5.500   5.995
 7858SOL    HW224474   0.014   5.462   5.843
 7859SOL     OW24475   4.931   3.365   6.081
 7859SOL    HW124476   4.834   3.343   6.075
 7859SOL    HW224477   4.985   3.282   6.072
 7860SOL     OW24478   3.339   1.173   4.525
 7860SOL    HW124479   3.266   1.107   4.505
 7860SOL    HW224480   3.375   1.209   4.439
 7861SOL     OW24481   2.765   5.554   1.782
 7861SOL    HW124482   2.771   5.563   1.683
 7861SOL    HW224483   2.855   5.533   1.819
 7862SOL     OW24484   3.137   5.619   2.041
 7862SOL    HW124485   3.098   5.698   2.089
 7862SOL    HW224486   3.203   5.573   2.099
 7863SOL     OW24487   6.962   4.464   3.356
 7863SOL    HW124488   0.030   4.464   3.315
 7863SOL    HW224489   6.970   4.483   3.454
 7864SOL     OW24490   2.060   6.282   6.194
 7864SOL    HW124491   2.087   6.376   6.216
 7864SOL    HW224492   1.989   6.251   6.257
 7865SOL     OW24493   5.751   6.044   3.693
 7865SOL    HW124494   5.803   5.971   3.648
 7865SOL    HW224495   5.757   6.033   3.792
 7866SOL     OW24496   1.858   0.525   5.785
 7866SOL    HW124497   1.925   0.474   5.838
 7866SOL    HW224498   1.866   0.623   5.804
 7867SOL     OW24499   5.652   0.275   4.058
 7867SOL    HW124500   5.573   0.332   4.079
 7867SOL    HW224501   5.631   0.179   4.077
 7868SOL     OW24502   3.941   6.165   0.784
 7868SOL    HW124503   3.955   6.242   0.722
 7868SOL    HW224504   3.843   6.149   0.795
 7869SOL     OW24505   5.661   4.679   5.748
 7869SOL    HW124506   5.594   4.729   5.802
 7869SOL    HW224507   5.617   4.645   5.665
 7870SOL     OW24508   4.532   6.500   5.070
 7870SOL    HW124509   4.517   6.500   5.169
 7870SOL    HW224510   4.534   6.594   5.037
 7871SOL     OW24511   5.211   1.158   2.229
 7871SOL    HW124512   5.275   1.136   2.303
 7871SOL    HW224513   5.205   1.257   2.218
 7872SOL     OW24514   1.965   5.232   2.568
 7872SOL    HW124515   1.930   5.234   2.662
 7872SOL    HW224516   1.891   5.253   2.504
 7873SOL     OW24517   6.828   1.404   0.891
 7873SOL    HW124518   6.817   1.500   0.916
 7873SOL    HW224519   6.835   1.396   0.792
 7874SOL     OW24520   5.593   2.507   1.161
 7874SOL    HW124521   5.684   2.507   1.202
 7874SOL    HW224522   5.597   2.551   1.071
 7875SOL     OW24523   4.055   3.696   0.013
 7875SOL    HW124524   4.044   3.778   0.070
 7875SOL    HW224525   4.097   3.623   0.067
 7876SOL     OW24526   0.736   6.899   2.367
 7876SOL    HW124527   0.721   6.972   2.434
 7876SOL    HW224528   0.648   6.856   2.346
 7877SOL     OW24529   6.307   1.668   2.704
 7877SOL    HW124530   6.386   1.614   2.730
 7877SOL    HW224531   6.242   1.673   2.780
 7878SOL     OW24532   4.880   3.946   3.512
 7878SOL    HW124533   4.804   3.991   3.465
 7878SOL    HW224534   4.925   3.882   3.449
 7879SOL     OW24535   3.071   5.326   3.603
 7879SOL    HW124536   3.144   5.372   3.552
 7879SOL    HW224537   3.049   5.380   3.685
 7880SOL     OW24538   2.389   3.852   1.531
 7880SOL    HW124539   2.325   3.930   1.535
 7880SOL    HW224540   2.366   3.787   1.604
 7881SOL     OW24541   5.005   4.019   4.307
 7881SOL    HW124542   5.000   3.976   4.398
 7881SOL    HW224543   4.990   4.118   4.316
 7882SOL     OW24544   2.413   3.737   1.271
 7882SOL    HW124545   2.457   3.649   1.290
 7882SOL    HW224546   2.386   3.780   1.358
 7883SOL     OW24547   0.314   0.772   5.173
 7883SOL    HW124548   0.320   0.768   5.273
 7883SOL    HW224549   0.396   0.815   5.136
 7884SOL     OW24550   0.529   2.930   4.334
 7884SOL    HW124551   0.603   2.925   4.267
 7884SOL    HW224552   0.554   2.874   4.414
 7885SOL     OW24553   6.105   5.521   0.717
 7885SOL    HW124554   6.075   5.606   0.762
 7885SOL    HW224555   6.046   5.446   0.746
 7886SOL     OW24556   4.718   5.713   0.658
 7886SOL    HW124557   4.699   5.665   0.572
 7886SOL    HW224558   4.773   5.795   0.639
 7887SOL     OW24559   4.232   1.642   0.050
 7887SOL    HW124560   4.273   1.556   0.019
 7887SOL    HW224561   4.285   1.719   0.014
 7888SOL     OW24562   5.025   0.575   4.471
 7888SOL    HW124563   5.037   0.650   4.407
 7888SOL    HW224564   4.948   0.518   4.443
 7889SOL     OW24565   0.480   5.920   2.390
 7889SOL    HW124566   0.423   5.975   2.452
 7889SOL    HW224567   0.570   5.906   2.432
 7890SOL     OW24568   2.154   3.946   2.098
 7890SOL    HW124569   2.223   4.013   2.127
 7890SOL    HW224570   2.063   3.982   2.117
 7891SOL     OW24571   2.727   4.747   2.230
 7891SOL    HW124572   2.757   4.676   2.166
 7891SOL    HW224573   2.647   4.793   2.193
 7892SOL     OW24574   1.785   2.547   5.488
 7892SOL    HW124575   1.690   2.543   5.520
 7892SOL    HW224576   1.810   2.642   5.470
 7893SOL     OW24577   5.603   6.831   0.820
 7893SOL    HW124578   5.630   6.890   0.897
 7893SOL    HW224579   5.679   6.771   0.796
 7894SOL     OW24580   2.022   6.025   2.456
 7894SOL    HW124581   1.943   6.028   2.395
 7894SOL    HW224582   2.105   6.046   2.404
 7895SOL     OW24583   6.261   1.202   4.853
 7895SOL    HW124584   6.262   1.119   4.908
 7895SOL    HW224585   6.230   1.279   4.909
 7896SOL     OW24586   5.130   3.900   5.509
 7896SOL    HW124587   5.054   3.895   5.445
 7896SOL    HW224588   5.186   3.980   5.488
 7897SOL     OW24589   1.975   3.862   6.697
 7897SOL    HW124590   1.940   3.948   6.735
 7897SOL    HW224591   1.985   3.795   6.770
 7898SOL     OW24592   4.460   2.098   3.702
 7898SOL    HW124593   4.438   2.012   3.746
 7898SOL    HW224594   4.384   2.162   3.712
 7899SOL     OW24595   5.627   2.455   1.932
 7899SOL    HW124596   5.692   2.385   1.903
 7899SOL    HW224597   5.541   2.412   1.958
 7900SOL     OW24598   1.696   5.450   0.908
 7900SOL    HW124599   1.748   5.385   0.963
 7900SOL    HW224600   1.749   5.533   0.896
 7901SOL     OW24601   6.105   6.631   6.309
 7901SOL    HW124602   6.115   6.651   6.407
 7901SOL    HW224603   6.013   6.657   6.280
 7902SOL     OW24604   4.539   4.539   1.037
 7902SOL    HW124605   4.514   4.492   1.122
 7902SOL    HW224606   4.565   4.633   1.058
 7903SOL     OW24607   6.847   1.667   0.266
 7903SOL    HW124608   6.845   1.721   0.182
 7903SOL    HW224609   6.768   1.605   0.267
 7904SOL     OW24610   0.104   1.443   2.868
 7904SOL    HW124611   0.035   1.496   2.819
 7904SOL    HW224612   0.062   1.398   2.947
 7905SOL     OW24613   3.892   1.745   1.315
 7905SOL    HW124614   3.981   1.736   1.269
 7905SOL    HW224615   3.907   1.769   1.411
 7906SOL     OW24616   6.141   5.852   6.659
 7906SOL    HW124617   6.181   5.940   6.686
 7906SOL    HW224618   6.192   5.778   6.702
 7907SOL     OW24619   6.258   2.258   3.979
 7907SOL    HW124620   6.339   2.295   3.932
 7907SOL    HW224621   6.213   2.192   3.919
 7908SOL     OW24622   0.409   1.232   3.632
 7908SOL    HW124623   0.341   1.274   3.571
 7908SOL    HW224624   0.382   1.247   3.727
 7909SOL     OW24625   4.765   3.995   4.564
 7909SOL    HW124626   4.764   3.899   4.537
 7909SOL    HW224627   4.809   4.004   4.653
 7910SOL     OW24628   4.183   3.313   5.982
 7910SOL    HW124629   4.184   3.411   6.003
 7910SOL    HW224630   4.239   3.296   5.901
 7911SOL     OW24631   6.641   4.707   0.542
 7911SOL    HW124632   6.722   4.671   0.496
 7911SOL    HW224633   6.567   4.716   0.475
 7912SOL     OW24634   6.074   4.652   6.111
 7912SOL    HW124635   6.031   4.644   6.201
 7912SOL    HW224636   6.125   4.738   6.106
 7913SOL     OW24637   6.962   5.099   6.716
 7913SOL    HW124638   6.896   5.026   6.732
 7913SOL    HW224639   0.025   5.059   6.682
 7914SOL     OW24640   6.161   4.462   0.995
 7914SOL    HW124641   6.159   4.543   0.936
 7914SOL    HW224642   6.162   4.380   0.939
 7915SOL     OW24643   4.686   1.881   3.347
 7915SOL    HW124644   4.783   1.880   3.321
 7915SOL    HW224645   4.630   1.905   3.267
 7916SOL     OW24646   5.445   2.925   5.335
 7916SOL    HW124647   5.471   2.857   5.404
 7916SOL    HW224648   5.387   2.882   5.266
 7917SOL     OW24649   4.052   3.662   4.859
 7917SOL    HW124650   4.085   3.568   4.864
 7917SOL    HW224651   4.063   3.705   4.949
 7918SOL     OW24652   6.403   1.194   2.110
 7918SOL    HW124653   6.370   1.112   2.156
 7918SOL    HW224654   6.369   1.275   2.158
 7919SOL     OW24655   5.620   4.987   2.162
 7919SOL    HW124656   5.680   4.925   2.111
 7919SOL    HW224657   5.536   4.939   2.185
 7920SOL     OW24658   0.442   4.698   1.339
 7920SOL    HW124659   0.360   4.739   1.300
 7920SOL    HW224660   0.418   4.648   1.422
 7921SOL     OW24661   2.528   6.706   1.637
 7921SOL    HW124662   2.604   6.665   1.688
 7921SOL    HW224663   2.443   6.656   1.658
 7922SOL     OW24664   0.536   5.323   6.582
 7922SOL    HW124665   0.489   5.353   6.665
 7922SOL    HW224666   0.574   5.232   6.595
 7923SOL     OW24667   1.458   1.292   3.273
 7923SOL    HW124668   1.526   1.223   3.250
 7923SOL    HW224669   1.485   1.339   3.357
 7924SOL     OW24670   3.211   6.853   3.865
 7924SOL    HW124671   3.131   6.804   3.831
 7924SOL    HW224672   3.288   6.840   3.801
 7925SOL     OW24673   6.078   1.771   6.150
 7925SOL    HW124674   6.126   1.683   6.144
 7925SOL    HW224675   6.084   1.805   6.244
 7926SOL     OW24676   2.849   0.907   2.961
 7926SOL    HW124677   2.796   0.992   2.961
 7926SOL    HW224678   2.786   0.829   2.960
 7927SOL     OW24679   4.254   5.306   5.305
 7927SOL    HW124680   4.270   5.405   5.295
 7927SOL    HW224681   4.283   5.277   5.396
 7928SOL     OW24682   1.787   5.025   3.367
 7928SOL    HW124683   1.811   4.934   3.331
 7928SOL    HW224684   1.716   5.066   3.310
 7929SOL     OW24685   4.113   3.715   4.564
 7929SOL    HW124686   4.143   3.671   4.479
 7929SOL    HW224687   4.118   3.649   4.639
 7930SOL     OW24688   4.179   5.287   3.466
 7930SOL    HW124689   4.185   5.235   3.552
 7930SOL    HW224690   4.270   5.296   3.426
 7931SOL     OW24691   2.100   2.260   0.195
 7931SOL    HW124692   2.144   2.226   0.112
 7931SOL    HW224693   2.146   2.222   0.275
 7932SOL     OW24694   2.244   6.813   0.087
 7932SOL    HW124695   2.331   6.763   0.078
 7932SOL    HW224696   2.262   6.912   0.085
 7933SOL     OW24697   1.044   0.170   6.726
 7933SOL    HW124698   1.063   0.114   6.806
 7933SOL    HW224699   1.102   0.252   6.728
 7934SOL     OW24700   2.734   3.717   0.379
 7934SOL    HW124701   2.779   3.630   0.401
 7934SOL    HW224702   2.655   3.730   0.439
 7935SOL     OW24703   4.926   6.208   1.152
 7935SOL    HW124704   4.961   6.205   1.246
 7935SOL    HW224705   4.984   6.268   1.097
 7936SOL     OW24706   4.097   6.197   3.208
 7936SOL    HW124707   4.014   6.251   3.193
 7936SOL    HW224708   4.177   6.252   3.186
 7937SOL     OW24709   5.917   6.525   5.346
 7937SOL    HW124710   5.978   6.467   5.401
 7937SOL    HW224711   5.939   6.621   5.362
 7938SOL     OW24712   3.967   5.226   4.807
 7938SOL    HW124713   3.924   5.159   4.746
 7938SOL    HW224714   3.931   5.214   4.899
 7939SOL     OW24715   0.579   1.391   5.716
 7939SOL    HW124716   0.522   1.312   5.695
 7939SOL    HW224717   0.580   1.406   5.815
 7940SOL     OW24718   2.031   5.441   1.161
 7940SOL    HW124719   1.950   5.387   1.139
 7940SOL    HW224720   2.014   5.495   1.244
 7941SOL     OW24721   0.518   1.040   0.637
 7941SOL    HW124722   0.603   1.061   0.685
 7941SOL    HW224723   0.532   1.047   0.539
 7942SOL     OW24724   0.494   6.928   1.990
 7942SOL    HW124725   0.573   6.867   1.984
 7942SOL    HW224726   0.413   6.875   2.014
 7943SOL     OW24727   5.069   2.104   1.078
 7943SOL    HW124728   5.095   2.199   1.062
 7943SOL    HW224729   5.114   2.071   1.161
 7944SOL     OW24730   0.465   3.312   1.184
 7944SOL    HW124731   0.431   3.292   1.092
 7944SOL    HW224732   0.496   3.228   1.227
 7945SOL     OW24733   5.342   6.737   2.899
 7945SOL    HW124734   5.344   6.712   2.995
 7945SOL    HW224735   5.418   6.694   2.851
 7946SOL     OW24736   1.430   2.459   6.240
 7946SOL    HW124737   1.501   2.429   6.303
 7946SOL    HW224738   1.368   2.523   6.286
 7947SOL     OW24739   3.876   2.802   6.251
 7947SOL    HW124740   3.827   2.818   6.165
 7947SOL    HW224741   3.966   2.763   6.232
 7948SOL     OW24742   6.649   0.177   0.516
 7948SOL    HW124743   6.563   0.209   0.557
 7948SOL    HW224744   6.640   0.081   0.491
 7949SOL     OW24745   5.103   4.922   4.036
 7949SOL    HW124746   5.068   4.991   4.099
 7949SOL    HW224747   5.106   4.833   4.083
 7950SOL     OW24748   4.230   4.798   3.840
 7950SOL    HW124749   4.194   4.794   3.933
 7950SOL    HW224750   4.155   4.787   3.775
 7951SOL     OW24751   3.077   3.719   0.642
 7951SOL    HW124752   3.127   3.673   0.715
 7951SOL    HW224753   2.985   3.680   0.635
 7952SOL     OW24754   6.914   2.654   7.020
 7952SOL    HW124755   6.846   2.727   7.014
 7952SOL    HW224756   6.951   2.650   0.089
 7953SOL     OW24757   2.394   2.469   3.292
 7953SOL    HW124758   2.422   2.445   3.199
 7953SOL    HW224759   2.456   2.427   3.358
 7954SOL     OW24760   4.653   5.060   5.335
 7954SOL    HW124761   4.667   5.158   5.351
 7954SOL    HW224762   4.673   5.040   5.239
 7955SOL     OW24763   6.925   6.364   6.978
 7955SOL    HW124764   6.971   6.284   7.015
 7955SOL    HW224765   6.928   6.362   6.878
 7956SOL     OW24766   6.793   5.892   3.509
 7956SOL    HW124767   6.694   5.882   3.522
 7956SOL    HW224768   6.828   5.962   3.571
 7957SOL     OW24769   1.174   1.986   0.583
 7957SOL    HW124770   1.090   1.982   0.528
 7957SOL    HW224771   1.210   2.079   0.583
 7958SOL     OW24772   3.220   5.463   4.262
 7958SOL    HW124773   3.173   5.402   4.326
 7958SOL    HW224774   3.289   5.411   4.211
 7959SOL     OW24775   5.859   4.860   0.483
 7959SOL    HW124776   5.871   4.810   0.397
 7959SOL    HW224777   5.783   4.821   0.534
 7960SOL     OW24778   3.419   0.826   1.119
 7960SOL    HW124779   3.449   0.782   1.034
 7960SOL    HW224780   3.460   0.917   1.126
 7961SOL     OW24781   1.155   6.031   5.887
 7961SOL    HW124782   1.189   5.979   5.809
 7961SOL    HW224783   1.113   5.969   5.953
 7962SOL     OW24784   2.332   1.088   1.552
 7962SOL    HW124785   2.372   0.997   1.561
 7962SOL    HW224786   2.387   1.154   1.602
 7963SOL     OW24787   0.480   0.873   5.821
 7963SOL    HW124788   0.537   0.954   5.839
 7963SOL    HW224789   0.386   0.893   5.848
 7964SOL     OW24790   5.233   5.182   3.172
 7964SOL    HW124791   5.145   5.202   3.216
 7964SOL    HW224792   5.306   5.186   3.241
 7965SOL     OW24793   4.628   2.197   0.822
 7965SOL    HW124794   4.727   2.203   0.810
 7965SOL    HW224795   4.601   2.253   0.900
 7966SOL     OW24796   1.185   5.416   4.038
 7966SOL    HW124797   1.174   5.477   3.960
 7966SOL    HW224798   1.166   5.466   4.122
 7967SOL     OW24799   3.293   5.838   2.665
 7967SOL    HW124800   3.228   5.764   2.682
 7967SOL    HW224801   3.386   5.802   2.668
 7968SOL     OW24802   2.176   2.310   4.044
 7968SOL    HW124803   2.109   2.236   4.048
 7968SOL    HW224804   2.187   2.349   4.135
 7969SOL     OW24805   4.224   0.939   3.177
 7969SOL    HW124806   4.200   0.938   3.079
 7969SOL    HW224807   4.262   1.028   3.201
 7970SOL     OW24808   6.925   4.149   2.919
 7970SOL    HW124809   6.887   4.191   2.837
 7970SOL    HW224810   6.905   4.207   2.998
 7971SOL     OW24811   2.908   0.904   2.346
 7971SOL    HW124812   2.993   0.948   2.375
 7971SOL    HW224813   2.885   0.934   2.254
 7972SOL     OW24814   0.097   4.464   1.373
 7972SOL    HW124815   0.172   4.447   1.310
 7972SOL    HW224816   0.010   4.436   1.331
 7973SOL     OW24817   5.025   3.659   3.955
 7973SOL    HW124818   5.000   3.722   4.029
 7973SOL    HW224819   5.038   3.711   3.871
 7974SOL     OW24820   5.299   0.187   4.379
 7974SOL    HW124821   5.220   0.152   4.329
 7974SOL    HW224822   5.273   0.270   4.428
 7975SOL     OW24823   3.866   0.523   4.778
 7975SOL    HW124824   3.937   0.581   4.739
 7975SOL    HW224825   3.867   0.434   4.733
 7976SOL     OW24826   0.772   6.166   4.955
 7976SOL    HW124827   0.673   6.164   4.967
 7976SOL    HW224828   0.802   6.260   4.939
 7977SOL     OW24829   4.923   6.124   2.018
 7977SOL    HW124830   5.003   6.071   1.989
 7977SOL    HW224831   4.884   6.171   1.939
 7978SOL     OW24832   4.587   3.644   6.039
 7978SOL    HW124833   4.598   3.653   6.137
 7978SOL    HW224834   4.489   3.637   6.017
 7979SOL     OW24835   2.768   0.253   4.506
 7979SOL    HW124836   2.668   0.260   4.502
 7979SOL    HW224837   2.808   0.325   4.451
 7980SOL     OW24838   3.495   5.991   0.284
 7980SOL    HW124839   3.536   6.073   0.323
 7980SOL    HW224840   3.564   5.942   0.230
 7981SOL     OW24841   1.110   4.954   2.234
 7981SOL    HW124842   1.115   4.861   2.198
 7981SOL    HW224843   1.064   5.012   2.167
 7982SOL     OW24844   6.591   2.440   0.617
 7982SOL    HW124845   6.516   2.497   0.650
 7982SOL    HW224846   6.565   2.343   0.623
 7983SOL     OW24847   5.621   1.919   2.501
 7983SOL    HW124848   5.598   1.827   2.533
 7983SOL    HW224849   5.556   1.947   2.430
 7984SOL     OW24850   1.076   2.372   2.094
 7984SOL    HW124851   0.991   2.343   2.050
 7984SOL    HW224852   1.065   2.368   2.193
 7985SOL     OW24853   1.290   0.693   2.341
 7985SOL    HW124854   1.378   0.681   2.388
 7985SOL    HW224855   1.235   0.761   2.390
 7986SOL     OW24856   3.986   1.502   6.410
 7986SOL    HW124857   4.031   1.415   6.426
 7986SOL    HW224858   4.043   1.559   6.351
 7987SOL     OW24859   0.457   2.653   5.540
 7987SOL    HW124860   0.394   2.728   5.520
 7987SOL    HW224861   0.510   2.631   5.458
 7988SOL     OW24862   2.992   2.246   4.556
 7988SOL    HW124863   2.922   2.271   4.622
 7988SOL    HW224864   3.069   2.203   4.604
 7989SOL     OW24865   3.425   2.518   5.374
 7989SOL    HW124866   3.363   2.536   5.450
 7989SOL    HW224867   3.375   2.475   5.299
 7990SOL     OW24868   0.879   3.340   3.999
 7990SOL    HW124869   0.887   3.437   3.977
 7990SOL    HW224870   0.942   3.319   4.074
 7991SOL     OW24871   0.076   2.711   5.737
 7991SOL    HW124872   0.142   2.775   5.775
 7991SOL    HW224873   0.123   2.650   5.673
 7992SOL     OW24874   1.792   0.157   0.661
 7992SOL    HW124875   1.786   0.091   0.736
 7992SOL    HW224876   1.791   0.250   0.698
 7993SOL     OW24877   1.787   5.552   6.562
 7993SOL    HW124878   1.777   5.548   6.661
 7993SOL    HW224879   1.878   5.584   6.538
 7994SOL     OW24880   4.659   0.399   4.089
 7994SOL    HW124881   4.704   0.338   4.024
 7994SOL    HW224882   4.636   0.485   4.044
 7995SOL     OW24883   3.644   5.234   3.688
 7995SOL    HW124884   3.741   5.256   3.694
 7995SOL    HW224885   3.632   5.136   3.673
 7996SOL     OW24886   3.462   0.084   4.440
 7996SOL    HW124887   3.439   0.172   4.481
 7996SOL    HW224888   3.561   0.069   4.448
 7997SOL     OW24889   6.373   2.318   0.947
 7997SOL    HW124890   6.288   2.337   0.997
 7997SOL    HW224891   6.443   2.286   1.012
 7998SOL     OW24892   5.508   4.880   0.399
 7998SOL    HW124893   5.486   4.977   0.391
 7998SOL    HW224894   5.463   4.842   0.481
 7999SOL     OW24895   1.423   0.184   5.298
 7999SOL    HW124896   1.450   0.211   5.205
 7999SOL    HW224897   1.333   0.224   5.318
 8000SOL     OW24898   6.204   0.572   5.999
 8000SOL    HW124899   6.107   0.593   6.009
 8000SOL    HW224900   6.223   0.548   5.904
 8001SOL     OW24901   1.274   6.460   1.880
 8001SOL    HW124902   1.219   6.447   1.797
 8001SOL    HW224903   1.307   6.555   1.883
 8002SOL     OW24904   6.965   3.567   5.284
 8002SOL    HW124905   0.038   3.589   5.300
 8002SOL    HW224906   6.932   3.619   5.205
 8003SOL     OW24907   3.164   5.253   3.229
 8003SOL    HW124908   3.110   5.169   3.227
 8003SOL    HW224909   3.254   5.233   3.269
 8004SOL     OW24910   2.010   4.193   3.060
 8004SOL    HW124911   2.008   4.146   3.149
 8004SOL    HW224912   2.022   4.292   3.076
 8005SOL     OW24913   3.061   0.587   2.480
 8005SOL    HW124914   3.000   0.633   2.416
 8005SOL    HW224915   3.044   0.488   2.477
 8006SOL     OW24916   2.537   5.634   0.307
 8006SOL    HW124917   2.587   5.689   0.375
 8006SOL    HW224918   2.575   5.542   0.306
 8007SOL     OW24919   0.402   0.321   3.891
 8007SOL    HW124920   0.377   0.322   3.794
 8007SOL    HW224921   0.501   0.318   3.900
 8008SOL     OW24922   5.744   6.548   6.778
 8008SOL    HW124923   5.836   6.509   6.780
 8008SOL    HW224924   5.719   6.569   6.683
 8009SOL     OW24925   6.922   0.639   3.331
 8009SOL    HW124926   6.826   0.656   3.308
 8009SOL    HW224927   6.938   0.540   3.334
 8010SOL     OW24928   2.474   1.801   0.098
 8010SOL    HW124929   2.426   1.841   0.021
 8010SOL    HW224930   2.467   1.701   0.094
 8011SOL     OW24931   2.655   2.271   1.222
 8011SOL    HW124932   2.617   2.363   1.236
 8011SOL    HW224933   2.755   2.276   1.223
 8012SOL     OW24934   1.772   6.907   1.340
 8012SOL    HW124935   1.805   6.909   1.246
 8012SOL    HW224936   1.683   6.952   1.344
 8013SOL     OW24937   6.150   5.160   4.094
 8013SOL    HW124938   6.099   5.218   4.031
 8013SOL    HW224939   6.107   5.164   4.185
 8014SOL     OW24940   1.886   6.203   6.474
 8014SOL    HW124941   1.875   6.178   6.570
 8014SOL    HW224942   1.866   6.300   6.462
 8015SOL     OW24943   2.742   2.739   0.939
 8015SOL    HW124944   2.836   2.766   0.955
 8015SOL    HW224945   2.705   2.789   0.860
 8016SOL     OW24946   4.380   0.211   0.580
 8016SOL    HW124947   4.437   0.161   0.645
 8016SOL    HW224948   4.413   0.195   0.487
 8017SOL     OW24949   6.796   4.256   5.367
 8017SOL    HW124950   6.737   4.330   5.402
 8017SOL    HW224951   6.871   4.296   5.315
 8018SOL     OW24952   4.302   1.604   5.690
 8018SOL    HW124953   4.333   1.541   5.619
 8018SOL    HW224954   4.378   1.662   5.718
 8019SOL     OW24955   1.600   5.416   0.444
 8019SOL    HW124956   1.675   5.381   0.500
 8019SOL    HW224957   1.626   5.412   0.348
 8020SOL     OW24958   5.884   5.802   6.552
 8020SOL    HW124959   5.828   5.722   6.575
 8020SOL    HW224960   5.963   5.806   6.613
 8021SOL     OW24961   1.010   1.730   1.653
 8021SOL    HW124962   1.073   1.749   1.728
 8021SOL    HW224963   1.047   1.659   1.594
 8022SOL     OW24964   4.839   0.190   3.297
 8022SOL    HW124965   4.910   0.173   3.229
 8022SOL    HW224966   4.774   0.115   3.297
 8023SOL     OW24967   6.258   5.899   2.538
 8023SOL    HW124968   6.290   5.993   2.522
 8023SOL    HW224969   6.264   5.878   2.635
 8024SOL     OW24970   4.373   5.588   6.094
 8024SOL    HW124971   4.297   5.619   6.037
 8024SOL    HW224972   4.439   5.538   6.036
 8025SOL     OW24973   3.641   6.207   6.490
 8025SOL    HW124974   3.614   6.278   6.555
 8025SOL    HW224975   3.586   6.125   6.504
 8026SOL     OW24976   1.268   3.425   6.789
 8026SOL    HW124977   1.324   3.410   6.707
 8026SOL    HW224978   1.316   3.388   6.869
 8027SOL     OW24979   4.422   1.808   5.313
 8027SOL    HW124980   4.339   1.858   5.291
 8027SOL    HW224981   4.499   1.872   5.317
 8028SOL     OW24982   4.642   5.118   6.071
 8028SOL    HW124983   4.632   5.217   6.068
 8028SOL    HW224984   4.702   5.088   5.997
 8029SOL     OW24985   4.370   4.625   6.770
 8029SOL    HW124986   4.314   4.542   6.781
 8029SOL    HW224987   4.429   4.615   6.690
 8030SOL     OW24988   5.510   4.586   5.506
 8030SOL    HW124989   5.517   4.508   5.444
 8030SOL    HW224990   5.425   4.578   5.559
 8031SOL     OW24991   4.647   5.178   1.753
 8031SOL    HW124992   4.642   5.143   1.659
 8031SOL    HW224993   4.741   5.201   1.776
 8032SOL     OW24994   5.933   4.210   4.940
 8032SOL    HW124995   5.836   4.189   4.931
 8032SOL    HW224996   5.973   4.226   4.850
 8033SOL     OW24997   5.381   2.527   0.110
 8033SOL    HW124998   5.372   2.606   0.049
 8033SOL    HW224999   5.455   2.543   0.175
 8034SOL     OW25000   5.199   6.518   5.367
 8034SOL    HW125001   5.245   6.448   5.421
 8034SOL    HW225002   5.265   6.587   5.336
 8035SOL     OW25003   5.813   6.126   5.842
 8035SOL    HW125004   5.742   6.058   5.861
 8035SOL    HW225005   5.881   6.124   5.914
 8036SOL     OW25006   2.279   3.905   1.857
 8036SOL    HW125007   2.226   3.908   1.941
 8036SOL    HW225008   2.303   3.999   1.829
 8037SOL     OW25009   2.304   3.006   0.852
 8037SOL    HW125010   2.232   2.962   0.906
 8037SOL    HW225011   2.277   3.101   0.833
 8038SOL     OW25012   6.985   1.725   3.602
 8038SOL    HW125013   7.021   1.709   3.510
 8038SOL    HW225014   6.938   1.813   3.604
 8039SOL     OW25015   2.459   0.299   2.736
 8039SOL    HW125016   2.406   0.243   2.672
 8039SOL    HW225017   2.554   0.302   2.706
 8040SOL     OW25018   0.424   5.415   1.138
 8040SOL    HW125019   0.415   5.513   1.121
 8040SOL    HW225020   0.384   5.364   1.062
 8041SOL     OW25021   3.859   1.211   1.490
 8041SOL    HW125022   3.899   1.293   1.448
 8041SOL    HW225023   3.781   1.180   1.436
 8042SOL     OW25024   3.388   2.941   2.394
 8042SOL    HW125025   3.427   2.906   2.480
 8042SOL    HW225026   3.423   2.887   2.318
 8043SOL     OW25027   2.654   0.498   0.981
 8043SOL    HW125028   2.627   0.435   0.909
 8043SOL    HW225029   2.753   0.508   0.981
 8044SOL     OW25030   3.130   2.977   1.535
 8044SOL    HW125031   3.142   2.959   1.632
 8044SOL    HW225032   3.039   3.015   1.518
 8045SOL     OW25033   6.279   1.775   2.975
 8045SOL    HW125034   6.333   1.691   2.976
 8045SOL    HW225035   6.205   1.767   3.041
 8046SOL     OW25036   5.525   4.374   5.302
 8046SOL    HW125037   5.604   4.368   5.241
 8046SOL    HW225038   5.441   4.365   5.248
 8047SOL     OW25039   3.451   5.937   4.650
 8047SOL    HW125040   3.551   5.934   4.648
 8047SOL    HW225041   3.421   5.967   4.741
 8048SOL     OW25042   6.413   0.503   5.343
 8048SOL    HW125043   6.462   0.433   5.291
 8048SOL    HW225044   6.342   0.543   5.286
 8049SOL     OW25045   0.845   6.900   1.329
 8049SOL    HW125046   0.828   6.923   1.425
 8049SOL    HW225047   0.944   6.901   1.312
 8050SOL     OW25048   1.729   3.636   1.014
 8050SOL    HW125049   1.800   3.607   0.949
 8050SOL    HW225050   1.745   3.731   1.040
 8051SOL     OW25051   4.391   1.137   3.027
 8051SOL    HW125052   4.341   1.136   2.940
 8051SOL    HW225053   4.332   1.174   3.099
 8052SOL     OW25054   3.268   1.801   2.298
 8052SOL    HW125055   3.234   1.713   2.331
 8052SOL    HW225056   3.291   1.859   2.375
 8053SOL     OW25057   4.008   3.906   2.848
 8053SOL    HW125058   4.061   3.822   2.840
 8053SOL    HW225059   4.014   3.941   2.942
 8054SOL     OW25060   4.580   6.442   4.180
 8054SOL    HW125061   4.605   6.506   4.107
 8054SOL    HW225062   4.562   6.352   4.140
 8055SOL     OW25063   1.097   0.106   5.956
 8055SOL    HW125064   1.025   0.162   5.996
 8055SOL    HW225065   1.154   0.068   6.029
 8056SOL     OW25066   4.551   1.494   2.937
 8056SOL    HW125067   4.579   1.587   2.961
 8056SOL    HW225068   4.624   1.430   2.962
 8057SOL     OW25069   3.121   0.003   3.154
 8057SOL    HW125070   3.080   0.093   3.139
 8057SOL    HW225071   3.205   7.019   3.100
 8058SOL     OW25072   2.534   0.251   2.243
 8058SOL    HW125073   2.570   0.320   2.306
 8058SOL    HW225074   2.494   0.176   2.296
 8059SOL     OW25075   3.052   2.102   4.888
 8059SOL    HW125076   3.083   2.171   4.953
 8059SOL    HW225077   3.124   2.084   4.821
 8060SOL     OW25078   6.936   1.097   4.730
 8060SOL    HW125079   6.837   1.111   4.723
 8060SOL    HW225080   6.955   1.000   4.743
 8061SOL     OW25081   6.194   5.472   2.788
 8061SOL    HW125082   6.213   5.558   2.835
 8061SOL    HW225083   6.179   5.489   2.691
 8062SOL     OW25084   1.509   3.841   4.589
 8062SOL    HW125085   1.567   3.771   4.547
 8062SOL    HW225086   1.565   3.899   4.648
 8063SOL     OW25087   2.989   3.448   6.715
 8063SOL    HW125088   3.034   3.371   6.670
 8063SOL    HW225089   2.922   3.414   6.781
 8064SOL     OW25090   0.252   3.966   0.182
 8064SOL    HW125091   0.290   3.879   0.152
 8064SOL    HW225092   0.314   4.041   0.157
 8065SOL     OW25093   4.647   6.730   4.305
 8065SOL    HW125094   4.709   6.688   4.372
 8065SOL    HW225095   4.581   6.789   4.353
 8066SOL     OW25096   1.803   1.483   0.533
 8066SOL    HW125097   1.736   1.531   0.591
 8066SOL    HW225098   1.804   1.525   0.443
 8067SOL     OW25099   4.172   3.028   1.613
 8067SOL    HW125100   4.243   3.055   1.678
 8067SOL    HW225101   4.210   2.963   1.547
 8068SOL     OW25102   0.588   4.605   4.688
 8068SOL    HW125103   0.599   4.612   4.589
 8068SOL    HW225104   0.626   4.686   4.732
 8069SOL     OW25105   1.433   6.296   0.706
 8069SOL    HW125106   1.499   6.343   0.765
 8069SOL    HW225107   1.350   6.276   0.758
 8070SOL     OW25108   3.536   6.192   1.834
 8070SOL    HW125109   3.549   6.105   1.882
 8070SOL    HW225110   3.543   6.268   1.899
 8071SOL     OW25111   3.891   6.523   5.552
 8071SOL    HW125112   3.842   6.499   5.468
 8071SOL    HW225113   3.988   6.502   5.541
 8072SOL     OW25114   4.388   1.781   0.651
 8072SOL    HW125115   4.453   1.766   0.577
 8072SOL    HW225116   4.419   1.732   0.733
 8073SOL     OW25117   4.686   6.905   6.451
 8073SOL    HW125118   4.709   6.813   6.480
 8073SOL    HW225119   4.611   6.902   6.384
 8074SOL     OW25120   3.515   3.732   0.374
 8074SOL    HW125121   3.537   3.740   0.472
 8074SOL    HW225122   3.448   3.658   0.361
 8075SOL     OW25123   6.866   1.149   2.559
 8075SOL    HW125124   6.811   1.065   2.558
 8075SOL    HW225125   6.962   1.126   2.547
 8076SOL     OW25126   5.366   2.590   4.968
 8076SOL    HW125127   5.385   2.617   4.874
 8076SOL    HW225128   5.268   2.574   4.979
 8077SOL     OW25129   1.285   0.225   1.707
 8077SOL    HW125130   1.319   0.208   1.615
 8077SOL    HW225131   1.346   0.182   1.774
 8078SOL     OW25132   6.823   2.612   0.655
 8078SOL    HW125133   6.822   2.708   0.685
 8078SOL    HW225134   6.731   2.585   0.629
 8079SOL     OW25135   6.856   2.121   3.254
 8079SOL    HW125136   6.764   2.160   3.250
 8079SOL    HW225137   6.885   2.094   3.162
 8080SOL     OW25138   2.346   3.901   0.355
 8080SOL    HW125139   2.340   3.802   0.342
 8080SOL    HW225140   2.358   3.945   0.266
 8081SOL     OW25141   5.946   0.912   5.415
 8081SOL    HW125142   5.898   0.863   5.488
 8081SOL    HW225143   5.881   0.970   5.366
 8082SOL     OW25144   6.185   2.361   3.240
 8082SOL    HW125145   6.182   2.261   3.230
 8082SOL    HW225146   6.223   2.401   3.156
 8083SOL     OW25147   4.839   3.004   2.630
 8083SOL    HW125148   4.937   2.993   2.616
 8083SOL    HW225149   4.821   3.035   2.723
 8084SOL     OW25150   6.543   6.620   1.311
 8084SOL    HW125151   6.589   6.642   1.225
 8084SOL    HW225152   6.475   6.549   1.295
 8085SOL     OW25153   5.358   0.289   0.740
 8085SOL    HW125154   5.456   0.279   0.752
 8085SOL    HW225155   5.311   0.211   0.781
 8086SOL     OW25156   3.916   0.269   4.718
 8086SOL    HW125157   3.870   0.220   4.644
 8086SOL    HW225158   3.968   0.203   4.774
 8087SOL     OW25159   2.920   2.363   1.163
 8087SOL    HW125160   3.005   2.406   1.192
 8087SOL    HW225161   2.885   2.410   1.082
 8088SOL     OW25162   5.620   0.835   2.012
 8088SOL    HW125163   5.643   0.928   1.983
 8088SOL    HW225164   5.704   0.779   2.013
 8089SOL     OW25165   4.971   2.747   0.500
 8089SOL    HW125166   4.997   2.843   0.508
 8089SOL    HW225167   5.049   2.693   0.469
 8090SOL     OW25168   5.232   1.915   6.577
 8090SOL    HW125169   5.229   1.878   6.484
 8090SOL    HW225170   5.326   1.912   6.611
 8091SOL     OW25171   3.190   4.236   6.940
 8091SOL    HW125172   3.267   4.199   6.888
 8091SOL    HW225173   3.154   4.164   7.000
 8092SOL     OW25174   1.361   1.006   5.028
 8092SOL    HW125175   1.308   1.039   4.950
 8092SOL    HW225176   1.320   0.923   5.065
 8093SOL     OW25177   5.943   5.803   1.661
 8093SOL    HW125178   5.942   5.898   1.630
 8093SOL    HW225179   6.038   5.771   1.666
 8094SOL     OW25180   1.437   4.069   6.559
 8094SOL    HW125181   1.502   4.059   6.484
 8094SOL    HW225182   1.407   3.979   6.590
 8095SOL     OW25183   5.351   3.407   4.089
 8095SOL    HW125184   5.367   3.354   4.006
 8095SOL    HW225185   5.294   3.353   4.152
 8096SOL     OW25186   3.161   5.629   1.732
 8096SOL    HW125187   3.111   5.646   1.817
 8096SOL    HW225188   3.187   5.532   1.728
 8097SOL     OW25189   5.114   0.860   3.536
 8097SOL    HW125190   5.124   0.789   3.466
 8097SOL    HW225191   5.125   0.950   3.494
 8098SOL     OW25192   2.822   6.251   4.130
 8098SOL    HW125193   2.738   6.247   4.185
 8098SOL    HW225194   2.837   6.162   4.086
 8099SOL     OW25195   5.250   6.515   4.905
 8099SOL    HW125196   5.347   6.498   4.924
 8099SOL    HW225197   5.200   6.429   4.909
 8100SOL     OW25198   0.063   6.961   0.429
 8100SOL    HW125199   6.995   6.929   0.400
 8100SOL    HW225200   0.079   0.029   0.391
 8101SOL     OW25201   1.481   6.614   4.226
 8101SOL    HW125202   1.471   6.546   4.299
 8101SOL    HW225203   1.395   6.620   4.174
 8102SOL     OW25204   6.959   5.176   5.931
 8102SOL    HW125205   6.910   5.263   5.940
 8102SOL    HW225206   0.034   5.192   5.941
 8103SOL     OW25207   3.699   1.748   2.073
 8103SOL    HW125208   3.749   1.746   2.159
 8103SOL    HW225209   3.758   1.715   1.999
 8104SOL     OW25210   3.114   6.780   5.701
 8104SOL    HW125211   3.103   6.689   5.742
 8104SOL    HW225212   3.032   6.835   5.718
 8105SOL     OW25213   2.335   2.286   3.628
 8105SOL    HW125214   2.383   2.203   3.655
 8105SOL    HW225215   2.401   2.358   3.608
 8106SOL     OW25216   1.144   4.248   3.859
 8106SOL    HW125217   1.064   4.260   3.916
 8106SOL    HW225218   1.164   4.150   3.850
 8107SOL     OW25219   2.123   6.383   5.951
 8107SOL    HW125220   2.204   6.337   5.915
 8107SOL    HW225221   2.080   6.324   6.020
 8108SOL     OW25222   0.406   3.791   4.587
 8108SOL    HW125223   0.431   3.714   4.529
 8108SOL    HW225224   0.338   3.762   4.654
 8109SOL     OW25225   1.760   4.540   5.332
 8109SOL    HW125226   1.792   4.580   5.418
 8109SOL    HW225227   1.691   4.599   5.291
 8110SOL     OW25228   2.042   6.668   0.677
 8110SOL    HW125229   2.133   6.707   0.687
 8110SOL    HW225230   2.046   6.590   0.613
 8111SOL     OW25231   2.891   5.772   4.709
 8111SOL    HW125232   2.844   5.694   4.751
 8111SOL    HW225233   2.947   5.739   4.633
 8112SOL     OW25234   2.573   0.356   5.549
 8112SOL    HW125235   2.658   0.306   5.567
 8112SOL    HW225236   2.589   0.424   5.477
 8113SOL     OW25237   3.722   2.288   0.192
 8113SOL    HW125238   3.820   2.285   0.209
 8113SOL    HW225239   3.702   2.355   0.120
 8114SOL     OW25240   2.283   2.750   2.624
 8114SOL    HW125241   2.359   2.685   2.618
 8114SOL    HW225242   2.290   2.817   2.550
 8115SOL     OW25243   3.408   1.273   1.414
 8115SOL    HW125244   3.446   1.359   1.381
 8115SOL    HW225245   3.332   1.244   1.355
 8116SOL     OW25246   5.988   6.861   5.114
 8116SOL    HW125247   5.956   6.956   5.114
 8116SOL    HW225248   5.980   6.824   5.021
 8117SOL     OW25249   1.298   1.559   4.565
 8117SOL    HW125250   1.311   1.525   4.658
 8117SOL    HW225251   1.201   1.556   4.541
 8118SOL     OW25252   1.355   4.180   5.482
 8118SOL    HW125253   1.454   4.171   5.481
 8118SOL    HW225254   1.320   4.178   5.388
 8119SOL     OW25255   0.708   5.852   3.138
 8119SOL    HW125256   0.648   5.843   3.058
 8119SOL    HW225257   0.667   5.807   3.216
 8120SOL     OW25258   4.051   4.657   0.646
 8120SOL    HW125259   4.119   4.724   0.617
 8120SOL    HW225260   4.080   4.614   0.731
 8121SOL     OW25261   0.098   7.009   2.882
 8121SOL    HW125262   0.142   6.950   2.949
 8121SOL    HW225263   0.062   0.067   2.928
 8122SOL     OW25264   0.247   5.982   1.684
 8122SOL    HW125265   0.162   5.974   1.633
 8122SOL    HW225266   0.266   6.079   1.702
 8123SOL     OW25267   1.430   6.590   6.506
 8123SOL    HW125268   1.398   6.511   6.453
 8123SOL    HW225269   1.353   6.630   6.556
 8124SOL     OW25270   1.566   5.291   1.504
 8124SOL    HW125271   1.467   5.285   1.517
 8124SOL    HW225272   1.609   5.206   1.536
 8125SOL     OW25273   6.022   4.314   2.922
 8125SOL    HW125274   5.986   4.243   2.861
 8125SOL    HW225275   5.970   4.313   3.007
 8126SOL     OW25276   5.744   4.276   2.630
 8126SOL    HW125277   5.708   4.232   2.712
 8126SOL    HW225278   5.677   4.343   2.597
 8127SOL     OW25279   2.050   5.016   0.348
 8127SOL    HW125280   1.973   4.966   0.386
 8127SOL    HW225281   2.017   5.098   0.301
 8128SOL     OW25282   3.223   2.941   5.820
 8128SOL    HW125283   3.225   2.853   5.773
 8128SOL    HW225284   3.211   2.926   5.918
 8129SOL     OW25285   5.950   0.953   6.707
 8129SOL    HW125286   5.997   0.899   6.637
 8129SOL    HW225287   5.915   1.038   6.666
 8130SOL     OW25288   1.011   5.346   6.668
 8130SOL    HW125289   1.076   5.295   6.611
 8130SOL    HW225290   0.958   5.408   6.610
 8131SOL     OW25291   3.360   0.545   0.429
 8131SOL    HW125292   3.356   0.460   0.376
 8131SOL    HW225293   3.431   0.605   0.392
 8132SOL     OW25294   5.780   5.068   4.290
 8132SOL    HW125295   5.703   5.129   4.309
 8132SOL    HW225296   5.866   5.117   4.307
 8133SOL     OW25297   2.845   5.313   3.441
 8133SOL    HW125298   2.937   5.332   3.476
 8133SOL    HW225299   2.779   5.372   3.487
 8134SOL     OW25300   2.168   2.551   3.938
 8134SOL    HW125301   2.256   2.591   3.964
 8134SOL    HW225302   2.157   2.462   3.982
 8135SOL     OW25303   3.803   5.376   2.270
 8135SOL    HW125304   3.812   5.344   2.365
 8135SOL    HW225305   3.769   5.470   2.270
 8136SOL     OW25306   3.869   5.671   2.640
 8136SOL    HW125307   3.837   5.607   2.709
 8136SOL    HW225308   3.905   5.620   2.562
 8137SOL     OW25309   2.162   3.926   4.814
 8137SOL    HW125310   2.108   4.006   4.788
 8137SOL    HW225311   2.238   3.955   4.873
 8138SOL     OW25312   5.578   1.664   2.574
 8138SOL    HW125313   5.665   1.631   2.537
 8138SOL    HW225314   5.506   1.596   2.557
 8139SOL     OW25315   1.515   3.047   3.281
 8139SOL    HW125316   1.579   2.996   3.223
 8139SOL    HW225317   1.562   3.073   3.366
 8140SOL     OW25318   5.370   0.148   0.087
 8140SOL    HW125319   5.426   0.108   0.014
 8140SOL    HW225320   5.274   0.142   0.063
 8141SOL     OW25321   4.722   1.483   5.993
 8141SOL    HW125322   4.798   1.440   6.041
 8141SOL    HW225323   4.755   1.562   5.942
 8142SOL     OW25324   1.801   6.092   0.104
 8142SOL    HW125325   1.812   6.121   0.199
 8142SOL    HW225326   1.874   6.028   0.080
 8143SOL     OW25327   5.167   4.611   0.652
 8143SOL    HW125328   5.207   4.587   0.564
 8143SOL    HW225329   5.073   4.642   0.639
 8144SOL     OW25330   0.035   5.028   5.726
 8144SOL    HW125331   0.015   5.099   5.794
 8144SOL    HW225332   0.107   4.969   5.761
 8145SOL     OW25333   5.960   6.041   6.992
 8145SOL    HW125334   5.964   5.963   0.031
 8145SOL    HW225335   5.939   6.124   0.020
 8146SOL     OW25336   5.720   0.252   4.752
 8146SOL    HW125337   5.816   0.265   4.728
 8146SOL    HW225338   5.713   0.197   4.835
 8147SOL     OW25339   0.796   0.721   5.997
 8147SOL    HW125340   0.841   0.741   5.910
 8147SOL    HW225341   0.808   0.798   6.060
 8148SOL     OW25342   4.275   4.708   7.009
 8148SOL    HW125343   4.231   4.645   6.945
 8148SOL    HW225344   4.367   4.730   6.976
 8149SOL     OW25345   1.211   6.754   4.338
 8149SOL    HW125346   1.216   6.719   4.245
 8149SOL    HW225347   1.116   6.772   4.362
 8150SOL     OW25348   1.183   3.191   0.491
 8150SOL    HW125349   1.115   3.202   0.565
 8150SOL    HW225350   1.271   3.167   0.531
 8151SOL     OW25351   6.346   4.368   4.106
 8151SOL    HW125352   6.289   4.414   4.037
 8151SOL    HW225353   6.374   4.434   4.176
 8152SOL     OW25354   4.529   2.294   3.383
 8152SOL    HW125355   4.579   2.285   3.297
 8152SOL    HW225356   4.545   2.213   3.439
 8153SOL     OW25357   0.571   1.720   4.068
 8153SOL    HW125358   0.478   1.721   4.033
 8153SOL    HW225359   0.570   1.739   4.166
 8154SOL     OW25360   2.411   1.839   3.400
 8154SOL    HW125361   2.425   1.883   3.489
 8154SOL    HW225362   2.465   1.755   3.395
 8155SOL     OW25363   1.417   4.611   1.802
 8155SOL    HW125364   1.479   4.689   1.805
 8155SOL    HW225365   1.356   4.620   1.722
 8156SOL     OW25366   6.000   5.010   2.087
 8156SOL    HW125367   5.962   5.085   2.033
 8156SOL    HW225368   5.963   4.923   2.055
 8157SOL     OW25369   0.004   2.942   6.680
 8157SOL    HW125370   6.991   2.863   6.731
 8157SOL    HW225371   0.071   2.910   6.614
 8158SOL     OW25372   5.557   4.747   6.294
 8158SOL    HW125373   5.579   4.828   6.240
 8158SOL    HW225374   5.457   4.739   6.303
 8159SOL     OW25375   3.466   5.903   5.761
 8159SOL    HW125376   3.530   5.828   5.740
 8159SOL    HW225377   3.449   5.905   5.859
 8160SOL     OW25378   5.036   1.215   3.297
 8160SOL    HW125379   4.984   1.130   3.291
 8160SOL    HW225380   5.123   1.198   3.342
 8161SOL     OW25381   6.000   3.239   0.692
 8161SOL    HW125382   6.084   3.262   0.741
 8161SOL    HW225383   5.990   3.140   0.688
 8162SOL     OW25384   0.401   5.071   6.824
 8162SOL    HW125385   0.388   5.031   6.915
 8162SOL    HW225386   0.338   5.028   6.760
 8163SOL     OW25387   4.539   4.641   5.340
 8163SOL    HW125388   4.511   4.584   5.417
 8163SOL    HW225389   4.615   4.700   5.368
 8164SOL     OW25390   5.955   1.320   0.389
 8164SOL    HW125391   6.023   1.386   0.420
 8164SOL    HW225392   5.894   1.297   0.464
 8165SOL     OW25393   6.611   2.161   6.237
 8165SOL    HW125394   6.699   2.188   6.278
 8165SOL    HW225395   6.543   2.152   6.310
 8166SOL     OW25396   1.535   2.397   4.555
 8166SOL    HW125397   1.481   2.389   4.472
 8166SOL    HW225398   1.508   2.325   4.619
 8167SOL     OW25399   6.478   1.659   4.083
 8167SOL    HW125400   6.438   1.699   4.165
 8167SOL    HW225401   6.444   1.566   4.072
 8168SOL     OW25402   2.607   0.510   1.473
 8168SOL    HW125403   2.521   0.462   1.453
 8168SOL    HW225404   2.661   0.456   1.538
 8169SOL     OW25405   5.007   2.471   0.636
 8169SOL    HW125406   4.980   2.551   0.582
 8169SOL    HW225407   5.075   2.499   0.704
 8170SOL     OW25408   6.355   4.172   2.299
 8170SOL    HW125409   6.363   4.137   2.392
 8170SOL    HW225410   6.446   4.175   2.257
 8171SOL     OW25411   1.719   1.133   0.030
 8171SOL    HW125412   1.807   1.177   0.011
 8171SOL    HW225413   1.734   1.042   0.069
 8172SOL     OW25414   0.898   2.634   1.703
 8172SOL    HW125415   0.877   2.677   1.791
 8172SOL    HW225416   0.946   2.547   1.720
 8173SOL     OW25417   5.421   2.302   1.977
 8173SOL    HW125418   5.380   2.322   2.067
 8173SOL    HW225419   5.452   2.207   1.974
 8174SOL     OW25420   2.110   5.603   2.669
 8174SOL    HW125421   2.083   5.561   2.756
 8174SOL    HW225422   2.081   5.699   2.668
 8175SOL     OW25423   0.527   2.682   4.487
 8175SOL    HW125424   0.552   2.626   4.566
 8175SOL    HW225425   0.433   2.660   4.460
 8176SOL     OW25426   1.638   4.757   0.998
 8176SOL    HW125427   1.546   4.777   0.965
 8176SOL    HW225428   1.670   4.671   0.959
 8177SOL     OW25429   3.521   1.583   2.676
 8177SOL    HW125430   3.608   1.535   2.665
 8177SOL    HW225431   3.448   1.529   2.632
 8178SOL     OW25432   2.110   6.618   1.370
 8178SOL    HW125433   2.207   6.628   1.349
 8178SOL    HW225434   2.058   6.611   1.285
 8179SOL     OW25435   5.187   0.729   3.754
 8179SOL    HW125436   5.155   0.641   3.720
 8179SOL    HW225437   5.183   0.797   3.680
 8180SOL     OW25438   5.445   6.772   6.939
 8180SOL    HW125439   5.381   6.730   6.874
 8180SOL    HW225440   5.475   6.861   6.904
 8181SOL     OW25441   1.116   1.296   1.394
 8181SOL    HW125442   1.215   1.311   1.399
 8181SOL    HW225443   1.098   1.202   1.366
 8182SOL     OW25444   3.391   3.792   4.839
 8182SOL    HW125445   3.425   3.712   4.790
 8182SOL    HW225446   3.440   3.874   4.806
 8183SOL     OW25447   6.122   0.476   4.742
 8183SOL    HW125448   6.143   0.381   4.716
 8183SOL    HW225449   6.158   0.538   4.672
 8184SOL     OW25450   1.048   0.021   6.965
 8184SOL    HW125451   1.139   7.003   6.960
 8184SOL    HW225452   1.038   0.069   0.029
 8185SOL     OW25453   0.915   0.268   0.651
 8185SOL    HW125454   0.933   0.171   0.640
 8185SOL    HW225455   0.836   0.281   0.710
 8186SOL     OW25456   1.043   4.936   6.533
 8186SOL    HW125457   1.021   4.886   6.617
 8186SOL    HW225458   1.131   4.906   6.498
 8187SOL     OW25459   1.603   1.467   5.161
 8187SOL    HW125460   1.604   1.565   5.139
 8187SOL    HW225461   1.513   1.429   5.139
 8188SOL     OW25462   3.643   2.059   3.702
 8188SOL    HW125463   3.599   2.060   3.612
 8188SOL    HW225464   3.574   2.059   3.774
 8189SOL     OW25465   4.771   4.530   3.635
 8189SOL    HW125466   4.677   4.521   3.602
 8189SOL    HW225467   4.797   4.627   3.636
 8190SOL     OW25468   5.491   3.273   2.817
 8190SOL    HW125469   5.492   3.243   2.722
 8190SOL    HW225470   5.583   3.299   2.845
 8191SOL     OW25471   4.411   5.007   1.842
 8191SOL    HW125472   4.471   5.083   1.818
 8191SOL    HW225473   4.458   4.946   1.906
 8192SOL     OW25474   1.765   4.935   3.658
 8192SOL    HW125475   1.777   4.989   3.574
 8192SOL    HW225476   1.852   4.933   3.708
 8193SOL     OW25477   6.788   4.957   5.293
 8193SOL    HW125478   6.834   4.887   5.239
 8193SOL    HW225479   6.703   4.984   5.248
 8194SOL     OW25480   4.337   6.881   1.718
 8194SOL    HW125481   4.250   6.927   1.734
 8194SOL    HW225482   4.412   6.943   1.743
 8195SOL     OW25483   5.881   0.118   3.581
 8195SOL    HW125484   5.878   0.069   3.668
 8195SOL    HW225485   5.956   0.083   3.525
 8196SOL     OW25486   4.871   1.040   0.217
 8196SOL    HW125487   4.914   1.051   0.307
 8196SOL    HW225488   4.772   1.050   0.226
 8197SOL     OW25489   4.861   1.615   1.568
 8197SOL    HW125490   4.919   1.620   1.649
 8197SOL    HW225491   4.780   1.561   1.588
 8198SOL     OW25492   2.302   6.910   1.676
 8198SOL    HW125493   2.302   6.866   1.766
 8198SOL    HW225494   2.393   6.904   1.636
 8199SOL     OW25495   5.127   2.823   5.929
 8199SOL    HW125496   5.075   2.894   5.879
 8199SOL    HW225497   5.064   2.750   5.956
 8200SOL     OW25498   5.722   3.930   0.828
 8200SOL    HW125499   5.644   3.993   0.828
 8200SOL    HW225500   5.781   3.950   0.750
 8201SOL     OW25501   0.061   0.519   5.231
 8201SOL    HW125502   0.116   0.467   5.296
 8201SOL    HW225503   0.121   0.566   5.167
 8202SOL     OW25504   0.164   6.501   2.201
 8202SOL    HW125505   0.207   6.463   2.120
 8202SOL    HW225506   0.196   6.452   2.282
 8203SOL     OW25507   1.982   3.135   0.576
 8203SOL    HW125508   2.076   3.159   0.552
 8203SOL    HW225509   1.981   3.051   0.630
 8204SOL     OW25510   4.760   3.380   1.045
 8204SOL    HW125511   4.728   3.289   1.020
 8204SOL    HW225512   4.774   3.434   0.963
 8205SOL     OW25513   0.696   2.662   0.598
 8205SOL    HW125514   0.794   2.673   0.612
 8205SOL    HW225515   0.677   2.651   0.501
 8206SOL     OW25516   4.042   1.390   0.427
 8206SOL    HW125517   3.974   1.440   0.374
 8206SOL    HW225518   4.131   1.436   0.418
 8207SOL     OW25519   3.558   2.911   4.401
 8207SOL    HW125520   3.502   2.989   4.431
 8207SOL    HW225521   3.637   2.902   4.462
 8208SOL     OW25522   1.068   1.063   0.772
 8208SOL    HW125523   1.164   1.046   0.794
 8208SOL    HW225524   1.056   1.061   0.673
 8209SOL     OW25525   6.481   0.967   5.305
 8209SOL    HW125526   6.387   0.956   5.274
 8209SOL    HW225527   6.483   1.012   5.394
 8210SOL     OW25528   2.058   2.852   0.442
 8210SOL    HW125529   2.145   2.806   0.429
 8210SOL    HW225530   2.058   2.939   0.393
 8211SOL     OW25531   3.213   3.718   1.144
 8211SOL    HW125532   3.188   3.677   1.232
 8211SOL    HW225533   3.139   3.778   1.114
 8212SOL     OW25534   1.735   2.498   2.889
 8212SOL    HW125535   1.732   2.528   2.794
 8212SOL    HW225536   1.781   2.409   2.894
 8213SOL     OW25537   0.489   5.191   1.535
 8213SOL    HW125538   0.476   5.290   1.533
 8213SOL    HW225539   0.580   5.170   1.573
 8214SOL     OW25540   5.558   4.435   3.653
 8214SOL    HW125541   5.528   4.523   3.688
 8214SOL    HW225542   5.480   4.373   3.647
 8215SOL     OW25543   3.374   4.916   4.792
 8215SOL    HW125544   3.376   4.821   4.823
 8215SOL    HW225545   3.313   4.969   4.851
 8216SOL     OW25546   5.200   4.865   3.764
 8216SOL    HW125547   5.105   4.872   3.793
 8216SOL    HW225548   5.260   4.856   3.844
 8217SOL     OW25549   1.498   5.550   0.669
 8217SOL    HW125550   1.554   5.522   0.748
 8217SOL    HW225551   1.545   5.524   0.585
 8218SOL     OW25552   0.962   2.142   6.860
 8218SOL    HW125553   0.963   2.190   6.772
 8218SOL    HW225554   0.892   2.183   6.920
 8219SOL     OW25555   4.436   1.891   0.155
 8219SOL    HW125556   4.402   1.939   0.236
 8219SOL    HW225557   4.468   1.800   0.181
 8220SOL     OW25558   3.653   3.424   2.779
 8220SOL    HW125559   3.685   3.383   2.865
 8220SOL    HW225560   3.731   3.447   2.722
 8221SOL     OW25561   4.577   6.190   4.101
 8221SOL    HW125562   4.486   6.156   4.125
 8221SOL    HW225563   4.641   6.166   4.174
 8222SOL     OW25564   5.452   2.043   2.060
 8222SOL    HW125565   5.446   2.044   2.160
 8222SOL    HW225566   5.376   1.991   2.022
 8223SOL     OW25567   0.614   4.591   5.745
 8223SOL    HW125568   0.544   4.601   5.674
 8223SOL    HW225569   0.570   4.572   5.833
 8224SOL     OW25570   1.340   2.539   3.203
 8224SOL    HW125571   1.262   2.493   3.246
 8224SOL    HW225572   1.313   2.631   3.175
 8225SOL     OW25573   4.792   0.944   6.984
 8225SOL    HW125574   4.821   0.958   0.056
 8225SOL    HW225575   4.804   0.848   6.959
 8226SOL     OW25576   5.019   0.384   1.562
 8226SOL    HW125577   5.086   0.445   1.604
 8226SOL    HW225578   5.059   0.341   1.482
 8227SOL     OW25579   6.607   2.683   3.962
 8227SOL    HW125580   6.560   2.687   3.875
 8227SOL    HW225581   6.540   2.679   4.036
 8228SOL     OW25582   0.311   2.497   5.210
 8228SOL    HW125583   0.248   2.487   5.287
 8228SOL    HW225584   0.402   2.463   5.236
 8229SOL     OW25585   2.786   5.409   0.012
 8229SOL    HW125586   2.854   5.456   6.978
 8229SOL    HW225587   2.706   5.387   6.980
 8230SOL     OW25588   5.333   0.417   5.359
 8230SOL    HW125589   5.328   0.402   5.458
 8230SOL    HW225590   5.245   0.395   5.318
 8231SOL     OW25591   4.923   5.963   1.702
 8231SOL    HW125592   4.943   6.003   1.613
 8231SOL    HW225593   4.829   5.985   1.728
 8232SOL     OW25594   4.306   1.520   0.495
 8232SOL    HW125595   4.265   1.602   0.535
 8232SOL    HW225596   4.347   1.544   0.407
 8233SOL     OW25597   0.567   5.562   6.049
 8233SOL    HW125598   0.611   5.591   5.964
 8233SOL    HW225599   0.590   5.466   6.067
 8234SOL     OW25600   3.022   2.831   0.291
 8234SOL    HW125601   3.116   2.865   0.282
 8234SOL    HW225602   2.961   2.889   0.238
 8235SOL     OW25603   2.790   3.618   0.741
 8235SOL    HW125604   2.781   3.640   0.838
 8235SOL    HW225605   2.714   3.558   0.714
 8236SOL     OW25606   6.859   3.592   6.888
 8236SOL    HW125607   6.799   3.672   6.887
 8236SOL    HW225608   6.909   3.588   6.974
 8237SOL     OW25609   4.930   5.714   5.134
 8237SOL    HW125610   4.889   5.788   5.082
 8237SOL    HW225611   5.024   5.699   5.102
 8238SOL     OW25612   1.424   4.018   7.010
 8238SOL    HW125613   1.502   4.055   6.959
 8238SOL    HW225614   1.437   4.033   0.085
 8239SOL     OW25615   6.187   1.997   5.480
 8239SOL    HW125616   6.092   2.025   5.466
 8239SOL    HW225617   6.217   1.940   5.403
 8240SOL     OW25618   3.420   3.781   2.686
 8240SOL    HW125619   3.370   3.866   2.674
 8240SOL    HW225620   3.356   3.705   2.697
 8241SOL     OW25621   2.875   6.638   1.062
 8241SOL    HW125622   2.969   6.604   1.070
 8241SOL    HW225623   2.811   6.563   1.077
 8242SOL     OW25624   0.854   4.449   5.751
 8242SOL    HW125625   0.929   4.507   5.719
 8242SOL    HW225626   0.770   4.503   5.757
 8243SOL     OW25627   0.683   2.968   5.806
 8243SOL    HW125628   0.682   2.989   5.708
 8243SOL    HW225629   0.769   2.923   5.829
 8244SOL     OW25630   0.331   0.056   4.074
 8244SOL    HW125631   0.321   0.135   4.014
 8244SOL    HW225632   0.427   0.031   4.083
 8245SOL     OW25633   4.573   1.406   2.188
 8245SOL    HW125634   4.525   1.345   2.124
 8245SOL    HW225635   4.560   1.374   2.281
 8246SOL     OW25636   6.407   4.201   5.598
 8246SOL    HW125637   6.377   4.268   5.666
 8246SOL    HW225638   6.369   4.111   5.621
 8247SOL     OW25639   0.857   1.066   1.391
 8247SOL    HW125640   0.875   1.085   1.294
 8247SOL    HW225641   0.943   1.041   1.435
 8248SOL     OW25642   6.193   4.535   3.674
 8248SOL    HW125643   6.289   4.519   3.697
 8248SOL    HW225644   6.164   4.468   3.605
 8249SOL     OW25645   1.903   4.337   4.470
 8249SOL    HW125646   1.865   4.257   4.423
 8249SOL    HW225647   1.995   4.316   4.503
 8250SOL     OW25648   3.631   4.137   3.101
 8250SOL    HW125649   3.730   4.147   3.094
 8250SOL    HW225650   3.606   4.041   3.088
 8251SOL     OW25651   5.481   2.067   5.060
 8251SOL    HW125652   5.448   2.004   5.131
 8251SOL    HW225653   5.578   2.051   5.044
 8252SOL     OW25654   3.273   3.749   6.176
 8252SOL    HW125655   3.237   3.831   6.219
 8252SOL    HW225656   3.200   3.702   6.126
 8253SOL     OW25657   3.752   2.926   5.367
 8253SOL    HW125658   3.689   2.900   5.293
 8253SOL    HW225659   3.748   3.026   5.379
 8254SOL     OW25660   4.257   4.735   4.776
 8254SOL    HW125661   4.311   4.819   4.775
 8254SOL    HW225662   4.318   4.656   4.766
 8255SOL     OW25663   4.035   6.038   4.151
 8255SOL    HW125664   3.988   6.120   4.118
 8255SOL    HW225665   3.988   6.002   4.232
 8256SOL     OW25666   6.370   0.449   3.297
 8256SOL    HW125667   6.296   0.382   3.308
 8256SOL    HW225668   6.401   0.479   3.387
 8257SOL     OW25669   6.167   4.711   3.030
 8257SOL    HW125670   6.242   4.739   3.091
 8257SOL    HW225671   6.121   4.791   2.993
 8258SOL     OW25672   4.596   1.520   0.832
 8258SOL    HW125673   4.690   1.511   0.867
 8258SOL    HW225674   4.541   1.569   0.899
 8259SOL     OW25675   4.262   1.316   3.475
 8259SOL    HW125676   4.186   1.327   3.539
 8259SOL    HW225677   4.322   1.396   3.481
 8260SOL     OW25678   2.315   6.766   1.916
 8260SOL    HW125679   2.243   6.700   1.895
 8260SOL    HW225680   2.320   6.779   2.015
 8261SOL     OW25681   5.452   0.889   1.518
 8261SOL    HW125682   5.382   0.844   1.462
 8261SOL    HW225683   5.408   0.942   1.590
 8262SOL     OW25684   1.214   2.136   1.436
 8262SOL    HW125685   1.135   2.082   1.465
 8262SOL    HW225686   1.286   2.130   1.505
 8263SOL     OW25687   0.269   1.851   0.897
 8263SOL    HW125688   0.172   1.837   0.914
 8263SOL    HW225689   0.322   1.780   0.944
 8264SOL     OW25690   1.031   5.508   2.102
 8264SOL    HW125691   1.091   5.432   2.079
 8264SOL    HW225692   1.043   5.532   2.198
 8265SOL     OW25693   1.558   0.021   1.247
 8265SOL    HW125694   1.483   0.079   1.279
 8265SOL    HW225695   1.550   0.009   1.148
 8266SOL     OW25696   1.967   6.876   2.727
 8266SOL    HW125697   1.893   6.812   2.708
 8266SOL    HW225698   2.019   6.893   2.643
 8267SOL     OW25699   2.062   3.718   1.263
 8267SOL    HW125700   2.107   3.675   1.342
 8267SOL    HW225701   2.036   3.811   1.287
 8268SOL     OW25702   2.159   6.551   6.239
 8268SOL    HW125703   2.118   6.571   6.328
 8268SOL    HW225704   2.134   6.622   6.174
 8269SOL     OW25705   5.776   1.556   1.148
 8269SOL    HW125706   5.754   1.653   1.159
 8269SOL    HW225707   5.867   1.538   1.187
 8270SOL     OW25708   2.585   6.793   4.340
 8270SOL    HW125709   2.565   6.876   4.287
 8270SOL    HW225710   2.637   6.729   4.284
 8271SOL     OW25711   6.589   0.988   2.726
 8271SOL    HW125712   6.609   0.903   2.773
 8271SOL    HW225713   6.629   0.986   2.635
 8272SOL     OW25714   4.805   0.787   1.503
 8272SOL    HW125715   4.737   0.715   1.501
 8272SOL    HW225716   4.894   0.750   1.477
 8273SOL     OW25717   1.926   6.536   1.190
 8273SOL    HW125718   1.842   6.507   1.235
 8273SOL    HW225719   1.925   6.505   1.095
 8274SOL     OW25720   4.588   4.663   3.042
 8274SOL    HW125721   4.614   4.744   2.988
 8274SOL    HW225722   4.558   4.590   2.980
 8275SOL     OW25723   4.312   1.675   6.508
 8275SOL    HW125724   4.299   1.760   6.455
 8275SOL    HW225725   4.331   1.698   6.603
 8276SOL     OW25726   1.005   1.903   3.947
 8276SOL    HW125727   0.952   1.908   3.862
 8276SOL    HW225728   0.991   1.987   4.000
 8277SOL     OW25729   0.137   0.767   6.412
 8277SOL    HW125730   0.228   0.808   6.415
 8277SOL    HW225731   0.109   0.754   6.317
 8278SOL     OW25732   2.425   2.055   6.955
 8278SOL    HW125733   2.369   2.062   6.873
 8278SOL    HW225734   2.522   2.056   6.930
 8279SOL     OW25735   0.731   6.486   4.727
 8279SOL    HW125736   0.829   6.469   4.743
 8279SOL    HW225737   0.713   6.489   4.629
 8280SOL     OW25738   2.856   3.343   6.934
 8280SOL    HW125739   2.769   3.307   6.965
 8280SOL    HW225740   2.868   3.436   6.969
 8281SOL     OW25741   0.885   5.596   1.395
 8281SOL    HW125742   0.953   5.630   1.329
 8281SOL    HW225743   0.933   5.553   1.471
 8282SOL     OW25744   5.636   3.182   6.451
 8282SOL    HW125745   5.561   3.215   6.394
 8282SOL    HW225746   5.664   3.091   6.420
 8283SOL     OW25747   1.274   4.545   6.391
 8283SOL    HW125748   1.240   4.530   6.299
 8283SOL    HW225749   1.372   4.525   6.394
 8284SOL     OW25750   0.568   3.867   1.465
 8284SOL    HW125751   0.533   3.865   1.371
 8284SOL    HW225752   0.642   3.933   1.471
 8285SOL     OW25753   3.982   3.121   5.165
 8285SOL    HW125754   3.918   3.178   5.216
 8285SOL    HW225755   4.073   3.131   5.204
 8286SOL     OW25756   5.442   2.826   6.218
 8286SOL    HW125757   5.436   2.772   6.302
 8286SOL    HW225758   5.487   2.771   6.147
 8287SOL     OW25759   1.478   5.838   4.902
 8287SOL    HW125760   1.516   5.827   4.810
 8287SOL    HW225761   1.389   5.883   4.897
 8288SOL     OW25762   2.797   2.259   3.086
 8288SOL    HW125763   2.860   2.320   3.041
 8288SOL    HW225764   2.730   2.225   3.020
 8289SOL     OW25765   0.457   6.972   1.111
 8289SOL    HW125766   0.394   6.953   1.186
 8289SOL    HW225767   0.512   0.029   1.133
 8290SOL     OW25768   6.480   1.254   6.897
 8290SOL    HW125769   6.445   1.325   6.959
 8290SOL    HW225770   6.533   1.187   6.950
 8291SOL     OW25771   5.255   6.637   6.785
 8291SOL    HW125772   5.292   6.602   6.699
 8291SOL    HW225773   5.155   6.629   6.784
 8292SOL     OW25774   2.554   6.354   0.391
 8292SOL    HW125775   2.572   6.256   0.379
 8292SOL    HW225776   2.639   6.405   0.383
 8293SOL     OW25777   3.869   6.665   0.116
 8293SOL    HW125778   3.912   6.576   0.102
 8293SOL    HW225779   3.778   6.653   0.156
 8294SOL     OW25780   5.483   3.651   5.479
 8294SOL    HW125781   5.531   3.693   5.556
 8294SOL    HW225782   5.549   3.626   5.408
 8295SOL     OW25783   5.596   4.815   1.797
 8295SOL    HW125784   5.535   4.758   1.742
 8295SOL    HW225785   5.599   4.781   1.891
 8296SOL     OW25786   1.505   6.829   5.936
 8296SOL    HW125787   1.567   6.901   5.968
 8296SOL    HW225788   1.463   6.784   6.015
 8297SOL     OW25789   6.206   2.544   3.040
 8297SOL    HW125790   6.108   2.544   3.018
 8297SOL    HW225791   6.239   2.638   3.043
 8298SOL     OW25792   6.035   1.459   1.544
 8298SOL    HW125793   5.943   1.425   1.524
 8298SOL    HW225794   6.037   1.558   1.533
 8299SOL     OW25795   0.106   2.386   2.030
 8299SOL    HW125796   0.095   2.459   2.098
 8299SOL    HW225797   0.047   2.404   1.952
 8300SOL     OW25798   0.589   5.443   5.489
 8300SOL    HW125799   0.590   5.451   5.389
 8300SOL    HW225800   0.633   5.357   5.516
 8301SOL     OW25801   4.210   1.554   1.645
 8301SOL    HW125802   4.200   1.621   1.718
 8301SOL    HW225803   4.236   1.600   1.560
 8302SOL     OW25804   6.105   5.901   5.934
 8302SOL    HW125805   6.058   5.818   5.903
 8302SOL    HW225806   6.039   5.961   5.978
 8303SOL     OW25807   6.907   0.377   4.293
 8303SOL    HW125808   6.991   0.415   4.254
 8303SOL    HW225809   6.930   0.306   4.360
 8304SOL     OW25810   1.546   3.646   6.568
 8304SOL    HW125811   1.527   3.702   6.487
 8304SOL    HW225812   1.541   3.704   6.650
 8305SOL     OW25813   3.543   5.182   4.325
 8305SOL    HW125814   3.520   5.251   4.394
 8305SOL    HW225815   3.639   5.190   4.300
 8306SOL     OW25816   0.323   3.268   4.986
 8306SOL    HW125817   0.301   3.176   5.018
 8306SOL    HW225818   0.321   3.270   4.886
 8307SOL     OW25819   4.051   5.249   1.923
 8307SOL    HW125820   4.011   5.226   2.012
 8307SOL    HW225821   3.978   5.279   1.861
 8308SOL     OW25822   4.485   6.445   1.467
 8308SOL    HW125823   4.539   6.390   1.402
 8308SOL    HW225824   4.544   6.514   1.509
 8309SOL     OW25825   5.759   5.440   3.148
 8309SOL    HW125826   5.788   5.373   3.216
 8309SOL    HW225827   5.672   5.481   3.176
 8310SOL     OW25828   1.244   4.383   0.876
 8310SOL    HW125829   1.149   4.404   0.901
 8310SOL    HW225830   1.256   4.284   0.871
 8311SOL     OW25831   0.205   1.223   5.775
 8311SOL    HW125832   0.261   1.240   5.694
 8311SOL    HW225833   0.186   1.125   5.782
 8312SOL     OW25834   4.845   6.292   1.485
 8312SOL    HW125835   4.768   6.327   1.432
 8312SOL    HW225836   4.855   6.345   1.569
 8313SOL     OW25837   4.156   1.704   2.577
 8313SOL    HW125838   4.171   1.650   2.659
 8313SOL    HW225839   4.229   1.771   2.567
 8314SOL     OW25840   5.085   6.381   1.009
 8314SOL    HW125841   5.148   6.327   0.952
 8314SOL    HW225842   5.088   6.476   0.979
 8315SOL     OW25843   4.071   2.926   0.761
 8315SOL    HW125844   4.063   2.827   0.777
 8315SOL    HW225845   3.999   2.956   0.699
 8316SOL     OW25846   0.597   3.106   1.282
 8316SOL    HW125847   0.667   3.105   1.210
 8316SOL    HW225848   0.573   3.013   1.307
 8317SOL     OW25849   2.032   3.135   2.380
 8317SOL    HW125850   2.067   3.042   2.384
 8317SOL    HW225851   2.073   3.183   2.303
 8318SOL     OW25852   4.778   1.949   5.073
 8318SOL    HW125853   4.868   1.976   5.105
 8318SOL    HW225854   4.764   1.981   4.979
 8319SOL     OW25855   2.961   2.431   5.811
 8319SOL    HW125856   2.905   2.400   5.734
 8319SOL    HW225857   3.039   2.370   5.822
 8320SOL     OW25858   3.491   5.059   0.977
 8320SOL    HW125859   3.430   5.036   1.053
 8320SOL    HW225860   3.585   5.035   1.001
 8321SOL     OW25861   0.264   1.080   6.166
 8321SOL    HW125862   0.172   1.043   6.157
 8321SOL    HW225863   0.331   1.006   6.161
 8322SOL     OW25864   6.610   0.273   0.256
 8322SOL    HW125865   6.685   0.336   0.239
 8322SOL    HW225866   6.610   0.245   0.352
 8323SOL     OW25867   0.045   6.921   2.630
 8323SOL    HW125868   0.069   6.944   2.724
 8323SOL    HW225869   0.092   6.837   2.602
 8324SOL     OW25870   6.754   0.348   2.614
 8324SOL    HW125871   6.846   0.309   2.617
 8324SOL    HW225872   6.688   0.275   2.597
 8325SOL     OW25873   3.737   2.982   4.634
 8325SOL    HW125874   3.678   2.959   4.711
 8325SOL    HW225875   3.743   3.082   4.625
 8326SOL     OW25876   4.433   3.126   5.365
 8326SOL    HW125877   4.421   3.221   5.336
 8326SOL    HW225878   4.343   3.081   5.371
 8327SOL     OW25879   4.757   1.903   6.041
 8327SOL    HW125880   4.684   1.958   5.999
 8327SOL    HW225881   4.836   1.962   6.058
 8328SOL     OW25882   2.548   4.032   5.952
 8328SOL    HW125883   2.525   3.948   5.904
 8328SOL    HW225884   2.464   4.081   5.976
 8329SOL     OW25885   0.271   3.423   5.597
 8329SOL    HW125886   0.343   3.394   5.535
 8329SOL    HW225887   0.250   3.349   5.661
 8330SOL     OW25888   1.912   0.383   0.260
 8330SOL    HW125889   1.838   0.421   0.317
 8330SOL    HW225890   1.970   0.457   0.227
 8331SOL     OW25891   3.166   6.864   1.070
 8331SOL    HW125892   3.259   6.899   1.070
 8331SOL    HW225893   3.124   6.879   0.981
 8332SOL     OW25894   4.579   5.022   2.654
 8332SOL    HW125895   4.555   5.010   2.557
 8332SOL    HW225896   4.502   5.064   2.702
 8333SOL     OW25897   0.258   6.044   0.191
 8333SOL    HW125898   0.261   6.049   0.091
 8333SOL    HW225899   0.342   6.084   0.228
 8334SOL     OW25900   5.914   1.407   3.973
 8334SOL    HW125901   5.921   1.313   4.005
 8334SOL    HW225902   5.856   1.411   3.891
 8335SOL     OW25903   6.350   5.488   5.812
 8335SOL    HW125904   6.372   5.390   5.816
 8335SOL    HW225905   6.403   5.537   5.881
 8336SOL     OW25906   6.904   0.749   2.190
 8336SOL    HW125907   6.917   0.730   2.287
 8336SOL    HW225908   6.952   0.680   2.136
 8337SOL     OW25909   0.539   6.824   3.602
 8337SOL    HW125910   0.513   6.766   3.525
 8337SOL    HW225911   0.636   6.811   3.622
 8338SOL     OW25912   2.161   4.828   1.909
 8338SOL    HW125913   2.247   4.880   1.909
 8338SOL    HW225914   2.154   4.776   1.993
 8339SOL     OW25915   5.905   1.249   1.811
 8339SOL    HW125916   5.856   1.335   1.824
 8339SOL    HW225917   5.999   1.268   1.785
 8340SOL     OW25918   5.054   3.744   0.897
 8340SOL    HW125919   4.995   3.815   0.857
 8340SOL    HW225920   5.107   3.701   0.825
 8341SOL     OW25921   2.284   6.108   0.333
 8341SOL    HW125922   2.276   6.191   0.388
 8341SOL    HW225923   2.380   6.084   0.322
 8342SOL     OW25924   3.662   6.795   1.670
 8342SOL    HW125925   3.620   6.705   1.673
 8342SOL    HW225926   3.595   6.862   1.639
 8343SOL     OW25927   1.439   4.918   5.939
 8343SOL    HW125928   1.491   4.865   6.006
 8343SOL    HW225929   1.343   4.922   5.968
 8344SOL     OW25930   4.794   6.540   5.825
 8344SOL    HW125931   4.884   6.575   5.850
 8344SOL    HW225932   4.794   6.515   5.729
 8345SOL     OW25933   5.434   1.768   3.530
 8345SOL    HW125934   5.372   1.689   3.535
 8345SOL    HW225935   5.384   1.851   3.551
 8346SOL     OW25936   2.366   4.673   0.180
 8346SOL    HW125937   2.271   4.656   0.207
 8346SOL    HW225938   2.375   4.664   0.081
 8347SOL     OW25939   3.031   6.767   4.857
 8347SOL    HW125940   3.089   6.715   4.794
 8347SOL    HW225941   2.955   6.710   4.887
 8348SOL     OW25942   1.757   0.193   1.465
 8348SOL    HW125943   1.756   0.264   1.395
 8348SOL    HW225944   1.665   0.154   1.475
 8349SOL     OW25945   6.071   4.231   0.767
 8349SOL    HW125946   5.982   4.276   0.759
 8349SOL    HW225947   6.103   4.204   0.676
 8350SOL     OW25948   5.159   0.699   4.658
 8350SOL    HW125949   5.094   0.658   4.595
 8350SOL    HW225950   5.144   0.798   4.660
 8351SOL     OW25951   3.732   4.994   4.849
 8351SOL    HW125952   3.821   4.985   4.804
 8351SOL    HW225953   3.659   4.970   4.784
 8352SOL     OW25954   6.762   0.119   1.889
 8352SOL    HW125955   6.834   0.123   1.820
 8352SOL    HW225956   6.801   0.126   1.980
 8353SOL     OW25957   5.533   3.567   2.267
 8353SOL    HW125958   5.558   3.653   2.311
 8353SOL    HW225959   5.564   3.569   2.171
 8354SOL     OW25960   3.474   1.263   6.619
 8354SOL    HW125961   3.570   1.280   6.638
 8354SOL    HW225962   3.443   1.182   6.670
 8355SOL     OW25963   2.941   0.939   6.650
 8355SOL    HW125964   2.974   1.027   6.686
 8355SOL    HW225965   2.874   0.956   6.578
 8356SOL     OW25966   0.817   6.563   0.438
 8356SOL    HW125967   0.718   6.548   0.442
 8356SOL    HW225968   0.839   6.653   0.475
 8357SOL     OW25969   3.827   5.659   5.955
 8357SOL    HW125970   3.798   5.748   5.989
 8357SOL    HW225971   3.926   5.656   5.947
 8358SOL     OW25972   2.102   2.878   5.477
 8358SOL    HW125973   2.023   2.824   5.502
 8358SOL    HW225974   2.110   2.882   5.377
 8359SOL     OW25975   3.732   5.914   4.594
 8359SOL    HW125976   3.754   5.883   4.501
 8359SOL    HW225977   3.781   5.857   4.660
 8360SOL     OW25978   3.430   6.902   2.630
 8360SOL    HW125979   3.431   6.840   2.708
 8360SOL    HW225980   3.341   6.895   2.584
 8361SOL     OW25981   1.683   1.070   2.049
 8361SOL    HW125982   1.696   1.151   2.106
 8361SOL    HW225983   1.769   1.019   2.045
 8362SOL     OW25984   2.555   2.502   0.322
 8362SOL    HW125985   2.460   2.504   0.291
 8362SOL    HW225986   2.612   2.461   0.252
 8363SOL     OW25987   0.967   2.535   0.389
 8363SOL    HW125988   1.064   2.516   0.373
 8363SOL    HW225989   0.914   2.501   0.312
 8364SOL     OW25990   0.458   3.509   2.935
 8364SOL    HW125991   0.489   3.472   2.848
 8364SOL    HW225992   0.369   3.553   2.923
 8365SOL     OW25993   1.477   4.241   1.289
 8365SOL    HW125994   1.458   4.160   1.234
 8365SOL    HW225995   1.497   4.318   1.229
 8366SOL     OW25996   4.445   5.981   2.351
 8366SOL    HW125997   4.364   6.036   2.329
 8366SOL    HW225998   4.418   5.902   2.406
 8367SOL     OW25999   4.295   6.178   4.201
 8367SOL    HW126000   4.369   6.157   4.264
 8367SOL    HW226001   4.215   6.123   4.224
 8368SOL     OW26002   2.994   6.370   6.301
 8368SOL    HW126003   3.043   6.302   6.246
 8368SOL    HW226004   2.928   6.418   6.244
 8369SOL     OW26005   1.827   1.460   6.463
 8369SOL    HW126006   1.812   1.362   6.460
 8369SOL    HW226007   1.856   1.492   6.373
 8370SOL     OW26008   2.893   2.426   6.119
 8370SOL    HW126009   2.893   2.399   6.023
 8370SOL    HW226010   2.798   2.430   6.153
 8371SOL     OW26011   1.504   4.047   0.650
 8371SOL    HW126012   1.457   3.959   0.647
 8371SOL    HW226013   1.454   4.113   0.595
 8372SOL     OW26014   0.845   6.437   2.658
 8372SOL    HW126015   0.862   6.465   2.752
 8372SOL    HW226016   0.824   6.518   2.603
 8373SOL     OW26017   0.843   6.956   4.932
 8373SOL    HW126018   0.902   6.891   4.885
 8373SOL    HW226019   0.747   6.935   4.912
 8374SOL     OW26020   0.033   1.112   6.709
 8374SOL    HW126021   6.975   1.087   6.656
 8374SOL    HW226022   0.115   1.079   6.662
 8375SOL     OW26023   3.492   5.886   6.050
 8375SOL    HW126024   3.409   5.835   6.072
 8375SOL    HW226025   3.484   5.979   6.085
 8376SOL     OW26026   2.612   0.449   4.687
 8376SOL    HW126027   2.581   0.361   4.651
 8376SOL    HW226028   2.585   0.523   4.625
 8377SOL     OW26029   6.326   5.636   1.499
 8377SOL    HW126030   6.388   5.689   1.442
 8377SOL    HW226031   6.264   5.698   1.547
 8378SOL     OW26032   5.179   4.203   3.152
 8378SOL    HW126033   5.092   4.242   3.121
 8378SOL    HW226034   5.251   4.226   3.086
 8379SOL     OW26035   6.831   2.973   1.014
 8379SOL    HW126036   6.914   2.981   1.069
 8379SOL    HW226037   6.760   3.031   1.053
 8380SOL     OW26038   6.398   0.723   1.990
 8380SOL    HW126039   6.420   0.784   2.067
 8380SOL    HW226040   6.322   0.664   2.015
 8381SOL     OW26041   0.686   5.185   4.558
 8381SOL    HW126042   0.620   5.215   4.490
 8381SOL    HW226043   0.741   5.263   4.589
 8382SOL     OW26044   1.499   1.629   2.139
 8382SOL    HW126045   1.592   1.605   2.113
 8382SOL    HW226046   1.465   1.700   2.077
 8383SOL     OW26047   2.643   1.910   6.700
 8383SOL    HW126048   2.572   1.916   6.630
 8383SOL    HW226049   2.637   1.991   6.759
 8384SOL     OW26050   0.043   0.191   0.889
 8384SOL    HW126051   0.094   0.153   0.966
 8384SOL    HW226052   7.022   0.116   0.839
 8385SOL     OW26053   6.193   2.184   1.776
 8385SOL    HW126054   6.180   2.273   1.819
 8385SOL    HW226055   6.285   2.180   1.735
 8386SOL     OW26056   1.026   4.093   2.409
 8386SOL    HW126057   1.042   4.066   2.504
 8386SOL    HW226058   1.010   4.011   2.354
 8387SOL     OW26059   1.338   1.306   1.052
 8387SOL    HW126060   1.404   1.285   1.123
 8387SOL    HW226061   1.245   1.299   1.090
 8388SOL     OW26062   2.158   5.961   1.817
 8388SOL    HW126063   2.131   6.041   1.763
 8388SOL    HW226064   2.106   5.882   1.785
 8389SOL     OW26065   5.273   3.621   2.150
 8389SOL    HW126066   5.346   3.582   2.207
 8389SOL    HW226067   5.258   3.562   2.071
 8390SOL     OW26068   3.756   1.712   6.409
 8390SOL    HW126069   3.774   1.776   6.334
 8390SOL    HW226070   3.747   1.619   6.373
 8391SOL     OW26071   5.909   6.812   0.929
 8391SOL    HW126072   5.988   6.772   0.883
 8391SOL    HW226073   5.865   6.743   0.987
 8392SOL     OW26074   6.313   3.548   3.743
 8392SOL    HW126075   6.391   3.609   3.727
 8392SOL    HW226076   6.231   3.589   3.704
 8393SOL     OW26077   5.535   0.310   2.651
 8393SOL    HW126078   5.505   0.233   2.595
 8393SOL    HW226079   5.606   0.280   2.715
 8394SOL     OW26080   6.161   3.531   1.750
 8394SOL    HW126081   6.083   3.578   1.710
 8394SOL    HW226082   6.245   3.582   1.730
 8395SOL     OW26083   2.313   0.349   5.481
 8395SOL    HW126084   2.407   0.337   5.514
 8395SOL    HW226085   2.257   0.387   5.555
 8396SOL     OW26086   4.124   4.786   4.098
 8396SOL    HW126087   4.189   4.755   4.167
 8396SOL    HW226088   4.035   4.745   4.115
 8397SOL     OW26089   0.309   1.675   3.974
 8397SOL    HW126090   0.306   1.577   3.997
 8397SOL    HW226091   0.266   1.689   3.885
 8398SOL     OW26092   4.701   1.851   6.559
 8398SOL    HW126093   4.780   1.851   6.620
 8398SOL    HW226094   4.653   1.763   6.567
 8399SOL     OW26095   0.038   6.089   6.767
 8399SOL    HW126096   7.013   6.006   6.738
 8399SOL    HW226097   7.005   6.169   6.750
 8400SOL     OW26098   1.548   2.615   4.362
 8400SOL    HW126099   1.531   2.612   4.461
 8400SOL    HW226100   1.517   2.702   4.325
 8401SOL     OW26101   2.150   0.275   5.284
 8401SOL    HW126102   2.201   0.303   5.366
 8401SOL    HW226103   2.145   0.175   5.281
 8402SOL     OW26104   4.766   0.813   6.491
 8402SOL    HW126105   4.828   0.738   6.468
 8402SOL    HW226106   4.812   0.877   6.553
 8403SOL     OW26107   0.047   4.716   4.098
 8403SOL    HW126108   0.019   4.673   4.012
 8403SOL    HW226109   6.990   4.739   4.152
 8404SOL     OW26110   3.022   1.152   5.971
 8404SOL    HW126111   3.003   1.183   5.877
 8404SOL    HW226112   3.022   1.052   5.973
 8405SOL     OW26113   3.796   1.741   6.002
 8405SOL    HW126114   3.765   1.647   5.993
 8405SOL    HW226115   3.749   1.799   5.936
 8406SOL     OW26116   4.900   0.454   0.469
 8406SOL    HW126117   4.969   0.523   0.491
 8406SOL    HW226118   4.837   0.444   0.546
 8407SOL     OW26119   4.395   5.881   3.299
 8407SOL    HW126120   4.351   5.840   3.219
 8407SOL    HW226121   4.451   5.958   3.270
 8408SOL     OW26122   5.386   6.589   0.490
 8408SOL    HW126123   5.457   6.546   0.433
 8408SOL    HW226124   5.415   6.682   0.515
 8409SOL     OW26125   4.332   2.402   2.025
 8409SOL    HW126126   4.291   2.465   2.091
 8409SOL    HW226127   4.368   2.453   1.947
 8410SOL     OW26128   6.452   1.600   1.683
 8410SOL    HW126129   6.484   1.553   1.765
 8410SOL    HW226130   6.370   1.653   1.704
 8411SOL     OW26131   0.267   6.256   1.648
 8411SOL    HW126132   0.249   6.353   1.665
 8411SOL    HW226133   0.297   6.244   1.553
 8412SOL     OW26134   3.624   3.142   0.892
 8412SOL    HW126135   3.563   3.166   0.968
 8412SOL    HW226136   3.715   3.178   0.910
 8413SOL     OW26137   4.134   5.863   6.469
 8413SOL    HW126138   4.213   5.918   6.494
 8413SOL    HW226139   4.130   5.855   6.369
 8414SOL     OW26140   2.118   1.520   2.715
 8414SOL    HW126141   2.107   1.603   2.661
 8414SOL    HW226142   2.030   1.493   2.754
 8415SOL     OW26143   3.080   0.099   3.912
 8415SOL    HW126144   3.142   0.023   3.896
 8415SOL    HW226145   3.070   0.153   3.829
 8416SOL     OW26146   5.572   1.668   4.857
 8416SOL    HW126147   5.482   1.708   4.846
 8416SOL    HW226148   5.569   1.596   4.926
 8417SOL     OW26149   2.026   3.166   5.491
 8417SOL    HW126150   2.055   3.075   5.521
 8417SOL    HW226151   2.019   3.169   5.392
 8418SOL     OW26152   1.004   5.466   2.401
 8418SOL    HW126153   1.002   5.421   2.490
 8418SOL    HW226154   0.931   5.533   2.395
 8419SOL     OW26155   5.725   0.955   3.300
 8419SOL    HW126156   5.715   1.009   3.384
 8419SOL    HW226157   5.717   1.016   3.221
 8420SOL     OW26158   3.462   6.918   2.159
 8420SOL    HW126159   3.368   6.888   2.143
 8420SOL    HW226160   3.516   6.843   2.196
 8421SOL     OW26161   3.034   6.346   6.760
 8421SOL    HW126162   3.125   6.333   6.723
 8421SOL    HW226163   3.014   6.274   6.827
 8422SOL     OW26164   4.532   2.549   2.255
 8422SOL    HW126165   4.604   2.486   2.285
 8422SOL    HW226166   4.574   2.631   2.217
 8423SOL     OW26167   4.673   4.420   5.756
 8423SOL    HW126168   4.732   4.339   5.755
 8423SOL    HW226169   4.730   4.502   5.745
 8424SOL     OW26170   1.987   0.530   3.727
 8424SOL    HW126171   2.072   0.542   3.779
 8424SOL    HW226172   1.949   0.620   3.705
 8425SOL     OW26173   3.375   3.849   3.620
 8425SOL    HW126174   3.298   3.891   3.669
 8425SOL    HW226175   3.459   3.861   3.672
 8426SOL     OW26176   3.454   3.348   2.598
 8426SOL    HW126177   3.470   3.381   2.505
 8426SOL    HW226178   3.537   3.357   2.652
 8427SOL     OW26179   2.987   3.648   3.341
 8427SOL    HW126180   2.960   3.735   3.299
 8427SOL    HW226181   3.079   3.623   3.308
 8428SOL     OW26182   0.193   0.182   1.166
 8428SOL    HW126183   0.254   0.125   1.220
 8428SOL    HW226184   0.234   0.273   1.154
 8429SOL     OW26185   2.020   5.867   6.141
 8429SOL    HW126186   2.095   5.932   6.132
 8429SOL    HW226187   1.957   5.899   6.212
 8430SOL     OW26188   4.072   4.913   4.878
 8430SOL    HW126189   4.127   4.831   4.860
 8430SOL    HW226190   4.047   4.916   4.974
 8431SOL     OW26191   2.968   3.862   6.656
 8431SOL    HW126192   2.933   3.802   6.584
 8431SOL    HW226193   3.012   3.942   6.614
 8432SOL     OW26194   6.588   5.307   6.495
 8432SOL    HW126195   6.572   5.219   6.452
 8432SOL    HW226196   6.686   5.327   6.495
 8433SOL     OW26197   4.365   2.552   1.058
 8433SOL    HW126198   4.370   2.589   0.965
 8433SOL    HW226199   4.457   2.548   1.097
 8434SOL     OW26200   2.096   5.391   4.850
 8434SOL    HW126201   2.154   5.343   4.785
 8434SOL    HW226202   2.127   5.372   4.943
 8435SOL     OW26203   5.376   0.752   2.828
 8435SOL    HW126204   5.350   0.842   2.794
 8435SOL    HW226205   5.462   0.759   2.879
 8436SOL     OW26206   2.754   6.301   3.718
 8436SOL    HW126207   2.658   6.287   3.696
 8436SOL    HW226208   2.800   6.346   3.641
 8437SOL     OW26209   2.137   3.244   2.639
 8437SOL    HW126210   2.084   3.226   2.556
 8437SOL    HW226211   2.105   3.185   2.713
 8438SOL     OW26212   1.801   3.960   2.900
 8438SOL    HW126213   1.723   4.004   2.945
 8438SOL    HW226214   1.882   4.019   2.910
 8439SOL     OW26215   6.382   5.452   4.135
 8439SOL    HW126216   6.404   5.355   4.123
 8439SOL    HW226217   6.318   5.463   4.211
 8440SOL     OW26218   2.301   1.860   3.656
 8440SOL    HW126219   2.205   1.857   3.628
 8440SOL    HW226220   2.326   1.772   3.697
 8441SOL     OW26221   5.595   5.593   5.434
 8441SOL    HW126222   5.539   5.547   5.364
 8441SOL    HW226223   5.628   5.681   5.398
 8442SOL     OW26224   3.873   0.944   4.999
 8442SOL    HW126225   3.948   0.962   4.935
 8442SOL    HW226226   3.836   0.853   4.981
 8443SOL     OW26227   1.677   4.826   3.944
 8443SOL    HW126228   1.716   4.912   3.909
 8443SOL    HW226229   1.578   4.829   3.935
 8444SOL     OW26230   4.345   6.836   3.182
 8444SOL    HW126231   4.330   6.772   3.107
 8444SOL    HW226232   4.371   6.784   3.264
 8445SOL     OW26233   2.502   0.461   6.806
 8445SOL    HW126234   2.411   0.484   6.771
 8445SOL    HW226235   2.497   0.445   6.904
 8446SOL     OW26236   7.014   6.227   5.105
 8446SOL    HW126237   6.958   6.177   5.171
 8446SOL    HW226238   0.082   6.241   5.142
 8447SOL     OW26239   4.449   1.796   2.407
 8447SOL    HW126240   4.414   1.879   2.450
 8447SOL    HW226241   4.538   1.773   2.447
 8448SOL     OW26242   4.716   6.028   3.779
 8448SOL    HW126243   4.623   5.999   3.757
 8448SOL    HW226244   4.714   6.123   3.811
 8449SOL     OW26245   1.552   3.159   3.538
 8449SOL    HW126246   1.506   3.176   3.625
 8449SOL    HW226247   1.634   3.216   3.531
 8450SOL     OW26248   0.667   0.792   7.005
 8450SOL    HW126249   0.671   0.695   0.005
 8450SOL    HW226250   0.632   0.844   0.060
 8451SOL     OW26251   3.920   1.307   1.147
 8451SOL    HW126252   3.963   1.229   1.191
 8451SOL    HW226253   3.933   1.300   1.048
 8452SOL     OW26254   5.440   2.000   4.532
 8452SOL    HW126255   5.345   1.994   4.564
 8452SOL    HW226256   5.502   1.981   4.608
 8453SOL     OW26257   0.648   5.537   7.008
 8453SOL    HW126258   0.624   5.619   0.037
 8453SOL    HW226259   0.647   5.557   6.910
 8454SOL     OW26260   0.723   4.388   0.201
 8454SOL    HW126261   0.662   4.424   0.130
 8454SOL    HW226262   0.813   4.430   0.192
 8455SOL     OW26263   0.836   0.390   2.624
 8455SOL    HW126264   0.818   0.414   2.719
 8455SOL    HW226265   0.931   0.360   2.614
 8456SOL     OW26266   5.026   0.534   3.616
 8456SOL    HW126267   5.076   0.453   3.646
 8456SOL    HW226268   5.025   0.538   3.516
 8457SOL     OW26269   6.384   6.753   4.805
 8457SOL    HW126270   6.286   6.736   4.797
 8457SOL    HW226271   6.434   6.687   4.750
 8458SOL     OW26272   0.631   0.104   0.545
 8458SOL    HW126273   0.612   0.189   0.594
 8458SOL    HW226274   0.547   0.051   0.537
 8459SOL     OW26275   1.517   5.703   3.148
 8459SOL    HW126276   1.464   5.783   3.121
 8459SOL    HW226277   1.614   5.728   3.156
 8460SOL     OW26278   4.316   3.937   5.340
 8460SOL    HW126279   4.392   3.875   5.358
 8460SOL    HW226280   4.345   4.009   5.277
 8461SOL     OW26281   0.064   2.936   4.800
 8461SOL    HW126282   0.090   2.898   4.888
 8461SOL    HW226283   6.988   2.950   4.798
 8462SOL     OW26284   2.882   1.354   1.385
 8462SOL    HW126285   2.792   1.394   1.398
 8462SOL    HW226286   2.949   1.400   1.443
 8463SOL     OW26287   6.202   7.020   2.040
 8463SOL    HW126288   6.187   0.077   1.983
 8463SOL    HW226289   6.254   6.952   1.988
 8464SOL     OW26290   5.667   3.257   4.412
 8464SOL    HW126291   5.684   3.307   4.327
 8464SOL    HW226292   5.613   3.175   4.392
 8465SOL     OW26293   1.427   1.933   0.386
 8465SOL    HW126294   1.515   1.978   0.400
 8465SOL    HW226295   1.353   1.998   0.403
 8466SOL     OW26296   1.213   5.547   3.279
 8466SOL    HW126297   1.242   5.511   3.367
 8466SOL    HW226298   1.213   5.647   3.282
 8467SOL     OW26299   2.357   5.945   1.090
 8467SOL    HW126300   2.266   5.987   1.084
 8467SOL    HW226301   2.347   5.847   1.108
 8468SOL     OW26302   3.946   2.458   0.557
 8468SOL    HW126303   3.861   2.420   0.519
 8468SOL    HW226304   3.974   2.404   0.637
 8469SOL     OW26305   3.187   3.001   6.998
 8469SOL    HW126306   3.241   2.997   0.058
 8469SOL    HW226307   3.245   2.981   6.919
 8470SOL     OW26308   1.868   2.627   1.043
 8470SOL    HW126309   1.885   2.654   1.138
 8470SOL    HW226310   1.944   2.571   1.011
 8471SOL     OW26311   3.080   0.631   4.061
 8471SOL    HW126312   2.990   0.647   4.022
 8471SOL    HW226313   3.147   0.619   3.987
 8472SOL     OW26314   0.674   6.930   4.411
 8472SOL    HW126315   0.587   6.900   4.371
 8472SOL    HW226316   0.696   7.022   4.379
 8473SOL     OW26317   0.114   5.941   0.539
 8473SOL    HW126318   0.105   5.844   0.516
 8473SOL    HW226319   0.115   5.995   0.454
 8474SOL     OW26320   3.118   2.908   1.813
 8474SOL    HW126321   3.135   2.878   1.907
 8474SOL    HW226322   3.094   2.829   1.757
 8475SOL     OW26323   5.517   1.595   2.862
 8475SOL    HW126324   5.437   1.535   2.865
 8475SOL    HW226325   5.511   1.654   2.781
 8476SOL     OW26326   5.441   6.957   1.911
 8476SOL    HW126327   5.481   6.876   1.869
 8476SOL    HW226328   5.488   6.977   1.997
 8477SOL     OW26329   2.986   6.632   1.441
 8477SOL    HW126330   2.977   6.718   1.390
 8477SOL    HW226331   2.905   6.576   1.426
 8478SOL     OW26332   1.917   0.809   5.381
 8478SOL    HW126333   1.830   0.839   5.341
 8478SOL    HW226334   1.946   0.723   5.338
 8479SOL     OW26335   6.212   1.503   0.387
 8479SOL    HW126336   6.272   1.470   0.315
 8479SOL    HW226337   6.260   1.501   0.474
 8480SOL     OW26338   3.701   0.374   1.127
 8480SOL    HW126339   3.708   0.336   1.035
 8480SOL    HW226340   3.729   0.470   1.125
 8481SOL     OW26341   3.884   1.515   4.558
 8481SOL    HW126342   3.937   1.586   4.605
 8481SOL    HW226343   3.808   1.558   4.509
 8482SOL     OW26344   1.792   0.391   2.094
 8482SOL    HW126345   1.742   0.426   2.173
 8482SOL    HW226346   1.779   0.292   2.088
 8483SOL     OW26347   3.240   5.781   2.382
 8483SOL    HW126348   3.202   5.773   2.474
 8483SOL    HW226349   3.326   5.833   2.385
 8484SOL     OW26350   0.497   4.595   3.833
 8484SOL    HW126351   0.548   4.586   3.918
 8484SOL    HW226352   0.479   4.503   3.796
 8485SOL     OW26353   2.127   4.069   0.231
 8485SOL    HW126354   2.138   4.015   0.315
 8485SOL    HW226355   2.076   4.152   0.251
 8486SOL     OW26356   5.331   1.027   2.477
 8486SOL    HW126357   5.395   1.060   2.408
 8486SOL    HW226358   5.284   0.946   2.443
 8487SOL     OW26359   5.067   0.066   1.761
 8487SOL    HW126360   5.153   0.118   1.763
 8487SOL    HW226361   4.991   0.127   1.738
 8488SOL     OW26362   5.387   4.898   4.230
 8488SOL    HW126363   5.342   4.809   4.241
 8488SOL    HW226364   5.444   4.897   4.148
 8489SOL     OW26365   5.891   4.768   1.404
 8489SOL    HW126366   5.931   4.710   1.333
 8489SOL    HW226367   5.843   4.845   1.362
 8490SOL     OW26368   4.209   5.348   2.944
 8490SOL    HW126369   4.124   5.318   2.987
 8490SOL    HW226370   4.216   5.448   2.950
 8491SOL     OW26371   2.551   0.341   1.991
 8491SOL    HW126372   2.611   0.419   2.010
 8491SOL    HW226373   2.540   0.286   2.074
 8492SOL     OW26374   5.413   3.207   5.373
 8492SOL    HW126375   5.412   3.108   5.366
 8492SOL    HW226376   5.319   3.241   5.373
 8493SOL     OW26377   4.284   2.151   0.072
 8493SOL    HW126378   4.313   2.067   0.118
 8493SOL    HW226379   4.365   2.202   0.042
 8494SOL     OW26380   2.524   5.782   6.736
 8494SOL    HW126381   2.619   5.789   6.706
 8494SOL    HW226382   2.490   5.690   6.718
 8495SOL     OW26383   6.659   2.796   0.396
 8495SOL    HW126384   6.593   2.858   0.353
 8495SOL    HW226385   6.745   2.845   0.410
 8496SOL     OW26386   0.684   1.869   3.320
 8496SOL    HW126387   0.712   1.852   3.415
 8496SOL    HW226388   0.591   1.905   3.320
 8497SOL     OW26389   5.385   5.431   4.524
 8497SOL    HW126390   5.293   5.401   4.551
 8497SOL    HW226391   5.446   5.352   4.518
 8498SOL     OW26392   0.369   0.061   1.405
 8498SOL    HW126393   0.329   0.142   1.448
 8498SOL    HW226394   0.464   0.050   1.434
 8499SOL     OW26395   3.137   5.028   6.609
 8499SOL    HW126396   3.076   4.956   6.575
 8499SOL    HW226397   3.083   5.095   6.660
 8500SOL     OW26398   2.148   6.937   5.625
 8500SOL    HW126399   2.114   6.974   5.712
 8500SOL    HW226400   2.172   6.841   5.636
 8501SOL     OW26401   2.001   3.439   6.474
 8501SOL    HW126402   1.960   3.370   6.414
 8501SOL    HW226403   1.946   3.522   6.470
 8502SOL     OW26404   0.426   6.143   1.421
 8502SOL    HW126405   0.386   6.155   1.330
 8502SOL    HW226406   0.513   6.192   1.426
 8503SOL     OW26407   1.516   4.865   3.530
 8503SOL    HW126408   1.606   4.876   3.572
 8503SOL    HW226409   1.485   4.953   3.493
 8504SOL     OW26410   1.699   5.903   3.611
 8504SOL    HW126411   1.663   5.934   3.699
 8504SOL    HW226412   1.765   5.969   3.577
 8505SOL     OW26413   5.576   4.139   3.805
 8505SOL    HW126414   5.522   4.054   3.804
 8505SOL    HW226415   5.617   4.151   3.896
 8506SOL     OW26416   0.974   6.387   0.284
 8506SOL    HW126417   0.923   6.462   0.328
 8506SOL    HW226418   1.059   6.371   0.335
 8507SOL     OW26419   2.451   1.008   5.907
 8507SOL    HW126420   2.366   0.967   5.874
 8507SOL    HW226421   2.491   0.949   5.978
 8508SOL     OW26422   6.484   2.483   5.078
 8508SOL    HW126423   6.458   2.576   5.053
 8508SOL    HW226424   6.558   2.452   5.019
 8509SOL     OW26425   5.716   1.004   4.307
 8509SOL    HW126426   5.769   0.921   4.325
 8509SOL    HW226427   5.620   0.986   4.324
 8510SOL     OW26428   5.887   5.678   3.078
 8510SOL    HW126429   5.853   5.586   3.098
 8510SOL    HW226430   5.894   5.690   2.979
 8511SOL     OW26431   6.313   4.442   0.483
 8511SOL    HW126432   6.379   4.481   0.418
 8511SOL    HW226433   6.362   4.385   0.549
 8512SOL     OW26434   4.206   2.694   0.020
 8512SOL    HW126435   4.143   2.718   0.094
 8512SOL    HW226436   4.208   2.768   6.976
 8513SOL     OW26437   5.372   3.683   0.306
 8513SOL    HW126438   5.429   3.705   0.385
 8513SOL    HW226439   5.301   3.753   0.296
 8514SOL     OW26440   3.109   1.653   3.868
 8514SOL    HW126441   3.142   1.564   3.899
 8514SOL    HW226442   3.036   1.685   3.928
 8515SOL     OW26443   0.700   1.362   6.858
 8515SOL    HW126444   0.646   1.279   6.869
 8515SOL    HW226445   0.752   1.357   6.772
 8516SOL     OW26446   5.984   2.703   2.584
 8516SOL    HW126447   5.925   2.782   2.600
 8516SOL    HW226448   6.059   2.729   2.523
 8517SOL     OW26449   2.237   2.765   5.757
 8517SOL    HW126450   2.221   2.831   5.683
 8517SOL    HW226451   2.217   2.673   5.723
 8518SOL     OW26452   4.888   4.280   6.350
 8518SOL    HW126453   4.877   4.184   6.375
 8518SOL    HW226454   4.868   4.338   6.429
 8519SOL     OW26455   1.287   4.630   0.699
 8519SOL    HW126456   1.240   4.644   0.612
 8519SOL    HW226457   1.228   4.579   0.761
 8520SOL     OW26458   4.088   3.815   5.087
 8520SOL    HW126459   4.048   3.792   5.176
 8520SOL    HW226460   4.132   3.904   5.093
 8521SOL     OW26461   1.801   6.453   5.597
 8521SOL    HW126462   1.873   6.480   5.660
 8521SOL    HW226463   1.829   6.369   5.549
 8522SOL     OW26464   0.966   0.440   1.206
 8522SOL    HW126465   1.002   0.467   1.295
 8522SOL    HW226466   0.877   0.483   1.191
 8523SOL     OW26467   2.859   6.875   6.342
 8523SOL    HW126468   2.955   6.853   6.326
 8523SOL    HW226469   2.803   6.794   6.329
 8524SOL     OW26470   1.381   4.678   4.779
 8524SOL    HW126471   1.305   4.720   4.729
 8524SOL    HW226472   1.436   4.749   4.822
 8525SOL     OW26473   6.210   4.839   0.563
 8525SOL    HW126474   6.160   4.753   0.561
 8525SOL    HW226475   6.146   4.915   0.549
 8526SOL     OW26476   2.965   6.839   1.277
 8526SOL    HW126477   2.895   6.909   1.293
 8526SOL    HW226478   3.017   6.862   1.195
 8527SOL     OW26479   2.914   0.834   6.892
 8527SOL    HW126480   2.843   0.766   6.876
 8527SOL    HW226481   2.942   0.875   6.805
 8528SOL     OW26482   4.778   1.594   1.138
 8528SOL    HW126483   4.805   1.512   1.088
 8528SOL    HW226484   4.767   1.670   1.075
 8529SOL     OW26485   1.025   6.314   6.639
 8529SOL    HW126486   0.951   6.354   6.583
 8529SOL    HW226487   1.047   6.223   6.603
 8530SOL     OW26488   2.985   3.820   3.869
 8530SOL    HW126489   2.984   3.920   3.879
 8530SOL    HW226490   2.984   3.797   3.771
 8531SOL     OW26491   6.950   5.659   3.637
 8531SOL    HW126492   6.901   5.741   3.608
 8531SOL    HW226493   7.021   5.683   3.702
 8532SOL     OW26494   3.504   6.640   3.831
 8532SOL    HW126495   3.532   6.551   3.794
 8532SOL    HW226496   3.432   6.627   3.899
 8533SOL     OW26497   0.665   6.151   6.806
 8533SOL    HW126498   0.694   6.238   6.847
 8533SOL    HW226499   0.660   6.161   6.707
 8534SOL     OW26500   4.503   2.548   4.099
 8534SOL    HW126501   4.528   2.500   4.015
 8534SOL    HW226502   4.474   2.641   4.076
 8535SOL     OW26503   5.266   1.062   4.383
 8535SOL    HW126504   5.343   1.118   4.414
 8535SOL    HW226505   5.218   1.109   4.309
 8536SOL     OW26506   0.687   1.649   5.011
 8536SOL    HW126507   0.743   1.591   4.953
 8536SOL    HW226508   0.717   1.641   5.106
 8537SOL     OW26509   6.008   1.100   3.383
 8537SOL    HW126510   5.921   1.149   3.380
 8537SOL    HW226511   6.083   1.166   3.386
 8538SOL     OW26512   1.781   1.404   0.186
 8538SOL    HW126513   1.692   1.383   0.146
 8538SOL    HW226514   1.814   1.326   0.239
 8539SOL     OW26515   6.051   2.330   2.352
 8539SOL    HW126516   6.056   2.296   2.258
 8539SOL    HW226517   6.096   2.265   2.413
 8540SOL     OW26518   4.988   7.016   6.850
 8540SOL    HW126519   5.011   6.925   6.884
 8540SOL    HW226520   5.018   0.062   6.916
 8541SOL     OW26521   2.787   2.062   3.854
 8541SOL    HW126522   2.842   2.088   3.933
 8541SOL    HW226523   2.846   2.034   3.779
 8542SOL     OW26524   3.384   4.976   6.512
 8542SOL    HW126525   3.442   4.930   6.579
 8542SOL    HW226526   3.290   4.981   6.546
 8543SOL     OW26527   1.944   2.114   0.529
 8543SOL    HW126528   1.952   2.034   0.470
 8543SOL    HW226529   2.000   2.188   0.493
 8544SOL     OW26530   5.010   2.893   4.590
 8544SOL    HW126531   5.032   2.961   4.660
 8544SOL    HW226532   4.942   2.931   4.527
 8545SOL     OW26533   4.899   6.337   6.187
 8545SOL    HW126534   4.833   6.401   6.149
 8545SOL    HW226535   4.851   6.261   6.230
 8546SOL     OW26536   6.219   1.772   3.434
 8546SOL    HW126537   6.309   1.803   3.463
 8546SOL    HW226538   6.153   1.784   3.508
 8547SOL     OW26539   1.682   5.491   5.189
 8547SOL    HW126540   1.655   5.473   5.283
 8547SOL    HW226541   1.602   5.487   5.130
 8548SOL     OW26542   5.875   1.724   5.661
 8548SOL    HW126543   5.844   1.745   5.754
 8548SOL    HW226544   5.929   1.640   5.662
 8549SOL     OW26545   6.728   4.003   3.491
 8549SOL    HW126546   6.744   4.017   3.589
 8549SOL    HW226547   6.745   4.088   3.441
 8550SOL     OW26548   1.450   5.017   6.743
 8550SOL    HW126549   1.439   4.926   6.784
 8550SOL    HW226550   1.528   5.016   6.680
 8551SOL     OW26551   3.364   4.191   6.710
 8551SOL    HW126552   3.341   4.283   6.677
 8551SOL    HW226553   3.455   4.193   6.752
 8552SOL     OW26554   3.234   5.554   3.271
 8552SOL    HW126555   3.191   5.479   3.222
 8552SOL    HW226556   3.207   5.641   3.231
 8553SOL     OW26557   5.430   6.043   0.140
 8553SOL    HW126558   5.382   6.027   0.054
 8553SOL    HW226559   5.521   6.081   0.121
 8554SOL     OW26560   0.116   4.162   0.303
 8554SOL    HW126561   0.169   4.084   0.269
 8554SOL    HW226562   0.034   4.173   0.248
 8555SOL     OW26563   0.730   0.456   3.543
 8555SOL    HW126564   0.795   0.486   3.474
 8555SOL    HW226565   0.686   0.536   3.585
 8556SOL     OW26566   0.294   0.554   3.215
 8556SOL    HW126567   0.228   0.492   3.172
 8556SOL    HW226568   0.256   0.589   3.301
 8557SOL     OW26569   6.822   6.756   1.713
 8557SOL    HW126570   6.764   6.675   1.700
 8557SOL    HW226571   6.773   6.838   1.682
 8558SOL     OW26572   2.332   5.575   2.512
 8558SOL    HW126573   2.286   5.562   2.424
 8558SOL    HW226574   2.264   5.583   2.585
 8559SOL     OW26575   1.105   0.952   1.962
 8559SOL    HW126576   1.075   0.905   2.045
 8559SOL    HW226577   1.093   1.050   1.973
 8560SOL     OW26578   0.217   1.132   0.268
 8560SOL    HW126579   0.160   1.205   0.307
 8560SOL    HW226580   0.181   1.043   0.296
 8561SOL     OW26581   4.650   6.062   2.479
 8561SOL    HW126582   4.562   6.045   2.434
 8561SOL    HW226583   4.641   6.045   2.577
 8562SOL     OW26584   4.160   6.744   4.405
 8562SOL    HW126585   4.240   6.728   4.463
 8562SOL    HW226586   4.189   6.746   4.309
 8563SOL     OW26587   3.010   3.187   0.097
 8563SOL    HW126588   3.062   3.114   0.054
 8563SOL    HW226589   2.967   3.243   0.026
 8564SOL     OW26590   1.083   0.469   3.598
 8564SOL    HW126591   1.022   0.426   3.664
 8564SOL    HW226592   1.058   0.442   3.506
 8565SOL     OW26593   3.817   0.262   0.899
 8565SOL    HW126594   3.864   0.195   0.956
 8565SOL    HW226595   3.874   0.344   0.888
 8566SOL     OW26596   1.384   2.359   3.005
 8566SOL    HW126597   1.400   2.443   3.056
 8566SOL    HW226598   1.391   2.281   3.066
 8567SOL     OW26599   5.661   1.732   1.456
 8567SOL    HW126600   5.589   1.670   1.424
 8567SOL    HW226601   5.704   1.775   1.377
 8568SOL     OW26602   4.651   1.749   0.507
 8568SOL    HW126603   4.736   1.727   0.553
 8568SOL    HW226604   4.633   1.847   0.514
 8569SOL     OW26605   4.581   0.683   4.919
 8569SOL    HW126606   4.658   0.619   4.916
 8569SOL    HW226607   4.504   0.640   4.966
 8570SOL     OW26608   1.284   4.247   6.204
 8570SOL    HW126609   1.380   4.240   6.177
 8570SOL    HW226610   1.242   4.326   6.159
 8571SOL     OW26611   6.878   4.253   4.625
 8571SOL    HW126612   6.954   4.205   4.669
 8571SOL    HW226613   6.913   4.328   4.569
 8572SOL     OW26614   1.970   5.246   5.427
 8572SOL    HW126615   1.996   5.335   5.390
 8572SOL    HW226616   2.051   5.200   5.464
 8573SOL     OW26617   4.216   6.263   6.876
 8573SOL    HW126618   4.234   6.326   6.801
 8573SOL    HW226619   4.126   6.221   6.865
 8574SOL     OW26620   0.601   4.615   6.237
 8574SOL    HW126621   0.657   4.560   6.298
 8574SOL    HW226622   0.657   4.689   6.198
 8575SOL     OW26623   3.410   2.932   6.822
 8575SOL    HW126624   3.476   2.901   6.892
 8575SOL    HW226625   3.416   2.872   6.743
 8576SOL     OW26626   0.820   6.814   2.110
 8576SOL    HW126627   0.898   6.753   2.096
 8576SOL    HW226628   0.817   6.843   2.205
 8577SOL     OW26629   6.452   5.461   3.393
 8577SOL    HW126630   6.469   5.525   3.468
 8577SOL    HW226631   6.485   5.500   3.307
 8578SOL     OW26632   4.563   0.075   4.045
 8578SOL    HW126633   4.627   0.017   4.096
 8578SOL    HW226634   4.477   0.026   4.032
 8579SOL     OW26635   1.234   4.861   3.601
 8579SOL    HW126636   1.331   4.842   3.612
 8579SOL    HW226637   1.211   4.862   3.503
 8580SOL     OW26638   1.525   6.400   2.001
 8580SOL    HW126639   1.450   6.421   1.938
 8580SOL    HW226640   1.595   6.347   1.952
 8581SOL     OW26641   3.258   1.691   0.869
 8581SOL    HW126642   3.246   1.592   0.879
 8581SOL    HW226643   3.332   1.721   0.929
 8582SOL     OW26644   4.750   4.794   2.296
 8582SOL    HW126645   4.722   4.795   2.199
 8582SOL    HW226646   4.759   4.700   2.327
 8583SOL     OW26647   6.693   0.445   6.137
 8583SOL    HW126648   6.776   0.413   6.092
 8583SOL    HW226649   6.685   0.544   6.126
 8584SOL     OW26650   6.952   4.576   0.692
 8584SOL    HW126651   6.866   4.534   0.720
 8584SOL    HW226652   7.021   4.562   0.762
 8585SOL     OW26653   0.347   0.833   0.565
 8585SOL    HW126654   0.260   0.837   0.613
 8585SOL    HW226655   0.412   0.895   0.608
 8586SOL     OW26656   3.674   6.031   3.087
 8586SOL    HW126657   3.602   6.003   3.024
 8586SOL    HW226658   3.652   5.998   3.179
 8587SOL     OW26659   0.876   2.010   2.707
 8587SOL    HW126660   0.785   2.050   2.719
 8587SOL    HW226661   0.887   1.981   2.612
 8588SOL     OW26662   3.474   2.419   0.596
 8588SOL    HW126663   3.539   2.472   0.542
 8588SOL    HW226664   3.464   2.328   0.555
 8589SOL     OW26665   3.733   0.704   4.503
 8589SOL    HW126666   3.649   0.666   4.542
 8589SOL    HW226667   3.713   0.740   4.411
 8590SOL     OW26668   6.726   5.367   4.284
 8590SOL    HW126669   6.710   5.275   4.319
 8590SOL    HW226670   6.686   5.433   4.348
 8591SOL     OW26671   1.210   3.544   6.208
 8591SOL    HW126672   1.141   3.534   6.136
 8591SOL    HW226673   1.275   3.615   6.181
 8592SOL     OW26674   6.889   4.070   0.458
 8592SOL    HW126675   6.910   4.031   0.548
 8592SOL    HW226676   6.821   4.143   0.469
 8593SOL     OW26677   1.602   6.909   2.607
 8593SOL    HW126678   1.573   7.001   2.579
 8593SOL    HW226679   1.536   6.872   2.672
 8594SOL     OW26680   3.308   4.151   4.304
 8594SOL    HW126681   3.245   4.084   4.266
 8594SOL    HW226682   3.310   4.143   4.403
 8595SOL     OW26683   2.066   2.028   2.400
 8595SOL    HW126684   2.074   2.114   2.350
 8595SOL    HW226685   1.978   2.025   2.448
 8596SOL     OW26686   5.389   5.069   2.025
 8596SOL    HW126687   5.471   5.015   2.039
 8596SOL    HW226688   5.400   5.159   2.068
 8597SOL     OW26689   3.023   1.494   1.139
 8597SOL    HW126690   2.937   1.525   1.179
 8597SOL    HW226691   3.005   1.419   1.075
 8598SOL     OW26692   6.278   4.656   1.193
 8598SOL    HW126693   6.284   4.568   1.146
 8598SOL    HW226694   6.326   4.650   1.280
 8599SOL     OW26695   0.714   2.790   3.653
 8599SOL    HW126696   0.753   2.829   3.736
 8599SOL    HW226697   0.783   2.791   3.580
 8600SOL     OW26698   6.493   4.701   6.647
 8600SOL    HW126699   6.577   4.682   6.597
 8600SOL    HW226700   6.515   4.745   6.734
 8601SOL     OW26701   0.264   1.418   4.365
 8601SOL    HW126702   0.215   1.332   4.375
 8601SOL    HW226703   0.199   1.489   4.336
 8602SOL     OW26704   2.847   5.820   2.600
 8602SOL    HW126705   2.873   5.911   2.631
 8602SOL    HW226706   2.836   5.760   2.680
 8603SOL     OW26707   3.975   3.695   0.315
 8603SOL    HW126708   3.945   3.740   0.399
 8603SOL    HW226709   4.009   3.604   0.336
 8604SOL     OW26710   5.556   2.950   3.508
 8604SOL    HW126711   5.637   2.949   3.450
 8604SOL    HW226712   5.583   2.949   3.604
 8605SOL     OW26713   3.451   5.395   4.019
 8605SOL    HW126714   3.459   5.434   3.927
 8605SOL    HW226715   3.484   5.300   4.018
 8606SOL     OW26716   2.986   4.656   6.225
 8606SOL    HW126717   3.061   4.646   6.159
 8606SOL    HW226718   2.901   4.623   6.185
 8607SOL     OW26719   3.805   5.340   1.802
 8607SOL    HW126720   3.730   5.358   1.865
 8607SOL    HW226721   3.777   5.269   1.737
 8608SOL     OW26722   4.315   4.685   2.778
 8608SOL    HW126723   4.258   4.729   2.709
 8608SOL    HW226724   4.392   4.639   2.733
 8609SOL     OW26725   3.744   0.188   5.077
 8609SOL    HW126726   3.756   0.144   5.167
 8609SOL    HW226727   3.760   0.286   5.086
 8610SOL     OW26728   1.157   6.993   3.413
 8610SOL    HW126729   1.192   6.963   3.325
 8610SOL    HW226730   1.148   6.914   3.474
 8611SOL     OW26731   1.173   2.109   4.692
 8611SOL    HW126732   1.118   2.036   4.653
 8611SOL    HW226733   1.164   2.191   4.636
 8612SOL     OW26734   3.031   3.208   6.605
 8612SOL    HW126735   2.983   3.235   6.522
 8612SOL    HW226736   2.979   3.137   6.653
 8613SOL     OW26737   1.754   1.630   1.222
 8613SOL    HW126738   1.845   1.670   1.235
 8613SOL    HW226739   1.724   1.647   1.128
 8614SOL     OW26740   0.619   3.709   3.050
 8614SOL    HW126741   0.620   3.684   3.146
 8614SOL    HW226742   0.570   3.639   2.997
 8615SOL     OW26743   4.178   1.888   5.580
 8615SOL    HW126744   4.137   1.824   5.645
 8615SOL    HW226745   4.215   1.837   5.502
 8616SOL     OW26746   0.821   4.684   0.171
 8616SOL    HW126747   0.725   4.709   0.186
 8616SOL    HW226748   0.860   4.649   0.256
 8617SOL     OW26749   6.446   2.127   0.438
 8617SOL    HW126750   6.525   2.069   0.420
 8617SOL    HW226751   6.378   2.074   0.489
 8618SOL     OW26752   4.630   6.555   2.625
 8618SOL    HW126753   4.634   6.644   2.670
 8618SOL    HW226754   4.692   6.556   2.546
 8619SOL     OW26755   4.504   5.062   6.961
 8619SOL    HW126756   4.421   5.103   6.998
 8619SOL    HW226757   4.483   4.972   6.924
 8620SOL     OW26758   5.612   6.594   2.897
 8620SOL    HW126759   5.578   6.500   2.891
 8620SOL    HW226760   5.634   6.627   2.805
 8621SOL     OW26761   6.212   1.000   4.057
 8621SOL    HW126762   6.265   0.925   4.095
 8621SOL    HW226763   6.188   1.065   4.129
 8622SOL     OW26764   4.594   4.732   0.378
 8622SOL    HW126765   4.621   4.649   0.330
 8622SOL    HW226766   4.521   4.778   0.327
 8623SOL     OW26767   0.798   3.841   2.849
 8623SOL    HW126768   0.720   3.819   2.908
 8623SOL    HW226769   0.883   3.817   2.896
 8624SOL     OW26770   1.240   4.225   3.586
 8624SOL    HW126771   1.176   4.181   3.524
 8624SOL    HW226772   1.197   4.237   3.676
 8625SOL     OW26773   4.491   0.882   4.787
 8625SOL    HW126774   4.565   0.928   4.739
 8625SOL    HW226775   4.526   0.799   4.831
 8626SOL     OW26776   3.347   3.676   4.050
 8626SOL    HW126777   3.288   3.647   4.124
 8626SOL    HW226778   3.297   3.671   3.963
 8627SOL     OW26779   1.325   0.916   1.302
 8627SOL    HW126780   1.381   0.856   1.359
 8627SOL    HW226781   1.268   0.974   1.360
 8628SOL     OW26782   6.580   0.891   0.178
 8628SOL    HW126783   6.645   0.913   0.104
 8628SOL    HW226784   6.488   0.918   0.150
 8629SOL     OW26785   0.937   5.268   4.043
 8629SOL    HW126786   1.018   5.312   4.083
 8629SOL    HW226787   0.964   5.183   3.999
 8630SOL     OW26788   5.738   3.594   3.856
 8630SOL    HW126789   5.639   3.587   3.870
 8630SOL    HW226790   5.777   3.653   3.927
 8631SOL     OW26791   4.158   5.421   5.645
 8631SOL    HW126792   4.174   5.518   5.627
 8631SOL    HW226793   4.228   5.366   5.599
 8632SOL     OW26794   3.759   0.162   3.639
 8632SOL    HW126795   3.834   0.163   3.573
 8632SOL    HW226796   3.672   0.173   3.592
 8633SOL     OW26797   5.439   1.075   3.831
 8633SOL    HW126798   5.465   1.116   3.918
 8633SOL    HW226799   5.371   1.134   3.786
 8634SOL     OW26800   6.357   3.981   1.628
 8634SOL    HW126801   6.387   4.045   1.557
 8634SOL    HW226802   6.258   3.973   1.626
 8635SOL     OW26803   6.139   3.808   6.000
 8635SOL    HW126804   6.118   3.781   5.906
 8635SOL    HW226805   6.054   3.836   6.046
 8636SOL     OW26806   6.086   5.533   0.437
 8636SOL    HW126807   6.056   5.624   0.407
 8636SOL    HW226808   6.098   5.533   0.536
 8637SOL     OW26809   1.802   0.826   0.413
 8637SOL    HW126810   1.859   0.745   0.403
 8637SOL    HW226811   1.707   0.798   0.428
 8638SOL     OW26812   2.038   4.406   7.001
 8638SOL    HW126813   2.029   4.320   6.951
 8638SOL    HW226814   2.124   4.405   0.030
 8639SOL     OW26815   5.023   2.920   2.169
 8639SOL    HW126816   4.996   2.895   2.262
 8639SOL    HW226817   4.968   2.869   2.103
 8640SOL     OW26818   4.375   3.865   0.786
 8640SOL    HW126819   4.367   3.808   0.867
 8640SOL    HW226820   4.327   3.952   0.801
 8641SOL     OW26821   0.327   4.185   3.032
 8641SOL    HW126822   0.401   4.118   3.044
 8641SOL    HW226823   0.333   4.254   3.105
 8642SOL     OW26824   4.992   0.657   2.239
 8642SOL    HW126825   4.957   0.612   2.157
 8642SOL    HW226826   4.917   0.678   2.301
 8643SOL     OW26827   4.160   0.313   6.680
 8643SOL    HW126828   4.217   0.334   6.759
 8643SOL    HW226829   4.117   0.397   6.647
 8644SOL     OW26830   5.782   2.334   5.066
 8644SOL    HW126831   5.688   2.368   5.068
 8644SOL    HW226832   5.844   2.408   5.041
 8645SOL     OW26833   6.464   4.023   0.828
 8645SOL    HW126834   6.478   4.005   0.731
 8645SOL    HW226835   6.366   4.019   0.848
 8646SOL     OW26836   4.907   1.045   0.765
 8646SOL    HW126837   4.844   0.987   0.818
 8646SOL    HW226838   4.856   1.120   0.724
 8647SOL     OW26839   3.583   4.940   0.104
 8647SOL    HW126840   3.496   4.981   0.132
 8647SOL    HW226841   3.658   4.993   0.143
 8648SOL     OW26842   5.679   0.661   4.307
 8648SOL    HW126843   5.602   0.723   4.320
 8648SOL    HW226844   5.668   0.613   4.220
 8649SOL     OW26845   6.361   3.956   5.694
 8649SOL    HW126846   6.268   3.921   5.682
 8649SOL    HW226847   6.421   3.881   5.722
 8650SOL     OW26848   1.751   5.035   4.246
 8650SOL    HW126849   1.702   4.967   4.192
 8650SOL    HW226850   1.768   4.999   4.338
 8651SOL     OW26851   3.960   1.096   0.308
 8651SOL    HW126852   3.947   1.178   0.364
 8651SOL    HW226853   3.875   1.074   0.261
 8652SOL     OW26854   1.947   4.082   3.610
 8652SOL    HW126855   1.894   4.101   3.692
 8652SOL    HW226856   1.895   4.109   3.529
 8653SOL     OW26857   6.842   2.198   5.997
 8653SOL    HW126858   6.812   2.103   5.993
 8653SOL    HW226859   6.829   2.234   6.090
 8654SOL     OW26860   7.017   6.257   2.979
 8654SOL    HW126861   0.063   6.261   2.906
 8654SOL    HW226862   6.940   6.202   2.949
 8655SOL     OW26863   6.137   7.001   3.827
 8655SOL    HW126864   6.195   0.046   3.871
 8655SOL    HW226865   6.048   6.998   3.872
 8656SOL     OW26866   6.168   0.904   1.300
 8656SOL    HW126867   6.139   0.998   1.321
 8656SOL    HW226868   6.241   0.905   1.232
 8657SOL     OW26869   5.112   5.121   6.191
 8657SOL    HW126870   5.064   5.058   6.129
 8657SOL    HW226871   5.045   5.179   6.237
 8658SOL     OW26872   5.198   4.995   0.128
 8658SOL    HW126873   5.155   4.982   0.038
 8658SOL    HW226874   5.162   4.927   0.192
 8659SOL     OW26875   4.377   0.712   3.650
 8659SOL    HW126876   4.400   0.808   3.636
 8659SOL    HW226877   4.453   0.655   3.618
 8660SOL     OW26878   6.029   4.336   0.012
 8660SOL    HW126879   6.123   4.351   7.004
 8660SOL    HW226880   5.990   4.257   6.989
 8661SOL     OW26881   5.852   3.736   1.913
 8661SOL    HW126882   5.881   3.821   1.868
 8661SOL    HW226883   5.913   3.718   1.990
 8662SOL     OW26884   5.795   6.545   1.516
 8662SOL    HW126885   5.762   6.639   1.522
 8662SOL    HW226886   5.873   6.533   1.578
 8663SOL     OW26887   2.307   5.537   0.817
 8663SOL    HW126888   2.366   5.603   0.771
 8663SOL    HW226889   2.359   5.452   0.833
 8664SOL     OW26890   4.621   5.385   6.581
 8664SOL    HW126891   4.701   5.411   6.635
 8664SOL    HW226892   4.639   5.401   6.484
 8665SOL     OW26893   4.922   5.771   5.501
 8665SOL    HW126894   4.841   5.816   5.538
 8665SOL    HW226895   4.946   5.813   5.414
 8666SOL     OW26896   4.660   1.931   5.307
 8666SOL    HW126897   4.697   1.924   5.214
 8666SOL    HW226898   4.735   1.940   5.373
 8667SOL     OW26899   5.232   1.523   3.316
 8667SOL    HW126900   5.221   1.615   3.279
 8667SOL    HW226901   5.221   1.526   3.416
 8668SOL     OW26902   5.445   2.271   4.144
 8668SOL    HW126903   5.456   2.357   4.195
 8668SOL    HW226904   5.361   2.276   4.090
 8669SOL     OW26905   3.603   0.543   6.252
 8669SOL    HW126906   3.617   0.566   6.155
 8669SOL    HW226907   3.531   0.475   6.260
 8670SOL     OW26908   3.654   5.481   4.851
 8670SOL    HW126909   3.596   5.557   4.822
 8670SOL    HW226910   3.636   5.459   4.946
 8671SOL     OW26911   5.897   0.359   3.947
 8671SOL    HW126912   5.920   0.454   3.968
 8671SOL    HW226913   5.845   0.320   4.022
 8672SOL     OW26914   2.791   5.404   4.431
 8672SOL    HW126915   2.769   5.337   4.360
 8672SOL    HW226916   2.786   5.496   4.393
 8673SOL     OW26917   0.645   2.266   6.896
 8673SOL    HW126918   0.672   2.200   6.966
 8673SOL    HW226919   0.546   2.275   6.895
 8674SOL     OW26920   0.026   6.480   2.653
 8674SOL    HW126921   0.082   6.402   2.680
 8674SOL    HW226922   7.004   6.518   2.733
 8675SOL     OW26923   2.686   2.033   4.417
 8675SOL    HW126924   2.692   2.121   4.368
 8675SOL    HW226925   2.775   1.988   4.414
 8676SOL     OW26926   3.164   0.538   3.019
 8676SOL    HW126927   3.124   0.559   2.930
 8676SOL    HW226928   3.124   0.598   3.088
 8677SOL     OW26929   2.490   5.809   6.451
 8677SOL    HW126930   2.519   5.724   6.406
 8677SOL    HW226931   2.411   5.789   6.509
 8678SOL     OW26932   0.798   0.459   0.459
 8678SOL    HW126933   0.831   0.442   0.366
 8678SOL    HW226934   0.872   0.500   0.513
 8679SOL     OW26935   5.625   1.921   4.699
 8679SOL    HW126936   5.634   1.830   4.741
 8679SOL    HW226937   5.715   1.957   4.678
 8680SOL     OW26938   1.829   3.887   1.097
 8680SOL    HW126939   1.762   3.942   1.047
 8680SOL    HW226940   1.920   3.905   1.061
 8681SOL     OW26941   4.890   4.546   6.943
 8681SOL    HW126942   4.895   4.446   6.934
 8681SOL    HW226943   4.915   4.571   0.014
 8682SOL     OW26944   3.341   6.441   3.205
 8682SOL    HW126945   3.345   6.478   3.298
 8682SOL    HW226946   3.353   6.515   3.139
 8683SOL     OW26947   1.433   2.811   1.612
 8683SOL    HW126948   1.363   2.853   1.670
 8683SOL    HW226949   1.518   2.863   1.619
 8684SOL     OW26950   6.571   2.728   4.687
 8684SOL    HW126951   6.625   2.644   4.684
 8684SOL    HW226952   6.502   2.727   4.615
 8685SOL     OW26953   1.434   2.158   5.942
 8685SOL    HW126954   1.426   2.218   5.862
 8685SOL    HW226955   1.450   2.064   5.911
 8686SOL     OW26956   6.820   2.322   2.162
 8686SOL    HW126957   6.827   2.421   2.176
 8686SOL    HW226958   6.875   2.275   2.231
 8687SOL     OW26959   3.508   6.285   2.677
 8687SOL    HW126960   3.508   6.377   2.716
 8687SOL    HW226961   3.422   6.240   2.699
 8688SOL     OW26962   2.566   6.646   0.947
 8688SOL    HW126963   2.598   6.590   0.871
 8688SOL    HW226964   2.467   6.636   0.957
 8689SOL     OW26965   3.972   5.840   6.988
 8689SOL    HW126966   3.945   5.760   6.934
 8689SOL    HW226967   4.024   5.809   0.045
 8690SOL     OW26968   1.205   1.857   4.298
 8690SOL    HW126969   1.247   1.886   4.212
 8690SOL    HW226970   1.117   1.815   4.279
 8691SOL     OW26971   4.575   2.635   6.442
 8691SOL    HW126972   4.609   2.612   6.350
 8691SOL    HW226973   4.570   2.734   6.451
 8692SOL     OW26974   3.292   2.096   3.318
 8692SOL    HW126975   3.362   2.095   3.246
 8692SOL    HW226976   3.210   2.142   3.283
 8693SOL     OW26977   5.452   2.241   0.858
 8693SOL    HW126978   5.375   2.246   0.922
 8693SOL    HW226979   5.524   2.184   0.897
 8694SOL     OW26980   4.947   0.636   6.371
 8694SOL    HW126981   5.032   0.585   6.365
 8694SOL    HW226982   4.870   0.573   6.365
 8695SOL     OW26983   4.740   2.764   6.214
 8695SOL    HW126984   4.644   2.788   6.196
 8695SOL    HW226985   4.773   2.815   6.293
 8696SOL     OW26986   3.470   5.765   1.023
 8696SOL    HW126987   3.570   5.761   1.024
 8696SOL    HW226988   3.437   5.755   0.929
 8697SOL     OW26989   6.402   3.726   0.062
 8697SOL    HW126990   6.340   3.687   7.016
 8697SOL    HW226991   6.456   3.653   0.103
 8698SOL     OW26992   5.259   5.776   4.149
 8698SOL    HW126993   5.285   5.846   4.083
 8698SOL    HW226994   5.227   5.695   4.101
 8699SOL     OW26995   1.088   2.679   5.346
 8699SOL    HW126996   1.045   2.750   5.289
 8699SOL    HW226997   1.041   2.675   5.434
 8700SOL     OW26998   2.343   0.772   4.821
 8700SOL    HW126999   2.433   0.750   4.859
 8700SOL    HW227000   2.274   0.712   4.862
 8701SOL     OW27001   0.666   1.052   5.947
 8701SOL    HW127002   0.696   1.085   5.858
 8701SOL    HW227003   0.687   1.121   6.016
 8702SOL     OW27004   5.410   4.303   6.953
 8702SOL    HW127005   5.370   4.392   6.972
 8702SOL    HW227006   5.443   4.262   0.016
 8703SOL     OW27007   3.296   5.827   1.611
 8703SOL    HW127008   3.234   5.767   1.662
 8703SOL    HW227009   3.242   5.896   1.563
 8704SOL     OW27010   6.377   4.076   2.551
 8704SOL    HW127011   6.289   4.039   2.579
 8704SOL    HW227012   6.451   4.022   2.592
 8705SOL     OW27013   4.909   0.946   6.684
 8705SOL    HW127014   4.841   0.991   6.742
 8705SOL    HW227015   4.977   0.902   6.743
 8706SOL     OW27016   4.832   1.928   6.858
 8706SOL    HW127017   4.833   2.028   6.849
 8706SOL    HW227018   4.738   1.897   6.872
 8707SOL     OW27019   4.316   2.962   0.170
 8707SOL    HW127020   4.261   2.898   0.223
 8707SOL    HW227021   4.265   2.991   0.089
 8708SOL     OW27022   3.642   0.668   2.389
 8708SOL    HW127023   3.580   0.740   2.359
 8708SOL    HW227024   3.638   0.591   2.324
 8709SOL     OW27025   6.954   4.486   0.030
 8709SOL    HW127026   6.872   4.486   6.997
 8709SOL    HW227027   7.014   4.562   0.002
 8710SOL     OW27028   1.586   2.979   2.951
 8710SOL    HW127029   1.491   2.985   2.981
 8710SOL    HW227030   1.593   3.014   2.857
 8711SOL     OW27031   0.503   6.920   2.817
 8711SOL    HW127032   0.491   6.920   2.917
 8711SOL    HW227033   0.453   6.997   2.777
 8712SOL     OW27034   3.510   2.015   3.470
 8712SOL    HW127035   3.561   1.972   3.396
 8712SOL    HW227036   3.424   2.051   3.435
 8713SOL     OW27037   0.117   3.979   3.582
 8713SOL    HW127038   0.086   3.913   3.514
 8713SOL    HW227039   0.119   4.071   3.541
 8714SOL     OW27040   0.900   0.706   5.734
 8714SOL    HW127041   0.973   0.765   5.699
 8714SOL    HW227042   0.814   0.730   5.689
 8715SOL     OW27043   5.848   0.854   0.941
 8715SOL    HW127044   5.761   0.808   0.956
 8715SOL    HW227045   5.871   0.908   1.022
 8716SOL     OW27046   0.914   1.686   1.133
 8716SOL    HW127047   0.881   1.646   1.048
 8716SOL    HW227048   0.991   1.633   1.167
 8717SOL     OW27049   4.001   3.641   2.447
 8717SOL    HW127050   4.021   3.718   2.508
 8717SOL    HW227051   4.001   3.556   2.500
 8718SOL     OW27052   0.321   2.714   4.986
 8718SOL    HW127053   0.383   2.674   5.053
 8718SOL    HW227054   0.235   2.663   4.986
 8719SOL     OW27055   1.426   0.938   5.431
 8719SOL    HW127056   1.329   0.923   5.412
 8719SOL    HW227057   1.457   1.021   5.383
 8720SOL     OW27058   6.399   4.641   5.268
 8720SOL    HW127059   6.336   4.638   5.345
 8720SOL    HW227060   6.365   4.704   5.198
 8721SOL     OW27061   6.089   2.567   4.382
 8721SOL    HW127062   6.114   2.487   4.436
 8721SOL    HW227063   6.102   2.548   4.285
 8722SOL     OW27064   3.590   1.087   0.862
 8722SOL    HW127065   3.575   1.090   0.961
 8722SOL    HW227066   3.510   1.046   0.817
 8723SOL     OW27067   6.072   5.603   1.141
 8723SOL    HW127068   6.015   5.585   1.221
 8723SOL    HW227069   6.029   5.674   1.085
 8724SOL     OW27070   6.169   0.067   5.625
 8724SOL    HW127071   6.157   0.134   5.698
 8724SOL    HW227072   6.193   0.114   5.540
 8725SOL     OW27073   1.852   0.623   6.938
 8725SOL    HW127074   1.927   0.625   7.004
 8725SOL    HW227075   1.826   0.529   6.919
 8726SOL     OW27076   5.924   0.183   1.359
 8726SOL    HW127077   5.932   0.107   1.295
 8726SOL    HW227078   6.014   0.225   1.372
 8727SOL     OW27079   6.482   6.250   2.142
 8727SOL    HW127080   6.452   6.314   2.071
 8727SOL    HW227081   6.404   6.196   2.174
 8728SOL     OW27082   3.485   0.238   5.164
 8728SOL    HW127083   3.489   0.337   5.148
 8728SOL    HW227084   3.576   0.198   5.154
 8729SOL     OW27085   4.474   5.390   2.667
 8729SOL    HW127086   4.485   5.354   2.574
 8729SOL    HW227087   4.444   5.317   2.728
 8730SOL     OW27088   0.241   5.612   2.398
 8730SOL    HW127089   0.172   5.541   2.385
 8730SOL    HW227090   0.284   5.633   2.310
 8731SOL     OW27091   1.638   2.025   3.442
 8731SOL    HW127092   1.584   1.964   3.384
 8731SOL    HW227093   1.684   2.093   3.385
 8732SOL     OW27094   5.188   4.325   1.848
 8732SOL    HW127095   5.093   4.355   1.848
 8732SOL    HW227096   5.247   4.400   1.878
 8733SOL     OW27097   0.968   6.072   2.911
 8733SOL    HW127098   1.001   6.021   2.991
 8733SOL    HW227099   1.023   6.047   2.831
 8734SOL     OW27100   0.999   4.999   1.689
 8734SOL    HW127101   1.099   5.002   1.691
 8734SOL    HW227102   0.967   4.944   1.766
 8735SOL     OW27103   1.067   1.930   6.687
 8735SOL    HW127104   1.045   2.012   6.739
 8735SOL    HW227105   1.001   1.918   6.614
 8736SOL     OW27106   0.939   6.825   0.136
 8736SOL    HW127107   0.871   6.848   0.206
 8736SOL    HW227108   0.930   6.889   0.059
 8737SOL     OW27109   4.156   6.415   6.108
 8737SOL    HW127110   4.116   6.414   6.016
 8737SOL    HW227111   4.090   6.454   6.172
 8738SOL     OW27112   1.365   3.730   4.912
 8738SOL    HW127113   1.382   3.636   4.943
 8738SOL    HW227114   1.293   3.729   4.843
 8739SOL     OW27115   6.913   4.333   6.048
 8739SOL    HW127116   6.961   4.321   6.135
 8739SOL    HW227117   6.825   4.285   6.052
 8740SOL     OW27118   3.826   0.722   5.540
 8740SOL    HW127119   3.773   0.769   5.611
 8740SOL    HW227120   3.784   0.737   5.451
 8741SOL     OW27121   1.618   1.919   1.752
 8741SOL    HW127122   1.535   1.957   1.711
 8741SOL    HW227123   1.697   1.969   1.718
 8742SOL     OW27124   4.936   6.017   1.421
 8742SOL    HW127125   4.895   6.105   1.445
 8742SOL    HW227126   4.864   5.953   1.393
 8743SOL     OW27127   1.908   5.659   2.448
 8743SOL    HW127128   1.955   5.594   2.509
 8743SOL    HW227129   1.906   5.622   2.355
 8744SOL     OW27130   4.170   2.699   6.265
 8744SOL    HW127131   4.210   2.777   6.217
 8744SOL    HW227132   4.172   2.716   6.364
 8745SOL     OW27133   5.760   1.974   5.267
 8745SOL    HW127134   5.739   1.881   5.297
 8745SOL    HW227135   5.775   1.974   5.168
 8746SOL     OW27136   4.175   4.388   5.661
 8746SOL    HW127137   4.203   4.304   5.615
 8746SOL    HW227138   4.076   4.402   5.648
 8747SOL     OW27139   0.922   2.732   3.473
 8747SOL    HW127140   0.925   2.781   3.386
 8747SOL    HW227141   0.963   2.641   3.462
 8748SOL     OW27142   0.562   0.517   0.316
 8748SOL    HW127143   0.644   0.479   0.360
 8748SOL    HW227144   0.514   0.446   0.266
 8749SOL     OW27145   3.181   0.770   4.282
 8749SOL    HW127146   3.262   0.794   4.228
 8749SOL    HW227147   3.117   0.718   4.225
 8750SOL     OW27148   2.295   2.541   5.320
 8750SOL    HW127149   2.376   2.596   5.297
 8750SOL    HW227150   2.212   2.593   5.298
 8751SOL     OW27151   0.164   0.425   1.956
 8751SOL    HW127152   0.194   0.331   1.938
 8751SOL    HW227153   0.155   0.474   1.869
 8752SOL     OW27154   2.382   4.511   6.971
 8752SOL    HW127155   2.478   4.521   6.946
 8752SOL    HW227156   2.371   4.433   0.009
 8753SOL     OW27157   4.790   1.641   4.559
 8753SOL    HW127158   4.827   1.733   4.548
 8753SOL    HW227159   4.782   1.619   4.656
 8754SOL     OW27160   0.545   2.011   5.824
 8754SOL    HW127161   0.539   1.926   5.875
 8754SOL    HW227162   0.505   2.085   5.879
 8755SOL     OW27163   2.536   1.298   6.570
 8755SOL    HW127164   2.493   1.369   6.514
 8755SOL    HW227165   2.574   1.228   6.510
 8756SOL     OW27166   2.120   3.070   3.571
 8756SOL    HW127167   2.218   3.055   3.582
 8756SOL    HW227168   2.091   3.031   3.483
 8757SOL     OW27169   5.422   6.349   5.612
 8757SOL    HW127170   5.461   6.421   5.670
 8757SOL    HW227171   5.347   6.304   5.660
 8758SOL     OW27172   5.577   6.197   1.995
 8758SOL    HW127173   5.488   6.154   2.009
 8758SOL    HW227174   5.646   6.149   2.049
 8759SOL     OW27175   4.551   1.087   6.119
 8759SOL    HW127176   4.610   1.025   6.171
 8759SOL    HW227177   4.586   1.098   6.026
 8760SOL     OW27178   1.839   1.715   4.410
 8760SOL    HW127179   1.892   1.649   4.357
 8760SOL    HW227180   1.782   1.667   4.477
 8761SOL     OW27181   5.372   0.445   0.521
 8761SOL    HW127182   5.294   0.410   0.468
 8761SOL    HW227183   5.365   0.410   0.615
 8762SOL     OW27184   1.505   3.580   2.623
 8762SOL    HW127185   1.587   3.612   2.576
 8762SOL    HW227186   1.490   3.483   2.604
 8763SOL     OW27187   6.501   5.918   5.258
 8763SOL    HW127188   6.437   5.992   5.239
 8763SOL    HW227189   6.542   5.930   5.349
 8764SOL     OW27190   5.291   1.980   3.648
 8764SOL    HW127191   5.268   1.922   3.726
 8764SOL    HW227192   5.380   2.024   3.664
 8765SOL     OW27193   5.489   6.739   4.875
 8765SOL    HW127194   5.429   6.795   4.933
 8765SOL    HW227195   5.474   6.763   4.779
 8766SOL     OW27196   2.927   4.839   3.776
 8766SOL    HW127197   2.890   4.822   3.867
 8766SOL    HW227198   2.928   4.938   3.759
 8767SOL     OW27199   4.676   0.788   2.797
 8767SOL    HW127200   4.733   0.710   2.821
 8767SOL    HW227201   4.635   0.827   2.880
 8768SOL     OW27202   2.107   3.091   0.270
 8768SOL    HW127203   2.009   3.114   0.267
 8768SOL    HW227204   2.157   3.162   0.320
 8769SOL     OW27205   0.342   6.960   5.148
 8769SOL    HW127206   0.353   6.875   5.096
 8769SOL    HW227207   0.298   0.005   5.091
 8770SOL     OW27208   4.786   4.036   1.912
 8770SOL    HW127209   4.688   4.054   1.921
 8770SOL    HW227210   4.827   4.029   2.003
 8771SOL     OW27211   1.837   1.776   6.866
 8771SOL    HW127212   1.747   1.754   6.903
 8771SOL    HW227213   1.869   1.862   6.905
 8772SOL     OW27214   6.445   1.216   6.625
 8772SOL    HW127215   6.482   1.245   6.714
 8772SOL    HW227216   6.427   1.117   6.628
 8773SOL     OW27217   3.893   2.007   3.402
 8773SOL    HW127218   3.928   2.011   3.496
 8773SOL    HW227219   3.883   1.911   3.375
 8774SOL     OW27220   1.326   1.438   0.728
 8774SOL    HW127221   1.323   1.533   0.757
 8774SOL    HW227222   1.392   1.388   0.783
 8775SOL     OW27223   5.718   6.931   3.398
 8775SOL    HW127224   5.668   6.855   3.356
 8775SOL    HW227225   5.665   6.968   3.474
 8776SOL     OW27226   3.525   3.232   4.923
 8776SOL    HW127227   3.459   3.265   4.990
 8776SOL    HW227228   3.587   3.307   4.898
 8777SOL     OW27229   6.510   4.654   1.625
 8777SOL    HW127230   6.502   4.554   1.628
 8777SOL    HW227231   6.479   4.691   1.713
 8778SOL     OW27232   0.365   2.040   3.201
 8778SOL    HW127233   0.272   2.062   3.171
 8778SOL    HW227234   0.426   2.034   3.122
 8779SOL     OW27235   1.764   4.291   2.108
 8779SOL    HW127236   1.728   4.275   2.017
 8779SOL    HW227237   1.702   4.351   2.159
 8780SOL     OW27238   1.473   5.731   4.160
 8780SOL    HW127239   1.430   5.817   4.132
 8780SOL    HW227240   1.556   5.750   4.212
 8781SOL     OW27241   0.636   1.536   2.981
 8781SOL    HW127242   0.643   1.623   3.031
 8781SOL    HW227243   0.557   1.540   2.919
 8782SOL     OW27244   5.005   1.243   2.510
 8782SOL    HW127245   4.910   1.217   2.528
 8782SOL    HW227246   5.036   1.198   2.426
 8783SOL     OW27247   6.183   3.908   3.765
 8783SOL    HW127248   6.086   3.910   3.789
 8783SOL    HW227249   6.217   4.002   3.760
 8784SOL     OW27250   5.443   4.806   5.268
 8784SOL    HW127251   5.380   4.733   5.240
 8784SOL    HW227252   5.502   4.829   5.190
 8785SOL     OW27253   5.617   4.019   6.641
 8785SOL    HW127254   5.588   4.110   6.671
 8785SOL    HW227255   5.568   3.993   6.558
 8786SOL     OW27256   1.617   6.501   6.667
 8786SOL    HW127257   1.551   6.538   6.602
 8786SOL    HW227258   1.575   6.426   6.718
 8787SOL     OW27259   1.818   3.428   2.140
 8787SOL    HW127260   1.898   3.442   2.199
 8787SOL    HW227261   1.819   3.495   2.066
 8788SOL     OW27262   6.722   2.209   5.092
 8788SOL    HW127263   6.776   2.152   5.031
 8788SOL    HW227264   6.676   2.281   5.040
 8789SOL     OW27265   6.919   0.511   6.348
 8789SOL    HW127266   6.828   0.554   6.341
 8789SOL    HW227267   6.909   0.415   6.373
 8790SOL     OW27268   6.698   1.749   6.953
 8790SOL    HW127269   6.791   1.784   6.945
 8790SOL    HW227270   6.701   1.653   6.980
 8791SOL     OW27271   5.407   0.075   5.628
 8791SOL    HW127272   5.378   0.078   5.533
 8791SOL    HW227273   5.503   0.048   5.633
 8792SOL     OW27274   4.309   7.004   3.428
 8792SOL    HW127275   4.226   6.957   3.396
 8792SOL    HW227276   4.294   0.079   3.428
 8793SOL     OW27277   2.663   5.814   3.970
 8793SOL    HW127278   2.631   5.798   3.877
 8793SOL    HW227279   2.585   5.825   4.031
 8794SOL     OW27280   3.083   6.726   2.925
 8794SOL    HW127281   3.002   6.784   2.922
 8794SOL    HW227282   3.104   6.692   2.833
 8795SOL     OW27283   1.580   6.548   5.412
 8795SOL    HW127284   1.645   6.534   5.486
 8795SOL    HW227285   1.506   6.481   5.419
 8796SOL     OW27286   4.098   1.528   5.384
 8796SOL    HW127287   4.194   1.524   5.408
 8796SOL    HW227288   4.076   1.453   5.321
 8797SOL     OW27289   1.425   6.691   6.140
 8797SOL    HW127290   1.330   6.661   6.143
 8797SOL    HW227291   1.482   6.624   6.187
 8798SOL     OW27292   5.698   3.551   5.297
 8798SOL    HW127293   5.685   3.458   5.263
 8798SOL    HW227294   5.699   3.615   5.219
 8799SOL     OW27295   2.503   4.490   3.226
 8799SOL    HW127296   2.505   4.462   3.130
 8799SOL    HW227297   2.578   4.555   3.243
 8800SOL     OW27298   4.145   4.075   5.902
 8800SOL    HW127299   4.122   4.016   5.825
 8800SOL    HW227300   4.185   4.020   5.975
 8801SOL     OW27301   2.145   1.332   4.332
 8801SOL    HW127302   2.080   1.266   4.295
 8801SOL    HW227303   2.172   1.304   4.424
 8802SOL     OW27304   1.424   6.611   2.411
 8802SOL    HW127305   1.407   6.672   2.489
 8802SOL    HW227306   1.387   6.652   2.328
 8803SOL     OW27307   2.172   5.234   6.782
 8803SOL    HW127308   2.176   5.314   6.722
 8803SOL    HW227309   2.264   5.199   6.797
 8804SOL     OW27310   3.935   0.791   1.788
 8804SOL    HW127311   3.941   0.705   1.739
 8804SOL    HW227312   4.027   0.830   1.800
 8805SOL     OW27313   1.339   0.180   3.300
 8805SOL    HW127314   1.349   0.097   3.354
 8805SOL    HW227315   1.358   0.260   3.356
 8806SOL     OW27316   1.333   5.356   0.511
 8806SOL    HW127317   1.324   5.397   0.602
 8806SOL    HW227318   1.429   5.360   0.481
 8807SOL     OW27319   6.373   5.818   5.997
 8807SOL    HW127320   6.274   5.808   5.986
 8807SOL    HW227321   6.404   5.899   5.947
 8808SOL     OW27322   5.397   1.189   0.937
 8808SOL    HW127323   5.449   1.129   0.998
 8808SOL    HW227324   5.330   1.135   0.887
 8809SOL     OW27325   5.580   3.489   1.644
 8809SOL    HW127326   5.495   3.440   1.625
 8809SOL    HW227327   5.647   3.467   1.572
 8810SOL     OW27328   5.472   1.709   4.302
 8810SOL    HW127329   5.452   1.665   4.215
 8810SOL    HW227330   5.448   1.806   4.296
 8811SOL     OW27331   2.153   1.621   4.060
 8811SOL    HW127332   2.242   1.655   4.091
 8811SOL    HW227333   2.101   1.587   4.138
 8812SOL     OW27334   0.746   0.805   0.590
 8812SOL    HW127335   0.708   0.719   0.556
 8812SOL    HW227336   0.749   0.871   0.516
 8813SOL     OW27337   0.682   5.844   1.258
 8813SOL    HW127338   0.738   5.813   1.181
 8813SOL    HW227339   0.616   5.772   1.282
 8814SOL     OW27340   0.312   0.519   6.433
 8814SOL    HW127341   0.396   0.545   6.480
 8814SOL    HW227342   0.236   0.574   6.468
 8815SOL     OW27343   6.949   5.356   1.555
 8815SOL    HW127344   6.869   5.413   1.569
 8815SOL    HW227345   6.970   5.352   1.457
 8816SOL     OW27346   1.174   6.255   0.831
 8816SOL    HW127347   1.097   6.270   0.769
 8816SOL    HW227348   1.203   6.342   0.870
 8817SOL     OW27349   1.164   6.196   5.279
 8817SOL    HW127350   1.206   6.271   5.228
 8817SOL    HW227351   1.234   6.130   5.305
 8818SOL     OW27352   0.262   3.973   3.820
 8818SOL    HW127353   0.220   3.990   3.730
 8818SOL    HW227354   0.216   4.029   3.889
 8819SOL     OW27355   4.317   6.491   4.252
 8819SOL    HW127356   4.415   6.484   4.232
 8819SOL    HW227357   4.276   6.562   4.195
 8820SOL     OW27358   1.784   2.815   4.657
 8820SOL    HW127359   1.701   2.864   4.681
 8820SOL    HW227360   1.761   2.719   4.637
 8821SOL     OW27361   2.011   0.358   6.323
 8821SOL    HW127362   2.095   0.319   6.284
 8821SOL    HW227363   2.034   0.440   6.375
 8822SOL     OW27364   0.670   0.453   3.056
 8822SOL    HW127365   0.602   0.381   3.062
 8822SOL    HW227366   0.645   0.528   3.118
 8823SOL     OW27367   2.063   0.012   0.691
 8823SOL    HW127368   2.065   6.995   0.782
 8823SOL    HW227369   1.969   0.013   0.657
 8824SOL     OW27370   2.619   4.068   0.968
 8824SOL    HW127371   2.603   4.005   0.892
 8824SOL    HW227372   2.556   4.048   1.043
 8825SOL     OW27373   1.954   1.047   2.117
 8825SOL    HW127374   2.049   1.078   2.113
 8825SOL    HW227375   1.946   0.960   2.069
 8826SOL     OW27376   5.810   2.108   0.376
 8826SOL    HW127377   5.871   2.085   0.300
 8826SOL    HW227378   5.716   2.082   0.352
 8827SOL     OW27379   2.590   1.645   3.483
 8827SOL    HW127380   2.674   1.657   3.535
 8827SOL    HW227381   2.602   1.572   3.415
 8828SOL     OW27382   3.399   6.008   4.042
 8828SOL    HW127383   3.386   6.030   3.945
 8828SOL    HW227384   3.384   6.090   4.097
 8829SOL     OW27385   0.230   3.084   6.758
 8829SOL    HW127386   0.143   3.052   6.721
 8829SOL    HW227387   0.301   3.075   6.688
 8830SOL     OW27388   0.553   1.141   6.884
 8830SOL    HW127389   0.499   1.184   6.813
 8830SOL    HW227390   0.495   1.083   6.941
 8831SOL     OW27391   5.692   0.750   2.877
 8831SOL    HW127392   5.705   0.750   2.976
 8831SOL    HW227393   5.744   0.675   2.836
 8832SOL     OW27394   0.498   6.737   2.311
 8832SOL    HW127395   0.510   6.713   2.215
 8832SOL    HW227396   0.506   6.654   2.367
 8833SOL     OW27397   2.349   5.826   4.493
 8833SOL    HW127398   2.399   5.845   4.578
 8833SOL    HW227399   2.253   5.812   4.514
 8834SOL     OW27400   5.814   3.482   4.464
 8834SOL    HW127401   5.819   3.546   4.540
 8834SOL    HW227402   5.795   3.390   4.498
 8835SOL     OW27403   6.728   0.013   5.529
 8835SOL    HW127404   6.827   7.022   5.534
 8835SOL    HW227405   6.694   0.040   5.619
 8836SOL     OW27406   4.034   0.939   0.770
 8836SOL    HW127407   4.114   0.998   0.774
 8836SOL    HW227408   4.058   0.847   0.801
 8837SOL     OW27409   0.807   0.849   1.719
 8837SOL    HW127410   0.768   0.883   1.805
 8837SOL    HW227411   0.904   0.827   1.733
 8838SOL     OW27412   2.586   4.923   3.369
 8838SOL    HW127413   2.522   4.930   3.291
 8838SOL    HW227414   2.537   4.941   3.454
 8839SOL     OW27415   6.296   6.086   3.454
 8839SOL    HW127416   6.354   6.116   3.529
 8839SOL    HW227417   6.201   6.109   3.474
 8840SOL     OW27418   5.811   2.055   2.077
 8840SOL    HW127419   5.723   2.012   2.056
 8840SOL    HW227420   5.870   1.990   2.125
 8841SOL     OW27421   1.068   1.745   5.573
 8841SOL    HW127422   0.985   1.778   5.617
 8841SOL    HW227423   1.054   1.741   5.474
 8842SOL     OW27424   2.811   2.644   1.402
 8842SOL    HW127425   2.796   2.702   1.482
 8842SOL    HW227426   2.842   2.553   1.432
 8843SOL     OW27427   1.276   3.230   4.995
 8843SOL    HW127428   1.323   3.278   4.921
 8843SOL    HW227429   1.316   3.258   5.083
 8844SOL     OW27430   5.662   1.362   6.212
 8844SOL    HW127431   5.719   1.283   6.189
 8844SOL    HW227432   5.581   1.331   6.261
 8845SOL     OW27433   4.406   3.927   0.046
 8845SOL    HW127434   4.372   3.846   7.023
 8845SOL    HW227435   4.329   3.977   0.087
 8846SOL     OW27436   1.767   5.104   3.908
 8846SOL    HW127437   1.838   5.147   3.852
 8846SOL    HW227438   1.712   5.175   3.952
 8847SOL     OW27439   2.675   0.714   2.973
 8847SOL    HW127440   2.613   0.660   2.916
 8847SOL    HW227441   2.657   0.694   3.070
 8848SOL     OW27442   2.292   0.895   1.787
 8848SOL    HW127443   2.258   0.975   1.738
 8848SOL    HW227444   2.310   0.821   1.723
 8849SOL     OW27445   1.328   6.182   2.358
 8849SOL    HW127446   1.375   6.094   2.351
 8849SOL    HW227447   1.382   6.253   2.314
 8850SOL     OW27448   2.991   1.827   6.883
 8850SOL    HW127449   2.953   1.915   6.912
 8850SOL    HW227450   2.945   1.797   6.799
 8851SOL     OW27451   1.750   4.699   2.428
 8851SOL    HW127452   1.701   4.736   2.508
 8851SOL    HW227453   1.770   4.602   2.444
 8852SOL     OW27454   1.371   1.751   5.229
 8852SOL    HW127455   1.342   1.683   5.296
 8852SOL    HW227456   1.375   1.841   5.274
 8853SOL     OW27457   3.357   0.783   1.595
 8853SOL    HW127458   3.261   0.801   1.573
 8853SOL    HW227459   3.400   0.866   1.629
 8854SOL     OW27460   1.653   2.944   4.990
 8854SOL    HW127461   1.599   2.927   4.908
 8854SOL    HW227462   1.736   2.887   4.988
 8855SOL     OW27463   6.082   5.242   1.619
 8855SOL    HW127464   6.079   5.286   1.530
 8855SOL    HW227465   6.077   5.143   1.607
 8856SOL     OW27466   6.975   5.583   6.155
 8856SOL    HW127467   6.963   5.673   6.114
 8856SOL    HW227468   0.008   5.591   6.238
 8857SOL     OW27469   6.358   1.461   5.186
 8857SOL    HW127470   6.409   1.410   5.118
 8857SOL    HW227471   6.291   1.520   5.141
 8858SOL     OW27472   6.154   4.906   5.496
 8858SOL    HW127473   6.228   4.971   5.514
 8858SOL    HW227474   6.083   4.917   5.566
 8859SOL     OW27475   0.705   0.970   3.752
 8859SOL    HW127476   0.665   0.994   3.841
 8859SOL    HW227477   0.689   1.044   3.687
 8860SOL     OW27478   6.849   2.480   1.252
 8860SOL    HW127479   6.905   2.556   1.217
 8860SOL    HW227480   6.890   2.446   1.337
 8861SOL     OW27481   4.286   1.664   1.398
 8861SOL    HW127482   4.347   1.593   1.364
 8861SOL    HW227483   4.285   1.741   1.333
 8862SOL     OW27484   4.624   5.642   5.100
 8862SOL    HW127485   4.576   5.566   5.142
 8862SOL    HW227486   4.668   5.611   5.015
 8863SOL     OW27487   2.139   4.601   3.489
 8863SOL    HW127488   2.163   4.642   3.577
 8863SOL    HW227489   2.073   4.527   3.504
 8864SOL     OW27490   5.176   2.543   6.764
 8864SOL    HW127491   5.114   2.524   6.688
 8864SOL    HW227492   5.154   2.631   6.805
 8865SOL     OW27493   2.901   1.556   6.177
 8865SOL    HW127494   2.817   1.543   6.230
 8865SOL    HW227495   2.925   1.653   6.177
 8866SOL     OW27496   5.934   6.197   2.391
 8866SOL    HW127497   5.864   6.145   2.342
 8866SOL    HW227498   5.996   6.239   2.326
 8867SOL     OW27499   6.441   3.396   2.474
 8867SOL    HW127500   6.398   3.350   2.396
 8867SOL    HW227501   6.470   3.487   2.447
 8868SOL     OW27502   0.041   3.550   3.100
 8868SOL    HW127503   0.123   3.607   3.086
 8868SOL    HW227504   6.989   3.586   3.045
 8869SOL     OW27505   3.622   5.835   4.136
 8869SOL    HW127506   3.601   5.739   4.120
 8869SOL    HW227507   3.565   5.892   4.076
 8870SOL     OW27508   1.677   0.005   1.784
 8870SOL    HW127509   1.677   0.057   1.870
 8870SOL    HW227510   1.742   0.045   1.721
 8871SOL     OW27511   1.358   0.596   2.681
 8871SOL    HW127512   1.380   0.501   2.703
 8871SOL    HW227513   1.264   0.616   2.710
 8872SOL     OW27514   0.496   4.501   6.005
 8872SOL    HW127515   0.530   4.407   6.009
 8872SOL    HW227516   0.531   4.553   6.083
 8873SOL     OW27517   1.528   0.261   1.954
 8873SOL    HW127518   1.557   0.324   1.882
 8873SOL    HW227519   1.605   0.201   1.978
 8874SOL     OW27520   1.881   5.323   0.517
 8874SOL    HW127521   1.966   5.316   0.570
 8874SOL    HW227522   1.889   5.400   0.453
 8875SOL     OW27523   0.063   2.969   3.409
 8875SOL    HW127524   0.012   2.888   3.439
 8875SOL    HW227525   0.119   3.002   3.484
 8876SOL     OW27526   3.448   0.346   5.811
 8876SOL    HW127527   3.382   0.409   5.769
 8876SOL    HW227528   3.415   0.318   5.901
 8877SOL     OW27529   1.637   3.774   1.290
 8877SOL    HW127530   1.674   3.855   1.336
 8877SOL    HW227531   1.702   3.743   1.221
 8878SOL     OW27532   3.890   4.917   0.897
 8878SOL    HW127533   3.797   4.900   0.865
 8878SOL    HW227534   3.896   5.009   0.935
 8879SOL     OW27535   6.359   4.674   2.834
 8879SOL    HW127536   6.318   4.748   2.780
 8879SOL    HW227537   6.323   4.677   2.927
 8880SOL     OW27538   5.012   6.690   3.381
 8880SOL    HW127539   5.056   6.721   3.465
 8880SOL    HW227540   4.978   6.769   3.331
 8881SOL     OW27541   3.835   4.946   3.852
 8881SOL    HW127542   3.760   4.930   3.915
 8881SOL    HW227543   3.915   4.979   3.902
 8882SOL     OW27544   3.835   0.731   0.863
 8882SOL    HW127545   3.895   0.791   0.916
 8882SOL    HW227546   3.811   0.776   0.777
 8883SOL     OW27547   0.015   6.701   5.611
 8883SOL    HW127548   0.004   6.799   5.630
 8883SOL    HW227549   6.948   6.660   5.596
 8884SOL     OW27550   5.617   3.788   4.509
 8884SOL    HW127551   5.557   3.760   4.584
 8884SOL    HW227552   5.604   3.726   4.432
 8885SOL     OW27553   5.806   5.530   0.360
 8885SOL    HW127554   5.743   5.457   0.387
 8885SOL    HW227555   5.895   5.513   0.401
 8886SOL     OW27556   2.701   5.738   7.010
 8886SOL    HW127557   2.618   5.696   6.974
 8886SOL    HW227558   2.677   5.807   0.055
 8887SOL     OW27559   4.630   0.996   0.918
 8887SOL    HW127560   4.637   1.071   0.984
 8887SOL    HW227561   4.534   0.976   0.900
 8888SOL     OW27562   1.798   1.625   3.603
 8888SOL    HW127563   1.871   1.559   3.587
 8888SOL    HW227564   1.834   1.702   3.655
 8889SOL     OW27565   6.747   6.583   6.801
 8889SOL    HW127566   6.808   6.505   6.789
 8889SOL    HW227567   6.686   6.590   6.722
 8890SOL     OW27568   0.158   0.131   0.263
 8890SOL    HW127569   0.114   0.117   0.174
 8890SOL    HW227570   0.140   0.225   0.294
 8891SOL     OW27571   5.917   4.638   6.344
 8891SOL    HW127572   5.933   4.574   6.419
 8891SOL    HW227573   5.829   4.619   6.302
 8892SOL     OW27574   3.126   4.932   3.575
 8892SOL    HW127575   3.117   4.845   3.623
 8892SOL    HW227576   3.037   4.960   3.539
 8893SOL     OW27577   1.120   5.513   4.480
 8893SOL    HW127578   1.188   5.444   4.459
 8893SOL    HW227579   1.085   5.554   4.396
 8894SOL     OW27580   4.266   2.767   0.504
 8894SOL    HW127581   4.333   2.840   0.519
 8894SOL    HW227582   4.308   2.678   0.524
 8895SOL     OW27583   0.952   3.430   0.745
 8895SOL    HW127584   0.974   3.333   0.733
 8895SOL    HW227585   1.011   3.485   0.686
 8896SOL     OW27586   0.421   2.380   4.058
 8896SOL    HW127587   0.376   2.398   4.145
 8896SOL    HW227588   0.517   2.356   4.073
 8897SOL     OW27589   1.552   4.027   3.909
 8897SOL    HW127590   1.538   3.964   3.832
 8897SOL    HW227591   1.608   4.104   3.880
 8898SOL     OW27592   4.911   3.518   2.859
 8898SOL    HW127593   4.980   3.547   2.793
 8898SOL    HW227594   4.845   3.458   2.813
 8899SOL     OW27595   0.477   4.100   6.063
 8899SOL    HW127596   0.411   4.173   6.078
 8899SOL    HW227597   0.446   4.018   6.112
 8900SOL     OW27598   5.564   2.103   3.464
 8900SOL    HW127599   5.572   2.107   3.563
 8900SOL    HW227600   5.653   2.123   3.422
 8901SOL     OW27601   0.546   2.572   3.633
 8901SOL    HW127602   0.631   2.624   3.626
 8901SOL    HW227603   0.504   2.588   3.722
 8902SOL     OW27604   1.288   4.263   6.917
 8902SOL    HW127605   1.213   4.216   6.871
 8902SOL    HW227606   1.355   4.196   6.948
 8903SOL     OW27607   1.521   0.839   4.634
 8903SOL    HW127608   1.499   0.760   4.692
 8903SOL    HW227609   1.553   0.914   4.692
 8904SOL     OW27610   0.932   1.100   2.492
 8904SOL    HW127611   0.849   1.085   2.546
 8904SOL    HW227612   0.966   1.192   2.508
 8905SOL     OW27613   1.473   3.577   2.216
 8905SOL    HW127614   1.528   3.608   2.294
 8905SOL    HW227615   1.534   3.550   2.141
 8906SOL     OW27616   0.157   0.374   0.665
 8906SOL    HW127617   0.240   0.428   0.676
 8906SOL    HW227618   0.146   0.314   0.744
 8907SOL     OW27619   3.343   2.770   5.202
 8907SOL    HW127620   3.315   2.679   5.173
 8907SOL    HW227621   3.279   2.838   5.165
 8908SOL     OW27622   1.373   5.868   0.383
 8908SOL    HW127623   1.309   5.824   0.447
 8908SOL    HW227624   1.324   5.892   0.299
 8909SOL     OW27625   2.274   1.720   6.443
 8909SOL    HW127626   2.329   1.661   6.384
 8909SOL    HW227627   2.193   1.671   6.474
 8910SOL     OW27628   1.126   3.115   4.819
 8910SOL    HW127629   1.185   3.165   4.883
 8910SOL    HW227630   1.033   3.110   4.856
 8911SOL     OW27631   5.241   1.798   3.847
 8911SOL    HW127632   5.323   1.824   3.898
 8911SOL    HW227633   5.161   1.841   3.888
 8912SOL     OW27634   4.103   3.836   5.464
 8912SOL    HW127635   4.018   3.842   5.412
 8912SOL    HW227636   4.174   3.889   5.418
 8913SOL     OW27637   4.935   5.588   0.145
 8913SOL    HW127638   4.951   5.660   0.214
 8913SOL    HW227639   5.023   5.547   0.120
 8914SOL     OW27640   5.089   6.295   4.913
 8914SOL    HW127641   5.012   6.236   4.891
 8914SOL    HW227642   5.103   6.296   5.012
 8915SOL     OW27643   0.433   1.311   3.896
 8915SOL    HW127644   0.510   1.256   3.928
 8915SOL    HW227645   0.409   1.378   3.966
 8916SOL     OW27646   5.726   1.624   6.447
 8916SOL    HW127647   5.679   1.604   6.361
 8916SOL    HW227648   5.662   1.616   6.523
 8917SOL     OW27649   5.802   1.876   0.800
 8917SOL    HW127650   5.743   1.809   0.844
 8917SOL    HW227651   5.872   1.830   0.746
 8918SOL     OW27652   1.706   5.089   1.616
 8918SOL    HW127653   1.796   5.118   1.650
 8918SOL    HW227654   1.717   5.006   1.561
 8919SOL     OW27655   5.796   4.183   6.398
 8919SOL    HW127656   5.737   4.263   6.395
 8919SOL    HW227657   5.891   4.211   6.415
 8920SOL     OW27658   0.270   1.061   6.557
 8920SOL    HW127659   0.317   0.975   6.540
 8920SOL    HW227660   0.282   1.122   6.478
 8921SOL     OW27661   1.483   3.055   0.919
 8921SOL    HW127662   1.577   3.052   0.883
 8921SOL    HW227663   1.469   2.979   0.982
 8922SOL     OW27664   3.989   0.135   3.459
 8922SOL    HW127665   4.012   0.040   3.438
 8922SOL    HW227666   3.941   0.176   3.382
 8923SOL     OW27667   1.802   2.011   5.681
 8923SOL    HW127668   1.806   2.107   5.651
 8923SOL    HW227669   1.711   1.975   5.663
 8924SOL     OW27670   5.361   4.876   4.678
 8924SOL    HW127671   5.311   4.962   4.688
 8924SOL    HW227672   5.419   4.880   4.596
 8925SOL     OW27673   1.225   1.151   2.637
 8925SOL    HW127674   1.199   1.112   2.725
 8925SOL    HW227675   1.168   1.231   2.618
 8926SOL     OW27676   6.825   3.767   5.762
 8926SOL    HW127677   6.854   3.763   5.666
 8926SOL    HW227678   6.823   3.861   5.793
 8927SOL     OW27679   6.668   1.880   5.498
 8927SOL    HW127680   6.586   1.858   5.443
 8927SOL    HW227681   6.650   1.861   5.594
 8928SOL     OW27682   2.507   0.263   5.262
 8928SOL    HW127683   2.461   0.301   5.342
 8928SOL    HW227684   2.520   0.164   5.275
 8929SOL     OW27685   6.273   2.414   4.823
 8929SOL    HW127686   6.371   2.431   4.828
 8929SOL    HW227687   6.231   2.436   4.911
 8930SOL     OW27688   1.092   4.142   3.379
 8930SOL    HW127689   1.067   4.046   3.381
 8930SOL    HW227690   1.141   4.162   3.294
 8931SOL     OW27691   3.511   3.289   1.752
 8931SOL    HW127692   3.564   3.204   1.743
 8931SOL    HW227693   3.418   3.267   1.785
 8932SOL     OW27694   0.678   2.266   3.136
 8932SOL    HW127695   0.741   2.339   3.163
 8932SOL    HW227696   0.584   2.298   3.144
 8933SOL     OW27697   3.421   2.709   6.103
 8933SOL    HW127698   3.513   2.682   6.075
 8933SOL    HW227699   3.426   2.768   6.184
 8934SOL     OW27700   3.635   5.172   3.961
 8934SOL    HW127701   3.658   5.083   3.999
 8934SOL    HW227702   3.637   5.167   3.861
 8935SOL     OW27703   6.910   5.224   0.851
 8935SOL    HW127704   6.920   5.130   0.819
 8935SOL    HW227705   6.813   5.245   0.864
 8936SOL     OW27706   1.988   3.850   0.457
 8936SOL    HW127707   1.934   3.934   0.458
 8936SOL    HW227708   2.085   3.872   0.459
 8937SOL     OW27709   0.079   6.742   5.348
 8937SOL    HW127710   0.070   6.754   5.446
 8937SOL    HW227711   0.049   6.826   5.301
 8938SOL     OW27712   6.546   5.026   1.786
 8938SOL    HW127713   6.508   5.027   1.878
 8938SOL    HW227714   6.575   5.118   1.759
 8939SOL     OW27715   4.856   2.026   4.802
 8939SOL    HW127716   4.891   1.944   4.755
 8939SOL    HW227717   4.926   2.061   4.864
 8940SOL     OW27718   6.618   0.610   3.727
 8940SOL    HW127719   6.678   0.530   3.731
 8940SOL    HW227720   6.673   0.692   3.712
 8941SOL     OW27721   5.613   2.188   5.355
 8941SOL    HW127722   5.665   2.109   5.322
 8941SOL    HW227723   5.562   2.228   5.279
 8942SOL     OW27724   0.263   2.834   5.536
 8942SOL    HW127725   0.274   2.926   5.574
 8942SOL    HW227726   0.193   2.835   5.464
 8943SOL     OW27727   5.243   3.984   0.929
 8943SOL    HW127728   5.319   3.988   0.993
 8943SOL    HW227729   5.198   3.895   0.935
 8944SOL     OW27730   5.482   5.671   6.823
 8944SOL    HW127731   5.415   5.668   6.897
 8944SOL    HW227732   5.479   5.761   6.779
 8945SOL     OW27733   2.776   0.537   5.121
 8945SOL    HW127734   2.804   0.523   5.217
 8945SOL    HW227735   2.694   0.483   5.102
 8946SOL     OW27736   3.175   1.799   5.052
 8946SOL    HW127737   3.222   1.866   4.994
 8946SOL    HW227738   3.090   1.770   5.007
 8947SOL     OW27739   3.357   3.616   5.594
 8947SOL    HW127740   3.325   3.595   5.502
 8947SOL    HW227741   3.363   3.531   5.647
 8948SOL     OW27742   5.139   4.838   3.258
 8948SOL    HW127743   5.139   4.893   3.341
 8948SOL    HW227744   5.154   4.741   3.281
 8949SOL     OW27745   1.886   0.087   6.784
 8949SOL    HW127746   1.882   0.147   6.864
 8949SOL    HW227747   1.864   7.017   6.811
 8950SOL     OW27748   4.976   3.012   5.425
 8950SOL    HW127749   5.028   2.937   5.467
 8950SOL    HW227750   4.940   3.072   5.496
 8951SOL     OW27751   1.406   2.810   5.712
 8951SOL    HW127752   1.369   2.796   5.621
 8951SOL    HW227753   1.491   2.758   5.722
 8952SOL     OW27754   1.148   1.301   2.890
 8952SOL    HW127755   1.098   1.376   2.933
 8952SOL    HW227756   1.226   1.338   2.840
 8953SOL     OW27757   1.871   3.344   7.013
 8953SOL    HW127758   1.810   3.392   6.950
 8953SOL    HW227759   1.932   3.410   0.033
 8954SOL     OW27760   0.412   6.167   6.385
 8954SOL    HW127761   0.421   6.266   6.377
 8954SOL    HW227762   0.406   6.126   6.294
 8955SOL     OW27763   0.121   4.222   3.489
 8955SOL    HW127764   0.095   4.194   3.396
 8955SOL    HW227765   0.212   4.263   3.487
 8956SOL     OW27766   0.475   0.920   6.113
 8956SOL    HW127767   0.534   0.913   6.033
 8956SOL    HW227768   0.453   0.829   6.147
 8957SOL     OW27769   2.721   4.855   1.804
 8957SOL    HW127770   2.728   4.772   1.859
 8957SOL    HW227771   2.777   4.927   1.845
 8958SOL     OW27772   0.610   0.163   4.200
 8958SOL    HW127773   0.569   0.222   4.270
 8958SOL    HW227774   0.707   0.151   4.219
 8959SOL     OW27775   0.975   5.158   0.894
 8959SOL    HW127776   0.975   5.221   0.972
 8959SOL    HW227777   0.881   5.135   0.870
 8960SOL     OW27778   4.366   5.717   2.736
 8960SOL    HW127779   4.450   5.767   2.756
 8960SOL    HW227780   4.365   5.631   2.787
 8961SOL     OW27781   1.618   1.306   4.514
 8961SOL    HW127782   1.689   1.374   4.531
 8961SOL    HW227783   1.534   1.352   4.484
 8962SOL     OW27784   5.661   6.939   2.643
 8962SOL    HW127785   5.590   6.973   2.705
 8962SOL    HW227786   5.751   6.967   2.677
 8963SOL     OW27787   5.321   6.714   4.357
 8963SOL    HW127788   5.294   6.661   4.436
 8963SOL    HW227789   5.241   6.757   4.316
 8964SOL     OW27790   5.163   5.356   2.092
 8964SOL    HW127791   5.245   5.411   2.105
 8964SOL    HW227792   5.140   5.309   2.177
 8965SOL     OW27793   1.401   5.809   1.034
 8965SOL    HW127794   1.415   5.712   1.053
 8965SOL    HW227795   1.442   5.832   0.946
 8966SOL     OW27796   1.543   2.806   6.309
 8966SOL    HW127797   1.618   2.741   6.313
 8966SOL    HW227798   1.521   2.826   6.214
 8967SOL     OW27799   3.761   6.876   1.938
 8967SOL    HW127800   3.712   6.842   1.858
 8967SOL    HW227801   3.836   6.813   1.960
 8968SOL     OW27802   5.393   5.908   1.579
 8968SOL    HW127803   5.490   5.891   1.562
 8968SOL    HW227804   5.383   5.970   1.657
 8969SOL     OW27805   6.114   0.882   3.253
 8969SOL    HW127806   6.121   0.934   3.168
 8969SOL    HW227807   6.085   0.943   3.327
 8970SOL     OW27808   3.258   2.173   1.278
 8970SOL    HW127809   3.214   2.263   1.275
 8970SOL    HW227810   3.342   2.177   1.332
 8971SOL     OW27811   3.603   6.179   2.439
 8971SOL    HW127812   3.584   6.202   2.535
 8971SOL    HW227813   3.557   6.093   2.416
 8972SOL     OW27814   4.937   6.175   6.637
 8972SOL    HW127815   4.898   6.155   6.547
 8972SOL    HW227816   5.023   6.126   6.649
 8973SOL     OW27817   1.245   4.569   1.609
 8973SOL    HW127818   1.279   4.509   1.537
 8973SOL    HW227819   1.146   4.581   1.599
 8974SOL     OW27820   1.205   4.204   6.456
 8974SOL    HW127821   1.282   4.177   6.513
 8974SOL    HW227822   1.235   4.215   6.361
 8975SOL     OW27823   2.821   0.316   0.304
 8975SOL    HW127824   2.856   0.409   0.310
 8975SOL    HW227825   2.789   0.298   0.211
 8976SOL     OW27826   1.497   5.556   4.971
 8976SOL    HW127827   1.501   5.653   4.995
 8976SOL    HW227828   1.563   5.536   4.899
 8977SOL     OW27829   6.188   1.312   6.067
 8977SOL    HW127830   6.175   1.352   6.158
 8977SOL    HW227831   6.276   1.342   6.029
 8978SOL     OW27832   6.228   6.202   0.177
 8978SOL    HW127833   6.255   6.224   0.271
 8978SOL    HW227834   6.128   6.204   0.170
 8979SOL     OW27835   1.783   3.849   5.088
 8979SOL    HW127836   1.775   3.921   5.019
 8979SOL    HW227837   1.874   3.851   5.130
 8980SOL     OW27838   3.051   3.717   5.421
 8980SOL    HW127839   3.104   3.798   5.449
 8980SOL    HW227840   3.111   3.655   5.370
 8981SOL     OW27841   3.685   1.701   5.407
 8981SOL    HW127842   3.749   1.699   5.484
 8981SOL    HW227843   3.682   1.611   5.364
 8982SOL     OW27844   2.017   3.513   0.122
 8982SOL    HW127845   2.106   3.468   0.118
 8982SOL    HW227846   2.015   3.576   0.199
 8983SOL     OW27847   3.510   6.212   6.895
 8983SOL    HW127848   3.425   6.239   6.940
 8983SOL    HW227849   3.549   6.133   6.942
 8984SOL     OW27850   2.181   6.261   2.906
 8984SOL    HW127851   2.174   6.352   2.866
 8984SOL    HW227852   2.110   6.202   2.866
 8985SOL     OW27853   2.995   2.260   0.470
 8985SOL    HW127854   3.051   2.336   0.438
 8985SOL    HW227855   2.898   2.279   0.450
 8986SOL     OW27856   3.383   5.000   2.726
 8986SOL    HW127857   3.287   4.973   2.716
 8986SOL    HW227858   3.412   4.984   2.820
 8987SOL     OW27859   4.698   6.251   3.231
 8987SOL    HW127860   4.795   6.253   3.208
 8987SOL    HW227861   4.671   6.339   3.269
 8988SOL     OW27862   0.830   6.002   3.496
 8988SOL    HW127863   0.886   6.022   3.576
 8988SOL    HW227864   0.736   5.983   3.525
 8989SOL     OW27865   4.450   3.227   6.151
 8989SOL    HW127866   4.531   3.268   6.110
 8989SOL    HW227867   4.379   3.215   6.080
 8990SOL     OW27868   0.453   5.053   3.625
 8990SOL    HW127869   0.484   5.129   3.683
 8990SOL    HW227870   0.408   4.984   3.680
 8991SOL     OW27871   1.538   3.223   4.607
 8991SOL    HW127872   1.621   3.234   4.661
 8991SOL    HW227873   1.459   3.250   4.661
 8992SOL     OW27874   4.784   1.293   0.678
 8992SOL    HW127875   4.844   1.338   0.611
 8992SOL    HW227876   4.689   1.318   0.658
 8993SOL     OW27877   4.043   3.079   6.429
 8993SOL    HW127878   3.950   3.054   6.454
 8993SOL    HW227879   4.041   3.151   6.360
 8994SOL     OW27880   1.738   4.529   4.580
 8994SOL    HW127881   1.781   4.444   4.549
 8994SOL    HW227882   1.643   4.511   4.603
 8995SOL     OW27883   6.047   1.716   1.217
 8995SOL    HW127884   6.007   1.806   1.202
 8995SOL    HW227885   6.055   1.668   1.129
 8996SOL     OW27886   5.279   4.104   5.903
 8996SOL    HW127887   5.336   4.030   5.867
 8996SOL    HW227888   5.328   4.151   5.977
 8997SOL     OW27889   4.570   0.726   6.130
 8997SOL    HW127890   4.566   0.785   6.210
 8997SOL    HW227891   4.480   0.724   6.085
 8998SOL     OW27892   5.971   3.626   3.612
 8998SOL    HW127893   6.050   3.684   3.588
 8998SOL    HW227894   5.934   3.656   3.700
 8999SOL     OW27895   4.968   6.913   6.277
 8999SOL    HW127896   4.921   6.988   6.322
 8999SOL    HW227897   4.920   6.827   6.296
 9000SOL     OW27898   1.501   3.306   1.794
 9000SOL    HW127899   1.451   3.228   1.831
 9000SOL    HW227900   1.459   3.336   1.708
 9001SOL     OW27901   7.014   5.309   1.970
 9001SOL    HW127902   6.940   5.242   1.984
 9001SOL    HW227903   0.052   5.308   2.050
 9002SOL     OW27904   1.338   5.052   5.270
 9002SOL    HW127905   1.282   5.119   5.320
 9002SOL    HW227906   1.291   4.964   5.268
 9003SOL     OW27907   5.046   3.105   1.170
 9003SOL    HW127908   4.990   3.127   1.250
 9003SOL    HW227909   5.133   3.066   1.200
 9004SOL     OW27910   4.392   4.843   0.959
 9004SOL    HW127911   4.315   4.905   0.944
 9004SOL    HW227912   4.455   4.884   1.025
 9005SOL     OW27913   5.668   1.480   5.781
 9005SOL    HW127914   5.741   1.412   5.784
 9005SOL    HW227915   5.707   1.571   5.797
 9006SOL     OW27916   2.450   6.412   1.167
 9006SOL    HW127917   2.424   6.493   1.219
 9006SOL    HW227918   2.369   6.357   1.147
 9007SOL     OW27919   2.820   1.150   1.911
 9007SOL    HW127920   2.721   1.145   1.929
 9007SOL    HW227921   2.835   1.197   1.823
 9008SOL     OW27922   0.470   4.775   2.943
 9008SOL    HW127923   0.459   4.867   2.981
 9008SOL    HW227924   0.567   4.753   2.934
 9009SOL     OW27925   3.527   5.561   1.417
 9009SOL    HW127926   3.507   5.655   1.390
 9009SOL    HW227927   3.605   5.560   1.480
 9010SOL     OW27928   2.493   6.450   4.229
 9010SOL    HW127929   2.569   6.509   4.202
 9010SOL    HW227930   2.415   6.507   4.256
 9011SOL     OW27931   3.907   1.081   1.731
 9011SOL    HW127932   3.939   0.988   1.715
 9011SOL    HW227933   3.905   1.132   1.645
 9012SOL     OW27934   2.240   5.585   0.378
 9012SOL    HW127935   2.192   5.670   0.356
 9012SOL    HW227936   2.326   5.582   0.328
 9013SOL     OW27937   0.688   0.448   4.779
 9013SOL    HW127938   0.736   0.495   4.853
 9013SOL    HW227939   0.685   0.350   4.799
 9014SOL     OW27940   6.150   2.876   1.234
 9014SOL    HW127941   6.176   2.960   1.187
 9014SOL    HW227942   6.206   2.864   1.316
 9015SOL     OW27943   4.704   2.608   1.430
 9015SOL    HW127944   4.670   2.702   1.444
 9015SOL    HW227945   4.636   2.556   1.378
 9016SOL     OW27946   5.699   4.877   6.597
 9016SOL    HW127947   5.700   4.973   6.572
 9016SOL    HW227948   5.608   4.850   6.626
 9017SOL     OW27949   4.117   0.886   4.351
 9017SOL    HW127950   4.063   0.814   4.308
 9017SOL    HW227951   4.213   0.877   4.322
 9018SOL     OW27952   3.593   3.793   6.502
 9018SOL    HW127953   3.608   3.891   6.514
 9018SOL    HW227954   3.511   3.765   6.553
 9019SOL     OW27955   1.088   3.973   2.669
 9019SOL    HW127956   1.118   3.890   2.621
 9019SOL    HW227957   1.167   4.022   2.704
 9020SOL     OW27958   6.777   4.378   0.825
 9020SOL    HW127959   6.715   4.332   0.889
 9020SOL    HW227960   6.857   4.321   0.809
 9021SOL     OW27961   6.745   0.845   3.631
 9021SOL    HW127962   6.800   0.922   3.601
 9021SOL    HW227963   6.648   0.867   3.623
 9022SOL     OW27964   3.696   1.275   0.220
 9022SOL    HW127965   3.741   1.343   0.162
 9022SOL    HW227966   3.706   1.184   0.180
 9023SOL     OW27967   4.279   3.496   1.584
 9023SOL    HW127968   4.249   3.468   1.675
 9023SOL    HW227969   4.294   3.595   1.583
 9024SOL     OW27970   1.105   4.651   5.150
 9024SOL    HW127971   1.093   4.560   5.111
 9024SOL    HW227972   1.017   4.684   5.185
 9025SOL     OW27973   6.483   5.964   0.961
 9025SOL    HW127974   6.516   5.912   0.882
 9025SOL    HW227975   6.533   6.050   0.968
 9026SOL     OW27976   3.126   2.033   0.490
 9026SOL    HW127977   3.082   1.960   0.542
 9026SOL    HW227978   3.069   2.115   0.494
 9027SOL     OW27979   0.880   3.620   3.546
 9027SOL    HW127980   0.810   3.556   3.577
 9027SOL    HW227981   0.967   3.570   3.533
 9028SOL     OW27982   4.070   2.805   5.271
 9028SOL    HW127983   4.083   2.713   5.234
 9028SOL    HW227984   3.976   2.815   5.303
 9029SOL     OW27985   4.298   0.351   4.861
 9029SOL    HW127986   4.214   0.364   4.915
 9029SOL    HW227987   4.345   0.269   4.892
 9030SOL     OW27988   1.936   2.546   4.363
 9030SOL    HW127989   1.901   2.492   4.287
 9030SOL    HW227990   1.994   2.620   4.328
 9031SOL     OW27991   4.235   6.968   4.683
 9031SOL    HW127992   4.282   0.008   4.622
 9031SOL    HW227993   4.298   6.893   4.707
 9032SOL     OW27994   4.656   3.704   1.088
 9032SOL    HW127995   4.709   3.651   1.022
 9032SOL    HW227996   4.641   3.796   1.051
 9033SOL     OW27997   0.720   4.575   2.669
 9033SOL    HW127998   0.715   4.547   2.765
 9033SOL    HW227999   0.681   4.502   2.611
 9034SOL     OW28000   3.391   6.229   4.599
 9034SOL    HW128001   3.292   6.215   4.601
 9034SOL    HW228002   3.437   6.141   4.610
 9035SOL     OW28003   1.747   5.662   6.823
 9035SOL    HW128004   1.816   5.734   6.827
 9035SOL    HW228005   1.684   5.672   6.899
 9036SOL     OW28006   1.569   3.892   5.752
 9036SOL    HW128007   1.553   3.802   5.792
 9036SOL    HW228008   1.531   3.962   5.812
 9037SOL     OW28009   1.219   3.054   4.401
 9037SOL    HW128010   1.217   3.100   4.490
 9037SOL    HW228011   1.311   3.056   4.364
 9038SOL     OW28012   4.396   3.318   0.136
 9038SOL    HW128013   4.383   3.314   0.037
 9038SOL    HW228014   4.335   3.387   0.175
 9039SOL     OW28015   2.971   4.649   0.071
 9039SOL    HW128016   2.954   4.566   0.018
 9039SOL    HW228017   2.891   4.668   0.128
 9040SOL     OW28018   2.871   2.204   2.324
 9040SOL    HW128019   2.881   2.258   2.241
 9040SOL    HW228020   2.896   2.109   2.304
 9041SOL     OW28021   1.220   2.486   1.139
 9041SOL    HW128022   1.182   2.427   1.068
 9041SOL    HW228023   1.149   2.507   1.207
 9042SOL     OW28024   3.870   6.583   4.947
 9042SOL    HW128025   3.872   6.506   5.011
 9042SOL    HW228026   3.825   6.554   4.862
 9043SOL     OW28027   2.162   1.330   6.203
 9043SOL    HW128028   2.247   1.297   6.161
 9043SOL    HW228029   2.177   1.342   6.301
 9044SOL     OW28030   0.663   1.024   6.666
 9044SOL    HW128031   0.651   1.100   6.602
 9044SOL    HW228032   0.648   1.056   6.760
 9045SOL     OW28033   4.232   0.472   3.086
 9045SOL    HW128034   4.186   0.388   3.115
 9045SOL    HW228035   4.214   0.544   3.153
 9046SOL     OW28036   3.905   3.953   2.607
 9046SOL    HW128037   3.885   4.050   2.594
 9046SOL    HW228038   3.946   3.939   2.697
 9047SOL     OW28039   1.216   4.161   5.101
 9047SOL    HW128040   1.286   4.112   5.048
 9047SOL    HW228041   1.191   4.107   5.182
 9048SOL     OW28042   6.255   2.723   6.387
 9048SOL    HW128043   6.237   2.739   6.484
 9048SOL    HW228044   6.312   2.797   6.351
 9049SOL     OW28045   3.679   6.367   5.372
 9049SOL    HW128046   3.711   6.279   5.405
 9049SOL    HW228047   3.580   6.374   5.385
 9050SOL     OW28048   0.529   3.852   1.189
 9050SOL    HW128049   0.457   3.887   1.128
 9050SOL    HW228050   0.508   3.757   1.214
 9051SOL     OW28051   2.406   0.288   1.539
 9051SOL    HW128052   2.363   0.225   1.604
 9051SOL    HW228053   2.374   0.267   1.446
 9052SOL     OW28054   2.128   3.262   4.073
 9052SOL    HW128055   2.167   3.197   4.138
 9052SOL    HW228056   2.030   3.246   4.064
 9053SOL     OW28057   2.285   1.106   0.668
 9053SOL    HW128058   2.263   1.196   0.705
 9053SOL    HW228059   2.330   1.117   0.579
 9054SOL     OW28060   2.458   5.790   4.240
 9054SOL    HW128061   2.394   5.752   4.307
 9054SOL    HW228062   2.529   5.841   4.289
 9055SOL     OW28063   6.247   4.174   4.723
 9055SOL    HW128064   6.345   4.182   4.708
 9055SOL    HW228065   6.208   4.265   4.738
 9056SOL     OW28066   6.955   1.901   2.425
 9056SOL    HW128067   6.999   1.814   2.404
 9056SOL    HW228068   6.937   1.908   2.523
 9057SOL     OW28069   4.539   2.028   4.318
 9057SOL    HW128070   4.474   2.103   4.327
 9057SOL    HW228071   4.517   1.956   4.384
 9058SOL     OW28072   1.244   0.531   0.017
 9058SOL    HW128073   1.177   0.552   6.968
 9058SOL    HW228074   1.233   0.595   0.092
 9059SOL     OW28075   1.069   2.610   2.614
 9059SOL    HW128076   1.060   2.511   2.616
 9059SOL    HW228077   1.071   2.643   2.520
 9060SOL     OW28078   5.927   3.134   4.718
 9060SOL    HW128079   5.880   3.220   4.741
 9060SOL    HW228080   5.881   3.058   4.764
 9061SOL     OW28081   4.048   5.318   2.550
 9061SOL    HW128082   4.045   5.418   2.550
 9061SOL    HW228083   3.956   5.281   2.564
 9062SOL     OW28084   1.320   5.230   1.605
 9062SOL    HW128085   1.297   5.264   1.696
 9062SOL    HW228086   1.240   5.186   1.564
 9063SOL     OW28087   2.793   1.198   3.731
 9063SOL    HW128088   2.860   1.172   3.662
 9063SOL    HW228089   2.822   1.283   3.775
 9064SOL     OW28090   6.483   3.563   6.680
 9064SOL    HW128091   6.543   3.590   6.756
 9064SOL    HW228092   6.401   3.621   6.680
 9065SOL     OW28093   3.888   0.259   0.391
 9065SOL    HW128094   3.875   0.168   0.351
 9065SOL    HW228095   3.824   0.323   0.349
 9066SOL     OW28096   5.807   0.359   0.520
 9066SOL    HW128097   5.781   0.403   0.434
 9066SOL    HW228098   5.880   0.293   0.502
 9067SOL     OW28099   2.002   0.294   3.226
 9067SOL    HW128100   2.059   0.370   3.194
 9067SOL    HW228101   1.957   0.320   3.312
 9068SOL     OW28102   1.011   6.065   5.046
 9068SOL    HW128103   1.044   6.070   5.140
 9068SOL    HW228104   0.917   6.101   5.042
 9069SOL     OW28105   1.492   2.882   6.611
 9069SOL    HW128106   1.546   2.960   6.577
 9069SOL    HW228107   1.544   2.798   6.598
 9070SOL     OW28108   1.867   3.837   4.480
 9070SOL    HW128109   1.965   3.816   4.470
 9070SOL    HW228110   1.836   3.810   4.570
 9071SOL     OW28111   6.480   6.560   0.696
 9071SOL    HW128112   6.464   6.481   0.756
 9071SOL    HW228113   6.517   6.635   0.750
 9072SOL     OW28114   6.813   3.486   0.442
 9072SOL    HW128115   6.887   3.432   0.402
 9072SOL    HW228116   6.847   3.577   0.467
 9073SOL     OW28117   2.276   0.661   1.626
 9073SOL    HW128118   2.329   0.597   1.682
 9073SOL    HW228119   2.188   0.619   1.603
 9074SOL     OW28120   1.522   0.143   2.543
 9074SOL    HW128121   1.598   0.201   2.574
 9074SOL    HW228122   1.445   0.154   2.605
 9075SOL     OW28123   6.715   0.438   2.143
 9075SOL    HW128124   6.715   0.482   2.233
 9075SOL    HW228125   6.704   0.507   2.072
 9076SOL     OW28126   7.010   1.272   6.133
 9076SOL    HW128127   0.018   1.293   6.226
 9076SOL    HW228128   6.987   1.175   6.127
 9077SOL     OW28129   4.273   6.848   2.762
 9077SOL    HW128130   4.358   6.901   2.764
 9077SOL    HW228131   4.272   6.791   2.680
 9078SOL     OW28132   3.762   3.374   4.824
 9078SOL    HW128133   3.800   3.284   4.808
 9078SOL    HW228134   3.774   3.431   4.743
 9079SOL     OW28135   3.276   6.775   4.138
 9079SOL    HW128136   3.292   6.863   4.183
 9079SOL    HW228137   3.248   6.790   4.043
 9080SOL     OW28138   5.322   2.737   6.975
 9080SOL    HW128139   5.225   2.737   6.949
 9080SOL    HW228140   5.340   2.816   0.011
 9081SOL     OW28141   5.138   6.244   2.983
 9081SOL    HW128142   5.148   6.256   2.884
 9081SOL    HW228143   5.228   6.227   3.024
 9082SOL     OW28144   2.615   0.604   3.528
 9082SOL    HW128145   2.526   0.568   3.558
 9082SOL    HW228146   2.648   0.672   3.593
 9083SOL     OW28147   4.885   4.616   5.387
 9083SOL    HW128148   4.885   4.716   5.387
 9083SOL    HW228149   4.969   4.583   5.430
 9084SOL     OW28150   2.984   3.899   3.193
 9084SOL    HW128151   2.968   3.831   3.122
 9084SOL    HW228152   3.048   3.968   3.160
 9085SOL     OW28153   2.425   1.301   0.878
 9085SOL    HW128154   2.414   1.355   0.962
 9085SOL    HW228155   2.411   1.204   0.900
 9086SOL     OW28156   0.638   3.716   0.662
 9086SOL    HW128157   0.655   3.697   0.759
 9086SOL    HW228158   0.665   3.809   0.641
 9087SOL     OW28159   4.923   3.292   2.444
 9087SOL    HW128160   4.837   3.291   2.392
 9087SOL    HW228161   4.902   3.280   2.541
 9088SOL     OW28162   6.799   0.568   6.784
 9088SOL    HW128163   6.865   0.508   6.829
 9088SOL    HW228164   6.848   0.640   6.735
 9089SOL     OW28165   4.908   6.872   5.751
 9089SOL    HW128166   4.953   6.819   5.679
 9089SOL    HW228167   4.971   6.886   5.827
 9090SOL     OW28168   5.460   0.247   5.071
 9090SOL    HW128169   5.497   0.340   5.070
 9090SOL    HW228170   5.368   0.248   5.111
 9091SOL     OW28171   3.603   4.351   6.806
 9091SOL    HW128172   3.691   4.304   6.806
 9091SOL    HW228173   3.579   4.377   6.713
 9092SOL     OW28174   0.118   1.865   6.649
 9092SOL    HW128175   0.023   1.853   6.677
 9092SOL    HW228176   0.125   1.851   6.550
 9093SOL     OW28177   1.386   6.875   5.384
 9093SOL    HW128178   1.295   6.838   5.361
 9093SOL    HW228179   1.396   6.965   5.343
 9094SOL     OW28180   0.393   2.984   1.709
 9094SOL    HW128181   0.472   3.040   1.683
 9094SOL    HW228182   0.329   3.039   1.761
 9095SOL     OW28183   5.342   5.741   5.481
 9095SOL    HW128184   5.431   5.698   5.464
 9095SOL    HW228185   5.355   5.835   5.513
 9096SOL     OW28186   6.403   5.008   2.758
 9096SOL    HW128187   6.427   5.083   2.696
 9096SOL    HW228188   6.477   4.996   2.824
 9097SOL     OW28189   0.551   2.677   5.802
 9097SOL    HW128190   0.533   2.639   5.712
 9097SOL    HW228191   0.553   2.776   5.797
 9098SOL     OW28192   1.765   2.558   4.570
 9098SOL    HW128193   1.817   2.556   4.485
 9098SOL    HW228194   1.700   2.481   4.571
 9099SOL     OW28195   2.257   3.646   6.145
 9099SOL    HW128196   2.338   3.649   6.087
 9099SOL    HW228197   2.270   3.577   6.217
 9100SOL     OW28198   1.537   4.399   2.223
 9100SOL    HW128199   1.526   4.452   2.307
 9100SOL    HW228200   1.468   4.428   2.156
 9101SOL     OW28201   2.559   1.148   1.981
 9101SOL    HW128202   2.513   1.168   2.067
 9101SOL    HW228203   2.514   1.198   1.907
 9102SOL     OW28204   4.449   6.170   2.901
 9102SOL    HW128205   4.451   6.238   2.828
 9102SOL    HW228206   4.360   6.125   2.902
 9103SOL     OW28207   6.671   1.501   0.015
 9103SOL    HW128208   6.578   1.463   0.011
 9103SOL    HW228209   6.736   1.429   0.035
 9104SOL     OW28210   0.051   0.902   0.066
 9104SOL    HW128211   0.090   0.870   0.153
 9104SOL    HW228212   0.122   0.903   7.020
 9105SOL     OW28213   1.734   0.104   6.076
 9105SOL    HW128214   1.825   0.099   6.035
 9105SOL    HW228215   1.725   0.189   6.128
 9106SOL     OW28216   0.700   4.846   6.570
 9106SOL    HW128217   0.612   4.807   6.544
 9106SOL    HW228218   0.756   4.858   6.488
 9107SOL     OW28219   2.588   1.003   6.514
 9107SOL    HW128220   2.562   1.008   6.611
 9107SOL    HW228221   2.625   0.912   6.495
 9108SOL     OW28222   5.481   5.327   5.625
 9108SOL    HW128223   5.386   5.344   5.651
 9108SOL    HW228224   5.496   5.356   5.531
 9109SOL     OW28225   5.374   2.390   2.229
 9109SOL    HW128226   5.436   2.379   2.307
 9109SOL    HW228227   5.340   2.484   2.227
 9110SOL     OW28228   1.790   5.734   5.090
 9110SOL    HW128229   1.762   5.642   5.064
 9110SOL    HW228230   1.824   5.733   5.184
 9111SOL     OW28231   4.627   2.555   5.312
 9111SOL    HW128232   4.568   2.500   5.253
 9111SOL    HW228233   4.623   2.651   5.283
 9112SOL     OW28234   2.129   5.259   2.360
 9112SOL    HW128235   2.134   5.350   2.320
 9112SOL    HW228236   2.080   5.264   2.447
 9113SOL     OW28237   4.874   2.237   3.477
 9113SOL    HW128238   4.857   2.331   3.506
 9113SOL    HW228239   4.793   2.182   3.494
 9114SOL     OW28240   1.077   6.238   4.838
 9114SOL    HW128241   1.073   6.190   4.926
 9114SOL    HW228242   1.171   6.266   4.819
 9115SOL     OW28243   5.542   4.958   3.768
 9115SOL    HW128244   5.486   4.949   3.686
 9115SOL    HW228245   5.629   4.911   3.754
 9116SOL     OW28246   0.633   7.005   3.789
 9116SOL    HW128247   0.581   6.940   3.734
 9116SOL    HW228248   0.642   0.068   3.738
 9117SOL     OW28249   4.019   0.995   0.034
 9117SOL    HW128250   4.005   0.939   0.115
 9117SOL    HW228251   4.029   1.091   0.061
 9118SOL     OW28252   5.659   4.454   0.321
 9118SOL    HW128253   5.749   4.428   0.286
 9118SOL    HW228254   5.664   4.464   0.421
 9119SOL     OW28255   3.448   6.554   0.993
 9119SOL    HW128256   3.546   6.540   0.978
 9119SOL    HW228257   3.417   6.634   0.942
 9120SOL     OW28258   5.688   2.577   5.732
 9120SOL    HW128259   5.705   2.479   5.745
 9120SOL    HW228260   5.665   2.595   5.637
 9121SOL     OW28261   2.991   0.244   5.454
 9121SOL    HW128262   3.076   0.289   5.426
 9121SOL    HW228263   3.007   0.145   5.459
 9122SOL     OW28264   2.386   4.557   2.127
 9122SOL    HW128265   2.406   4.557   2.225
 9122SOL    HW228266   2.289   4.577   2.113
 9123SOL     OW28267   1.066   0.963   3.543
 9123SOL    HW128268   1.085   0.874   3.586
 9123SOL    HW228269   1.047   1.031   3.614
 9124SOL     OW28270   3.192   5.354   1.615
 9124SOL    HW128271   3.266   5.341   1.681
 9124SOL    HW228272   3.219   5.317   1.526
 9125SOL     OW28273   4.028   6.483   0.342
 9125SOL    HW128274   4.033   6.415   0.269
 9125SOL    HW228275   4.033   6.438   0.431
 9126SOL     OW28276   4.012   5.118   0.434
 9126SOL    HW128277   3.971   5.031   0.405
 9126SOL    HW228278   3.955   5.159   0.505
 9127SOL     OW28279   0.255   3.854   5.405
 9127SOL    HW128280   0.349   3.859   5.370
 9127SOL    HW228281   0.192   3.839   5.329
 9128SOL     OW28282   5.547   3.577   4.967
 9128SOL    HW128283   5.552   3.493   5.021
 9128SOL    HW228284   5.609   3.645   5.006
 9129SOL     OW28285   1.584   1.592   0.685
 9129SOL    HW128286   1.641   1.606   0.766
 9129SOL    HW228287   1.517   1.520   0.703
 9130SOL     OW28288   2.735   4.120   5.250
 9130SOL    HW128289   2.637   4.101   5.245
 9130SOL    HW228290   2.786   4.035   5.240
 9131SOL     OW28291   5.847   2.676   0.964
 9131SOL    HW128292   5.898   2.679   1.050
 9131SOL    HW228293   5.798   2.762   0.951
 9132SOL     OW28294   0.678   3.826   3.559
 9132SOL    HW128295   0.695   3.908   3.505
 9132SOL    HW228296   0.741   3.754   3.530
 9133SOL     OW28297   4.690   0.429   0.950
 9133SOL    HW128298   4.594   0.457   0.955
 9133SOL    HW228299   4.743   0.474   1.021
 9134SOL     OW28300   4.690   5.310   0.723
 9134SOL    HW128301   4.745   5.392   0.737
 9134SOL    HW228302   4.693   5.254   0.806
 9135SOL     OW28303   0.701   6.097   2.407
 9135SOL    HW128304   0.726   6.166   2.338
 9135SOL    HW228305   0.610   6.117   2.442
 9136SOL     OW28306   6.601   4.684   6.380
 9136SOL    HW128307   6.617   4.593   6.341
 9136SOL    HW228308   6.548   4.739   6.316
 9137SOL     OW28309   4.671   6.279   6.690
 9137SOL    HW128310   4.753   6.241   6.649
 9137SOL    HW228311   4.623   6.208   6.741
 9138SOL     OW28312   2.948   3.512   1.163
 9138SOL    HW128313   2.878   3.565   1.117
 9138SOL    HW228314   3.013   3.476   1.096
 9139SOL     OW28315   0.176   0.525   1.405
 9139SOL    HW128316   0.189   0.570   1.494
 9139SOL    HW228317   0.078   0.513   1.388
 9140SOL     OW28318   0.754   4.197   2.423
 9140SOL    HW128319   0.706   4.129   2.480
 9140SOL    HW228320   0.849   4.169   2.412
 9141SOL     OW28321   6.865   5.821   6.031
 9141SOL    HW128322   6.768   5.843   6.047
 9141SOL    HW228323   6.905   5.889   5.970
 9142SOL     OW28324   0.962   3.890   3.444
 9142SOL    HW128325   0.939   3.801   3.485
 9142SOL    HW228326   0.882   3.949   3.445
 9143SOL     OW28327   6.842   3.270   2.213
 9143SOL    HW128328   6.783   3.347   2.239
 9143SOL    HW228329   6.804   3.185   2.250
 9144SOL     OW28330   2.851   4.333   5.381
 9144SOL    HW128331   2.887   4.385   5.303
 9144SOL    HW228332   2.793   4.258   5.347
 9145SOL     OW28333   1.413   6.501   5.823
 9145SOL    HW128334   1.426   6.582   5.765
 9145SOL    HW228335   1.327   6.456   5.798
 9146SOL     OW28336   6.316   3.087   2.775
 9146SOL    HW128337   6.320   3.069   2.874
 9146SOL    HW228338   6.280   3.178   2.759
 9147SOL     OW28339   4.757   0.143   4.389
 9147SOL    HW128340   4.745   0.108   4.481
 9147SOL    HW228341   4.749   0.068   4.323
 9148SOL     OW28342   6.481   6.738   1.729
 9148SOL    HW128343   6.529   6.657   1.695
 9148SOL    HW228344   6.488   6.742   1.828
 9149SOL     OW28345   0.008   3.373   1.159
 9149SOL    HW128346   0.022   3.472   1.149
 9149SOL    HW228347   7.018   3.351   1.256
 9150SOL     OW28348   2.831   2.934   0.656
 9150SOL    HW128349   2.831   3.001   0.730
 9150SOL    HW228350   2.851   2.980   0.569
 9151SOL     OW28351   1.911   3.141   3.758
 9151SOL    HW128352   1.891   3.236   3.734
 9151SOL    HW228353   1.972   3.101   3.689
 9152SOL     OW28354   2.100   4.273   3.410
 9152SOL    HW128355   2.096   4.175   3.389
 9152SOL    HW228356   2.169   4.316   3.351
 9153SOL     OW28357   6.750   3.312   6.935
 9153SOL    HW128358   6.792   3.403   6.943
 9153SOL    HW228359   6.659   3.321   6.895
 9154SOL     OW28360   5.682   4.768   3.224
 9154SOL    HW128361   5.711   4.748   3.318
 9154SOL    HW228362   5.749   4.828   3.181
 9155SOL     OW28363   0.727   6.252   2.873
 9155SOL    HW128364   0.812   6.202   2.889
 9155SOL    HW228365   0.736   6.345   2.906
 9156SOL     OW28366   6.644   3.762   6.922
 9156SOL    HW128367   6.669   3.856   6.898
 9156SOL    HW228368   6.561   3.763   6.977
 9157SOL     OW28369   2.126   4.950   6.147
 9157SOL    HW128370   2.159   4.867   6.192
 9157SOL    HW228371   2.074   5.004   6.212
 9158SOL     OW28372   6.895   3.362   4.461
 9158SOL    HW128373   6.928   3.456   4.469
 9158SOL    HW228374   6.845   3.352   4.376
 9159SOL     OW28375   3.883   1.172   3.723
 9159SOL    HW128376   3.813   1.199   3.657
 9159SOL    HW228377   3.855   1.087   3.768
 9160SOL     OW28378   0.073   4.292   0.541
 9160SOL    HW128379   0.028   4.379   0.516
 9160SOL    HW228380   0.080   4.235   0.459
 9161SOL     OW28381   6.124   4.144   1.504
 9161SOL    HW128382   6.141   4.230   1.456
 9161SOL    HW228383   6.144   4.068   1.442
 9162SOL     OW28384   4.650   1.939   1.874
 9162SOL    HW128385   4.656   1.963   1.777
 9162SOL    HW228386   4.564   1.890   1.891
 9163SOL     OW28387   1.701   2.570   3.161
 9163SOL    HW128388   1.704   2.530   3.069
 9163SOL    HW228389   1.713   2.669   3.154
 9164SOL     OW28390   2.142   0.675   6.733
 9164SOL    HW128391   2.056   0.667   6.784
 9164SOL    HW228392   2.124   0.658   6.636
 9165SOL     OW28393   5.259   1.830   5.852
 9165SOL    HW128394   5.325   1.862   5.919
 9165SOL    HW228395   5.277   1.873   5.764
 9166SOL     OW28396   5.311   5.403   1.587
 9166SOL    HW128397   5.407   5.407   1.560
 9166SOL    HW228398   5.300   5.339   1.663
 9167SOL     OW28399   1.810   1.001   4.501
 9167SOL    HW128400   1.797   0.910   4.464
 9167SOL    HW228401   1.763   1.009   4.589
 9168SOL     OW28402   6.458   6.021   4.514
 9168SOL    HW128403   6.433   5.974   4.430
 9168SOL    HW228404   6.376   6.059   4.557
 9169SOL     OW28405   6.083   6.264   0.787
 9169SOL    HW128406   6.020   6.339   0.766
 9169SOL    HW228407   6.095   6.256   0.886
 9170SOL     OW28408   1.321   1.191   5.530
 9170SOL    HW128409   1.370   1.277   5.515
 9170SOL    HW228410   1.281   1.159   5.443
 9171SOL     OW28411   3.407   4.841   0.623
 9171SOL    HW128412   3.414   4.933   0.660
 9171SOL    HW228413   3.459   4.834   0.538
 9172SOL     OW28414   4.801   1.450   4.373
 9172SOL    HW128415   4.796   1.516   4.447
 9172SOL    HW228416   4.717   1.396   4.369
 9173SOL     OW28417   5.495   3.229   3.946
 9173SOL    HW128418   5.555   3.150   3.931
 9173SOL    HW228419   5.462   3.262   3.858
 9174SOL     OW28420   6.937   4.513   0.303
 9174SOL    HW128421   7.019   4.492   0.357
 9174SOL    HW228422   6.947   4.475   0.212
 9175SOL     OW28423   1.897   6.551   6.747
 9175SOL    HW128424   1.799   6.533   6.739
 9175SOL    HW228425   1.911   6.628   6.809
 9176SOL     OW28426   2.241   1.660   2.293
 9176SOL    HW128427   2.272   1.755   2.285
 9176SOL    HW228428   2.142   1.658   2.305
 9177SOL     OW28429   0.831   3.920   3.841
 9177SOL    HW128430   0.751   3.937   3.783
 9177SOL    HW228431   0.911   3.904   3.783
 9178SOL     OW28432   1.822   6.411   0.553
 9178SOL    HW128433   1.783   6.472   0.484
 9178SOL    HW228434   1.917   6.392   0.531
 9179SOL     OW28435   4.242   5.820   5.583
 9179SOL    HW128436   4.171   5.771   5.533
 9179SOL    HW228437   4.317   5.844   5.521
 9180SOL     OW28438   0.163   1.014   4.324
 9180SOL    HW128439   0.107   1.090   4.359
 9180SOL    HW228440   0.119   0.927   4.346
 9181SOL     OW28441   3.968   1.878   4.023
 9181SOL    HW128442   4.060   1.843   4.008
 9181SOL    HW228443   3.973   1.969   4.065
 9182SOL     OW28444   1.948   1.186   2.651
 9182SOL    HW128445   2.034   1.222   2.615
 9182SOL    HW228446   1.879   1.259   2.652
 9183SOL     OW28447   6.283   2.682   5.905
 9183SOL    HW128448   6.206   2.732   5.945
 9183SOL    HW228449   6.312   2.728   5.821
 9184SOL     OW28450   3.448   3.199   1.091
 9184SOL    HW128451   3.388   3.126   1.058
 9184SOL    HW228452   3.411   3.237   1.176
 9185SOL     OW28453   1.175   0.452   6.651
 9185SOL    HW128454   1.147   0.542   6.684
 9185SOL    HW228455   1.212   0.461   6.558
 9186SOL     OW28456   5.753   1.164   6.563
 9186SOL    HW128457   5.663   1.130   6.534
 9186SOL    HW228458   5.808   1.184   6.482
 9187SOL     OW28459   4.828   1.789   0.859
 9187SOL    HW128460   4.736   1.810   0.891
 9187SOL    HW228461   4.825   1.759   0.764
 9188SOL     OW28462   1.034   0.591   1.413
 9188SOL    HW128463   0.981   0.547   1.485
 9188SOL    HW228464   0.974   0.648   1.357
 9189SOL     OW28465   4.284   1.455   4.343
 9189SOL    HW128466   4.217   1.427   4.412
 9189SOL    HW228467   4.254   1.424   4.253
 9190SOL     OW28468   6.167   3.284   5.443
 9190SOL    HW128469   6.155   3.383   5.449
 9190SOL    HW228470   6.238   3.255   5.508
 9191SOL     OW28471   5.740   6.123   0.645
 9191SOL    HW128472   5.816   6.113   0.581
 9191SOL    HW228473   5.694   6.211   0.628
 9192SOL     OW28474   6.368   4.711   4.663
 9192SOL    HW128475   6.439   4.780   4.677
 9192SOL    HW228476   6.410   4.620   4.656
 9193SOL     OW28477   3.427   3.136   3.655
 9193SOL    HW128478   3.345   3.134   3.597
 9193SOL    HW228479   3.432   3.051   3.708
 9194SOL     OW28480   3.109   5.652   2.596
 9194SOL    HW128481   3.072   5.615   2.681
 9194SOL    HW228482   3.053   5.621   2.519
 9195SOL     OW28483   6.660   3.259   2.731
 9195SOL    HW128484   6.626   3.198   2.659
 9195SOL    HW228485   6.625   3.228   2.820
 9196SOL     OW28486   4.685   0.324   3.633
 9196SOL    HW128487   4.603   0.274   3.605
 9196SOL    HW228488   4.748   0.332   3.556
 9197SOL     OW28489   3.605   3.297   6.230
 9197SOL    HW128490   3.578   3.355   6.152
 9197SOL    HW228491   3.694   3.255   6.211
 9198SOL     OW28492   5.590   2.737   5.011
 9198SOL    HW128493   5.584   2.806   4.938
 9198SOL    HW228494   5.508   2.680   5.010
 9199SOL     OW28495   1.488   3.790   6.798
 9199SOL    HW128496   1.459   3.834   6.883
 9199SOL    HW228497   1.410   3.780   6.737
 9200SOL     OW28498   6.193   0.693   0.018
 9200SOL    HW128499   6.201   0.615   0.080
 9200SOL    HW228500   6.192   0.661   6.947
 9201SOL     OW28501   1.326   4.117   3.008
 9201SOL    HW128502   1.246   4.171   3.035
 9201SOL    HW228503   1.334   4.117   2.909
 9202SOL     OW28504   2.923   5.048   4.237
 9202SOL    HW128505   2.974   5.019   4.155
 9202SOL    HW228506   2.914   4.970   4.299
 9203SOL     OW28507   5.416   0.435   5.730
 9203SOL    HW128508   5.411   0.456   5.827
 9203SOL    HW228509   5.507   0.401   5.707
 9204SOL     OW28510   4.789   4.269   2.142
 9204SOL    HW128511   4.768   4.187   2.196
 9204SOL    HW228512   4.721   4.280   2.070
 9205SOL     OW28513   5.259   3.024   2.446
 9205SOL    HW128514   5.341   3.065   2.484
 9205SOL    HW228515   5.204   2.983   2.520
 9206SOL     OW28516   0.692   0.195   3.359
 9206SOL    HW128517   0.790   0.174   3.368
 9206SOL    HW228518   0.653   0.206   3.450
 9207SOL     OW28519   4.272   6.916   0.433
 9207SOL    HW128520   4.262   7.002   0.384
 9207SOL    HW228521   4.203   6.851   0.399
 9208SOL     OW28522   5.195   4.094   2.060
 9208SOL    HW128523   5.106   4.065   2.026
 9208SOL    HW228524   5.227   4.174   2.009
 9209SOL     OW28525   4.399   1.187   2.600
 9209SOL    HW128526   4.431   1.191   2.695
 9209SOL    HW228527   4.330   1.116   2.591
 9210SOL     OW28528   1.399   0.247   1.075
 9210SOL    HW128529   1.332   0.279   1.008
 9210SOL    HW228530   1.480   0.213   1.027
 9211SOL     OW28531   5.298   1.128   6.928
 9211SOL    HW128532   5.204   1.140   6.959
 9211SOL    HW228533   5.352   1.086   7.001
 9212SOL     OW28534   5.760   3.741   5.075
 9212SOL    HW128535   5.686   3.790   5.028
 9212SOL    HW228536   5.848   3.779   5.048
 9213SOL     OW28537   6.170   6.771   2.920
 9213SOL    HW128538   6.190   6.867   2.937
 9213SOL    HW228539   6.254   6.724   2.892
 9214SOL     OW28540   2.254   2.296   4.936
 9214SOL    HW128541   2.290   2.314   5.028
 9214SOL    HW228542   2.278   2.203   4.909
 9215SOL     OW28543   0.956   3.267   3.100
 9215SOL    HW128544   0.881   3.252   3.035
 9215SOL    HW228545   1.039   3.294   3.050
 9216SOL     OW28546   2.502   5.708   4.848
 9216SOL    HW128547   2.537   5.796   4.818
 9216SOL    HW228548   2.440   5.671   4.778
 9217SOL     OW28549   4.489   0.838   6.358
 9217SOL    HW128550   4.572   0.815   6.408
 9217SOL    HW228551   4.471   0.936   6.367
 9218SOL     OW28552   5.740   5.499   6.387
 9218SOL    HW128553   5.823   5.463   6.346
 9218SOL    HW228554   5.749   5.501   6.486
 9219SOL     OW28555   3.603   2.879   5.667
 9219SOL    HW128556   3.674   2.904   5.601
 9219SOL    HW228557   3.529   2.946   5.665
 9220SOL     OW28558   1.377   6.372   3.343
 9220SOL    HW128559   1.470   6.384   3.377
 9220SOL    HW228560   1.360   6.274   3.326
 9221SOL     OW28561   2.492   0.923   0.356
 9221SOL    HW128562   2.423   0.933   0.428
 9221SOL    HW228563   2.537   1.011   0.340
 9222SOL     OW28564   1.523   3.620   3.352
 9222SOL    HW128565   1.451   3.638   3.286
 9222SOL    HW228566   1.584   3.699   3.359
 9223SOL     OW28567   0.937   3.771   4.648
 9223SOL    HW128568   0.976   3.859   4.673
 9223SOL    HW228569   0.839   3.781   4.629
 9224SOL     OW28570   1.833   4.498   4.207
 9224SOL    HW128571   1.892   4.496   4.288
 9224SOL    HW228572   1.819   4.592   4.179
 9225SOL     OW28573   4.852   6.668   0.041
 9225SOL    HW128574   4.807   6.707   6.984
 9225SOL    HW228575   4.868   6.570   0.026
 9226SOL     OW28576   0.891   1.054   1.087
 9226SOL    HW128577   0.916   0.958   1.081
 9226SOL    HW228578   0.834   1.079   1.009
 9227SOL     OW28579   2.440   5.712   0.691
 9227SOL    HW128580   2.512   5.709   0.623
 9227SOL    HW228581   2.464   5.778   0.763
 9228SOL     OW28582   2.969   2.972   5.541
 9228SOL    HW128583   2.989   2.886   5.589
 9228SOL    HW228584   2.887   3.013   5.581
 9229SOL     OW28585   0.540   4.860   0.022
 9229SOL    HW128586   0.598   4.939   0.040
 9229SOL    HW228587   0.565   4.819   6.958
 9230SOL     OW28588   4.569   1.827   4.825
 9230SOL    HW128589   4.598   1.764   4.754
 9230SOL    HW228590   4.525   1.776   4.900
 9231SOL     OW28591   6.828   5.677   3.940
 9231SOL    HW128592   6.812   5.586   3.978
 9231SOL    HW228593   6.865   5.668   3.847
 9232SOL     OW28594   1.510   5.106   1.823
 9232SOL    HW128595   1.574   5.079   1.894
 9232SOL    HW228596   1.552   5.093   1.733
 9233SOL     OW28597   0.541   6.552   0.477
 9233SOL    HW128598   0.493   6.474   0.517
 9233SOL    HW228599   0.491   6.583   0.396
 9234SOL     OW28600   2.242   4.432   0.337
 9234SOL    HW128601   2.203   4.392   0.420
 9234SOL    HW228602   2.234   4.531   0.341
 9235SOL     OW28603   2.081   2.029   4.028
 9235SOL    HW128604   2.045   2.011   3.936
 9235SOL    HW228605   2.015   1.999   4.097
 9236SOL     OW28606   2.590   3.722   6.540
 9236SOL    HW128607   2.538   3.807   6.551
 9236SOL    HW228608   2.642   3.704   6.623
 9237SOL     OW28609   5.905   4.877   3.072
 9237SOL    HW128610   5.936   4.951   3.132
 9237SOL    HW228611   5.856   4.917   2.994
 9238SOL     OW28612   1.812   2.797   5.410
 9238SOL    HW128613   1.789   2.849   5.492
 9238SOL    HW228614   1.753   2.827   5.334
 9239SOL     OW28615   0.703   4.757   6.826
 9239SOL    HW128616   0.734   4.804   6.744
 9239SOL    HW228617   0.777   4.752   6.893
 9240SOL     OW28618   4.531   2.414   2.790
 9240SOL    HW128619   4.550   2.479   2.863
 9240SOL    HW228620   4.543   2.459   2.701
 9241SOL     OW28621   5.610   6.979   1.049
 9241SOL    HW128622   5.626   0.053   1.038
 9241SOL    HW228623   5.522   6.964   1.095
 9242SOL     OW28624   1.517   2.514   0.531
 9242SOL    HW128625   1.602   2.531   0.481
 9242SOL    HW228626   1.444   2.492   0.467
 9243SOL     OW28627   0.979   0.684   0.084
 9243SOL    HW128628   0.957   0.595   0.125
 9243SOL    HW228629   0.898   0.720   0.037
 9244SOL     OW28630   4.088   6.330   5.470
 9244SOL    HW128631   4.166   6.377   5.431
 9244SOL    HW228632   4.116   6.281   5.552
 9245SOL     OW28633   0.875   4.098   2.881
 9245SOL    HW128634   0.827   4.011   2.878
 9245SOL    HW228635   0.962   4.090   2.832
 9246SOL     OW28636   6.221   0.677   5.243
 9246SOL    HW128637   6.212   0.660   5.145
 9246SOL    HW228638   6.177   0.764   5.266
 9247SOL     OW28639   3.719   6.489   3.280
 9247SOL    HW128640   3.755   6.553   3.347
 9247SOL    HW228641   3.634   6.449   3.315
 9248SOL     OW28642   2.432   1.275   5.839
 9248SOL    HW128643   2.393   1.281   5.748
 9248SOL    HW228644   2.439   1.179   5.866
 9249SOL     OW28645   3.549   5.320   1.304
 9249SOL    HW128646   3.619   5.255   1.335
 9249SOL    HW228647   3.559   5.406   1.355
 9250SOL     OW28648   0.416   2.792   4.110
 9250SOL    HW128649   0.422   2.874   4.167
 9250SOL    HW228650   0.486   2.726   4.139
 9251SOL     OW28651   3.342   2.684   1.244
 9251SOL    HW128652   3.406   2.737   1.299
 9251SOL    HW228653   3.379   2.673   1.152
 9252SOL     OW28654   5.104   1.637   6.190
 9252SOL    HW128655   5.188   1.600   6.152
 9252SOL    HW228656   5.124   1.720   6.242
 9253SOL     OW28657   0.950   5.202   5.202
 9253SOL    HW128658   0.958   5.103   5.211
 9253SOL    HW228659   0.977   5.229   5.109
 9254SOL     OW28660   6.988   5.084   2.801
 9254SOL    HW128661   0.022   5.002   2.801
 9254SOL    HW228662   6.937   5.088   2.888
 9255SOL     OW28663   6.657   4.243   0.488
 9255SOL    HW128664   6.654   4.271   0.584
 9255SOL    HW228665   6.623   4.318   0.431
 9256SOL     OW28666   1.742   6.254   1.636
 9256SOL    HW128667   1.825   6.309   1.625
 9256SOL    HW228668   1.673   6.284   1.570
 9257SOL     OW28669   6.408   6.056   4.135
 9257SOL    HW128670   6.373   6.010   4.053
 9257SOL    HW228671   6.392   5.998   4.215
 9258SOL     OW28672   3.506   4.916   1.358
 9258SOL    HW128673   3.442   4.936   1.285
 9258SOL    HW228674   3.469   4.948   1.446
 9259SOL     OW28675   2.039   1.620   6.540
 9259SOL    HW128676   1.980   1.697   6.564
 9259SOL    HW228677   1.984   1.546   6.500
 9260SOL     OW28678   6.016   3.814   4.999
 9260SOL    HW128679   6.030   3.893   5.059
 9260SOL    HW228680   6.077   3.822   4.920
 9261SOL     OW28681   3.710   2.497   1.703
 9261SOL    HW128682   3.616   2.523   1.680
 9261SOL    HW228683   3.709   2.428   1.776
 9262SOL     OW28684   6.142   5.711   3.907
 9262SOL    HW128685   6.116   5.756   3.822
 9262SOL    HW228686   6.220   5.650   3.889
 9263SOL     OW28687   1.652   3.726   3.942
 9263SOL    HW128688   1.573   3.783   3.964
 9263SOL    HW228689   1.640   3.685   3.852
 9264SOL     OW28690   4.638   3.893   0.203
 9264SOL    HW128691   4.570   3.931   0.140
 9264SOL    HW228692   4.673   3.966   0.262
 9265SOL     OW28693   5.237   1.737   0.408
 9265SOL    HW128694   5.244   1.711   0.311
 9265SOL    HW228695   5.228   1.655   0.464
 9266SOL     OW28696   0.393   4.267   1.141
 9266SOL    HW128697   0.451   4.325   1.084
 9266SOL    HW228698   0.451   4.216   1.206
 9267SOL     OW28699   6.908   0.784   4.758
 9267SOL    HW128700   7.007   0.783   4.771
 9267SOL    HW228701   6.884   0.731   4.676
 9268SOL     OW28702   0.604   6.645   2.068
 9268SOL    HW128703   0.633   6.565   2.014
 9268SOL    HW228704   0.684   6.700   2.091
 9269SOL     OW28705   4.197   0.745   1.057
 9269SOL    HW128706   4.201   0.674   1.127
 9269SOL    HW228707   4.144   0.823   1.092
 9270SOL     OW28708   1.402   0.790   5.836
 9270SOL    HW128709   1.345   0.736   5.897
 9270SOL    HW228710   1.405   0.885   5.867
 9271SOL     OW28711   1.569   0.034   4.895
 9271SOL    HW128712   1.553   6.998   4.816
 9271SOL    HW228713   1.589   7.001   4.975
 9272SOL     OW28714   6.610   6.825   6.175
 9272SOL    HW128715   6.595   6.909   6.124
 9272SOL    HW228716   6.540   6.815   6.246
 9273SOL     OW28717   4.611   4.727   4.486
 9273SOL    HW128718   4.676   4.732   4.410
 9273SOL    HW228719   4.661   4.708   4.571
 9274SOL     OW28720   1.347   3.039   6.928
 9274SOL    HW128721   1.307   2.956   6.965
 9274SOL    HW228722   1.313   3.118   6.979
 9275SOL     OW28723   0.160   0.417   0.243
 9275SOL    HW128724   0.257   0.397   0.234
 9275SOL    HW228725   0.131   0.476   0.167
 9276SOL     OW28726   2.946   5.080   0.174
 9276SOL    HW128727   2.963   5.151   0.105
 9276SOL    HW228728   2.950   5.121   0.265
 9277SOL     OW28729   5.122   5.958   1.889
 9277SOL    HW128730   5.188   6.018   1.845
 9277SOL    HW228731   5.044   5.944   1.828
 9278SOL     OW28732   0.504   0.826   4.818
 9278SOL    HW128733   0.579   0.841   4.753
 9278SOL    HW228734   0.417   0.849   4.775
 9279SOL     OW28735   4.658   6.301   1.286
 9279SOL    HW128736   4.678   6.223   1.226
 9279SOL    HW228737   4.645   6.383   1.230
 9280SOL     OW28738   1.782   0.373   3.066
 9280SOL    HW128739   1.860   0.339   3.119
 9280SOL    HW228740   1.729   0.437   3.122
 9281SOL     OW28741   2.700   5.032   6.996
 9281SOL    HW128742   2.787   5.073   6.969
 9281SOL    HW228743   2.633   5.104   7.011
 9282SOL     OW28744   3.215   6.669   4.696
 9282SOL    HW128745   3.306   6.634   4.717
 9282SOL    HW228746   3.223   6.761   4.657
 9283SOL     OW28747   4.369   6.025   6.588
 9283SOL    HW128748   4.467   6.022   6.606
 9283SOL    HW228749   4.319   6.005   6.672
 9284SOL     OW28750   3.491   4.072   4.792
 9284SOL    HW128751   3.392   4.086   4.803
 9284SOL    HW228752   3.537   4.084   4.880
 9285SOL     OW28753   6.964   4.231   2.549
 9285SOL    HW128754   0.022   4.205   2.496
 9285SOL    HW228755   6.974   4.324   2.583
 9286SOL     OW28756   4.810   5.805   1.299
 9286SOL    HW128757   4.886   5.742   1.313
 9286SOL    HW228758   4.783   5.804   1.203
 9287SOL     OW28759   3.561   5.033   6.181
 9287SOL    HW128760   3.475   4.997   6.217
 9287SOL    HW228761   3.637   5.006   6.240
 9288SOL     OW28762   4.278   2.342   2.835
 9288SOL    HW128763   4.238   2.355   2.744
 9288SOL    HW228764   4.377   2.356   2.830
 9289SOL     OW28765   4.596   6.031   6.789
 9289SOL    HW128766   4.551   5.956   6.839
 9289SOL    HW228767   4.681   6.055   6.836
 9290SOL     OW28768   5.031   0.116   4.266
 9290SOL    HW128769   5.014   0.195   4.209
 9290SOL    HW228770   4.968   0.116   4.343
 9291SOL     OW28771   1.382   4.607   5.950
 9291SOL    HW128772   1.428   4.659   6.022
 9291SOL    HW228773   1.448   4.545   5.907
 9292SOL     OW28774   1.846   1.801   6.576
 9292SOL    HW128775   1.803   1.738   6.512
 9292SOL    HW228776   1.812   1.782   6.669
 9293SOL     OW28777   5.470   2.969   4.805
 9293SOL    HW128778   5.484   3.067   4.819
 9293SOL    HW228779   5.375   2.945   4.823
 9294SOL     OW28780   4.518   0.783   7.012
 9294SOL    HW128781   4.418   0.778   7.013
 9294SOL    HW228782   4.553   0.737   6.931
 9295SOL     OW28783   0.617   1.501   5.449
 9295SOL    HW128784   0.553   1.568   5.409
 9295SOL    HW228785   0.613   1.507   5.549
 9296SOL     OW28786   1.194   4.660   0.445
 9296SOL    HW128787   1.194   4.581   0.383
 9296SOL    HW228788   1.270   4.720   0.422
 9297SOL     OW28789   5.898   5.959   2.834
 9297SOL    HW128790   5.939   6.034   2.781
 9297SOL    HW228791   5.858   5.995   2.918
 9298SOL     OW28792   1.428   5.845   5.931
 9298SOL    HW128793   1.495   5.774   5.956
 9298SOL    HW228794   1.356   5.804   5.875
 9299SOL     OW28795   2.151   2.537   4.951
 9299SOL    HW128796   2.188   2.445   4.961
 9299SOL    HW228797   2.091   2.540   4.871
 9300SOL     OW28798   1.494   5.565   5.884
 9300SOL    HW128799   1.478   5.566   5.785
 9300SOL    HW228800   1.431   5.501   5.927
 9301SOL     OW28801   0.060   3.899   4.927
 9301SOL    HW128802   0.153   3.898   4.964
 9301SOL    HW228803   0.001   3.841   4.982
 9302SOL     OW28804   1.732   3.560   5.052
 9302SOL    HW128805   1.749   3.658   5.044
 9302SOL    HW228806   1.788   3.522   5.126
 9303SOL     OW28807   2.400   4.618   0.701
 9303SOL    HW128808   2.453   4.690   0.747
 9303SOL    HW228809   2.318   4.597   0.755
 9304SOL     OW28810   4.779   5.477   0.476
 9304SOL    HW128811   4.757   5.406   0.543
 9304SOL    HW228812   4.738   5.453   0.388
 9305SOL     OW28813   2.058   2.019   1.455
 9305SOL    HW128814   1.973   2.010   1.402
 9305SOL    HW228815   2.136   1.993   1.398
 9306SOL     OW28816   6.849   5.424   4.740
 9306SOL    HW128817   6.823   5.355   4.807
 9306SOL    HW228818   6.846   5.514   4.782
 9307SOL     OW28819   2.572   3.131   1.632
 9307SOL    HW128820   2.550   3.114   1.536
 9307SOL    HW228821   2.663   3.096   1.652
 9308SOL     OW28822   2.032   3.668   2.013
 9308SOL    HW128823   2.083   3.750   2.036
 9308SOL    HW228824   2.093   3.588   2.017
 9309SOL     OW28825   5.225   5.496   5.937
 9309SOL    HW128826   5.296   5.555   5.899
 9309SOL    HW228827   5.145   5.551   5.962
 9310SOL     OW28828   5.733   5.948   6.857
 9310SOL    HW128829   5.768   5.962   6.765
 9310SOL    HW228830   5.801   5.979   6.924
 9311SOL     OW28831   4.547   3.408   1.493
 9311SOL    HW128832   4.537   3.451   1.404
 9311SOL    HW228833   4.459   3.406   1.540
 9312SOL     OW28834   0.423   2.542   1.803
 9312SOL    HW128835   0.419   2.468   1.735
 9312SOL    HW228836   0.435   2.503   1.894
 9313SOL     OW28837   0.498   6.386   2.676
 9313SOL    HW128838   0.591   6.395   2.713
 9313SOL    HW228839   0.444   6.467   2.702
 9314SOL     OW28840   4.814   3.210   0.078
 9314SOL    HW128841   4.902   3.222   0.032
 9314SOL    HW228842   4.828   3.159   0.163
 9315SOL     OW28843   5.680   1.036   6.192
 9315SOL    HW128844   5.583   1.062   6.189
 9315SOL    HW228845   5.709   1.030   6.287
 9316SOL     OW28846   4.307   0.769   5.376
 9316SOL    HW128847   4.332   0.824   5.456
 9316SOL    HW228848   4.386   0.714   5.347
 9317SOL     OW28849   3.980   6.157   3.462
 9317SOL    HW128850   3.890   6.137   3.423
 9317SOL    HW228851   4.050   6.143   3.392
 9318SOL     OW28852   4.950   6.536   1.295
 9318SOL    HW128853   4.884   6.510   1.366
 9318SOL    HW228854   4.906   6.529   1.205
 9319SOL     OW28855   2.431   4.019   0.103
 9319SOL    HW128856   2.492   3.943   0.083
 9319SOL    HW228857   2.468   4.073   0.178
 9320SOL     OW28858   6.501   6.384   6.773
 9320SOL    HW128859   6.448   6.436   6.840
 9320SOL    HW228860   6.527   6.296   6.813
 9321SOL     OW28861   0.688   3.823   4.625
 9321SOL    HW128862   0.678   3.878   4.543
 9321SOL    HW228863   0.599   3.787   4.652
 9322SOL     OW28864   5.932   3.631   5.746
 9322SOL    HW128865   5.950   3.538   5.777
 9322SOL    HW228866   5.874   3.628   5.665
 9323SOL     OW28867   1.259   2.643   4.638
 9323SOL    HW128868   1.234   2.732   4.675
 9323SOL    HW228869   1.227   2.636   4.543
 9324SOL     OW28870   0.482   4.235   1.557
 9324SOL    HW128871   0.384   4.255   1.553
 9324SOL    HW228872   0.532   4.318   1.582
 9325SOL     OW28873   1.102   5.068   2.798
 9325SOL    HW128874   1.125   5.156   2.839
 9325SOL    HW228875   1.044   5.082   2.718
 9326SOL     OW28876   4.214   4.619   0.919
 9326SOL    HW128877   4.156   4.687   0.964
 9326SOL    HW228878   4.306   4.657   0.906
 9327SOL     OW28879   4.308   6.961   3.985
 9327SOL    HW128880   4.262   6.927   3.904
 9327SOL    HW228881   4.253   0.011   4.027
 9328SOL     OW28882   2.709   6.601   4.542
 9328SOL    HW128883   2.791   6.656   4.556
 9328SOL    HW228884   2.636   6.658   4.504
 9329SOL     OW28885   0.262   5.477   6.540
 9329SOL    HW128886   0.237   5.481   6.637
 9329SOL    HW228887   0.346   5.423   6.530
 9330SOL     OW28888   6.065   5.394   6.749
 9330SOL    HW128889   6.035   5.489   6.762
 9330SOL    HW228890   6.059   5.346   6.836
 9331SOL     OW28891   1.527   2.902   4.722
 9331SOL    HW128892   1.440   2.873   4.762
 9331SOL    HW228893   1.512   2.981   4.663
 9332SOL     OW28894   4.697   5.474   1.020
 9332SOL    HW128895   4.754   5.428   1.087
 9332SOL    HW228896   4.746   5.482   0.933
 9333SOL     OW28897   3.658   4.774   0.777
 9333SOL    HW128898   3.672   4.678   0.753
 9333SOL    HW228899   3.563   4.800   0.760
 9334SOL     OW28900   5.722   6.285   5.623
 9334SOL    HW128901   5.622   6.277   5.626
 9334SOL    HW228902   5.761   6.241   5.704
 9335SOL     OW28903   1.663   2.959   1.597
 9335SOL    HW128904   1.683   3.015   1.677
 9335SOL    HW228905   1.747   2.940   1.547
 9336SOL     OW28906   6.566   6.887   5.392
 9336SOL    HW128907   6.621   6.928   5.464
 9336SOL    HW228908   6.626   6.854   5.319
 9337SOL     OW28909   2.528   0.705   6.581
 9337SOL    HW128910   2.492   0.619   6.544
 9337SOL    HW228911   2.472   0.733   6.659
 9338SOL     OW28912   5.753   6.726   6.965
 9338SOL    HW128913   5.766   6.652   6.898
 9338SOL    HW228914   5.655   6.740   6.979
 9339SOL     OW28915   6.482   4.287   5.359
 9339SOL    HW128916   6.569   4.334   5.376
 9339SOL    HW228917   6.434   4.273   5.445
 9340SOL     OW28918   4.161   5.730   2.019
 9340SOL    HW128919   4.192   5.749   1.926
 9340SOL    HW228920   4.236   5.692   2.073
 9341SOL     OW28921   5.093   3.684   6.891
 9341SOL    HW128922   5.159   3.707   6.820
 9341SOL    HW228923   5.043   3.766   6.919
 9342SOL     OW28924   2.867   0.452   4.328
 9342SOL    HW128925   2.922   0.523   4.371
 9342SOL    HW228926   2.783   0.493   4.292
 9343SOL     OW28927   4.992   4.420   1.481
 9343SOL    HW128928   5.078   4.462   1.453
 9343SOL    HW228929   4.969   4.346   1.418
 9344SOL     OW28930   5.764   5.765   4.809
 9344SOL    HW128931   5.844   5.740   4.863
 9344SOL    HW228932   5.784   5.752   4.712
 9345SOL     OW28933   0.215   6.478   1.466
 9345SOL    HW128934   0.262   6.566   1.467
 9345SOL    HW228935   0.167   6.468   1.378
 9346SOL     OW28936   5.739   6.377   1.315
 9346SOL    HW128937   5.727   6.283   1.348
 9346SOL    HW228938   5.757   6.438   1.392
 9347SOL     OW28939   3.603   5.337   0.981
 9347SOL    HW128940   3.567   5.429   0.993
 9347SOL    HW228941   3.547   5.271   1.031
 9348SOL     OW28942   1.789   5.924   1.579
 9348SOL    HW128943   1.836   5.978   1.509
 9348SOL    HW228944   1.701   5.892   1.543
 9349SOL     OW28945   6.260   5.471   1.713
 9349SOL    HW128946   6.307   5.539   1.656
 9349SOL    HW228947   6.204   5.412   1.655
 9350SOL     OW28948   6.887   0.923   5.391
 9350SOL    HW128949   6.892   0.889   5.297
 9350SOL    HW228950   6.821   0.998   5.396
 9351SOL     OW28951   3.278   1.753   6.518
 9351SOL    HW128952   3.280   1.835   6.576
 9351SOL    HW228953   3.338   1.684   6.558
 9352SOL     OW28954   3.552   1.931   6.487
 9352SOL    HW128955   3.474   1.932   6.549
 9352SOL    HW228956   3.608   1.849   6.506
 9353SOL     OW28957   1.449   3.514   0.974
 9353SOL    HW128958   1.539   3.559   0.977
 9353SOL    HW228959   1.399   3.536   1.057
 9354SOL     OW28960   4.880   1.918   1.547
 9354SOL    HW128961   4.874   1.823   1.576
 9354SOL    HW228962   4.789   1.961   1.556
 9355SOL     OW28963   6.540   6.680   3.427
 9355SOL    HW128964   6.538   6.772   3.465
 9355SOL    HW228965   6.537   6.684   3.327
 9356SOL     OW28966   4.345   4.754   2.232
 9356SOL    HW128967   4.358   4.663   2.270
 9356SOL    HW228968   4.281   4.750   2.155
 9357SOL     OW28969   3.030   2.699   0.967
 9357SOL    HW128970   3.023   2.602   0.940
 9357SOL    HW228971   3.020   2.707   1.066
 9358SOL     OW28972   6.500   4.468   2.194
 9358SOL    HW128973   6.485   4.443   2.290
 9358SOL    HW228974   6.450   4.552   2.174
 9359SOL     OW28975   6.807   4.033   5.820
 9359SOL    HW128976   6.760   4.055   5.734
 9359SOL    HW228977   6.757   4.074   5.896
 9360SOL     OW28978   2.280   1.020   6.525
 9360SOL    HW128979   2.352   0.964   6.565
 9360SOL    HW228980   2.277   1.007   6.426
 9361SOL     OW28981   2.635   6.099   2.141
 9361SOL    HW128982   2.712   6.079   2.080
 9361SOL    HW228983   2.554   6.118   2.087
 9362SOL     OW28984   2.234   1.304   2.615
 9362SOL    HW128985   2.183   1.361   2.680
 9362SOL    HW228986   2.283   1.363   2.551
 9363SOL     OW28987   3.284   6.173   2.816
 9363SOL    HW128988   3.222   6.246   2.789
 9363SOL    HW228989   3.240   6.114   2.884
 9364SOL     OW28990   4.602   3.302   6.969
 9364SOL    HW128991   4.664   3.264   0.014
 9364SOL    HW228992   4.576   3.395   6.995
 9365SOL     OW28993   2.245   1.933   5.076
 9365SOL    HW128994   2.174   1.958   5.141
 9365SOL    HW228995   2.307   2.010   5.063
 9366SOL     OW28996   2.869   1.971   0.301
 9366SOL    HW128997   2.811   1.982   0.382
 9366SOL    HW228998   2.882   2.061   0.258
 9367SOL     OW28999   6.547   5.274   2.957
 9367SOL    HW129000   6.505   5.254   2.868
 9367SOL    HW229001   6.496   5.348   3.002
 9368SOL     OW29002   3.038   2.024   1.799
 9368SOL    HW129003   3.089   1.942   1.774
 9368SOL    HW229004   2.942   2.000   1.816
 9369SOL     OW29005   0.183   2.109   5.258
 9369SOL    HW129006   0.244   2.090   5.335
 9369SOL    HW229007   0.145   2.024   5.224
 9370SOL     OW29008   6.497   0.651   2.515
 9370SOL    HW129009   6.479   0.629   2.611
 9370SOL    HW229010   6.426   0.611   2.457
 9371SOL     OW29011   0.472   6.316   0.579
 9371SOL    HW129012   0.485   6.307   0.678
 9371SOL    HW229013   0.455   6.226   0.539
 9372SOL     OW29014   5.764   6.630   3.986
 9372SOL    HW129015   5.691   6.581   3.939
 9372SOL    HW229016   5.830   6.663   3.919
 9373SOL     OW29017   4.239   2.020   3.218
 9373SOL    HW129018   4.153   1.970   3.231
 9373SOL    HW229019   4.254   2.037   3.121
 9374SOL     OW29020   5.345   2.463   0.721
 9374SOL    HW129021   5.381   2.393   0.784
 9374SOL    HW229022   5.259   2.498   0.757
 9375SOL     OW29023   0.392   1.218   2.933
 9375SOL    HW129024   0.332   1.217   3.013
 9375SOL    HW229025   0.364   1.146   2.869
 9376SOL     OW29026   2.796   4.100   0.542
 9376SOL    HW129027   2.789   4.200   0.552
 9376SOL    HW229028   2.865   4.079   0.473
 9377SOL     OW29029   6.405   5.879   3.921
 9377SOL    HW129030   6.433   5.794   3.966
 9377SOL    HW229031   6.321   5.864   3.871
 9378SOL     OW29032   2.175   0.384   0.136
 9378SOL    HW129033   2.108   0.329   0.185
 9378SOL    HW229034   2.183   0.350   0.042
 9379SOL     OW29035   4.978   5.051   3.749
 9379SOL    HW129036   5.060   5.065   3.804
 9379SOL    HW229037   4.911   5.122   3.771
 9380SOL     OW29038   6.181   6.946   6.059
 9380SOL    HW129039   6.244   6.948   5.982
 9380SOL    HW229040   6.232   6.926   6.143
 9381SOL     OW29041   2.577   2.205   5.552
 9381SOL    HW129042   2.670   2.240   5.539
 9381SOL    HW229043   2.580   2.119   5.601
 9382SOL     OW29044   4.013   1.238   2.467
 9382SOL    HW129045   3.914   1.234   2.479
 9382SOL    HW229046   4.037   1.319   2.415
 9383SOL     OW29047   3.727   6.313   4.424
 9383SOL    HW129048   3.683   6.351   4.505
 9383SOL    HW229049   3.775   6.386   4.375
 9384SOL     OW29050   5.142   6.130   2.659
 9384SOL    HW129051   5.116   6.200   2.592
 9384SOL    HW229052   5.234   6.095   2.636
 9385SOL     OW29053   4.082   0.994   3.618
 9385SOL    HW129054   4.036   1.076   3.653
 9385SOL    HW229055   4.041   0.969   3.530
 9386SOL     OW29056   3.058   6.423   5.785
 9386SOL    HW129057   3.031   6.437   5.690
 9386SOL    HW229058   3.084   6.328   5.799
 9387SOL     OW29059   3.089   6.632   1.701
 9387SOL    HW129060   3.141   6.546   1.706
 9387SOL    HW229061   3.052   6.643   1.609
 9388SOL     OW29062   0.330   0.063   3.163
 9388SOL    HW129063   0.379   0.150   3.173
 9388SOL    HW229064   0.396   7.012   3.151
 9389SOL     OW29065   2.227   0.868   5.828
 9389SOL    HW129066   2.179   0.853   5.742
 9389SOL    HW229067   2.273   0.784   5.857
 9390SOL     OW29068   3.340   5.359   2.730
 9390SOL    HW129069   3.304   5.450   2.746
 9390SOL    HW229070   3.414   5.363   2.663
 9391SOL     OW29071   1.167   1.624   5.783
 9391SOL    HW129072   1.171   1.678   5.699
 9391SOL    HW229073   1.095   1.555   5.776
 9392SOL     OW29074   1.809   6.800   4.771
 9392SOL    HW129075   1.798   6.855   4.688
 9392SOL    HW229076   1.727   6.745   4.785
 9393SOL     OW29077   3.716   2.151   5.548
 9393SOL    HW129078   3.730   2.180   5.643
 9393SOL    HW229079   3.618   2.134   5.533
 9394SOL     OW29080   6.475   2.606   3.120
 9394SOL    HW129081   6.442   2.596   3.214
 9394SOL    HW229082   6.524   2.524   3.093
 9395SOL     OW29083   2.740   3.270   0.549
 9395SOL    HW129084   2.704   3.247   0.639
 9395SOL    HW229085   2.679   3.234   0.478
 9396SOL     OW29086   6.249   6.895   5.776
 9396SOL    HW129087   6.235   6.980   5.724
 9396SOL    HW229088   6.228   6.817   5.717
 9397SOL     OW29089   2.078   0.632   0.074
 9397SOL    HW129090   2.130   0.547   0.075
 9397SOL    HW229091   2.111   0.692   0.146
 9398SOL     OW29092   2.630   1.458   0.197
 9398SOL    HW129093   2.586   1.465   0.287
 9398SOL    HW229094   2.721   1.500   0.202
 9399SOL     OW29095   6.637   1.604   6.123
 9399SOL    HW129096   6.647   1.578   6.219
 9399SOL    HW229097   6.599   1.696   6.118
 9400SOL     OW29098   5.137   3.314   1.544
 9400SOL    HW129099   5.099   3.406   1.550
 9400SOL    HW229100   5.220   3.307   1.600
 9401SOL     OW29101   2.988   6.195   3.809
 9401SOL    HW129102   2.913   6.261   3.801
 9401SOL    HW229103   2.973   6.137   3.888
 9402SOL     OW29104   2.784   5.204   6.691
 9402SOL    HW129105   2.817   5.128   6.747
 9402SOL    HW229106   2.694   5.181   6.654
 9403SOL     OW29107   5.561   1.336   3.615
 9403SOL    HW129108   5.535   1.368   3.523
 9403SOL    HW229109   5.616   1.407   3.660
 9404SOL     OW29110   0.845   5.080   6.872
 9404SOL    HW129111   0.792   5.089   6.956
 9404SOL    HW229112   0.784   5.088   6.793
 9405SOL     OW29113   6.197   6.692   1.690
 9405SOL    HW129114   6.273   6.684   1.755
 9405SOL    HW229115   6.190   6.786   1.658
 9406SOL     OW29116   6.959   2.257   5.303
 9406SOL    HW129117   0.026   2.214   5.296
 9406SOL    HW229118   6.893   2.192   5.340
 9407SOL     OW29119   3.364   6.068   3.789
 9407SOL    HW129120   3.452   6.093   3.749
 9407SOL    HW229121   3.292   6.081   3.720
 9408SOL     OW29122   3.818   1.447   0.027
 9408SOL    HW129123   3.885   1.480   0.092
 9408SOL    HW229124   3.748   1.517   0.012
 9409SOL     OW29125   5.441   3.893   3.637
 9409SOL    HW129126   5.460   3.822   3.704
 9409SOL    HW229127   5.407   3.852   3.552
 9410SOL     OW29128   4.225   6.126   2.271
 9410SOL    HW129129   4.161   6.137   2.347
 9410SOL    HW229130   4.176   6.141   2.185
 9411SOL     OW29131   4.540   5.679   0.892
 9411SOL    HW129132   4.614   5.685   0.826
 9411SOL    HW229133   4.553   5.598   0.950
 9412SOL     OW29134   0.782   2.761   1.048
 9412SOL    HW129135   0.724   2.778   0.969
 9412SOL    HW229136   0.873   2.734   1.016
 9413SOL     OW29137   4.666   5.867   5.310
 9413SOL    HW129138   4.663   5.784   5.255
 9413SOL    HW229139   4.644   5.846   5.405
 9414SOL     OW29140   3.155   1.876   2.655
 9414SOL    HW129141   3.182   1.896   2.749
 9414SOL    HW229142   3.214   1.928   2.593
 9415SOL     OW29143   1.743   6.389   2.301
 9415SOL    HW129144   1.755   6.488   2.295
 9415SOL    HW229145   1.646   6.366   2.295
 9416SOL     OW29146   1.329   1.694   1.666
 9416SOL    HW129147   1.333   1.731   1.759
 9416SOL    HW229148   1.361   1.599   1.666
 9417SOL     OW29149   2.437   5.899   5.483
 9417SOL    HW129150   2.516   5.857   5.438
 9417SOL    HW229151   2.416   5.986   5.438
 9418SOL     OW29152   2.099   5.462   1.645
 9418SOL    HW129153   2.179   5.490   1.699
 9418SOL    HW229154   2.126   5.394   1.577
 9419SOL     OW29155   2.813   6.586   4.910
 9419SOL    HW129156   2.784   6.505   4.859
 9419SOL    HW229157   2.754   6.599   4.989
 9420SOL     OW29158   6.475   1.244   4.565
 9420SOL    HW129159   6.551   1.265   4.627
 9420SOL    HW229160   6.420   1.326   4.551
 9421SOL     OW29161   1.548   4.708   5.179
 9421SOL    HW129162   1.538   4.649   5.099
 9421SOL    HW229163   1.459   4.725   5.220
 9422SOL     OW29164   5.681   0.259   2.266
 9422SOL    HW129165   5.747   0.189   2.296
 9422SOL    HW229166   5.631   0.293   2.346
 9423SOL     OW29167   4.075   1.370   3.671
 9423SOL    HW129168   4.023   1.448   3.635
 9423SOL    HW229169   4.012   1.301   3.705
 9424SOL     OW29170   4.577   0.534   5.865
 9424SOL    HW129171   4.641   0.610   5.850
 9424SOL    HW229172   4.562   0.486   5.779
 9425SOL     OW29173   0.699   3.784   5.286
 9425SOL    HW129174   0.702   3.702   5.228
 9425SOL    HW229175   0.709   3.757   5.382
 9426SOL     OW29176   3.000   0.983   0.095
 9426SOL    HW129177   3.012   0.912   0.025
 9426SOL    HW229178   2.954   1.061   0.054
 9427SOL     OW29179   2.797   5.078   5.213
 9427SOL    HW129180   2.764   4.990   5.179
 9427SOL    HW229181   2.852   5.063   5.296
 9428SOL     OW29182   5.938   0.127   2.995
 9428SOL    HW129183   6.017   0.185   3.017
 9428SOL    HW229184   5.917   0.069   3.074
 9429SOL     OW29185   1.279   4.234   1.985
 9429SOL    HW129186   1.277   4.152   2.042
 9429SOL    HW229187   1.267   4.208   1.889
 9430SOL     OW29188   6.667   6.692   2.132
 9430SOL    HW129189   6.752   6.643   2.114
 9430SOL    HW229190   6.665   6.776   2.078
 9431SOL     OW29191   6.270   3.747   6.603
 9431SOL    HW129192   6.256   3.846   6.590
 9431SOL    HW229193   6.213   3.716   6.679
 9432SOL     OW29194   5.919   0.650   3.322
 9432SOL    HW129195   5.988   0.712   3.286
 9432SOL    HW229196   5.932   0.637   3.420
 9433SOL     OW29197   3.216   4.938   5.273
 9433SOL    HW129198   3.214   4.986   5.361
 9433SOL    HW229199   3.154   4.860   5.276
 9434SOL     OW29200   5.750   3.787   2.718
 9434SOL    HW129201   5.678   3.738   2.768
 9434SOL    HW229202   5.839   3.756   2.751
 9435SOL     OW29203   1.957   1.516   4.222
 9435SOL    HW129204   1.924   1.492   4.130
 9435SOL    HW229205   2.035   1.457   4.245
 9436SOL     OW29206   1.867   3.826   0.763
 9436SOL    HW129207   1.808   3.747   0.774
 9436SOL    HW229208   1.899   3.830   0.668
 9437SOL     OW29209   1.132   5.355   3.113
 9437SOL    HW129210   1.046   5.311   3.138
 9437SOL    HW229211   1.157   5.424   3.181
 9438SOL     OW29212   0.414   6.159   2.512
 9438SOL    HW129213   0.429   6.199   2.422
 9438SOL    HW229214   0.436   6.227   2.583
 9439SOL     OW29215   0.065   3.585   1.921
 9439SOL    HW129216   0.042   3.666   1.867
 9439SOL    HW229217   0.110   3.613   2.006
 9440SOL     OW29218   4.786   6.382   4.672
 9440SOL    HW129219   4.795   6.287   4.643
 9440SOL    HW229220   4.754   6.385   4.767
 9441SOL     OW29221   1.843   5.171   5.128
 9441SOL    HW129222   1.893   5.165   5.214
 9441SOL    HW229223   1.759   5.117   5.134
 9442SOL     OW29224   6.971   2.077   6.872
 9442SOL    HW129225   6.964   2.036   6.962
 9442SOL    HW229226   6.881   2.077   6.828
 9443SOL     OW29227   1.976   4.888   1.205
 9443SOL    HW129228   1.957   4.790   1.208
 9443SOL    HW229229   1.894   4.937   1.176
 9444SOL     OW29230   0.789   2.773   6.880
 9444SOL    HW129231   0.728   2.852   6.890
 9444SOL    HW229232   0.817   2.740   6.970
 9445SOL     OW29233   4.999   3.631   2.224
 9445SOL    HW129234   5.098   3.639   2.216
 9445SOL    HW229235   4.955   3.689   2.155
 9446SOL     OW29236   6.626   6.002   2.468
 9446SOL    HW129237   6.694   6.006   2.394
 9446SOL    HW229238   6.629   5.911   2.511
 9447SOL     OW29239   5.191   3.712   1.884
 9447SOL    HW129240   5.093   3.714   1.904
 9447SOL    HW229241   5.227   3.620   1.898
 9448SOL     OW29242   5.613   6.181   6.095
 9448SOL    HW129243   5.707   6.160   6.068
 9448SOL    HW229244   5.597   6.150   6.188
 9449SOL     OW29245   6.494   5.461   5.055
 9449SOL    HW129246   6.586   5.423   5.053
 9449SOL    HW229247   6.495   5.548   5.104
 9450SOL     OW29248   2.145   4.910   4.298
 9450SOL    HW129249   2.214   4.908   4.370
 9450SOL    HW229250   2.080   4.835   4.311
 9451SOL     OW29251   5.282   5.498   6.410
 9451SOL    HW129252   5.349   5.572   6.422
 9451SOL    HW229253   5.326   5.420   6.365
 9452SOL     OW29254   2.528   3.627   0.985
 9452SOL    HW129255   2.451   3.672   1.030
 9452SOL    HW229256   2.530   3.530   1.011
 9453SOL     OW29257   2.051   4.772   3.281
 9453SOL    HW129258   2.054   4.711   3.361
 9453SOL    HW229259   2.098   4.858   3.303
 9454SOL     OW29260   1.546   4.197   6.145
 9454SOL    HW129261   1.580   4.150   6.226
 9454SOL    HW229262   1.569   4.294   6.151
 9455SOL     OW29263   3.594   1.652   2.947
 9455SOL    HW129264   3.667   1.584   2.955
 9455SOL    HW229265   3.533   1.627   2.871
 9456SOL     OW29266   0.836   4.030   0.858
 9456SOL    HW129267   0.814   3.952   0.917
 9456SOL    HW229268   0.783   4.023   0.773
 9457SOL     OW29269   2.170   3.441   6.697
 9457SOL    HW129270   2.106   3.436   6.620
 9457SOL    HW229271   2.145   3.519   6.755
 9458SOL     OW29272   6.860   4.762   5.823
 9458SOL    HW129273   6.788   4.829   5.804
 9458SOL    HW229274   6.905   4.737   5.737
 9459SOL     OW29275   5.942   5.350   2.054
 9459SOL    HW129276   5.979   5.428   2.105
 9459SOL    HW229277   5.890   5.383   1.975
 9460SOL     OW29278   0.488   2.801   4.776
 9460SOL    HW129279   0.511   2.721   4.722
 9460SOL    HW229280   0.415   2.778   4.841
 9461SOL     OW29281   0.885   1.109   3.130
 9461SOL    HW129282   0.946   1.173   3.177
 9461SOL    HW229283   0.909   1.105   3.033
 9462SOL     OW29284   1.723   3.235   2.877
 9462SOL    HW129285   1.663   3.228   2.956
 9462SOL    HW229286   1.740   3.332   2.856
 9463SOL     OW29287   6.828   1.131   0.957
 9463SOL    HW129288   6.827   1.229   0.938
 9463SOL    HW229289   6.900   1.086   0.904
 9464SOL     OW29290   5.891   6.445   6.433
 9464SOL    HW129291   5.979   6.415   6.469
 9464SOL    HW229292   5.877   6.542   6.457
 9465SOL     OW29293   6.760   0.942   3.055
 9465SOL    HW129294   6.685   0.928   3.119
 9465SOL    HW229295   6.749   1.031   3.011
 9466SOL     OW29296   2.736   3.112   5.607
 9466SOL    HW129297   2.703   3.114   5.513
 9466SOL    HW229298   2.689   3.182   5.660
 9467SOL     OW29299   1.970   2.369   1.922
 9467SOL    HW129300   1.903   2.364   1.996
 9467SOL    HW229301   1.991   2.277   1.890
 9468SOL     OW29302   6.332   2.979   6.093
 9468SOL    HW129303   6.379   3.031   6.022
 9468SOL    HW229304   6.252   2.934   6.054
 9469SOL     OW29305   6.565   5.625   1.938
 9469SOL    HW129306   6.507   5.705   1.923
 9469SOL    HW229307   6.630   5.645   2.012
 9470SOL     OW29308   4.842   3.214   6.823
 9470SOL    HW129309   4.767   3.237   6.886
 9470SOL    HW229310   4.885   3.299   6.791
 9471SOL     OW29311   6.532   2.717   5.484
 9471SOL    HW129312   6.470   2.791   5.509
 9471SOL    HW229313   6.563   2.729   5.389
 9472SOL     OW29314   6.273   4.456   4.449
 9472SOL    HW129315   6.332   4.449   4.530
 9472SOL    HW229316   6.324   4.425   4.368
 9473SOL     OW29317   3.307   6.381   6.185
 9473SOL    HW129318   3.273   6.433   6.262
 9473SOL    HW229319   3.249   6.301   6.170
 9474SOL     OW29320   5.653   4.066   1.935
 9474SOL    HW129321   5.589   4.138   1.907
 9474SOL    HW229322   5.622   4.026   2.021
 9475SOL     OW29323   3.114   3.345   1.006
 9475SOL    HW129324   3.171   3.324   1.086
 9475SOL    HW229325   3.132   3.278   0.934
 9476SOL     OW29326   3.877   3.480   5.397
 9476SOL    HW129327   3.857   3.503   5.302
 9476SOL    HW229328   3.972   3.506   5.418
 9477SOL     OW29329   1.570   2.591   1.000
 9477SOL    HW129330   1.661   2.634   1.006
 9477SOL    HW229331   1.552   2.542   1.085
 9478SOL     OW29332   5.127   4.222   5.415
 9478SOL    HW129333   5.053   4.157   5.397
 9478SOL    HW229334   5.096   4.288   5.484
 9479SOL     OW29335   5.966   5.402   6.274
 9479SOL    HW129336   5.939   5.348   6.194
 9479SOL    HW229337   6.020   5.481   6.245
 9480SOL     OW29338   4.241   4.382   6.743
 9480SOL    HW129339   4.154   4.420   6.774
 9480SOL    HW229340   4.223   4.305   6.681
 9481SOL     OW29341   0.043   3.860   1.772
 9481SOL    HW129342   0.064   3.896   1.863
 9481SOL    HW229343   0.117   3.883   1.709
 9482SOL     OW29344   5.388   0.687   3.289
 9482SOL    HW129345   5.289   0.678   3.303
 9482SOL    HW229346   5.434   0.695   3.377
 9483SOL     OW29347   1.609   1.674   0.986
 9483SOL    HW129348   1.510   1.668   0.976
 9483SOL    HW229349   1.636   1.770   0.990
 9484SOL     OW29350   5.923   1.244   3.713
 9484SOL    HW129351   6.014   1.227   3.751
 9484SOL    HW229352   5.862   1.169   3.739
 9485SOL     OW29353   1.468   0.673   1.809
 9485SOL    HW129354   1.392   0.676   1.874
 9485SOL    HW229355   1.546   0.625   1.850
 9486SOL     OW29356   2.197   5.872   0.589
 9486SOL    HW129357   2.269   5.807   0.613
 9486SOL    HW229358   2.108   5.827   0.593
 9487SOL     OW29359   3.740   4.106   3.739
 9487SOL    HW129360   3.749   4.086   3.641
 9487SOL    HW229361   3.772   4.200   3.757
 9488SOL     OW29362   1.819   6.080   1.348
 9488SOL    HW129363   1.815   6.024   1.266
 9488SOL    HW229364   1.895   6.145   1.341
 9489SOL     OW29365   4.128   4.321   1.189
 9489SOL    HW129366   4.123   4.231   1.232
 9489SOL    HW229367   4.064   4.327   1.113
 9490SOL     OW29368   5.094   0.397   0.727
 9490SOL    HW129369   5.192   0.378   0.719
 9490SOL    HW229370   5.043   0.334   0.667
 9491SOL     OW29371   6.486   5.009   4.342
 9491SOL    HW129372   6.556   4.937   4.343
 9491SOL    HW229373   6.395   4.967   4.335
 9492SOL     OW29374   3.263   3.780   2.172
 9492SOL    HW129375   3.284   3.806   2.078
 9492SOL    HW229376   3.179   3.826   2.201
 9493SOL     OW29377   4.693   5.275   3.460
 9493SOL    HW129378   4.749   5.356   3.478
 9493SOL    HW229379   4.607   5.303   3.417
 9494SOL     OW29380   4.791   3.480   0.223
 9494SOL    HW129381   4.869   3.427   0.191
 9494SOL    HW229382   4.730   3.422   0.277
 9495SOL     OW29383   6.187   2.135   3.692
 9495SOL    HW129384   6.233   2.057   3.733
 9495SOL    HW229385   6.176   2.120   3.594
 9496SOL     OW29386   5.433   3.884   6.279
 9496SOL    HW129387   5.394   3.940   6.205
 9496SOL    HW229388   5.391   3.909   6.366
 9497SOL     OW29389   4.855   4.591   0.774
 9497SOL    HW129390   4.928   4.561   0.835
 9497SOL    HW229391   4.808   4.670   0.813
 9498SOL     OW29392   4.054   6.716   5.285
 9498SOL    HW129393   4.062   6.781   5.361
 9498SOL    HW229394   4.113   6.637   5.302
 9499SOL     OW29395   2.533   4.406   5.691
 9499SOL    HW129396   2.499   4.351   5.614
 9499SOL    HW229397   2.475   4.487   5.702
 9500SOL     OW29398   4.451   6.214   1.678
 9500SOL    HW129399   4.395   6.297   1.682
 9500SOL    HW229400   4.420   6.156   1.602
 9501SOL     OW29401   3.625   1.668   4.731
 9501SOL    HW129402   3.703   1.720   4.764
 9501SOL    HW229403   3.634   1.653   4.632
 9502SOL     OW29404   6.672   2.492   4.652
 9502SOL    HW129405   6.759   2.462   4.612
 9502SOL    HW229406   6.596   2.463   4.594
 9503SOL     OW29407   0.531   1.117   1.921
 9503SOL    HW129408   0.510   1.187   1.990
 9503SOL    HW229409   0.460   1.118   1.850
 9504SOL     OW29410   6.944   2.707   0.945
 9504SOL    HW129411   6.917   2.762   0.866
 9504SOL    HW229412   6.888   2.624   0.948
 9505SOL     OW29413   6.229   3.480   2.944
 9505SOL    HW129414   6.239   3.443   2.852
 9505SOL    HW229415   6.279   3.566   2.950
 9506SOL     OW29416   0.222   3.184   0.087
 9506SOL    HW129417   0.142   3.241   0.103
 9506SOL    HW229418   0.196   3.088   0.088
 9507SOL     OW29419   1.750   0.942   4.210
 9507SOL    HW129420   1.799   1.017   4.165
 9507SOL    HW229421   1.669   0.979   4.256
 9508SOL     OW29422   5.471   1.868   0.500
 9508SOL    HW129423   5.385   1.817   0.497
 9508SOL    HW229424   5.482   1.909   0.591
 9509SOL     OW29425   1.372   6.377   5.368
 9509SOL    HW129426   1.334   6.407   5.280
 9509SOL    HW229427   1.404   6.282   5.360
 9510SOL     OW29428   6.586   4.117   2.111
 9510SOL    HW129429   6.669   4.117   2.055
 9510SOL    HW229430   6.509   4.086   2.055
 9511SOL     OW29431   0.718   2.444   0.211
 9511SOL    HW129432   0.671   2.358   0.192
 9511SOL    HW229433   0.750   2.484   0.125
 9512SOL     OW29434   6.924   1.873   3.888
 9512SOL    HW129435   6.930   1.944   3.818
 9512SOL    HW229436   6.852   1.898   3.954
 9513SOL     OW29437   2.022   4.174   4.780
 9513SOL    HW129438   1.924   4.158   4.769
 9513SOL    HW229439   2.062   4.193   4.690
 9514SOL     OW29440   1.834   3.854   6.470
 9514SOL    HW129441   1.910   3.832   6.532
 9514SOL    HW229442   1.805   3.771   6.422
 9515SOL     OW29443   1.331   6.239   6.863
 9515SOL    HW129444   1.255   6.298   6.834
 9515SOL    HW229445   1.380   6.282   6.938
 9516SOL     OW29446   4.995   3.577   4.319
 9516SOL    HW129447   4.967   3.492   4.274
 9516SOL    HW229448   5.004   3.560   4.418
 9517SOL     OW29449   1.090   5.217   1.484
 9517SOL    HW129450   1.025   5.142   1.496
 9517SOL    HW229451   1.103   5.236   1.387
 9518SOL     OW29452   1.091   3.015   5.520
 9518SOL    HW129453   1.176   3.066   5.508
 9518SOL    HW229454   1.111   2.926   5.561
 9519SOL     OW29455   2.866   3.469   2.847
 9519SOL    HW129456   2.893   3.388   2.795
 9519SOL    HW229457   2.781   3.506   2.809
 9520SOL     OW29458   6.662   0.895   4.876
 9520SOL    HW129459   6.751   0.864   4.840
 9520SOL    HW229460   6.607   0.932   4.802
 9521SOL     OW29461   3.223   5.950   1.902
 9521SOL    HW129462   3.134   5.927   1.943
 9521SOL    HW229463   3.227   5.912   1.809
 9522SOL     OW29464   4.225   5.088   2.116
 9522SOL    HW129465   4.303   5.142   2.146
 9522SOL    HW229466   4.143   5.117   2.165
 9523SOL     OW29467   2.209   5.250   4.592
 9523SOL    HW129468   2.242   5.163   4.629
 9523SOL    HW229469   2.136   5.233   4.526
 9524SOL     OW29470   1.131   3.866   1.493
 9524SOL    HW129471   1.228   3.880   1.511
 9524SOL    HW229472   1.108   3.900   1.402
 9525SOL     OW29473   1.984   2.290   6.018
 9525SOL    HW129474   1.889   2.265   6.004
 9525SOL    HW229475   2.018   2.246   6.101
 9526SOL     OW29476   5.670   5.281   0.397
 9526SOL    HW129477   5.730   5.237   0.331
 9526SOL    HW229478   5.578   5.240   0.390
 9527SOL     OW29479   2.836   6.997   3.954
 9527SOL    HW129480   2.859   6.900   3.951
 9527SOL    HW229481   2.920   0.028   3.948
 9528SOL     OW29482   5.857   0.964   1.176
 9528SOL    HW129483   5.879   1.062   1.174
 9528SOL    HW229484   5.784   0.948   1.243
 9529SOL     OW29485   5.857   3.335   1.047
 9529SOL    HW129486   5.825   3.430   1.055
 9529SOL    HW229487   5.822   3.283   1.125
 9530SOL     OW29488   1.629   5.782   4.651
 9530SOL    HW129489   1.553   5.723   4.625
 9530SOL    HW229490   1.624   5.868   4.600
 9531SOL     OW29491   4.516   4.410   3.211
 9531SOL    HW129492   4.453   4.392   3.135
 9531SOL    HW229493   4.578   4.484   3.186
 9532SOL     OW29494   6.250   4.852   1.704
 9532SOL    HW129495   6.318   4.822   1.771
 9532SOL    HW229496   6.293   4.913   1.638
 9533SOL     OW29497   1.155   5.712   4.697
 9533SOL    HW129498   1.095   5.672   4.628
 9533SOL    HW229499   1.148   5.812   4.693
 9534SOL     OW29500   6.105   4.802   4.651
 9534SOL    HW129501   6.046   4.723   4.631
 9534SOL    HW229502   6.199   4.771   4.660
 9535SOL     OW29503   1.827   1.592   5.889
 9535SOL    HW129504   1.808   1.494   5.892
 9535SOL    HW229505   1.919   1.607   5.852
 9536SOL     OW29506   3.356   2.914   4.734
 9536SOL    HW129507   3.292   2.841   4.756
 9536SOL    HW229508   3.444   2.896   4.779
 9537SOL     OW29509   2.380   1.718   4.129
 9537SOL    HW129510   2.467   1.683   4.095
 9537SOL    HW229511   2.394   1.807   4.171
 9538SOL     OW29512   3.925   1.085   4.385
 9538SOL    HW129513   3.868   1.125   4.314
 9538SOL    HW229514   3.967   1.001   4.351
 9539SOL     OW29515   3.267   2.956   3.981
 9539SOL    HW129516   3.211   3.028   3.939
 9539SOL    HW229517   3.290   2.982   4.074
 9540SOL     OW29518   4.918   5.273   4.190
 9540SOL    HW129519   4.823   5.245   4.204
 9540SOL    HW229520   4.978   5.193   4.194
 9541SOL     OW29521   0.794   0.994   5.551
 9541SOL    HW129522   0.745   1.068   5.505
 9541SOL    HW229523   0.732   0.918   5.567
 9542SOL     OW29524   5.700   4.802   4.242
 9542SOL    HW129525   5.722   4.893   4.278
 9542SOL    HW229526   5.771   4.737   4.272
 9543SOL     OW29527   3.365   0.192   6.058
 9543SOL    HW129528   3.394   0.194   6.154
 9543SOL    HW229529   3.408   0.116   6.011
 9544SOL     OW29530   4.940   4.046   3.747
 9544SOL    HW129531   4.914   4.139   3.719
 9544SOL    HW229532   4.927   3.984   3.670
 9545SOL     OW29533   0.899   5.051   2.045
 9545SOL    HW129534   0.842   5.002   1.979
 9545SOL    HW229535   0.847   5.067   2.129
 9546SOL     OW29536   2.949   1.826   6.119
 9546SOL    HW129537   3.047   1.831   6.101
 9546SOL    HW229538   2.899   1.839   6.034
 9547SOL     OW29539   3.447   5.566   4.451
 9547SOL    HW129540   3.350   5.573   4.426
 9547SOL    HW229541   3.471   5.640   4.514
 9548SOL     OW29542   0.881   5.313   5.459
 9548SOL    HW129543   0.831   5.286   5.541
 9548SOL    HW229544   0.880   5.238   5.393
 9549SOL     OW29545   3.767   0.649   2.633
 9549SOL    HW129546   3.712   0.673   2.553
 9549SOL    HW229547   3.733   0.697   2.713
 9550SOL     OW29548   6.184   2.457   1.163
 9550SOL    HW129549   6.237   2.516   1.101
 9550SOL    HW229550   6.092   2.494   1.173
 9551SOL     OW29551   5.818   3.002   6.072
 9551SOL    HW129552   5.779   2.936   6.008
 9551SOL    HW229553   5.790   2.978   6.165
 9552SOL     OW29554   2.208   0.708   6.298
 9552SOL    HW129555   2.249   0.651   6.227
 9552SOL    HW229556   2.244   0.801   6.291
 9553SOL     OW29557   5.120   1.532   0.544
 9553SOL    HW129558   5.195   1.472   0.568
 9553SOL    HW229559   5.042   1.478   0.512
 9554SOL     OW29560   2.110   6.547   3.888
 9554SOL    HW129561   2.167   6.482   3.938
 9554SOL    HW229562   2.163   6.629   3.866
 9555SOL     OW29563   6.992   1.470   3.691
 9555SOL    HW129564   6.982   1.563   3.656
 9555SOL    HW229565   7.022   1.474   3.787
 9556SOL     OW29566   1.359   4.805   1.456
 9556SOL    HW129567   1.317   4.732   1.510
 9556SOL    HW229568   1.444   4.773   1.415
 9557SOL     OW29569   4.781   6.890   1.875
 9557SOL    HW129570   4.809   6.980   1.908
 9557SOL    HW229571   4.761   6.895   1.777
 9558SOL     OW29572   5.633   6.459   5.382
 9558SOL    HW129573   5.722   6.503   5.370
 9558SOL    HW229574   5.639   6.388   5.451
 9559SOL     OW29575   1.551   3.696   0.091
 9559SOL    HW129576   1.624   3.672   0.028
 9559SOL    HW229577   1.581   3.679   0.185
 9560SOL     OW29578   2.883   1.010   2.638
 9560SOL    HW129579   2.828   1.002   2.555
 9560SOL    HW229580   2.950   1.084   2.626
 9561SOL     OW29581   0.434   0.447   1.704
 9561SOL    HW129582   0.509   0.512   1.717
 9561SOL    HW229583   0.347   0.495   1.713
 9562SOL     OW29584   3.052   6.152   4.366
 9562SOL    HW129585   3.013   6.194   4.447
 9562SOL    HW229586   2.979   6.124   4.304
 9563SOL     OW29587   0.224   6.443   0.641
 9563SOL    HW129588   0.227   6.520   0.703
 9563SOL    HW229589   0.317   6.419   0.612
 9564SOL     OW29590   1.983   1.273   1.290
 9564SOL    HW129591   1.892   1.270   1.248
 9564SOL    HW229592   2.052   1.243   1.225
 9565SOL     OW29593   2.870   1.366   4.195
 9565SOL    HW129594   2.771   1.382   4.190
 9565SOL    HW229595   2.901   1.378   4.289
 9566SOL     OW29596   2.359   6.445   0.840
 9566SOL    HW129597   2.334   6.350   0.821
 9566SOL    HW229598   2.352   6.461   0.939
 9567SOL     OW29599   5.915   4.333   0.288
 9567SOL    HW129600   5.945   4.239   0.304
 9567SOL    HW229601   5.961   4.369   0.207
 9568SOL     OW29602   4.330   1.367   0.863
 9568SOL    HW129603   4.299   1.273   0.850
 9568SOL    HW229604   4.420   1.367   0.906
 9569SOL     OW29605   0.196   0.746   2.336
 9569SOL    HW129606   0.201   0.685   2.257
 9569SOL    HW229607   0.102   0.746   2.372
 9570SOL     OW29608   0.964   2.603   0.894
 9570SOL    HW129609   0.943   2.611   0.796
 9570SOL    HW229610   0.893   2.547   0.938
 9571SOL     OW29611   2.186   2.483   6.091
 9571SOL    HW129612   2.167   2.495   6.188
 9571SOL    HW229613   2.122   2.416   6.053
 9572SOL     OW29614   2.549   4.587   2.743
 9572SOL    HW129615   2.562   4.667   2.685
 9572SOL    HW229616   2.539   4.505   2.686
 9573SOL     OW29617   6.498   1.311   5.737
 9573SOL    HW129618   6.487   1.364   5.820
 9573SOL    HW229619   6.438   1.348   5.665
 9574SOL     OW29620   3.689   2.948   2.004
 9574SOL    HW129621   3.667   2.855   2.034
 9574SOL    HW229622   3.624   3.013   2.044
 9575SOL     OW29623   6.341   0.309   2.461
 9575SOL    HW129624   6.251   0.297   2.420
 9575SOL    HW229625   6.412   0.286   2.394
 9576SOL     OW29626   1.861   2.025   0.103
 9576SOL    HW129627   1.772   1.989   0.128
 9576SOL    HW229628   1.877   2.110   0.153
 9577SOL     OW29629   0.114   5.582   6.761
 9577SOL    HW129630   0.158   5.598   6.850
 9577SOL    HW229631   0.096   5.670   6.718
 9578SOL     OW29632   1.404   2.342   2.710
 9578SOL    HW129633   1.332   2.282   2.673
 9578SOL    HW229634   1.412   2.328   2.809
 9579SOL     OW29635   6.397   6.129   2.480
 9579SOL    HW129636   6.482   6.077   2.483
 9579SOL    HW229637   6.413   6.222   2.511
 9580SOL     OW29638   5.122   3.614   1.150
 9580SOL    HW129639   5.129   3.661   1.237
 9580SOL    HW229640   5.118   3.680   1.075
 9581SOL     OW29641   0.621   0.543   6.227
 9581SOL    HW129642   0.697   0.518   6.288
 9581SOL    HW229643   0.649   0.529   6.132
 9582SOL     OW29644   3.849   5.451   4.686
 9582SOL    HW129645   3.769   5.475   4.742
 9582SOL    HW229646   3.905   5.385   4.736
 9583SOL     OW29647   3.294   4.581   1.190
 9583SOL    HW129648   3.306   4.555   1.285
 9583SOL    HW229649   3.276   4.499   1.135
 9584SOL     OW29650   1.519   5.177   5.893
 9584SOL    HW129651   1.578   5.190   5.972
 9584SOL    HW229652   1.478   5.085   5.897
 9585SOL     OW29653   5.435   6.425   2.149
 9585SOL    HW129654   5.423   6.524   2.142
 9585SOL    HW229655   5.367   6.387   2.212
 9586SOL     OW29656   4.428   5.248   2.140
 9586SOL    HW129657   4.497   5.179   2.118
 9586SOL    HW229658   4.409   5.303   2.058
 9587SOL     OW29659   1.317   6.462   2.717
 9587SOL    HW129660   1.286   6.425   2.805
 9587SOL    HW229661   1.312   6.391   2.647
 9588SOL     OW29662   6.272   6.068   0.718
 9588SOL    HW129663   6.213   6.138   0.757
 9588SOL    HW229664   6.326   6.025   0.791
 9589SOL     OW29665   1.765   4.140   6.898
 9589SOL    HW129666   1.699   4.200   6.942
 9589SOL    HW229667   1.745   4.132   6.801
 9590SOL     OW29668   6.461   2.375   1.816
 9590SOL    HW129669   6.463   2.318   1.734
 9590SOL    HW229670   6.409   2.458   1.798
 9591SOL     OW29671   3.692   5.907   6.397
 9591SOL    HW129672   3.744   5.913   6.482
 9591SOL    HW229673   3.756   5.901   6.320
 9592SOL     OW29674   3.177   5.321   0.662
 9592SOL    HW129675   3.084   5.353   0.682
 9592SOL    HW229676   3.214   5.274   0.743
 9593SOL     OW29677   1.093   2.022   5.336
 9593SOL    HW129678   1.047   2.074   5.265
 9593SOL    HW229679   1.084   1.924   5.317
 9594SOL     OW29680   2.819   6.325   4.500
 9594SOL    HW129681   2.791   6.265   4.425
 9594SOL    HW229682   2.790   6.419   4.480
 9595SOL     OW29683   0.457   2.866   3.573
 9595SOL    HW129684   0.539   2.835   3.620
 9595SOL    HW229685   0.456   2.966   3.570
 9596SOL     OW29686   1.006   5.351   0.581
 9596SOL    HW129687   0.912   5.374   0.608
 9596SOL    HW229688   1.005   5.272   0.520
 9597SOL     OW29689   0.149   4.373   1.081
 9597SOL    HW129690   0.240   4.341   1.106
 9597SOL    HW229691   0.088   4.294   1.073
 9598SOL     OW29692   2.038   4.024   3.298
 9598SOL    HW129693   1.938   4.028   3.297
 9598SOL    HW229694   2.068   3.946   3.353
 9599SOL     OW29695   3.076   0.151   4.170
 9599SOL    HW129696   3.157   0.100   4.199
 9599SOL    HW229697   3.057   0.132   4.074
 9600SOL     OW29698   3.016   0.134   0.259
 9600SOL    HW129699   2.996   0.040   0.285
 9600SOL    HW229700   2.936   0.191   0.276
 9601SOL     OW29701   5.524   4.270   0.190
 9601SOL    HW129702   5.565   4.338   0.250
 9601SOL    HW229703   5.587   4.193   0.177
 9602SOL     OW29704   4.996   3.659   5.620
 9602SOL    HW129705   5.075   3.720   5.620
 9602SOL    HW229706   4.951   3.664   5.530
 9603SOL     OW29707   5.574   6.984   6.432
 9603SOL    HW129708   5.522   0.027   6.486
 9603SOL    HW229709   5.613   0.007   6.352
 9604SOL     OW29710   5.056   6.884   1.586
 9604SOL    HW129711   4.966   6.906   1.550
 9604SOL    HW229712   5.075   6.942   1.666
 9605SOL     OW29713   0.960   5.420   2.685
 9605SOL    HW129714   1.024   5.370   2.744
 9605SOL    HW229715   0.935   5.506   2.729
 9606SOL     OW29716   1.481   0.115   6.310
 9606SOL    HW129717   1.495   0.016   6.311
 9606SOL    HW229718   1.564   0.162   6.340
 9607SOL     OW29719   2.895   1.318   0.384
 9607SOL    HW129720   2.868   1.410   0.354
 9607SOL    HW229721   2.836   1.250   0.341
 9608SOL     OW29722   0.242   4.811   1.943
 9608SOL    HW129723   0.215   4.820   1.847
 9608SOL    HW229724   0.218   4.719   1.975
 9609SOL     OW29725   3.744   3.116   0.244
 9609SOL    HW129726   3.721   3.053   0.169
 9609SOL    HW229727   3.660   3.145   0.291
 9610SOL     OW29728   1.825   4.682   3.217
 9610SOL    HW129729   1.743   4.732   3.246
 9610SOL    HW229730   1.906   4.724   3.256
 9611SOL     OW29731   1.175   6.225   0.411
 9611SOL    HW129732   1.156   6.135   0.451
 9611SOL    HW229733   1.244   6.216   0.339
 9612SOL     OW29734   0.642   3.100   1.665
 9612SOL    HW129735   0.643   3.153   1.580
 9612SOL    HW229736   0.697   3.146   1.734
 9613SOL     OW29737   5.363   6.812   3.708
 9613SOL    HW129738   5.320   6.800   3.798
 9613SOL    HW229739   5.382   6.723   3.668
 9614SOL     OW29740   3.556   1.968   2.070
 9614SOL    HW129741   3.623   1.894   2.066
 9614SOL    HW229742   3.603   2.056   2.059
 9615SOL     OW29743   2.437   1.381   1.152
 9615SOL    HW129744   2.515   1.323   1.175
 9615SOL    HW229745   2.377   1.389   1.233
 9616SOL     OW29746   3.962   3.835   1.167
 9616SOL    HW129747   3.972   3.767   1.094
 9616SOL    HW229748   3.991   3.795   1.254
 9617SOL     OW29749   1.915   2.729   3.582
 9617SOL    HW129750   1.859   2.689   3.509
 9617SOL    HW229751   1.864   2.802   3.627
 9618SOL     OW29752   2.716   0.058   0.943
 9618SOL    HW129753   2.711   6.988   0.977
 9618SOL    HW229754   2.695   0.060   0.845
 9619SOL     OW29755   1.988   0.413   5.553
 9619SOL    HW129756   1.981   0.314   5.556
 9619SOL    HW229757   1.930   0.452   5.625
 9620SOL     OW29758   4.359   0.114   5.011
 9620SOL    HW129759   4.380   0.016   5.014
 9620SOL    HW229760   4.373   0.154   5.101
 9621SOL     OW29761   1.859   3.183   2.017
 9621SOL    HW129762   1.803   3.161   1.938
 9621SOL    HW229763   1.842   3.277   2.045
 9622SOL     OW29764   6.277   1.994   0.585
 9622SOL    HW129765   6.275   2.035   0.676
 9622SOL    HW229766   6.185   1.965   0.559
 9623SOL     OW29767   2.679   3.466   5.788
 9623SOL    HW129768   2.745   3.540   5.805
 9623SOL    HW229769   2.591   3.506   5.761
 9624SOL     OW29770   5.970   3.963   2.877
 9624SOL    HW129771   5.965   3.871   2.836
 9624SOL    HW229772   5.976   4.031   2.804
 9625SOL     OW29773   5.385   5.303   6.985
 9625SOL    HW129774   5.359   5.318   6.889
 9625SOL    HW229775   5.475   5.258   6.988
 9626SOL     OW29776   4.404   5.197   0.458
 9626SOL    HW129777   4.347   5.130   0.410
 9626SOL    HW229778   4.405   5.283   0.406
 9627SOL     OW29779   0.992   6.496   6.337
 9627SOL    HW129780   0.907   6.499   6.390
 9627SOL    HW229781   1.069   6.475   6.397
 9628SOL     OW29782   5.452   4.751   1.043
 9628SOL    HW129783   5.474   4.814   0.968
 9628SOL    HW229784   5.535   4.702   1.070
 9629SOL     OW29785   2.014   0.449   1.123
 9629SOL    HW129786   2.043   0.542   1.102
 9629SOL    HW229787   1.926   0.452   1.171
 9630SOL     OW29788   6.101   6.769   4.736
 9630SOL    HW129789   6.072   6.845   4.678
 9630SOL    HW229790   6.027   6.744   4.797
 9631SOL     OW29791   6.744   6.324   6.520
 9631SOL    HW129792   6.645   6.314   6.507
 9631SOL    HW229793   6.791   6.298   6.436
 9632SOL     OW29794   1.508   6.808   2.846
 9632SOL    HW129795   1.462   6.881   2.897
 9632SOL    HW229796   1.550   6.744   2.910
 9633SOL     OW29797   5.433   4.878   6.745
 9633SOL    HW129798   5.436   4.914   6.838
 9633SOL    HW229799   5.347   4.831   6.730
 9634SOL     OW29800   1.430   6.467   3.890
 9634SOL    HW129801   1.482   6.536   3.840
 9634SOL    HW229802   1.479   6.444   3.975
 9635SOL     OW29803   1.951   6.435   4.848
 9635SOL    HW129804   1.956   6.369   4.923
 9635SOL    HW229805   1.855   6.454   4.827
 9636SOL     OW29806   3.875   1.408   5.543
 9636SOL    HW129807   3.820   1.439   5.621
 9636SOL    HW229808   3.931   1.484   5.509
 9637SOL     OW29809   2.425   2.652   6.636
 9637SOL    HW129810   2.343   2.710   6.641
 9637SOL    HW229811   2.432   2.613   6.545
 9638SOL     OW29812   0.243   3.267   6.331
 9638SOL    HW129813   0.229   3.291   6.235
 9638SOL    HW229814   0.195   3.332   6.389
 9639SOL     OW29815   4.114   1.731   2.083
 9639SOL    HW129816   4.209   1.722   2.114
 9639SOL    HW229817   4.102   1.818   2.037
 9640SOL     OW29818   2.237   2.908   4.059
 9640SOL    HW129819   2.260   2.974   4.130
 9640SOL    HW229820   2.154   2.937   4.012
 9641SOL     OW29821   4.462   0.156   0.293
 9641SOL    HW129822   4.382   0.205   0.258
 9641SOL    HW229823   4.489   0.084   0.228
 9642SOL     OW29824   2.598   6.955   4.565
 9642SOL    HW129825   2.673   7.015   4.538
 9642SOL    HW229826   2.583   6.887   4.493
 9643SOL     OW29827   5.631   4.321   3.420
 9643SOL    HW129828   5.629   4.365   3.509
 9643SOL    HW229829   5.577   4.374   3.355
 9644SOL     OW29830   1.098   3.454   6.440
 9644SOL    HW129831   1.140   3.499   6.361
 9644SOL    HW229832   1.068   3.523   6.506
 9645SOL     OW29833   2.321   4.926   4.795
 9645SOL    HW129834   2.375   5.008   4.812
 9645SOL    HW229835   2.381   4.846   4.797
 9646SOL     OW29836   3.671   4.993   2.925
 9646SOL    HW129837   3.710   4.904   2.903
 9646SOL    HW229838   3.631   4.990   3.017
 9647SOL     OW29839   6.186   4.019   0.891
 9647SOL    HW129840   6.155   4.021   0.986
 9647SOL    HW229841   6.136   4.089   0.840
 9648SOL     OW29842   4.173   1.378   1.339
 9648SOL    HW129843   4.114   1.407   1.414
 9648SOL    HW229844   4.152   1.430   1.257
 9649SOL     OW29845   2.655   6.823   0.464
 9649SOL    HW129846   2.570   6.848   0.418
 9649SOL    HW229847   2.659   6.868   0.554
 9650SOL     OW29848   0.131   5.221   2.627
 9650SOL    HW129849   0.062   5.179   2.685
 9650SOL    HW229850   0.145   5.166   2.545
 9651SOL     OW29851   6.897   1.990   5.742
 9651SOL    HW129852   6.921   1.927   5.817
 9651SOL    HW229853   6.800   1.980   5.720
 9652SOL     OW29854   0.869   4.848   1.464
 9652SOL    HW129855   0.891   4.895   1.379
 9652SOL    HW229856   0.917   4.893   1.540
 9653SOL     OW29857   4.261   4.808   5.271
 9653SOL    HW129858   4.183   4.748   5.290
 9653SOL    HW229859   4.301   4.838   5.357
 9654SOL     OW29860   3.058   2.044   1.454
 9654SOL    HW129861   3.104   1.955   1.452
 9654SOL    HW229862   3.119   2.114   1.419
 9655SOL     OW29863   6.726   1.968   6.092
 9655SOL    HW129864   6.651   1.921   6.047
 9655SOL    HW229865   6.690   2.033   6.159
 9656SOL     OW29866   2.417   0.592   2.862
 9656SOL    HW129867   2.420   0.499   2.825
 9656SOL    HW229868   2.325   0.613   2.893
 9657SOL     OW29869   5.046   0.817   4.355
 9657SOL    HW129870   5.125   0.832   4.295
 9657SOL    HW229871   5.063   0.858   4.444
 9658SOL     OW29872   0.229   1.970   2.393
 9658SOL    HW129873   0.327   1.953   2.403
 9658SOL    HW229874   0.215   2.051   2.336
 9659SOL     OW29875   6.915   3.723   0.514
 9659SOL    HW129876   6.892   3.774   0.596
 9659SOL    HW229877   6.864   3.760   0.436
 9660SOL     OW29878   0.404   6.229   1.158
 9660SOL    HW129879   0.316   6.206   1.117
 9660SOL    HW229880   0.428   6.323   1.136
 9661SOL     OW29881   4.618   6.323   0.874
 9661SOL    HW129882   4.647   6.229   0.889
 9661SOL    HW229883   4.563   6.354   0.952
 9662SOL     OW29884   6.173   2.865   4.764
 9662SOL    HW129885   6.212   2.957   4.764
 9662SOL    HW229886   6.087   2.865   4.815
 9663SOL     OW29887   1.612   5.354   3.876
 9663SOL    HW129888   1.607   5.354   3.976
 9663SOL    HW229889   1.642   5.443   3.844
 9664SOL     OW29890   4.489   6.429   2.994
 9664SOL    HW129891   4.466   6.345   2.945
 9664SOL    HW229892   4.573   6.469   2.957
 9665SOL     OW29893   5.797   4.949   5.224
 9665SOL    HW129894   5.814   5.046   5.241
 9665SOL    HW229895   5.751   4.909   5.304
 9666SOL     OW29896   5.870   4.162   1.600
 9666SOL    HW129897   5.841   4.254   1.573
 9666SOL    HW229898   5.964   4.146   1.568
 9667SOL     OW29899   4.160   3.604   3.944
 9667SOL    HW129900   4.154   3.520   3.998
 9667SOL    HW229901   4.123   3.680   3.997
 9668SOL     OW29902   6.661   1.513   5.375
 9668SOL    HW129903   6.704   1.453   5.308
 9668SOL    HW229904   6.590   1.462   5.424
 9669SOL     OW29905   0.516   0.662   0.922
 9669SOL    HW129906   0.427   0.699   0.948
 9669SOL    HW229907   0.583   0.737   0.919
 9670SOL     OW29908   4.357   4.564   6.149
 9670SOL    HW129909   4.427   4.505   6.108
 9670SOL    HW229910   4.308   4.614   6.078
 9671SOL     OW29911   6.696   5.499   6.236
 9671SOL    HW129912   6.777   5.547   6.200
 9671SOL    HW229913   6.726   5.421   6.291
 9672SOL     OW29914   1.275   6.394   5.095
 9672SOL    HW129915   1.206   6.458   5.062
 9672SOL    HW229916   1.335   6.367   5.020
 9673SOL     OW29917   3.851   4.780   6.815
 9673SOL    HW129918   3.792   4.779   6.734
 9673SOL    HW229919   3.877   4.874   6.836
 9674SOL     OW29920   2.804   6.145   1.634
 9674SOL    HW129921   2.780   6.109   1.725
 9674SOL    HW229922   2.723   6.143   1.576
 9675SOL     OW29923   5.901   0.777   2.064
 9675SOL    HW129924   5.944   0.687   2.055
 9675SOL    HW229925   5.903   0.807   2.159
 9676SOL     OW29926   1.355   3.420   5.546
 9676SOL    HW129927   1.334   3.506   5.499
 9676SOL    HW229928   1.379   3.438   5.641
 9677SOL     OW29929   2.695   4.221   5.787
 9677SOL    HW129930   2.651   4.138   5.822
 9677SOL    HW229931   2.630   4.297   5.789
 9678SOL     OW29932   4.123   3.412   2.721
 9678SOL    HW129933   4.182   3.393   2.642
 9678SOL    HW229934   4.078   3.328   2.750
 9679SOL     OW29935   1.161   3.077   2.100
 9679SOL    HW129936   1.235   3.087   2.166
 9679SOL    HW229937   1.073   3.084   2.147
 9680SOL     OW29938   5.679   6.626   3.522
 9680SOL    HW129939   5.752   6.680   3.562
 9680SOL    HW229940   5.703   6.529   3.525
 9681SOL     OW29941   2.195   0.820   1.417
 9681SOL    HW129942   2.238   0.794   1.330
 9681SOL    HW229943   2.252   0.788   1.493
 9682SOL     OW29944   5.152   4.969   2.798
 9682SOL    HW129945   5.098   4.955   2.881
 9682SOL    HW229946   5.185   5.063   2.795
 9683SOL     OW29947   4.138   5.392   0.384
 9683SOL    HW129948   4.182   5.429   0.302
 9683SOL    HW229949   4.124   5.293   0.373
 9684SOL     OW29950   0.152   3.713   4.722
 9684SOL    HW129951   0.103   3.789   4.766
 9684SOL    HW229952   0.160   3.637   4.785
 9685SOL     OW29953   2.404   2.930   1.213
 9685SOL    HW129954   2.472   2.868   1.175
 9685SOL    HW229955   2.401   2.919   1.312
 9686SOL     OW29956   6.975   1.472   1.371
 9686SOL    HW129957   6.911   1.526   1.426
 9686SOL    HW229958   0.035   1.456   1.424
 9687SOL     OW29959   2.390   0.845   3.075
 9687SOL    HW129960   2.445   0.793   3.141
 9687SOL    HW229961   2.389   0.797   2.987
 9688SOL     OW29962   0.152   2.175   3.043
 9688SOL    HW129963   0.243   2.212   3.027
 9688SOL    HW229964   0.085   2.250   3.041
 9689SOL     OW29965   2.147   6.706   6.842
 9689SOL    HW129966   2.241   6.695   6.809
 9689SOL    HW229967   2.146   6.772   6.916
 9690SOL     OW29968   6.252   5.101   0.172
 9690SOL    HW129969   6.214   5.013   0.140
 9690SOL    HW229970   6.178   5.158   0.207
 9691SOL     OW29971   1.901   4.935   1.875
 9691SOL    HW129972   1.987   4.883   1.875
 9691SOL    HW229973   1.914   5.020   1.825
 9692SOL     OW29974   2.803   5.057   2.160
 9692SOL    HW129975   2.817   5.147   2.200
 9692SOL    HW229976   2.862   5.046   2.080
 9693SOL     OW29977   6.732   5.231   1.854
 9693SOL    HW129978   6.776   5.270   1.773
 9693SOL    HW229979   6.657   5.290   1.882
 9694SOL     OW29980   2.059   2.146   6.960
 9694SOL    HW129981   1.982   2.118   7.016
 9694SOL    HW229982   2.102   2.065   6.919
 9695SOL     OW29983   5.865   4.497   0.522
 9695SOL    HW129984   5.873   4.446   0.436
 9695SOL    HW229985   5.950   4.548   0.538
 9696SOL     OW29986   3.820   2.686   1.538
 9696SOL    HW129987   3.780   2.608   1.587
 9696SOL    HW229988   3.867   2.745   1.604
 9697SOL     OW29989   0.951   4.851   6.982
 9697SOL    HW129990   0.885   4.924   6.967
 9697SOL    HW229991   0.932   4.806   0.046
 9698SOL     OW29992   5.633   0.808   4.880
 9698SOL    HW129993   5.727   0.775   4.891
 9698SOL    HW229994   5.572   0.730   4.864
 9699SOL     OW29995   0.870   4.060   6.011
 9699SOL    HW129996   0.885   4.097   5.919
 9699SOL    HW229997   0.851   3.962   6.005
 9700SOL     OW29998   3.661   4.925   5.423
 9700SOL    HW129999   3.649   4.938   5.324
 9700SOL    HW230000   3.635   4.832   5.447
 9701SOL     OW30001   3.776   5.967   5.325
 9701SOL    HW130002   3.825   6.015   5.397
 9701SOL    HW230003   3.839   5.904   5.279
 9702SOL     OW30004   5.289   1.017   0.549
 9702SOL    HW130005   5.320   0.924   0.530
 9702SOL    HW230006   5.367   1.079   0.550
 9703SOL     OW30007   2.918   5.873   4.250
 9703SOL    HW130008   2.920   5.773   4.260
 9703SOL    HW230009   3.012   5.908   4.249
 9704SOL     OW30010   3.302   0.033   2.926
 9704SOL    HW130011   3.391   0.060   2.888
 9704SOL    HW230012   3.279   6.964   2.894
 9705SOL     OW30013   4.251   5.096   0.263
 9705SOL    HW130014   4.155   5.084   0.287
 9705SOL    HW230015   4.260   5.109   0.165
 9706SOL     OW30016   6.436   2.533   0.819
 9706SOL    HW130017   6.454   2.436   0.841
 9706SOL    HW230018   6.375   2.572   0.888
 9707SOL     OW30019   0.775   3.973   2.213
 9707SOL    HW130020   0.856   4.023   2.183
 9707SOL    HW230021   0.804   3.890   2.260
 9708SOL     OW30022   1.714   2.658   3.868
 9708SOL    HW130023   1.684   2.634   3.961
 9708SOL    HW230024   1.640   2.706   3.820
 9709SOL     OW30025   1.161   6.447   3.744
 9709SOL    HW130026   1.255   6.470   3.767
 9709SOL    HW230027   1.158   6.358   3.698
 9710SOL     OW30028   0.399   0.815   3.001
 9710SOL    HW130029   0.470   0.849   2.939
 9710SOL    HW230030   0.443   0.764   3.076
 9711SOL     OW30031   1.433   2.802   6.028
 9711SOL    HW130032   1.366   2.734   5.999
 9711SOL    HW230033   1.444   2.871   5.956
 9712SOL     OW30034   5.478   2.423   4.687
 9712SOL    HW130035   5.412   2.364   4.735
 9712SOL    HW230036   5.552   2.447   4.750
 9713SOL     OW30037   0.309   4.559   2.996
 9713SOL    HW130038   0.352   4.647   2.974
 9713SOL    HW230039   0.362   4.486   2.954
 9714SOL     OW30040   2.286   1.415   1.379
 9714SOL    HW130041   2.290   1.515   1.370
 9714SOL    HW230042   2.195   1.382   1.354
 9715SOL     OW30043   6.020   5.614   4.827
 9715SOL    HW130044   6.095   5.656   4.878
 9715SOL    HW230045   6.048   5.526   4.791
 9716SOL     OW30046   3.862   2.127   6.531
 9716SOL    HW130047   3.923   2.152   6.456
 9716SOL    HW230048   3.848   2.028   6.531
 9717SOL     OW30049   5.239   5.858   4.405
 9717SOL    HW130050   5.239   5.835   4.307
 9717SOL    HW230051   5.306   5.801   4.452
 9718SOL     OW30052   4.041   2.788   1.317
 9718SOL    HW130053   3.955   2.794   1.367
 9718SOL    HW230054   4.085   2.878   1.316
 9719SOL     OW30055   0.924   2.257   0.617
 9719SOL    HW130056   1.015   2.298   0.623
 9719SOL    HW230057   0.858   2.327   0.589
 9720SOL     OW30058   0.383   6.029   2.175
 9720SOL    HW130059   0.448   6.007   2.102
 9720SOL    HW230060   0.416   5.993   2.262
 9721SOL     OW30061   0.757   3.057   1.992
 9721SOL    HW130062   0.670   3.101   1.968
 9721SOL    HW230063   0.741   2.959   2.006
 9722SOL     OW30064   0.190   0.760   3.789
 9722SOL    HW130065   0.244   0.689   3.835
 9722SOL    HW230066   0.246   0.805   3.720
 9723SOL     OW30067   0.738   6.729   3.141
 9723SOL    HW130068   0.782   6.782   3.068
 9723SOL    HW230069   0.780   6.751   3.228
 9724SOL     OW30070   3.063   2.646   1.716
 9724SOL    HW130071   3.006   2.657   1.634
 9724SOL    HW230072   3.009   2.604   1.789
 9725SOL     OW30073   4.390   3.332   6.398
 9725SOL    HW130074   4.403   3.312   6.301
 9725SOL    HW230075   4.470   3.304   6.450
 9726SOL     OW30076   5.516   6.954   4.624
 9726SOL    HW130077   5.571   0.005   4.586
 9726SOL    HW230078   5.419   6.975   4.613
 9727SOL     OW30079   1.246   3.617   5.760
 9727SOL    HW130080   1.176   3.565   5.808
 9727SOL    HW230081   1.291   3.679   5.824
 9728SOL     OW30082   1.776   6.454   6.410
 9728SOL    HW130083   1.725   6.468   6.494
 9728SOL    HW230084   1.847   6.524   6.401
 9729SOL     OW30085   1.361   4.482   3.052
 9729SOL    HW130086   1.287   4.504   3.115
 9729SOL    HW230087   1.325   4.435   2.971
 9730SOL     OW30088   6.870   3.451   2.658
 9730SOL    HW130089   6.950   3.426   2.712
 9730SOL    HW230090   6.798   3.383   2.672
 9731SOL     OW30091   4.225   5.147   0.669
 9731SOL    HW130092   4.219   5.071   0.604
 9731SOL    HW230093   4.135   5.191   0.678
 9732SOL     OW30094   0.099   5.764   2.587
 9732SOL    HW130095   0.172   5.793   2.649
 9732SOL    HW230096   0.134   5.694   2.525
 9733SOL     OW30097   5.645   5.030   4.679
 9733SOL    HW130098   5.604   4.963   4.618
 9733SOL    HW230099   5.701   4.983   4.747
 9734SOL     OW30100   5.714   1.749   4.028
 9734SOL    HW130101   5.757   1.740   4.118
 9734SOL    HW230102   5.681   1.659   3.998
 9735SOL     OW30103   2.138   5.112   2.976
 9735SOL    HW130104   2.093   5.030   3.010
 9735SOL    HW230105   2.157   5.102   2.878
 9736SOL     OW30106   5.542   0.857   6.983
 9736SOL    HW130107   5.634   0.894   6.967
 9736SOL    HW230108   5.481   0.886   6.909
 9737SOL     OW30109   4.106   2.190   4.807
 9737SOL    HW130110   4.051   2.129   4.864
 9737SOL    HW230111   4.159   2.251   4.866
 9738SOL     OW30112   1.306   0.773   3.440
 9738SOL    HW130113   1.233   0.839   3.459
 9738SOL    HW230114   1.380   0.785   3.507
 9739SOL     OW30115   6.924   4.772   1.681
 9739SOL    HW130116   6.919   4.765   1.780
 9739SOL    HW230117   7.019   4.787   1.653
 9740SOL     OW30118   6.013   3.700   2.757
 9740SOL    HW130119   6.104   3.706   2.715
 9740SOL    HW230120   5.993   3.605   2.779
 9741SOL     OW30121   4.474   1.447   2.643
 9741SOL    HW130122   4.499   1.456   2.740
 9741SOL    HW230123   4.401   1.380   2.633
 9742SOL     OW30124   5.168   0.573   3.042
 9742SOL    HW130125   5.259   0.593   3.005
 9742SOL    HW230126   5.140   0.647   3.104
 9743SOL     OW30127   1.794   2.554   6.066
 9743SOL    HW130128   1.805   2.598   6.155
 9743SOL    HW230129   1.860   2.480   6.056
 9744SOL     OW30130   1.679   0.693   2.236
 9744SOL    HW130131   1.612   0.764   2.213
 9744SOL    HW230132   1.640   0.632   2.304
 9745SOL     OW30133   0.701   2.297   5.045
 9745SOL    HW130134   0.684   2.303   4.947
 9745SOL    HW230135   0.625   2.251   5.090
 9746SOL     OW30136   5.140   1.143   5.573
 9746SOL    HW130137   5.203   1.207   5.530
 9746SOL    HW230138   5.191   1.084   5.636
 9747SOL     OW30139   1.516   0.912   1.107
 9747SOL    HW130140   1.557   0.823   1.126
 9747SOL    HW230141   1.436   0.925   1.166
 9748SOL     OW30142   1.377   6.165   4.530
 9748SOL    HW130143   1.412   6.157   4.436
 9748SOL    HW230144   1.305   6.098   4.545
 9749SOL     OW30145   1.085   3.117   5.265
 9749SOL    HW130146   1.180   3.109   5.234
 9749SOL    HW230147   1.081   3.102   5.363
 9750SOL     OW30148   5.388   4.852   3.560
 9750SOL    HW130149   5.366   4.923   3.493
 9750SOL    HW230150   5.312   4.844   3.625
 9751SOL     OW30151   1.761   2.238   1.039
 9751SOL    HW130152   1.813   2.318   1.071
 9751SOL    HW230153   1.799   2.205   0.953
 9752SOL     OW30154   4.462   0.483   6.286
 9752SOL    HW130155   4.426   0.576   6.275
 9752SOL    HW230156   4.496   0.450   6.198
 9753SOL     OW30157   6.613   6.360   4.713
 9753SOL    HW130158   6.591   6.394   4.804
 9753SOL    HW230159   6.657   6.271   4.720
 9754SOL     OW30160   1.372   1.533   0.109
 9754SOL    HW130161   1.431   1.457   0.083
 9754SOL    HW230162   1.291   1.534   0.050
 9755SOL     OW30163   4.141   3.408   4.907
 9755SOL    HW130164   4.234   3.407   4.870
 9755SOL    HW230165   4.088   3.334   4.864
 9756SOL     OW30166   5.928   2.972   6.952
 9756SOL    HW130167   5.833   2.943   6.960
 9756SOL    HW230168   5.988   2.900   6.987
 9757SOL     OW30169   5.094   3.194   3.396
 9757SOL    HW130170   5.089   3.160   3.490
 9757SOL    HW230171   5.002   3.214   3.363
 9758SOL     OW30172   2.003   0.150   6.019
 9758SOL    HW130173   2.031   0.246   6.024
 9758SOL    HW230174   1.985   0.126   5.924
 9759SOL     OW30175   1.608   6.460   1.471
 9759SOL    HW130176   1.611   6.450   1.372
 9759SOL    HW230177   1.649   6.547   1.498
 9760SOL     OW30178   5.167   4.778   4.508
 9760SOL    HW130179   5.222   4.793   4.591
 9760SOL    HW230180   5.141   4.867   4.470
 9761SOL     OW30181   5.794   4.914   1.607
 9761SOL    HW130182   5.812   4.842   1.539
 9761SOL    HW230183   5.718   4.886   1.665
 9762SOL     OW30184   1.978   1.972   4.687
 9762SOL    HW130185   2.002   1.891   4.741
 9762SOL    HW230186   1.903   1.950   4.626
 9763SOL     OW30187   4.476   1.142   1.615
 9763SOL    HW130188   4.497   1.153   1.713
 9763SOL    HW230189   4.384   1.105   1.604
 9764SOL     OW30190   1.454   2.417   3.462
 9764SOL    HW130191   1.431   2.496   3.405
 9764SOL    HW230192   1.516   2.445   3.535
 9765SOL     OW30193   6.525   2.136   5.271
 9765SOL    HW130194   6.579   2.082   5.335
 9765SOL    HW230195   6.584   2.168   5.197
 9766SOL     OW30196   3.395   0.739   3.487
 9766SOL    HW130197   3.488   0.703   3.478
 9766SOL    HW230198   3.358   0.759   3.396
 9767SOL     OW30199   5.208   1.038   5.216
 9767SOL    HW130200   5.281   0.985   5.260
 9767SOL    HW230201   5.138   1.062   5.283
 9768SOL     OW30202   4.673   2.162   2.581
 9768SOL    HW130203   4.713   2.228   2.518
 9768SOL    HW230204   4.619   2.210   2.650
 9769SOL     OW30205   1.473   2.458   1.206
 9769SOL    HW130206   1.480   2.493   1.299
 9769SOL    HW230207   1.377   2.461   1.177
 9770SOL     OW30208   5.749   5.394   5.635
 9770SOL    HW130209   5.744   5.432   5.542
 9770SOL    HW230210   5.657   5.380   5.670
 9771SOL     OW30211   4.663   4.777   0.857
 9771SOL    HW130212   4.589   4.750   0.919
 9771SOL    HW230213   4.709   4.858   0.894
 9772SOL     OW30214   0.187   6.713   1.894
 9772SOL    HW130215   0.171   6.784   1.825
 9772SOL    HW230216   0.202   6.626   1.848
 9773SOL     OW30217   5.475   5.501   3.895
 9773SOL    HW130218   5.448   5.479   3.988
 9773SOL    HW230219   5.423   5.580   3.862
 9774SOL     OW30220   5.964   5.335   3.632
 9774SOL    HW130221   5.869   5.364   3.647
 9774SOL    HW230222   5.994   5.362   3.541
 9775SOL     OW30223   2.064   2.734   4.715
 9775SOL    HW130224   2.049   2.637   4.697
 9775SOL    HW230225   2.021   2.788   4.643
 9776SOL     OW30226   6.956   6.074   4.274
 9776SOL    HW130227   6.869   6.063   4.321
 9776SOL    HW230228   6.970   5.998   4.210
 9777SOL     OW30229   5.958   4.439   6.016
 9777SOL    HW130230   6.003   4.431   5.927
 9777SOL    HW230231   5.979   4.528   6.056
 9778SOL     OW30232   4.595   6.839   3.054
 9778SOL    HW130233   4.519   6.857   3.117
 9778SOL    HW230234   4.668   6.905   3.071
 9779SOL     OW30235   2.562   1.527   4.956
 9779SOL    HW130236   2.618   1.583   4.895
 9779SOL    HW230237   2.524   1.584   5.029
 9780SOL     OW30238   2.252   3.161   0.522
 9780SOL    HW130239   2.276   3.206   0.608
 9780SOL    HW230240   2.302   3.074   0.515
 9781SOL     OW30241   1.979   4.683   4.670
 9781SOL    HW130242   2.055   4.622   4.694
 9781SOL    HW230243   1.895   4.630   4.660
 9782SOL     OW30244   6.646   0.467   1.500
 9782SOL    HW130245   6.640   0.468   1.599
 9782SOL    HW230246   6.571   0.521   1.461
 9783SOL     OW30247   5.869   1.491   1.945
 9783SOL    HW130248   5.859   1.549   1.864
 9783SOL    HW230249   5.793   1.507   2.008
 9784SOL     OW30250   4.203   1.257   3.183
 9784SOL    HW130251   4.120   1.247   3.129
 9784SOL    HW230252   4.181   1.303   3.269
 9785SOL     OW30253   0.058   2.666   2.837
 9785SOL    HW130254   0.004   2.633   2.916
 9785SOL    HW230255   0.123   2.735   2.867
 9786SOL     OW30256   2.413   5.265   5.876
 9786SOL    HW130257   2.346   5.192   5.867
 9786SOL    HW230258   2.372   5.344   5.923
 9787SOL     OW30259   4.959   3.950   1.721
 9787SOL    HW130260   4.892   3.943   1.648
 9787SOL    HW230261   4.915   3.983   1.804
 9788SOL     OW30262   0.326   0.060   4.359
 9788SOL    HW130263   0.346   7.017   4.287
 9788SOL    HW230264   0.306   0.149   4.318
 9789SOL     OW30265   2.256   5.703   5.546
 9789SOL    HW130266   2.315   5.725   5.469
 9789SOL    HW230267   2.286   5.754   5.627
 9790SOL     OW30268   5.487   1.892   3.987
 9790SOL    HW130269   5.444   1.943   4.061
 9790SOL    HW230270   5.551   1.825   4.025
 9791SOL     OW30271   1.801   1.138   0.852
 9791SOL    HW130272   1.897   1.110   0.849
 9791SOL    HW230273   1.750   1.090   0.781
 9792SOL     OW30274   4.633   4.760   1.156
 9792SOL    HW130275   4.584   4.832   1.205
 9792SOL    HW230276   4.710   4.729   1.211
 9793SOL     OW30277   5.988   6.171   2.650
 9793SOL    HW130278   6.014   6.242   2.715
 9793SOL    HW230279   5.981   6.209   2.558
 9794SOL     OW30280   5.243   3.102   5.788
 9794SOL    HW130281   5.244   3.057   5.877
 9794SOL    HW230282   5.181   3.181   5.791
 9795SOL     OW30283   1.458   3.560   4.441
 9795SOL    HW130284   1.501   3.633   4.388
 9795SOL    HW230285   1.524   3.522   4.505
 9796SOL     OW30286   2.860   5.181   0.823
 9796SOL    HW130287   2.827   5.163   0.730
 9796SOL    HW230288   2.936   5.121   0.844
 9797SOL     OW30289   4.198   3.653   6.367
 9797SOL    HW130290   4.118   3.609   6.410
 9797SOL    HW230291   4.279   3.638   6.423
 9798SOL     OW30292   3.176   0.635   1.325
 9798SOL    HW130293   3.120   0.567   1.372
 9798SOL    HW230294   3.256   0.656   1.381
 9799SOL     OW30295   3.139   3.026   2.537
 9799SOL    HW130296   3.217   3.002   2.479
 9799SOL    HW230297   3.139   2.966   2.618
 9800SOL     OW30298   4.357   5.727   6.688
 9800SOL    HW130299   4.407   5.766   6.611
 9800SOL    HW230300   4.298   5.797   6.728
 9801SOL     OW30301   4.326   5.845   0.049
 9801SOL    HW130302   4.413   5.832   0.001
 9801SOL    HW230303   4.331   5.926   0.108
 9802SOL     OW30304   0.783   3.345   0.949
 9802SOL    HW130305   0.842   3.385   0.879
 9802SOL    HW230306   0.821   3.258   0.980
 9803SOL     OW30307   6.513   0.163   6.759
 9803SOL    HW130308   6.573   0.162   6.839
 9803SOL    HW230309   6.418   0.168   6.788
 9804SOL     OW30310   0.084   5.585   4.071
 9804SOL    HW130311   0.041   5.497   4.049
 9804SOL    HW230312   0.173   5.568   4.114
 9805SOL     OW30313   1.276   5.343   6.879
 9805SOL    HW130314   1.294   5.441   6.871
 9805SOL    HW230315   1.300   5.297   6.793
 9806SOL     OW30316   0.297   2.803   1.548
 9806SOL    HW130317   0.246   2.737   1.603
 9806SOL    HW230318   0.349   2.864   1.608
 9807SOL     OW30319   4.306   2.010   0.356
 9807SOL    HW130320   4.260   1.941   0.412
 9807SOL    HW230321   4.304   2.098   0.404
 9808SOL     OW30322   6.751   1.836   4.907
 9808SOL    HW130323   6.848   1.816   4.920
 9808SOL    HW230324   6.697   1.782   4.971
 9809SOL     OW30325   0.507   1.511   4.493
 9809SOL    HW130326   0.408   1.501   4.498
 9809SOL    HW230327   0.542   1.533   4.584
 9810SOL     OW30328   2.750   1.760   3.134
 9810SOL    HW130329   2.709   1.671   3.111
 9810SOL    HW230330   2.793   1.799   3.053
 9811SOL     OW30331   6.677   6.204   2.623
 9811SOL    HW130332   6.600   6.266   2.609
 9811SOL    HW230333   6.653   6.112   2.592
 9812SOL     OW30334   4.734   2.148   6.217
 9812SOL    HW130335   4.688   2.059   6.218
 9812SOL    HW230336   4.767   2.167   6.125
 9813SOL     OW30337   6.672   5.201   0.200
 9813SOL    HW130338   6.658   5.175   0.105
 9813SOL    HW230339   6.766   5.178   0.227
 9814SOL     OW30340   6.833   6.600   6.072
 9814SOL    HW130341   6.878   6.593   5.983
 9814SOL    HW230342   6.776   6.682   6.074
 9815SOL     OW30343   6.549   3.777   1.321
 9815SOL    HW130344   6.607   3.750   1.398
 9815SOL    HW230345   6.459   3.735   1.330
 9816SOL     OW30346   6.672   0.265   6.992
 9816SOL    HW130347   6.705   0.175   7.021
 9816SOL    HW230348   6.628   0.311   0.046
 9817SOL     OW30349   3.337   5.907   1.234
 9817SOL    HW130350   3.369   5.845   1.162
 9817SOL    HW230351   3.243   5.886   1.257
 9818SOL     OW30352   1.328   0.372   3.496
 9818SOL    HW130353   1.403   0.384   3.562
 9818SOL    HW230354   1.247   0.420   3.530
 9819SOL     OW30355   6.320   3.978   4.934
 9819SOL    HW130356   6.251   3.991   5.005
 9819SOL    HW230357   6.283   4.006   4.845
 9820SOL     OW30358   3.113   2.209   6.272
 9820SOL    HW130359   3.211   2.195   6.259
 9820SOL    HW230360   3.094   2.307   6.285
 9821SOL     OW30361   4.940   2.489   1.578
 9821SOL    HW130362   4.857   2.534   1.545
 9821SOL    HW230363   5.010   2.558   1.599
 9822SOL     OW30364   4.056   5.848   4.931
 9822SOL    HW130365   3.981   5.822   4.992
 9822SOL    HW230366   4.029   5.832   4.836
 9823SOL     OW30367   1.921   0.817   2.954
 9823SOL    HW130368   1.912   0.750   2.880
 9823SOL    HW230369   1.950   0.770   3.038
 9824SOL     OW30370   1.334   6.065   5.574
 9824SOL    HW130371   1.381   6.117   5.646
 9824SOL    HW230372   1.292   5.984   5.615
 9825SOL     OW30373   5.167   6.281   6.175
 9825SOL    HW130374   5.072   6.309   6.185
 9825SOL    HW230375   5.225   6.363   6.170
 9826SOL     OW30376   2.956   6.440   5.507
 9826SOL    HW130377   3.037   6.467   5.455
 9826SOL    HW230378   2.874   6.465   5.457
 9827SOL     OW30379   1.813   5.188   2.080
 9827SOL    HW130380   1.738   5.126   2.060
 9827SOL    HW230381   1.821   5.255   2.006
 9828SOL     OW30382   3.608   1.860   5.175
 9828SOL    HW130383   3.521   1.815   5.152
 9828SOL    HW230384   3.643   1.823   5.261
 9829SOL     OW30385   4.199   5.356   5.909
 9829SOL    HW130386   4.155   5.374   5.821
 9829SOL    HW230387   4.255   5.274   5.902
 9830SOL     OW30388   5.774   1.988   2.713
 9830SOL    HW130389   5.705   1.992   2.640
 9830SOL    HW230390   5.829   1.906   2.703
 9831SOL     OW30391   0.747   3.972   1.879
 9831SOL    HW130392   0.775   3.893   1.826
 9831SOL    HW230393   0.737   3.946   1.975
 9832SOL     OW30394   4.782   4.246   4.466
 9832SOL    HW130395   4.858   4.244   4.402
 9832SOL    HW230396   4.760   4.152   4.494
 9833SOL     OW30397   3.648   3.837   4.324
 9833SOL    HW130398   3.577   3.847   4.394
 9833SOL    HW230399   3.737   3.859   4.363
 9834SOL     OW30400   2.500   5.495   5.386
 9834SOL    HW130401   2.498   5.441   5.470
 9834SOL    HW230402   2.544   5.583   5.405
 9835SOL     OW30403   3.883   4.088   4.951
 9835SOL    HW130404   3.944   4.013   4.925
 9835SOL    HW230405   3.834   4.121   4.870
 9836SOL     OW30406   0.707   3.327   5.660
 9836SOL    HW130407   0.779   3.364   5.601
 9836SOL    HW230408   0.625   3.311   5.606
 9837SOL     OW30409   4.976   2.208   1.750
 9837SOL    HW130410   5.039   2.283   1.727
 9837SOL    HW230411   4.904   2.203   1.682
 9838SOL     OW30412   0.682   6.419   1.634
 9838SOL    HW130413   0.774   6.384   1.618
 9838SOL    HW230414   0.682   6.519   1.627
 9839SOL     OW30415   4.298   0.745   2.509
 9839SOL    HW130416   4.307   0.749   2.409
 9839SOL    HW230417   4.209   0.708   2.533
 9840SOL     OW30418   5.846   1.800   6.713
 9840SOL    HW130419   5.820   1.861   6.638
 9840SOL    HW230420   5.777   1.727   6.721
 9841SOL     OW30421   0.025   6.178   3.523
 9841SOL    HW130422   6.980   6.141   3.586
 9841SOL    HW230423   0.085   6.241   3.572
 9842SOL     OW30424   2.596   2.311   6.568
 9842SOL    HW130425   2.554   2.288   6.481
 9842SOL    HW230426   2.560   2.399   6.600
 9843SOL     OW30427   0.015   6.809   0.987
 9843SOL    HW130428   0.044   6.713   0.991
 9843SOL    HW230429   0.061   6.854   0.910
 9844SOL     OW30430   4.735   6.960   4.184
 9844SOL    HW130431   4.686   6.900   4.246
 9844SOL    HW230432   4.801   6.906   4.131
 9845SOL     OW30433   1.751   3.179   1.764
 9845SOL    HW130434   1.816   3.218   1.698
 9845SOL    HW230435   1.673   3.241   1.775
 9846SOL     OW30436   5.276   1.134   1.269
 9846SOL    HW130437   5.269   1.098   1.362
 9846SOL    HW230438   5.203   1.201   1.254
 9847SOL     OW30439   4.144   4.104   0.707
 9847SOL    HW130440   4.105   4.079   0.796
 9847SOL    HW230441   4.204   4.183   0.718
 9848SOL     OW30442   3.895   3.861   5.285
 9848SOL    HW130443   3.873   3.948   5.240
 9848SOL    HW230444   3.810   3.809   5.300
 9849SOL     OW30445   0.683   1.779   5.564
 9849SOL    HW130446   0.674   1.825   5.476
 9849SOL    HW230447   0.708   1.846   5.634
 9850SOL     OW30448   0.588   0.597   4.595
 9850SOL    HW130449   0.513   0.647   4.640
 9850SOL    HW230450   0.624   0.529   4.658
 9851SOL     OW30451   3.843   4.876   4.557
 9851SOL    HW130452   3.800   4.788   4.535
 9851SOL    HW230453   3.939   4.860   4.582
 9852SOL     OW30454   2.183   1.895   6.851
 9852SOL    HW130455   2.164   1.866   6.945
 9852SOL    HW230456   2.261   1.844   6.815
 9853SOL     OW30457   6.953   4.331   3.976
 9853SOL    HW130458   6.864   4.288   3.991
 9853SOL    HW230459   7.001   4.337   4.064
 9854SOL     OW30460   1.038   5.359   6.175
 9854SOL    HW130461   0.975   5.355   6.252
 9854SOL    HW230462   1.014   5.438   6.117
 9855SOL     OW30463   2.032   3.869   1.747
 9855SOL    HW130464   2.006   3.966   1.747
 9855SOL    HW230465   2.123   3.860   1.788
 9856SOL     OW30466   5.855   3.985   3.128
 9856SOL    HW130467   5.896   3.979   3.037
 9856SOL    HW230468   5.906   3.927   3.192
 9857SOL     OW30469   4.088   1.667   4.257
 9857SOL    HW130470   4.044   1.742   4.306
 9857SOL    HW230471   4.161   1.628   4.314
 9858SOL     OW30472   6.436   6.372   2.623
 9858SOL    HW130473   6.469   6.424   2.545
 9858SOL    HW230474   6.363   6.423   2.669
 9859SOL     OW30475   0.138   5.720   3.810
 9859SOL    HW130476   0.122   5.651   3.881
 9859SOL    HW230477   0.222   5.698   3.760
 9860SOL     OW30478   1.593   3.234   5.009
 9860SOL    HW130479   1.599   3.134   5.016
 9860SOL    HW230480   1.624   3.275   5.094
 9861SOL     OW30481   3.825   1.229   4.154
 9861SOL    HW130482   3.875   1.308   4.119
 9861SOL    HW230483   3.745   1.212   4.096
 9862SOL     OW30484   1.066   5.663   0.570
 9862SOL    HW130485   1.019   5.576   0.585
 9862SOL    HW230486   1.132   5.678   0.644
 9863SOL     OW30487   4.319   6.261   0.807
 9863SOL    HW130488   4.233   6.225   0.843
 9863SOL    HW230489   4.389   6.189   0.812
 9864SOL     OW30490   2.877   6.100   4.891
 9864SOL    HW130491   2.952   6.073   4.830
 9864SOL    HW230492   2.819   6.168   4.844
 9865SOL     OW30493   0.585   6.316   5.592
 9865SOL    HW130494   0.554   6.410   5.597
 9865SOL    HW230495   0.684   6.312   5.606
 9866SOL     OW30496   6.324   5.305   4.404
 9866SOL    HW130497   6.383   5.244   4.351
 9866SOL    HW230498   6.346   5.296   4.501
 9867SOL     OW30499   4.669   2.309   1.537
 9867SOL    HW130500   4.637   2.393   1.493
 9867SOL    HW230501   4.756   2.281   1.496
 9868SOL     OW30502   1.586   4.373   3.622
 9868SOL    HW130503   1.564   4.380   3.525
 9868SOL    HW230504   1.591   4.465   3.662
 9869SOL     OW30505   0.013   2.486   0.780
 9869SOL    HW130506   0.065   2.567   0.755
 9869SOL    HW230507   6.938   2.504   0.770
 9870SOL     OW30508   3.122   1.269   2.329
 9870SOL    HW130509   3.128   1.357   2.283
 9870SOL    HW230510   3.095   1.199   2.263
 9871SOL     OW30511   0.081   3.963   4.541
 9871SOL    HW130512   0.072   3.960   4.441
 9871SOL    HW230513   0.154   4.027   4.566
 9872SOL     OW30514   1.687   5.225   5.505
 9872SOL    HW130515   1.653   5.143   5.459
 9872SOL    HW230516   1.784   5.214   5.525
 9873SOL     OW30517   1.937   1.442   5.627
 9873SOL    HW130518   1.916   1.407   5.718
 9873SOL    HW230519   1.854   1.441   5.570
 9874SOL     OW30520   0.241   2.949   4.599
 9874SOL    HW130521   0.168   2.955   4.667
 9874SOL    HW230522   0.327   2.980   4.639
 9875SOL     OW30523   6.786   5.710   0.643
 9875SOL    HW130524   6.810   5.615   0.663
 9875SOL    HW230525   6.715   5.713   0.573
 9876SOL     OW30526   2.283   6.710   3.525
 9876SOL    HW130527   2.325   6.775   3.461
 9876SOL    HW230528   2.354   6.669   3.582
 9877SOL     OW30529   0.467   5.565   5.109
 9877SOL    HW130530   0.492   5.566   5.012
 9877SOL    HW230531   0.533   5.510   5.160
 9878SOL     OW30532   2.255   3.033   0.054
 9878SOL    HW130533   2.205   3.053   0.138
 9878SOL    HW230534   2.220   3.091   7.003
 9879SOL     OW30535   0.415   5.062   6.383
 9879SOL    HW130536   0.353   5.128   6.426
 9879SOL    HW230537   0.365   4.977   6.366
 9880SOL     OW30538   2.821   1.710   0.556
 9880SOL    HW130539   2.781   1.795   0.520
 9880SOL    HW230540   2.764   1.675   0.630
 9881SOL     OW30541   5.659   0.123   4.531
 9881SOL    HW130542   5.695   0.170   4.612
 9881SOL    HW230543   5.682   0.175   4.449
 9882SOL     OW30544   4.162   3.429   4.606
 9882SOL    HW130545   4.093   3.391   4.667
 9882SOL    HW230546   4.180   3.365   4.531
 9883SOL     OW30547   2.225   0.075   1.079
 9883SOL    HW130548   2.194   0.076   1.174
 9883SOL    HW230549   2.323   0.098   1.075
 9884SOL     OW30550   2.274   3.935   6.254
 9884SOL    HW130551   2.231   3.932   6.344
 9884SOL    HW230552   2.271   3.843   6.214
 9885SOL     OW30553   6.327   3.577   4.523
 9885SOL    HW130554   6.355   3.670   4.497
 9885SOL    HW230555   6.392   3.511   4.487
 9886SOL     OW30556   4.688   6.119   1.057
 9886SOL    HW130557   4.713   6.054   0.986
 9886SOL    HW230558   4.770   6.153   1.102
 9887SOL     OW30559   3.608   0.208   0.122
 9887SOL    HW130560   3.686   0.260   0.087
 9887SOL    HW230561   3.641   0.125   0.168
 9888SOL     OW30562   5.888   4.824   2.496
 9888SOL    HW130563   5.931   4.914   2.492
 9888SOL    HW230564   5.944   4.758   2.447
 9889SOL     OW30565   0.056   5.150   3.536
 9889SOL    HW130566   6.990   5.116   3.566
 9889SOL    HW230567   0.076   5.237   3.581
 9890SOL     OW30568   6.781   4.095   1.919
 9890SOL    HW130569   6.788   4.192   1.894
 9890SOL    HW230570   6.729   4.047   1.849
 9891SOL     OW30571   5.974   4.874   0.754
 9891SOL    HW130572   5.960   4.848   0.658
 9891SOL    HW230573   6.055   4.826   0.789
 9892SOL     OW30574   2.263   5.518   4.281
 9892SOL    HW130575   2.344   5.501   4.337
 9892SOL    HW230576   2.280   5.486   4.187
 9893SOL     OW30577   5.514   4.976   3.339
 9893SOL    HW130578   5.483   4.942   3.250
 9893SOL    HW230579   5.550   4.901   3.393
 9894SOL     OW30580   3.825   3.169   6.180
 9894SOL    HW130581   3.808   3.078   6.143
 9894SOL    HW230582   3.923   3.179   6.199
 9895SOL     OW30583   5.242   2.366   6.943
 9895SOL    HW130584   5.280   2.422   7.016
 9895SOL    HW230585   5.213   2.425   6.867
 9896SOL     OW30586   4.232   4.374   0.800
 9896SOL    HW130587   4.276   4.384   0.711
 9896SOL    HW230588   4.245   4.458   0.853
 9897SOL     OW30589   5.959   2.079   2.922
 9897SOL    HW130590   5.973   2.177   2.903
 9897SOL    HW230591   5.938   2.031   2.836
 9898SOL     OW30592   1.340   5.552   5.601
 9898SOL    HW130593   1.387   5.471   5.635
 9898SOL    HW230594   1.249   5.527   5.567
 9899SOL     OW30595   5.067   5.181   2.293
 9899SOL    HW130596   5.056   5.130   2.208
 9899SOL    HW230597   4.998   5.152   2.359
 9900SOL     OW30598   1.234   2.656   4.295
 9900SOL    HW130599   1.153   2.710   4.319
 9900SOL    HW230600   1.299   2.714   4.246
 9901SOL     OW30601   2.874   2.941   5.865
 9901SOL    HW130602   2.934   2.873   5.824
 9901SOL    HW230603   2.909   3.033   5.846
 9902SOL     OW30604   3.899   3.288   0.097
 9902SOL    HW130605   3.955   3.330   0.169
 9902SOL    HW230606   3.828   3.231   0.138
 9903SOL     OW30607   4.417   2.251   1.703
 9903SOL    HW130608   4.481   2.182   1.737
 9903SOL    HW230609   4.438   2.340   1.745
 9904SOL     OW30610   6.362   1.474   1.232
 9904SOL    HW130611   6.280   1.421   1.208
 9904SOL    HW230612   6.438   1.447   1.174
 9905SOL     OW30613   1.214   0.319   5.808
 9905SOL    HW130614   1.255   0.385   5.870
 9905SOL    HW230615   1.203   0.231   5.854
 9906SOL     OW30616   2.639   3.245   6.545
 9906SOL    HW130617   2.551   3.211   6.581
 9906SOL    HW230618   2.710   3.231   6.613
 9907SOL     OW30619   2.630   6.222   2.381
 9907SOL    HW130620   2.626   6.185   2.289
 9907SOL    HW230621   2.726   6.227   2.410
 9908SOL     OW30622   1.373   3.772   6.127
 9908SOL    HW130623   1.321   3.856   6.116
 9908SOL    HW230624   1.407   3.742   6.038
 9909SOL     OW30625   3.116   0.891   2.927
 9909SOL    HW130626   3.016   0.894   2.936
 9909SOL    HW230627   3.141   0.826   2.856
 9910SOL     OW30628   6.542   3.832   0.596
 9910SOL    HW130629   6.580   3.821   0.688
 9910SOL    HW230630   6.467   3.766   0.584
 9911SOL     OW30631   3.341   4.927   3.361
 9911SOL    HW130632   3.335   4.895   3.455
 9911SOL    HW230633   3.249   4.932   3.322
 9912SOL     OW30634   4.906   0.227   1.246
 9912SOL    HW130635   4.845   0.237   1.168
 9912SOL    HW230636   4.889   0.140   1.291
 9913SOL     OW30637   4.805   2.235   2.889
 9913SOL    HW130638   4.890   2.196   2.853
 9913SOL    HW230639   4.809   2.335   2.881
 9914SOL     OW30640   1.085   0.537   4.876
 9914SOL    HW130641   1.044   0.541   4.785
 9914SOL    HW230642   1.124   0.446   4.890
 9915SOL     OW30643   5.157   3.416   3.900
 9915SOL    HW130644   5.119   3.502   3.933
 9915SOL    HW230645   5.087   3.345   3.902
 9916SOL     OW30646   2.461   2.599   2.527
 9916SOL    HW130647   2.502   2.580   2.437
 9916SOL    HW230648   2.531   2.588   2.598
 9917SOL     OW30649   2.873   3.696   5.787
 9917SOL    HW130650   2.886   3.795   5.785
 9917SOL    HW230651   2.930   3.654   5.716
 9918SOL     OW30652   2.081   1.633   5.765
 9918SOL    HW130653   2.040   1.568   5.701
 9918SOL    HW230654   2.176   1.651   5.739
 9919SOL     OW30655   0.681   5.405   3.048
 9919SOL    HW130656   0.766   5.439   3.009
 9919SOL    HW230657   0.654   5.462   3.126
 9920SOL     OW30658   4.233   6.358   1.450
 9920SOL    HW130659   4.157   6.400   1.500
 9920SOL    HW230660   4.320   6.396   1.481
 9921SOL     OW30661   5.972   0.523   3.024
 9921SOL    HW130662   6.069   0.546   3.029
 9921SOL    HW230663   5.931   0.532   3.115
 9922SOL     OW30664   4.314   4.858   0.607
 9922SOL    HW130665   4.342   4.763   0.595
 9922SOL    HW230666   4.371   4.900   0.678
 9923SOL     OW30667   6.476   2.209   6.021
 9923SOL    HW130668   6.386   2.209   6.064
 9923SOL    HW230669   6.546   2.184   6.089
 9924SOL     OW30670   6.654   1.172   2.935
 9924SOL    HW130671   6.586   1.184   3.007
 9924SOL    HW230672   6.615   1.115   2.862
 9925SOL     OW30673   2.659   2.596   5.482
 9925SOL    HW130674   2.669   2.682   5.533
 9925SOL    HW230675   2.621   2.615   5.391
 9926SOL     OW30676   1.101   1.036   0.501
 9926SOL    HW130677   1.137   1.128   0.509
 9926SOL    HW230678   1.132   0.994   0.416
 9927SOL     OW30679   0.515   1.633   2.199
 9927SOL    HW130680   0.436   1.581   2.169
 9927SOL    HW230681   0.563   1.584   2.272
 9928SOL     OW30682   0.220   3.938   2.251
 9928SOL    HW130683   0.161   3.968   2.326
 9928SOL    HW230684   0.316   3.955   2.275
 9929SOL     OW30685   2.524   4.157   0.347
 9929SOL    HW130686   2.443   4.138   0.402
 9929SOL    HW230687   2.605   4.125   0.396
 9930SOL     OW30688   0.059   6.456   6.457
 9930SOL    HW130689   0.055   6.382   6.390
 9930SOL    HW230690   0.049   6.544   6.410
 9931SOL     OW30691   1.524   6.106   5.840
 9931SOL    HW130692   1.595   6.056   5.791
 9931SOL    HW230693   1.463   6.041   5.885
 9932SOL     OW30694   1.167   1.709   0.418
 9932SOL    HW130695   1.213   1.765   0.487
 9932SOL    HW230696   1.149   1.764   0.337
 9933SOL     OW30697   2.095   1.668   3.601
 9933SOL    HW130698   2.194   1.652   3.606
 9933SOL    HW230699   2.057   1.670   3.693
 9934SOL     OW30700   4.035   1.288   5.977
 9934SOL    HW130701   4.004   1.195   6.001
 9934SOL    HW230702   4.096   1.283   5.899
 9935SOL     OW30703   2.981   1.751   0.924
 9935SOL    HW130704   2.964   1.841   0.965
 9935SOL    HW230705   3.076   1.724   0.942
 9936SOL     OW30706   5.987   5.875   5.498
 9936SOL    HW130707   5.896   5.915   5.484
 9936SOL    HW230708   5.979   5.795   5.557
 9937SOL     OW30709   0.601   6.961   3.334
 9937SOL    HW130710   0.632   0.029   3.361
 9937SOL    HW230711   0.651   6.892   3.386
 9938SOL     OW30712   6.646   1.248   4.069
 9938SOL    HW130713   6.732   1.296   4.086
 9938SOL    HW230714   6.572   1.314   4.059
 9939SOL     OW30715   2.554   4.499   1.443
 9939SOL    HW130716   2.607   4.453   1.372
 9939SOL    HW230717   2.593   4.478   1.533
 9940SOL     OW30718   0.558   0.685   3.234
 9940SOL    HW130719   0.559   0.774   3.280
 9940SOL    HW230720   0.471   0.639   3.254
 9941SOL     OW30721   5.164   4.992   6.429
 9941SOL    HW130722   5.157   5.019   6.333
 9941SOL    HW230723   5.236   5.045   6.473
 9942SOL     OW30724   4.824   4.997   3.464
 9942SOL    HW130725   4.854   4.966   3.373
 9942SOL    HW230726   4.782   5.088   3.456
 9943SOL     OW30727   2.384   4.113   6.873
 9943SOL    HW130728   2.307   4.177   6.881
 9943SOL    HW230729   2.402   4.073   6.963
 9944SOL     OW30730   0.979   4.740   0.592
 9944SOL    HW130731   1.001   4.836   0.608
 9944SOL    HW230732   1.057   4.696   0.546
 9945SOL     OW30733   5.437   3.542   6.562
 9945SOL    HW130734   5.531   3.563   6.590
 9945SOL    HW230735   5.439   3.478   6.485
 9946SOL     OW30736   5.408   1.469   2.539
 9946SOL    HW130737   5.316   1.441   2.566
 9946SOL    HW230738   5.414   1.473   2.439
 9947SOL     OW30739   1.599   1.481   3.823
 9947SOL    HW130740   1.588   1.581   3.823
 9947SOL    HW230741   1.513   1.439   3.853
 9948SOL     OW30742   6.222   0.172   4.061
 9948SOL    HW130743   6.125   0.160   4.081
 9948SOL    HW230744   6.270   0.199   4.145
 9949SOL     OW30745   6.249   4.854   4.342
 9949SOL    HW130746   6.197   4.795   4.280
 9949SOL    HW230747   6.275   4.802   4.423
 9950SOL     OW30748   6.276   4.634   5.520
 9950SOL    HW130749   6.214   4.712   5.534
 9950SOL    HW230750   6.240   4.555   5.569
 9951SOL     OW30751   0.537   2.115   2.011
 9951SOL    HW130752   0.487   2.055   1.948
 9951SOL    HW230753   0.582   2.059   2.081
 9952SOL     OW30754   0.858   4.237   1.919
 9952SOL    HW130755   0.818   4.156   1.877
 9952SOL    HW230756   0.833   4.241   2.016
 9953SOL     OW30757   5.819   2.233   3.370
 9953SOL    HW130758   5.902   2.199   3.414
 9953SOL    HW230759   5.835   2.326   3.336
 9954SOL     OW30760   2.989   2.146   6.002
 9954SOL    HW130761   3.027   2.170   6.091
 9954SOL    HW230762   2.895   2.114   6.013
 9955SOL     OW30763   5.855   3.177   0.346
 9955SOL    HW130764   5.789   3.110   0.381
 9955SOL    HW230765   5.943   3.132   0.331
 9956SOL     OW30766   2.040   3.744   3.374
 9956SOL    HW130767   2.021   3.771   3.468
 9956SOL    HW230768   2.021   3.646   3.363
 9957SOL     OW30769   5.325   6.640   1.169
 9957SOL    HW130770   5.270   6.622   1.251
 9957SOL    HW230771   5.419   6.661   1.196
 9958SOL     OW30772   4.942   4.582   0.172
 9958SOL    HW130773   4.859   4.543   0.213
 9958SOL    HW230774   4.984   4.644   0.237
 9959SOL     OW30775   4.542   4.600   0.624
 9959SOL    HW130776   4.585   4.649   0.548
 9959SOL    HW230777   4.583   4.629   0.710
 9960SOL     OW30778   0.045   0.154   6.637
 9960SOL    HW130779   7.014   0.177   6.556
 9960SOL    HW230780   0.080   0.061   6.629
 9961SOL     OW30781   2.639   5.186   1.892
 9961SOL    HW130782   2.579   5.169   1.970
 9961SOL    HW230783   2.732   5.156   1.914
 9962SOL     OW30784   3.166   6.238   1.938
 9962SOL    HW130785   3.126   6.211   2.025
 9962SOL    HW230786   3.211   6.160   1.896
 9963SOL     OW30787   1.487   1.495   6.338
 9963SOL    HW130788   1.515   1.517   6.432
 9963SOL    HW230789   1.411   1.554   6.311
 9964SOL     OW30790   4.667   3.897   5.504
 9964SOL    HW130791   4.629   3.990   5.499
 9964SOL    HW230792   4.657   3.861   5.596
 9965SOL     OW30793   3.045   5.444   4.490
 9965SOL    HW130794   3.094   5.357   4.494
 9965SOL    HW230795   2.951   5.429   4.459
 9966SOL     OW30796   3.709   4.944   2.414
 9966SOL    HW130797   3.622   4.898   2.430
 9966SOL    HW230798   3.745   4.980   2.500
 9967SOL     OW30799   6.235   6.976   3.262
 9967SOL    HW130800   6.246   7.018   3.171
 9967SOL    HW230801   6.251   6.878   3.255
 9968SOL     OW30802   3.692   6.483   0.964
 9968SOL    HW130803   3.678   6.395   0.918
 9968SOL    HW230804   3.790   6.497   0.980
 9969SOL     OW30805   1.451   5.121   3.446
 9969SOL    HW130806   1.498   5.154   3.529
 9969SOL    HW230807   1.362   5.165   3.439
 9970SOL     OW30808   6.459   4.146   1.413
 9970SOL    HW130809   6.460   4.169   1.316
 9970SOL    HW230810   6.530   4.196   1.461
 9971SOL     OW30811   0.740   4.310   2.169
 9971SOL    HW130812   0.653   4.361   2.171
 9971SOL    HW230813   0.755   4.268   2.259
 9972SOL     OW30814   3.572   4.016   0.437
 9972SOL    HW130815   3.595   3.919   0.432
 9972SOL    HW230816   3.474   4.027   0.451
 9973SOL     OW30817   3.565   1.819   3.294
 9973SOL    HW130818   3.496   1.796   3.226
 9973SOL    HW230819   3.573   1.744   3.360
 9974SOL     OW30820   0.627   2.611   3.278
 9974SOL    HW130821   0.625   2.634   3.375
 9974SOL    HW230822   0.591   2.687   3.225
 9975SOL     OW30823   1.170   5.075   6.779
 9975SOL    HW130824   1.267   5.061   6.761
 9975SOL    HW230825   1.125   4.987   6.791
 9976SOL     OW30826   2.788   4.569   6.594
 9976SOL    HW130827   2.834   4.488   6.557
 9976SOL    HW230828   2.689   4.559   6.583
 9977SOL     OW30829   4.822   6.117   4.579
 9977SOL    HW130830   4.816   6.083   4.673
 9977SOL    HW230831   4.912   6.095   4.541
 9978SOL     OW30832   0.769   2.809   6.123
 9978SOL    HW130833   0.778   2.726   6.177
 9978SOL    HW230834   0.680   2.851   6.141
 9979SOL     OW30835   4.724   3.229   5.332
 9979SOL    HW130836   4.653   3.299   5.337
 9979SOL    HW230837   4.744   3.196   5.424
 9980SOL     OW30838   1.037   0.512   0.593
 9980SOL    HW130839   1.003   0.421   0.617
 9980SOL    HW230840   1.077   0.555   0.674
 9981SOL     OW30841   0.475   2.372   1.600
 9981SOL    HW130842   0.502   2.276   1.607
 9981SOL    HW230843   0.556   2.429   1.591
 9982SOL     OW30844   2.060   2.010   5.255
 9982SOL    HW130845   2.025   1.971   5.340
 9982SOL    HW230846   2.031   2.106   5.248
 9983SOL     OW30847   0.083   3.213   2.263
 9983SOL    HW130848   7.020   3.258   2.238
 9983SOL    HW230849   0.137   3.196   2.180
 9984SOL     OW30850   6.954   5.844   0.851
 9984SOL    HW130851   6.986   5.930   0.810
 9984SOL    HW230852   6.897   5.795   0.785
 9985SOL     OW30853   4.375   5.473   0.714
 9985SOL    HW130854   4.415   5.558   0.749
 9985SOL    HW230855   4.277   5.486   0.698
 9986SOL     OW30856   5.112   4.232   0.136
 9986SOL    HW130857   5.077   4.206   0.046
 9986SOL    HW230858   5.101   4.330   0.149
 9987SOL     OW30859   5.635   2.896   1.832
 9987SOL    HW130860   5.594   2.839   1.903
 9987SOL    HW230861   5.648   2.989   1.869
 9988SOL     OW30862   5.212   6.216   4.670
 9988SOL    HW130863   5.180   6.250   4.758
 9988SOL    HW230864   5.288   6.273   4.639
 9989SOL     OW30865   6.316   5.558   2.175
 9989SOL    HW130866   6.393   5.500   2.200
 9989SOL    HW230867   6.269   5.518   2.095
 9990SOL     OW30868   0.289   0.021   3.587
 9990SOL    HW130869   0.316   6.970   3.526
 9990SOL    HW230870   0.262   7.007   3.675
 9991SOL     OW30871   1.428   4.309   4.442
 9991SOL    HW130872   1.458   4.362   4.363
 9991SOL    HW230873   1.453   4.357   4.526
 9992SOL     OW30874   3.481   4.184   1.059
 9992SOL    HW130875   3.494   4.146   0.968
 9992SOL    HW230876   3.387   4.216   1.069
 9993SOL     OW30877   3.742   6.955   4.189
 9993SOL    HW130878   3.724   0.016   4.139
 9993SOL    HW230879   3.680   6.883   4.156
 9994SOL     OW30880   6.857   4.799   4.251
 9994SOL    HW130881   6.822   4.705   4.253
 9994SOL    HW230882   6.909   4.817   4.335
 9995SOL     OW30883   2.847   0.672   4.899
 9995SOL    HW130884   2.823   0.626   4.984
 9995SOL    HW230885   2.855   0.771   4.916
 9996SOL     OW30886   1.927   4.437   1.013
 9996SOL    HW130887   1.991   4.465   1.085
 9996SOL    HW230888   1.973   4.373   0.951
 9997SOL     OW30889   6.382   2.348   4.221
 9997SOL    HW130890   6.347   2.310   4.135
 9997SOL    HW230891   6.472   2.311   4.239
 9998SOL     OW30892   4.848   3.834   2.525
 9998SOL    HW130893   4.841   3.852   2.623
 9998SOL    HW230894   4.839   3.736   2.508
 9999SOL     OW30895   6.812   6.791   4.136
 9999SOL    HW130896   6.887   6.813   4.198
 9999SOL    HW230897   6.820   6.849   4.054
10000SOL     OW30898   4.847   2.095   1.957
10000SOL    HW130899   4.780   2.031   1.918
10000SOL    HW230900   4.902   2.134   1.883
10001SOL     OW30901   3.242   6.132   2.324
10001SOL    HW130902   3.342   6.127   2.324
10001SOL    HW230903   3.209   6.112   2.416
10002SOL     OW30904   2.494   0.864   1.533
10002SOL    HW130905   2.455   0.773   1.548
10002SOL    HW230906   2.591   0.863   1.556
10003SOL     OW30907   1.889   1.305   3.297
10003SOL    HW130908   1.888   1.312   3.396
10003SOL    HW230909   1.975   1.343   3.261
10004SOL     OW30910   5.489   4.340   4.812
10004SOL    HW130911   5.537   4.424   4.838
10004SOL    HW230912   5.534   4.261   4.854
10005SOL     OW30913   2.369   5.851   3.325
10005SOL    HW130914   2.283   5.902   3.325
10005SOL    HW230915   2.353   5.758   3.292
10006SOL     OW30916   5.406   0.908   5.358
10006SOL    HW130917   5.338   0.834   5.352
10006SOL    HW230918   5.491   0.878   5.315
10007SOL     OW30919   1.005   4.494   4.849
10007SOL    HW130920   1.099   4.525   4.856
10007SOL    HW230921   0.988   4.423   4.918
10008SOL     OW30922   3.803   1.901   4.730
10008SOL    HW130923   3.885   1.848   4.710
10008SOL    HW230924   3.745   1.905   4.649
10009SOL     OW30925   1.480   4.362   1.698
10009SOL    HW130926   1.417   4.285   1.709
10009SOL    HW230927   1.433   4.446   1.724
10010SOL     OW30928   2.377   4.882   6.949
10010SOL    HW130929   2.457   4.838   6.909
10010SOL    HW230930   2.295   4.852   6.900
10011SOL     OW30931   0.693   3.536   0.021
10011SOL    HW130932   0.708   3.531   6.945
10011SOL    HW230933   0.603   3.499   0.042
10012SOL     OW30934   4.976   0.794   1.927
10012SOL    HW130935   4.909   0.835   1.864
10012SOL    HW230936   4.935   0.717   1.975
10013SOL     OW30937   1.117   5.715   5.027
10013SOL    HW130938   1.148   5.636   4.973
10013SOL    HW230939   1.180   5.791   5.015
10014SOL     OW30940   0.382   6.534   3.483
10014SOL    HW130941   0.438   6.522   3.401
10014SOL    HW230942   0.322   6.613   3.471
10015SOL     OW30943   3.783   5.247   6.195
10015SOL    HW130944   3.855   5.180   6.179
10015SOL    HW230945   3.762   5.295   6.109
10016SOL     OW30946   1.873   0.213   3.708
10016SOL    HW130947   1.859   0.275   3.786
10016SOL    HW230948   1.835   0.255   3.626
10017SOL     OW30949   2.932   1.843   3.362
10017SOL    HW130950   2.867   1.807   3.295
10017SOL    HW230951   2.944   1.941   3.347
10018SOL     OW30952   6.455   3.637   5.968
10018SOL    HW130953   6.438   3.714   6.029
10018SOL    HW230954   6.460   3.669   5.874
10019SOL     OW30955   0.892   1.483   2.770
10019SOL    HW130956   0.898   1.437   2.858
10019SOL    HW230957   0.887   1.582   2.786
10020SOL     OW30958   6.768   0.918   2.009
10020SOL    HW130959   6.820   0.978   1.948
10020SOL    HW230960   6.828   0.883   2.080
10021SOL     OW30961   1.650   3.693   1.559
10021SOL    HW130962   1.637   3.694   1.460
10021SOL    HW230963   1.734   3.642   1.581
10022SOL     OW30964   2.612   6.447   0.749
10022SOL    HW130965   2.518   6.441   0.783
10022SOL    HW230966   2.629   6.373   0.684
10023SOL     OW30967   2.649   6.697   5.918
10023SOL    HW130968   2.629   6.666   5.825
10023SOL    HW230969   2.740   6.666   5.945
10024SOL     OW30970   1.365   4.863   3.098
10024SOL    HW130971   1.385   4.955   3.064
10024SOL    HW230972   1.380   4.796   3.024
10025SOL     OW30973   1.691   3.955   1.792
10025SOL    HW130974   1.737   3.866   1.784
10025SOL    HW230975   1.595   3.940   1.818
10026SOL     OW30976   5.145   1.427   2.637
10026SOL    HW130977   5.095   1.348   2.599
10026SOL    HW230978   5.081   1.502   2.652
10027SOL     OW30979   1.526   2.556   5.519
10027SOL    HW130980   1.494   2.470   5.480
10027SOL    HW230981   1.455   2.626   5.508
10028SOL     OW30982   3.318   0.144   2.382
10028SOL    HW130983   3.251   0.162   2.311
10028SOL    HW230984   3.384   0.219   2.387
10029SOL     OW30985   0.020   3.008   4.403
10029SOL    HW130986   0.053   3.094   4.443
10029SOL    HW230987   0.047   2.932   4.462
10030SOL     OW30988   2.615   6.549   5.070
10030SOL    HW130989   2.594   6.627   5.010
10030SOL    HW230990   2.554   6.473   5.049
10031SOL     OW30991   3.783   5.131   4.613
10031SOL    HW130992   3.706   5.172   4.566
10031SOL    HW230993   3.793   5.036   4.584
10032SOL     OW30994   3.141   6.070   5.303
10032SOL    HW130995   3.102   5.992   5.255
10032SOL    HW230996   3.163   6.044   5.397
10033SOL     OW30997   4.445   1.508   3.763
10033SOL    HW130998   4.362   1.470   3.803
10033SOL    HW230999   4.435   1.512   3.663
10034SOL     OW31000   1.973   0.703   3.210
10034SOL    HW131001   1.893   0.682   3.266
10034SOL    HW231002   2.055   0.704   3.267
10035SOL     OW31003   6.094   3.532   0.388
10035SOL    HW131004   6.086   3.545   0.289
10035SOL    HW231005   6.012   3.486   0.422
10036SOL     OW31006   6.626   0.910   6.587
10036SOL    HW131007   6.715   0.891   6.547
10036SOL    HW231008   6.636   0.929   6.684
10037SOL     OW31009   6.511   0.192   5.820
10037SOL    HW131010   6.601   0.226   5.790
10037SOL    HW231011   6.518   0.160   5.914
10038SOL     OW31012   4.183   0.265   0.142
10038SOL    HW131013   4.144   0.353   0.115
10038SOL    HW231014   4.137   0.191   0.093
10039SOL     OW31015   4.924   5.101   4.803
10039SOL    HW131016   4.828   5.130   4.796
10039SOL    HW231017   4.934   5.040   4.882
10040SOL     OW31018   4.055   0.069   0.712
10040SOL    HW131019   4.073   0.163   0.683
10040SOL    HW231020   4.133   0.011   0.689
10041SOL     OW31021   6.668   4.406   5.801
10041SOL    HW131022   6.660   4.489   5.857
10041SOL    HW231023   6.591   4.346   5.820
10042SOL     OW31024   0.384   1.210   5.565
10042SOL    HW131025   0.375   1.120   5.520
10042SOL    HW231026   0.411   1.278   5.497
10043SOL     OW31027   1.099   0.872   2.499
10043SOL    HW131028   1.049   0.958   2.509
10043SOL    HW231029   1.048   0.799   2.544
10044SOL     OW31030   2.216   1.556   4.996
10044SOL    HW131031   2.269   1.583   4.916
10044SOL    HW231032   2.267   1.487   5.048
10045SOL     OW31033   4.988   0.090   4.681
10045SOL    HW131034   4.995   0.190   4.690
10045SOL    HW231035   4.892   0.065   4.672
10046SOL     OW31036   0.056   1.671   2.013
10046SOL    HW131037   0.092   1.585   1.977
10046SOL    HW231038   0.065   1.743   1.944
10047SOL     OW31039   6.159   2.417   5.079
10047SOL    HW131040   6.185   2.496   5.134
10047SOL    HW231041   6.150   2.336   5.137
10048SOL     OW31042   3.346   1.156   1.656
10048SOL    HW131043   3.365   1.207   1.572
10048SOL    HW231044   3.276   1.088   1.637
10049SOL     OW31045   1.611   0.339   0.029
10049SOL    HW131046   1.524   0.380   0.004
10049SOL    HW231047   1.638   0.370   0.120
10050SOL     OW31048   5.480   3.231   4.855
10050SOL    HW131049   5.388   3.262   4.878
10050SOL    HW231050   5.541   3.250   4.932
10051SOL     OW31051   6.456   2.977   4.512
10051SOL    HW131052   6.544   3.005   4.552
10051SOL    HW231053   6.401   3.058   4.494
10052SOL     OW31054   2.008   3.222   1.570
10052SOL    HW131055   2.084   3.246   1.510
10052SOL    HW231056   1.922   3.238   1.522
10053SOL     OW31057   3.768   4.903   3.371
10053SOL    HW131058   3.702   4.917   3.444
10053SOL    HW231059   3.823   4.986   3.360
10054SOL     OW31060   4.455   5.596   6.359
10054SOL    HW131061   4.372   5.568   6.407
10054SOL    HW231062   4.435   5.609   6.262
10055SOL     OW31063   6.458   2.437   4.497
10055SOL    HW131064   6.380   2.486   4.535
10055SOL    HW231065   6.429   2.345   4.469
10056SOL     OW31066   6.149   5.175   1.075
10056SOL    HW131067   6.204   5.093   1.058
10056SOL    HW231068   6.058   5.163   1.036
10057SOL     OW31069   4.161   1.902   4.482
10057SOL    HW131070   4.189   1.991   4.519
10057SOL    HW231071   4.063   1.905   4.462
10058SOL     OW31072   6.427   5.188   4.119
10058SOL    HW131073   6.334   5.156   4.104
10058SOL    HW231074   6.466   5.140   4.198
10059SOL     OW31075   5.370   6.647   0.904
10059SOL    HW131076   5.455   6.699   0.899
10059SOL    HW231077   5.351   6.622   0.999
10060SOL     OW31078   2.834   2.009   1.979
10060SOL    HW131079   2.844   2.108   1.967
10060SOL    HW231080   2.835   1.987   2.077
10061SOL     OW31081   5.505   1.162   4.064
10061SOL    HW131082   5.498   1.104   4.145
10061SOL    HW231083   5.524   1.256   4.091
10062SOL     OW31084   6.088   6.641   4.371
10062SOL    HW131085   6.133   6.561   4.330
10062SOL    HW231086   5.991   6.641   4.348
10063SOL     OW31087   1.373   2.072   3.112
10063SOL    HW131088   1.438   2.025   3.172
10063SOL    HW231089   1.361   2.020   3.028
10064SOL     OW31090   5.693   5.520   5.003
10064SOL    HW131091   5.763   5.448   5.006
10064SOL    HW231092   5.657   5.527   4.910
10065SOL     OW31093   1.509   0.256   2.264
10065SOL    HW131094   1.487   0.225   2.357
10065SOL    HW231095   1.500   0.180   2.201
10066SOL     OW31096   0.991   0.690   4.130
10066SOL    HW131097   0.931   0.612   4.145
10066SOL    HW231098   0.961   0.741   4.049
10067SOL     OW31099   5.886   4.626   4.337
10067SOL    HW131100   5.921   4.623   4.431
10067SOL    HW231101   5.911   4.541   4.290
10068SOL     OW31102   5.232   2.796   4.395
10068SOL    HW131103   5.306   2.735   4.422
10068SOL    HW231104   5.173   2.813   4.474
10069SOL     OW31105   2.328   0.230   3.502
10069SOL    HW131106   2.258   0.177   3.551
10069SOL    HW231107   2.418   0.190   3.519
10070SOL     OW31108   0.502   6.354   4.995
10070SOL    HW131109   0.538   6.441   4.960
10070SOL    HW231110   0.409   6.341   4.962
10071SOL     OW31111   4.615   4.958   4.061
10071SOL    HW131112   4.647   5.022   4.131
10071SOL    HW231113   4.693   4.930   4.004
10072SOL     OW31114   0.203   6.524   3.854
10072SOL    HW131115   0.211   6.475   3.767
10072SOL    HW231116   0.127   6.589   3.849
10073SOL     OW31117   6.085   4.413   4.780
10073SOL    HW131118   6.033   4.486   4.735
10073SOL    HW231119   6.152   4.454   4.842
10074SOL     OW31120   1.170   6.966   5.595
10074SOL    HW131121   1.263   6.989   5.624
10074SOL    HW231122   1.135   6.892   5.652
10075SOL     OW31123   1.128   2.302   2.887
10075SOL    HW131124   1.090   2.219   2.927
10075SOL    HW231125   1.218   2.320   2.925
10076SOL     OW31126   5.257   0.033   4.614
10076SOL    HW131127   5.168   0.060   4.650
10076SOL    HW231128   5.276   0.084   4.531
10077SOL     OW31129   3.883   2.451   6.566
10077SOL    HW131130   3.809   2.490   6.511
10077SOL    HW231131   3.942   2.395   6.508
10078SOL     OW31132   6.385   6.384   4.527
10078SOL    HW131133   6.463   6.370   4.588
10078SOL    HW231134   6.403   6.462   4.466
10079SOL     OW31135   1.749   2.929   2.202
10079SOL    HW131136   1.811   2.861   2.163
10079SOL    HW231137   1.763   3.016   2.156
10080SOL     OW31138   3.089   2.234   6.902
10080SOL    HW131139   3.138   2.276   6.826
10080SOL    HW231140   3.088   2.134   6.890
10081SOL     OW31141   0.765   0.147   6.485
10081SOL    HW131142   0.775   0.169   6.582
10081SOL    HW231143   0.681   0.095   6.471
10082SOL     OW31144   6.891   2.596   2.226
10082SOL    HW131145   6.800   2.610   2.266
10082SOL    HW231146   6.936   2.685   2.214
10083SOL     OW31147   4.698   1.255   3.796
10083SOL    HW131148   4.646   1.262   3.710
10083SOL    HW231149   4.731   1.161   3.807
10084SOL     OW31150   3.305   0.566   5.753
10084SOL    HW131151   3.370   0.617   5.696
10084SOL    HW231152   3.222   0.548   5.700
10085SOL     OW31153   0.708   4.852   3.202
10085SOL    HW131154   0.793   4.890   3.237
10085SOL    HW231155   0.710   4.752   3.210
10086SOL     OW31156   5.718   5.447   2.408
10086SOL    HW131157   5.747   5.383   2.337
10086SOL    HW231158   5.702   5.397   2.493
10087SOL     OW31159   0.945   1.050   4.372
10087SOL    HW131160   0.994   0.989   4.434
10087SOL    HW231161   0.901   1.123   4.424
10088SOL     OW31162   0.264   6.581   5.564
10088SOL    HW131163   0.291   6.513   5.495
10088SOL    HW231164   0.165   6.594   5.560
10089SOL     OW31165   2.584   1.213   3.526
10089SOL    HW131166   2.635   1.278   3.470
10089SOL    HW231167   2.621   1.213   3.619
10090SOL     OW31168   0.854   4.371   1.326
10090SOL    HW131169   0.783   4.303   1.307
10090SOL    HW231170   0.811   4.459   1.346
10091SOL     OW31171   1.217   3.523   4.744
10091SOL    HW131172   1.219   3.603   4.684
10091SOL    HW231173   1.125   3.514   4.784
10092SOL     OW31174   1.516   4.071   5.264
10092SOL    HW131175   1.495   3.975   5.241
10092SOL    HW231176   1.544   4.076   5.360
10093SOL     OW31177   0.518   5.220   5.146
10093SOL    HW131178   0.572   5.237   5.063
10093SOL    HW231179   0.448   5.152   5.127
10094SOL     OW31180   2.449   6.958   2.719
10094SOL    HW131181   2.455   0.004   2.647
10094SOL    HW231182   2.385   6.989   2.790
10095SOL     OW31183   6.059   1.374   5.017
10095SOL    HW131184   6.007   1.342   5.096
10095SOL    HW231185   6.013   1.347   4.933
10096SOL     OW31186   6.798   5.061   2.593
10096SOL    HW131187   6.802   5.045   2.691
10096SOL    HW231188   6.850   4.990   2.546
10097SOL     OW31189   1.049   1.254   0.215
10097SOL    HW131190   0.991   1.191   0.266
10097SOL    HW231191   1.011   1.268   0.123
10098SOL     OW31192   1.886   6.681   6.073
10098SOL    HW131193   1.814   6.651   6.010
10098SOL    HW231194   1.868   6.642   6.163
10099SOL     OW31195   0.834   4.334   6.194
10099SOL    HW131196   0.856   4.395   6.118
10099SOL    HW231197   0.763   4.270   6.167
10100SOL     OW31198   5.164   0.016   5.164
10100SOL    HW131199   5.104   0.063   5.099
10100SOL    HW231200   5.108   6.993   5.234
10101SOL     OW31201   6.261   4.426   1.888
10101SOL    HW131202   6.331   4.364   1.925
10101SOL    HW231203   6.199   4.374   1.829
10102SOL     OW31204   2.663   0.971   3.418
10102SOL    HW131205   2.616   1.047   3.464
10102SOL    HW231206   2.758   0.997   3.401
10103SOL     OW31207   3.417   0.908   4.883
10103SOL    HW131208   3.497   0.936   4.829
10103SOL    HW231209   3.385   0.985   4.938
10104SOL     OW31210   0.360   4.346   5.133
10104SOL    HW131211   0.373   4.432   5.082
10104SOL    HW231212   0.413   4.349   5.217
10105SOL     OW31213   1.049   1.053   6.096
10105SOL    HW131214   1.013   1.112   6.024
10105SOL    HW231215   0.988   0.975   6.109
10106SOL     OW31216   5.688   4.602   1.080
10106SOL    HW131217   5.754   4.671   1.050
10106SOL    HW231218   5.736   4.529   1.129
10107SOL     OW31219   6.476   1.817   6.025
10107SOL    HW131220   6.394   1.858   5.984
10107SOL    HW231221   6.477   1.836   6.123
10108SOL     OW31222   6.566   6.138   6.922
10108SOL    HW131223   6.591   6.187   7.006
10108SOL    HW231224   6.483   6.085   6.938
10109SOL     OW31225   4.196   6.428   2.703
10109SOL    HW131226   4.166   6.522   2.687
10109SOL    HW231227   4.296   6.425   2.708
10110SOL     OW31228   4.210   6.578   5.610
10110SOL    HW131229   4.167   6.658   5.568
10110SOL    HW231230   4.253   6.523   5.539
10111SOL     OW31231   6.872   3.424   3.250
10111SOL    HW131232   6.955   3.462   3.209
10111SOL    HW231233   6.897   3.349   3.312
10112SOL     OW31234   6.090   4.049   5.124
10112SOL    HW131235   6.114   4.106   5.202
10112SOL    HW231236   6.034   4.103   5.060
10113SOL     OW31237   4.138   1.371   0.062
10113SOL    HW131238   4.111   1.344   6.992
10113SOL    HW231239   4.102   1.462   0.082
10114SOL     OW31240   5.567   0.777   0.984
10114SOL    HW131241   5.501   0.714   1.025
10114SOL    HW231242   5.541   0.871   1.004
10115SOL     OW31243   2.601   2.231   3.317
10115SOL    HW131244   2.651   2.221   3.231
10115SOL    HW231245   2.657   2.194   3.392
10116SOL     OW31246   0.687   6.526   1.296
10116SOL    HW131247   0.776   6.544   1.254
10116SOL    HW231248   0.674   6.587   1.374
10117SOL     OW31249   6.462   0.381   4.441
10117SOL    HW131250   6.521   0.446   4.393
10117SOL    HW231251   6.415   0.428   4.516
10118SOL     OW31252   6.947   4.838   2.570
10118SOL    HW131253   7.001   4.846   2.653
10118SOL    HW231254   7.007   4.828   2.491
10119SOL     OW31255   1.995   6.768   4.238
10119SOL    HW131256   2.069   6.757   4.172
10119SOL    HW231257   1.998   6.860   4.277
10120SOL     OW31258   0.767   3.105   3.992
10120SOL    HW131259   0.831   3.182   3.990
10120SOL    HW231260   0.677   3.135   3.963
10121SOL     OW31261   6.593   4.821   5.068
10121SOL    HW131262   6.562   4.738   5.115
10121SOL    HW231263   6.660   4.797   4.998
10122SOL     OW31264   5.686   2.725   0.151
10122SOL    HW131265   5.734   2.772   0.225
10122SOL    HW231266   5.741   2.647   0.121
10123SOL     OW31267   6.491   6.194   0.335
10123SOL    HW131268   6.542   6.278   0.352
10123SOL    HW231269   6.544   6.135   0.274
10124SOL     OW31270   2.038   4.155   6.861
10124SOL    HW131271   1.940   4.150   6.846
10124SOL    HW231272   2.067   4.078   6.918
10125SOL     OW31273   1.969   0.567   2.498
10125SOL    HW131274   2.055   0.538   2.539
10125SOL    HW231275   1.987   0.637   2.429
10126SOL     OW31276   6.615   5.899   6.128
10126SOL    HW131277   6.635   5.858   6.216
10126SOL    HW231278   6.520   5.880   6.103
10127SOL     OW31279   2.767   5.483   6.025
10127SOL    HW131280   2.751   5.482   5.927
10127SOL    HW231281   2.778   5.389   6.058
10128SOL     OW31282   0.756   1.515   1.329
10128SOL    HW131283   0.851   1.490   1.310
10128SOL    HW231284   0.746   1.615   1.325
10129SOL     OW31285   4.833   2.870   4.144
10129SOL    HW131286   4.786   2.819   4.072
10129SOL    HW231287   4.791   2.850   4.233
10130SOL     OW31288   1.961   4.767   2.732
10130SOL    HW131289   2.030   4.754   2.661
10130SOL    HW231290   2.004   4.800   2.815
10131SOL     OW31291   0.645   1.812   3.033
10131SOL    HW131292   0.623   1.904   3.001
10131SOL    HW231293   0.668   1.814   3.131
10132SOL     OW31294   3.179   6.043   3.036
10132SOL    HW131295   3.204   6.077   3.126
10132SOL    HW231296   3.084   6.068   3.015
10133SOL     OW31297   4.358   6.319   2.433
10133SOL    HW131298   4.361   6.241   2.370
10133SOL    HW231299   4.325   6.400   2.384
10134SOL     OW31300   6.729   0.279   3.777
10134SOL    HW131301   6.650   0.244   3.727
10134SOL    HW231302   6.707   0.285   3.874
10135SOL     OW31303   5.159   3.217   2.716
10135SOL    HW131304   5.198   3.230   2.807
10135SOL    HW231305   5.192   3.289   2.655
10136SOL     OW31306   5.471   0.006   2.810
10136SOL    HW131307   5.405   0.081   2.814
10136SOL    HW231308   5.522   0.003   2.896
10137SOL     OW31309   6.737   5.463   3.682
10137SOL    HW131310   6.660   5.462   3.618
10137SOL    HW231311   6.809   5.524   3.648
10138SOL     OW31312   4.605   2.317   1.068
10138SOL    HW131313   4.653   2.404   1.072
10138SOL    HW231314   4.636   2.258   1.143
10139SOL     OW31315   3.996   3.188   2.815
10139SOL    HW131316   3.983   3.127   2.893
10139SOL    HW231317   3.973   3.139   2.730
10140SOL     OW31318   6.220   5.986   5.650
10140SOL    HW131319   6.160   5.927   5.595
10140SOL    HW231320   6.238   5.943   5.738
10141SOL     OW31321   3.416   1.970   4.440
10141SOL    HW131322   3.492   2.012   4.490
10141SOL    HW231323   3.417   2.004   4.345
10142SOL     OW31324   5.566   6.112   5.143
10142SOL    HW131325   5.487   6.100   5.082
10142SOL    HW231326   5.533   6.134   5.236
10143SOL     OW31327   4.612   0.186   1.312
10143SOL    HW131328   4.540   0.121   1.286
10143SOL    HW231329   4.601   0.271   1.260
10144SOL     OW31330   4.582   6.530   6.236
10144SOL    HW131331   4.490   6.518   6.273
10144SOL    HW231332   4.639   6.578   6.302
10145SOL     OW31333   3.579   6.214   5.954
10145SOL    HW131334   3.642   6.281   5.914
10145SOL    HW231335   3.490   6.221   5.908
10146SOL     OW31336   3.872   5.065   5.526
10146SOL    HW131337   3.827   5.129   5.588
10146SOL    HW231338   3.806   4.994   5.498
10147SOL     OW31339   5.537   4.543   4.335
10147SOL    HW131340   5.604   4.511   4.401
10147SOL    HW231341   5.574   4.621   4.284
10148SOL     OW31342   5.826   5.036   6.822
10148SOL    HW131343   5.791   5.020   6.729
10148SOL    HW231344   5.925   5.025   6.822
10149SOL     OW31345   5.243   1.962   0.813
10149SOL    HW131346   5.343   1.955   0.808
10149SOL    HW231347   5.218   2.049   0.857
10150SOL     OW31348   4.599   4.184   0.637
10150SOL    HW131349   4.590   4.245   0.716
10150SOL    HW231350   4.695   4.180   0.609
10151SOL     OW31351   0.828   0.363   6.338
10151SOL    HW131352   0.784   0.291   6.393
10151SOL    HW231353   0.927   0.361   6.355
10152SOL     OW31354   2.035   5.691   4.235
10152SOL    HW131355   1.951   5.651   4.271
10152SOL    HW231356   2.114   5.645   4.274
10153SOL     OW31357   4.401   5.657   4.104
10153SOL    HW131358   4.453   5.674   4.020
10153SOL    HW231359   4.309   5.696   4.094
10154SOL     OW31360   5.980   6.777   5.354
10154SOL    HW131361   6.068   6.797   5.398
10154SOL    HW231362   5.980   6.816   5.261
10155SOL     OW31363   4.069   1.738   5.791
10155SOL    HW131364   4.144   1.675   5.771
10155SOL    HW231365   4.028   1.713   5.879
10156SOL     OW31366   6.542   0.240   2.282
10156SOL    HW131367   6.568   0.308   2.213
10156SOL    HW231368   6.624   0.195   2.318
10157SOL     OW31369   5.772   2.379   6.049
10157SOL    HW131370   5.760   2.357   5.952
10157SOL    HW231371   5.804   2.473   6.058
10158SOL     OW31372   4.516   3.567   6.995
10158SOL    HW131373   4.503   3.601   0.065
10158SOL    HW231374   4.430   3.574   6.945
10159SOL     OW31375   2.718   3.495   6.088
10159SOL    HW131376   2.632   3.490   6.036
10159SOL    HW231377   2.777   3.419   6.061
10160SOL     OW31378   1.242   3.724   2.201
10160SOL    HW131379   1.319   3.661   2.196
10160SOL    HW231380   1.204   3.723   2.293
10161SOL     OW31381   3.342   4.436   0.465
10161SOL    HW131382   3.270   4.439   0.396
10161SOL    HW231383   3.305   4.463   0.554
10162SOL     OW31384   2.381   4.192   0.672
10162SOL    HW131385   2.388   4.218   0.768
10162SOL    HW231386   2.435   4.255   0.616
10163SOL     OW31387   5.338   4.599   6.741
10163SOL    HW131388   5.427   4.611   6.696
10163SOL    HW231389   5.268   4.647   6.689
10164SOL     OW31390   5.956   3.397   4.917
10164SOL    HW131391   6.017   3.397   4.838
10164SOL    HW231392   5.977   3.475   4.976
10165SOL     OW31393   1.284   2.461   3.942
10165SOL    HW131394   1.285   2.432   3.846
10165SOL    HW231395   1.301   2.381   4.000
10166SOL     OW31396   3.936   1.042   2.264
10166SOL    HW131397   3.885   1.026   2.348
10166SOL    HW231398   3.877   1.087   2.197
10167SOL     OW31399   4.322   2.009   5.990
10167SOL    HW131400   4.268   2.086   6.022
10167SOL    HW231401   4.288   1.925   6.032
10168SOL     OW31402   6.661   4.311   5.004
10168SOL    HW131403   6.568   4.320   5.039
10168SOL    HW231404   6.679   4.214   4.985
10169SOL     OW31405   6.594   3.742   3.217
10169SOL    HW131406   6.613   3.796   3.135
10169SOL    HW231407   6.597   3.645   3.194
10170SOL     OW31408   0.926   4.191   5.766
10170SOL    HW131409   0.901   4.280   5.728
10170SOL    HW231410   1.018   4.196   5.804
10171SOL     OW31411   6.476   4.032   5.991
10171SOL    HW131412   6.448   3.986   6.076
10171SOL    HW231413   6.418   4.001   5.916
10172SOL     OW31414   6.312   6.863   3.637
10172SOL    HW131415   6.253   6.906   3.704
10172SOL    HW231416   6.402   6.905   3.639
10173SOL     OW31417   1.586   2.684   0.747
10173SOL    HW131418   1.558   2.630   0.667
10173SOL    HW231419   1.540   2.648   0.828
10174SOL     OW31420   5.735   5.245   2.199
10174SOL    HW131421   5.825   5.254   2.156
10174SOL    HW231422   5.709   5.149   2.203
10175SOL     OW31423   6.896   2.418   3.697
10175SOL    HW131424   6.888   2.453   3.604
10175SOL    HW231425   6.921   2.493   3.759
10176SOL     OW31426   1.579   3.448   5.778
10176SOL    HW131427   1.558   3.362   5.825
10176SOL    HW231428   1.641   3.429   5.702
10177SOL     OW31429   1.848   0.881   0.665
10177SOL    HW131430   1.936   0.922   0.687
10177SOL    HW231431   1.830   0.891   0.567
10178SOL     OW31432   6.699   2.410   4.924
10178SOL    HW131433   6.684   2.443   4.830
10178SOL    HW231434   6.788   2.441   4.956
10179SOL     OW31435   0.973   1.644   6.037
10179SOL    HW131436   1.010   1.733   6.065
10179SOL    HW231437   0.909   1.657   5.962
10180SOL     OW31438   4.172   6.622   6.880
10180SOL    HW131439   4.215   6.641   6.968
10180SOL    HW231440   4.102   6.552   6.892
10181SOL     OW31441   4.959   3.424   2.013
10181SOL    HW131442   4.934   3.334   2.047
10181SOL    HW231443   4.913   3.494   2.067
10182SOL     OW31444   5.482   1.200   2.346
10182SOL    HW131445   5.552   1.213   2.276
10182SOL    HW231446   5.511   1.245   2.430
10183SOL     OW31447   0.816   1.961   6.494
10183SOL    HW131448   0.737   1.950   6.433
10183SOL    HW231449   0.894   1.995   6.441
10184SOL     OW31450   3.992   0.798   6.324
10184SOL    HW131451   3.982   0.834   6.231
10184SOL    HW231452   3.906   0.753   6.351
10185SOL     OW31453   5.672   5.840   1.663
10185SOL    HW131454   5.762   5.803   1.684
10185SOL    HW231455   5.666   5.934   1.697
10186SOL     OW31456   5.789   3.196   2.560
10186SOL    HW131457   5.864   3.175   2.623
10186SOL    HW231458   5.773   3.294   2.559
10187SOL     OW31459   0.677   2.210   1.350
10187SOL    HW131460   0.630   2.171   1.429
10187SOL    HW231461   0.662   2.151   1.270
10188SOL     OW31462   3.930   6.359   0.590
10188SOL    HW131463   3.837   6.340   0.558
10188SOL    HW231464   3.941   6.457   0.604
10189SOL     OW31465   2.061   0.574   5.321
10189SOL    HW131466   2.093   0.494   5.269
10189SOL    HW231467   2.033   0.546   5.412
10190SOL     OW31468   4.630   3.152   1.500
10190SOL    HW131469   4.720   3.150   1.456
10190SOL    HW231470   4.588   3.241   1.484
10191SOL     OW31471   4.853   4.262   6.940
10191SOL    HW131472   4.932   4.205   6.917
10191SOL    HW231473   4.769   4.219   6.905
10192SOL     OW31474   4.411   0.902   5.613
10192SOL    HW131475   4.396   0.977   5.678
10192SOL    HW231476   4.356   0.823   5.640
10193SOL     OW31477   4.099   3.605   1.917
10193SOL    HW131478   4.173   3.541   1.895
10193SOL    HW231479   4.100   3.623   2.016
10194SOL     OW31480   6.025   4.512   5.245
10194SOL    HW131481   5.981   4.592   5.204
10194SOL    HW231482   6.121   4.509   5.218
10195SOL     OW31483   6.147   4.698   0.884
10195SOL    HW131484   6.143   4.756   0.966
10195SOL    HW231485   6.240   4.700   0.847
10196SOL     OW31486   5.334   1.771   4.786
10196SOL    HW131487   5.326   1.869   4.807
10196SOL    HW231488   5.242   1.733   4.771
10197SOL     OW31489   6.965   2.175   4.893
10197SOL    HW131490   0.001   2.248   4.860
10197SOL    HW231491   6.892   2.158   4.827
10198SOL     OW31492   3.521   0.897   2.084
10198SOL    HW131493   3.585   0.953   2.031
10198SOL    HW231494   3.497   0.944   2.169
10199SOL     OW31495   2.489   3.121   5.998
10199SOL    HW131496   2.555   3.138   6.071
10199SOL    HW231497   2.515   3.037   5.949
10200SOL     OW31498   4.898   2.082   0.815
10200SOL    HW131499   4.931   2.104   0.906
10200SOL    HW231500   4.901   1.983   0.801
10201SOL     OW31501   0.683   4.704   0.740
10201SOL    HW131502   0.758   4.638   0.731
10201SOL    HW231503   0.596   4.658   0.725
10202SOL     OW31504   3.696   2.600   6.386
10202SOL    HW131505   3.741   2.688   6.376
10202SOL    HW231506   3.597   2.612   6.384
10203SOL     OW31507   5.701   3.055   3.985
10203SOL    HW131508   5.771   3.126   3.988
10203SOL    HW231509   5.731   2.976   4.039
10204SOL     OW31510   5.832   0.111   7.007
10204SOL    HW131511   5.854   0.033   6.949
10204SOL    HW231512   5.760   0.166   6.964
10205SOL     OW31513   0.732   1.131   0.843
10205SOL    HW131514   0.809   1.140   0.780
10205SOL    HW231515   0.694   1.222   0.861
10206SOL     OW31516   0.634   0.399   5.708
10206SOL    HW131517   0.649   0.309   5.748
10206SOL    HW231518   0.547   0.401   5.659
10207SOL     OW31519   1.062   1.711   6.355
10207SOL    HW131520   0.964   1.700   6.369
10207SOL    HW231521   1.079   1.785   6.290
10208SOL     OW31522   5.833   5.011   3.966
10208SOL    HW131523   5.761   5.080   3.957
10208SOL    HW231524   5.866   5.010   4.060
10209SOL     OW31525   6.757   6.896   6.400
10209SOL    HW131526   6.780   6.815   6.454
10209SOL    HW231527   6.729   6.868   6.308
10210SOL     OW31528   4.737   6.563   1.520
10210SOL    HW131529   4.747   6.646   1.465
10210SOL    HW231530   4.717   6.588   1.615
10211SOL     OW31531   3.836   6.767   4.447
10211SOL    HW131532   3.769   6.831   4.409
10211SOL    HW231533   3.846   6.688   4.386
10212SOL     OW31534   1.202   0.737   5.025
10212SOL    HW131535   1.170   0.665   4.962
10212SOL    HW231536   1.199   0.703   5.119
10213SOL     OW31537   4.170   3.008   1.274
10213SOL    HW131538   4.253   2.972   1.316
10213SOL    HW231539   4.177   3.003   1.175
10214SOL     OW31540   1.081   2.421   1.770
10214SOL    HW131541   1.164   2.449   1.817
10214SOL    HW231542   1.104   2.359   1.695
10215SOL     OW31543   3.967   3.105   3.281
10215SOL    HW131544   3.893   3.130   3.345
10215SOL    HW231545   4.026   3.037   3.324
10216SOL     OW31546   6.888   1.155   1.378
10216SOL    HW131547   6.863   1.116   1.289
10216SOL    HW231548   6.890   1.254   1.372
10217SOL     OW31549   2.897   1.146   3.414
10217SOL    HW131550   2.826   1.217   3.409
10217SOL    HW231551   2.984   1.184   3.383
10218SOL     OW31552   1.147   3.401   1.840
10218SOL    HW131553   1.154   3.500   1.843
10218SOL    HW231554   1.238   3.360   1.850
10219SOL     OW31555   0.144   1.810   2.927
10219SOL    HW131556   0.116   1.890   2.979
10219SOL    HW231557   0.186   1.839   2.841
10220SOL     OW31558   3.699   3.074   1.162
10220SOL    HW131559   3.642   3.031   1.232
10220SOL    HW231560   3.692   3.023   1.077
10221SOL     OW31561   0.874   5.602   3.038
10221SOL    HW131562   0.841   5.687   3.080
10221SOL    HW231563   0.887   5.617   2.940
10222SOL     OW31564   2.907   3.506   5.127
10222SOL    HW131565   2.875   3.454   5.047
10222SOL    HW231566   2.904   3.448   5.208
10223SOL     OW31567   0.332   5.078   1.016
10223SOL    HW131568   0.357   4.984   0.991
10223SOL    HW231569   0.366   5.099   1.107
10224SOL     OW31570   6.087   2.883   3.579
10224SOL    HW131571   5.996   2.853   3.552
10224SOL    HW231572   6.143   2.897   3.497
10225SOL     OW31573   1.865   4.143   6.095
10225SOL    HW131574   1.777   4.188   6.079
10225SOL    HW231575   1.849   4.048   6.121
10226SOL     OW31576   3.754   1.026   0.124
10226SOL    HW131577   3.800   0.938   0.120
10226SOL    HW231578   3.734   1.058   0.031
10227SOL     OW31579   5.147   4.163   0.726
10227SOL    HW131580   5.216   4.235   0.737
10227SOL    HW231581   5.157   4.096   0.799
10228SOL     OW31582   6.443   6.955   0.734
10228SOL    HW131583   6.457   0.022   0.692
10228SOL    HW231584   6.439   6.965   0.833
10229SOL     OW31585   0.581   3.749   4.939
10229SOL    HW131586   0.560   3.685   4.865
10229SOL    HW231587   0.679   3.768   4.939
10230SOL     OW31588   6.599   5.495   2.662
10230SOL    HW131589   6.548   5.415   2.695
10230SOL    HW231590   6.687   5.465   2.625
10231SOL     OW31591   1.747   6.184   4.209
10231SOL    HW131592   1.797   6.168   4.124
10231SOL    HW231593   1.811   6.183   4.286
10232SOL     OW31594   3.055   0.901   3.444
10232SOL    HW131595   3.105   0.878   3.360
10232SOL    HW231596   3.009   0.989   3.432
10233SOL     OW31597   3.912   4.121   5.597
10233SOL    HW131598   3.964   4.128   5.512
10233SOL    HW231599   3.883   4.027   5.611
10234SOL     OW31600   6.187   0.162   1.583
10234SOL    HW131601   6.161   0.236   1.521
10234SOL    HW231602   6.273   0.184   1.628
10235SOL     OW31603   1.328   1.773   2.322
10235SOL    HW131604   1.311   1.824   2.238
10235SOL    HW231605   1.399   1.705   2.307
10236SOL     OW31606   2.265   6.298   0.028
10236SOL    HW131607   2.180   6.347   0.008
10236SOL    HW231608   2.249   6.234   0.103
10237SOL     OW31609   0.408   3.440   0.068
10237SOL    HW131610   0.374   3.373   0.002
10237SOL    HW231611   0.438   3.392   0.151
10238SOL     OW31612   4.150   4.977   1.252
10238SOL    HW131613   4.156   4.878   1.269
10238SOL    HW231614   4.225   5.023   1.299
10239SOL     OW31615   1.287   2.876   4.806
10239SOL    HW131616   1.271   2.836   4.896
10239SOL    HW231617   1.249   2.968   4.803
10240SOL     OW31618   2.616   6.608   2.069
10240SOL    HW131619   2.622   6.585   1.972
10240SOL    HW231620   2.613   6.707   2.080
10241SOL     OW31621   4.975   1.877   2.048
10241SOL    HW131622   4.936   1.966   2.023
10241SOL    HW231623   4.913   1.831   2.112
10242SOL     OW31624   0.195   2.339   0.662
10242SOL    HW131625   0.121   2.386   0.710
10242SOL    HW231626   0.233   2.268   0.722
10243SOL     OW31627   2.698   4.688   1.326
10243SOL    HW131628   2.639   4.750   1.274
10243SOL    HW231629   2.645   4.642   1.396
10244SOL     OW31630   2.401   4.187   1.396
10244SOL    HW131631   2.439   4.227   1.479
10244SOL    HW231632   2.346   4.107   1.421
10245SOL     OW31633   3.636   4.014   1.458
10245SOL    HW131634   3.613   3.971   1.545
10245SOL    HW231635   3.731   4.044   1.459
10246SOL     OW31636   2.947   3.352   4.356
10246SOL    HW131637   2.999   3.315   4.280
10246SOL    HW231638   2.946   3.287   4.432
10247SOL     OW31639   0.688   4.492   5.214
10247SOL    HW131640   0.631   4.516   5.136
10247SOL    HW231641   0.746   4.414   5.190
10248SOL     OW31642   1.232   0.057   3.717
10248SOL    HW131643   1.249   0.147   3.757
10248SOL    HW231644   1.233   0.064   3.618
10249SOL     OW31645   1.578   4.688   0.215
10249SOL    HW131646   1.574   4.589   0.200
10249SOL    HW231647   1.536   4.709   0.303
10250SOL     OW31648   6.236   3.331   0.801
10250SOL    HW131649   6.310   3.279   0.844
10250SOL    HW231650   6.269   3.421   0.775
10251SOL     OW31651   1.695   0.699   3.696
10251SOL    HW131652   1.710   0.707   3.794
10251SOL    HW231653   1.777   0.730   3.647
10252SOL     OW31654   4.821   3.679   5.393
10252SOL    HW131655   4.786   3.635   5.310
10252SOL    HW231656   4.766   3.760   5.414
10253SOL     OW31657   4.032   6.628   0.595
10253SOL    HW131658   4.027   6.722   0.630
10253SOL    HW231659   4.079   6.628   0.507
10254SOL     OW31660   4.675   1.636   5.407
10254SOL    HW131661   4.650   1.647   5.503
10254SOL    HW231662   4.667   1.725   5.361
10255SOL     OW31663   2.575   6.267   1.430
10255SOL    HW131664   2.558   6.191   1.494
10255SOL    HW231665   2.538   6.243   1.340
10256SOL     OW31666   5.169   0.743   1.698
10256SOL    HW131667   5.247   0.805   1.689
10256SOL    HW231668   5.134   0.747   1.792
10257SOL     OW31669   2.440   4.672   3.611
10257SOL    HW131670   2.527   4.706   3.645
10257SOL    HW231671   2.451   4.577   3.582
10258SOL     OW31672   3.718   2.164   3.300
10258SOL    HW131673   3.787   2.101   3.337
10258SOL    HW231674   3.638   2.163   3.359
10259SOL     OW31675   0.900   4.265   4.027
10259SOL    HW131676   0.878   4.170   4.049
10259SOL    HW231677   0.838   4.298   3.956
10260SOL     OW31678   1.339   1.427   3.823
10260SOL    HW131679   1.263   1.485   3.850
10260SOL    HW231680   1.322   1.388   3.733
10261SOL     OW31681   0.495   4.139   0.425
10261SOL    HW131682   0.416   4.105   0.476
10261SOL    HW231683   0.524   4.227   0.463
10262SOL     OW31684   3.537   0.384   6.502
10262SOL    HW131685   3.604   0.443   6.458
10262SOL    HW231686   3.524   0.412   6.597
10263SOL     OW31687   5.769   0.880   0.306
10263SOL    HW131688   5.741   0.972   0.335
10263SOL    HW231689   5.687   0.824   0.291
10264SOL     OW31690   5.997   4.809   6.536
10264SOL    HW131691   5.994   4.750   6.456
10264SOL    HW231692   5.909   4.803   6.585
10265SOL     OW31693   2.301   2.682   0.445
10265SOL    HW131694   2.251   2.636   0.519
10265SOL    HW231695   2.289   2.630   0.360
10266SOL     OW31696   3.235   2.910   3.052
10266SOL    HW131697   3.288   2.873   3.128
10266SOL    HW231698   3.175   2.983   3.086
10267SOL     OW31699   5.057   0.872   1.023
10267SOL    HW131700   5.011   0.957   1.048
10267SOL    HW231701   5.108   0.886   0.938
10268SOL     OW31702   5.694   6.499   1.839
10268SOL    HW131703   5.782   6.512   1.791
10268SOL    HW231704   5.637   6.436   1.786
10269SOL     OW31705   1.391   2.680   6.847
10269SOL    HW131706   1.488   2.703   6.845
10269SOL    HW231707   1.337   2.764   6.856
10270SOL     OW31708   3.482   5.935   2.403
10270SOL    HW131709   3.520   5.894   2.486
10270SOL    HW231710   3.528   5.897   2.323
10271SOL     OW31711   3.190   2.749   0.530
10271SOL    HW131712   3.175   2.794   0.618
10271SOL    HW231713   3.116   2.774   0.467
10272SOL     OW31714   6.914   1.152   3.936
10272SOL    HW131715   6.918   1.231   3.996
10272SOL    HW231716   7.005   1.112   3.927
10273SOL     OW31717   2.922   4.847   4.426
10273SOL    HW131718   2.866   4.767   4.405
10273SOL    HW231719   2.892   4.886   4.514
10274SOL     OW31720   0.680   5.230   5.655
10274SOL    HW131721   0.638   5.139   5.652
10274SOL    HW231722   0.702   5.254   5.750
10275SOL     OW31723   6.957   0.680   2.442
10275SOL    HW131724   6.874   0.632   2.412
10275SOL    HW231725   6.960   0.683   2.542
10276SOL     OW31726   4.465   5.721   5.751
10276SOL    HW131727   4.463   5.651   5.680
10276SOL    HW231728   4.376   5.765   5.757
10277SOL     OW31729   0.982   0.122   4.532
10277SOL    HW131730   0.927   0.074   4.600
10277SOL    HW231731   1.027   0.055   4.473
10278SOL     OW31732   0.191   0.636   4.508
10278SOL    HW131733   0.214   0.714   4.450
10278SOL    HW231734   0.138   0.569   4.456
10279SOL     OW31735   2.850   5.621   4.012
10279SOL    HW131736   2.793   5.703   4.011
10279SOL    HW231737   2.819   5.557   3.941
10280SOL     OW31738   5.200   3.566   0.084
10280SOL    HW131739   5.222   3.639   0.149
10280SOL    HW231740   5.162   3.606   0.001
10281SOL     OW31741   0.433   2.361   3.132
10281SOL    HW131742   0.391   2.375   3.222
10281SOL    HW231743   0.459   2.450   3.093
10282SOL     OW31744   4.832   3.264   3.307
10282SOL    HW131745   4.822   3.170   3.340
10282SOL    HW231746   4.839   3.265   3.208
10283SOL     OW31747   0.964   3.133   0.695
10283SOL    HW131748   0.973   3.068   0.770
10283SOL    HW231749   0.884   3.109   0.639
10284SOL     OW31750   6.803   2.114   4.058
10284SOL    HW131751   6.803   2.205   4.100
10284SOL    HW231752   6.823   2.123   3.960
10285SOL     OW31753   4.052   6.886   3.384
10285SOL    HW131754   4.002   6.877   3.298
10285SOL    HW231755   4.046   6.801   3.436
10286SOL     OW31756   3.590   0.646   3.957
10286SOL    HW131757   3.615   0.616   3.865
10286SOL    HW231758   3.547   0.570   4.007
10287SOL     OW31759   1.751   5.714   2.002
10287SOL    HW131760   1.781   5.661   2.081
10287SOL    HW231761   1.708   5.653   1.936
10288SOL     OW31762   3.687   6.984   4.635
10288SOL    HW131763   3.691   7.016   4.730
10288SOL    HW231764   3.623   6.907   4.629
10289SOL     OW31765   3.124   5.568   0.977
10289SOL    HW131766   3.119   5.663   0.947
10289SOL    HW231767   3.202   5.556   1.039
10290SOL     OW31768   2.931   3.211   2.499
10290SOL    HW131769   3.003   3.141   2.497
10290SOL    HW231770   2.906   3.231   2.594
10291SOL     OW31771   3.696   1.503   3.210
10291SOL    HW131772   3.755   1.583   3.213
10291SOL    HW231773   3.629   1.509   3.284
10292SOL     OW31774   0.295   1.302   6.034
10292SOL    HW131775   0.301   1.220   6.090
10292SOL    HW231776   0.257   1.278   5.944
10293SOL     OW31777   0.562   3.193   3.565
10293SOL    HW131778   0.483   3.245   3.535
10293SOL    HW231779   0.644   3.230   3.521
10294SOL     OW31780   4.012   1.882   3.093
10294SOL    HW131781   3.960   1.966   3.079
10294SOL    HW231782   4.072   1.866   3.014
10295SOL     OW31783   1.004   2.461   5.926
10295SOL    HW131784   1.033   2.413   5.843
10295SOL    HW231785   0.915   2.503   5.911
10296SOL     OW31786   5.766   1.199   5.964
10296SOL    HW131787   5.848   1.255   5.975
10296SOL    HW231788   5.766   1.126   6.032
10297SOL     OW31789   2.347   1.513   6.881
10297SOL    HW131790   2.359   1.521   6.980
10297SOL    HW231791   2.251   1.530   6.858
10298SOL     OW31792   1.634   4.738   2.167
10298SOL    HW131793   1.611   4.648   2.129
10298SOL    HW231794   1.679   4.726   2.256
10299SOL     OW31795   4.115   6.643   2.558
10299SOL    HW131796   4.110   6.604   2.466
10299SOL    HW231797   4.036   6.702   2.573
10300SOL     OW31798   1.282   4.140   1.725
10300SOL    HW131799   1.210   4.198   1.685
10300SOL    HW231800   1.305   4.067   1.661
10301SOL     OW31801   4.243   1.490   5.081
10301SOL    HW131802   4.321   1.435   5.051
10301SOL    HW231803   4.172   1.430   5.118
10302SOL     OW31804   2.487   6.266   3.685
10302SOL    HW131805   2.431   6.269   3.602
10302SOL    HW231806   2.448   6.200   3.749
10303SOL     OW31807   1.138   5.834   3.802
10303SOL    HW131808   1.093   5.922   3.791
10303SOL    HW231809   1.236   5.844   3.788
10304SOL     OW31810   6.115   0.346   1.398
10304SOL    HW131811   6.026   0.385   1.419
10304SOL    HW231812   6.171   0.414   1.349
10305SOL     OW31813   2.940   4.253   5.953
10305SOL    HW131814   2.851   4.237   5.909
10305SOL    HW231815   2.978   4.165   5.983
10306SOL     OW31816   5.262   6.000   0.628
10306SOL    HW131817   5.298   6.027   0.538
10306SOL    HW231818   5.279   6.073   0.694
10307SOL     OW31819   2.927   1.676   4.878
10307SOL    HW131820   2.882   1.647   4.962
10307SOL    HW231821   2.873   1.747   4.833
10308SOL     OW31822   2.308   4.223   2.391
10308SOL    HW131823   2.214   4.248   2.371
10308SOL    HW231824   2.350   4.180   2.311
10309SOL     OW31825   6.358   1.422   6.466
10309SOL    HW131826   6.408   1.507   6.485
10309SOL    HW231827   6.382   1.353   6.534
10310SOL     OW31828   3.232   3.527   0.002
10310SOL    HW131829   3.268   3.620   7.022
10310SOL    HW231830   3.139   3.529   0.040
10311SOL     OW31831   6.665   5.522   0.201
10311SOL    HW131832   6.635   5.429   0.181
10311SOL    HW231833   6.627   5.550   0.290
10312SOL     OW31834   4.535   0.450   2.711
10312SOL    HW131835   4.627   0.413   2.700
10312SOL    HW231836   4.514   0.459   2.808
10313SOL     OW31837   3.687   5.899   2.652
10313SOL    HW131838   3.759   5.832   2.632
10313SOL    HW231839   3.721   5.964   2.720
10314SOL     OW31840   0.081   0.556   0.465
10314SOL    HW131841   0.108   0.502   0.544
10314SOL    HW231842   0.092   0.501   0.382
10315SOL     OW31843   5.453   6.678   4.096
10315SOL    HW131844   5.493   6.586   4.089
10315SOL    HW231845   5.439   6.701   4.192
10316SOL     OW31846   6.380   2.486   6.059
10316SOL    HW131847   6.372   2.563   5.996
10316SOL    HW231848   6.432   2.412   6.017
10317SOL     OW31849   3.933   6.159   6.066
10317SOL    HW131850   3.924   6.149   6.165
10317SOL    HW231851   3.895   6.247   6.038
10318SOL     OW31852   4.783   0.955   6.239
10318SOL    HW131853   4.868   0.946   6.186
10318SOL    HW231854   4.786   0.891   6.316
10319SOL     OW31855   0.900   4.597   5.391
10319SOL    HW131856   0.963   4.520   5.406
10319SOL    HW231857   0.819   4.565   5.342
10320SOL     OW31858   0.158   6.006   2.964
10320SOL    HW131859   0.077   6.059   2.987
10320SOL    HW231860   0.237   6.043   3.012
10321SOL     OW31861   6.113   1.824   2.336
10321SOL    HW131862   6.040   1.891   2.325
10321SOL    HW231863   6.081   1.748   2.393
10322SOL     OW31864   4.302   5.150   5.066
10322SOL    HW131865   4.319   5.056   5.093
10322SOL    HW231866   4.277   5.204   5.147
10323SOL     OW31867   6.551   4.901   4.691
10323SOL    HW131868   6.538   4.996   4.718
10323SOL    HW231869   6.631   4.863   4.738
10324SOL     OW31870   3.320   3.170   2.957
10324SOL    HW131871   3.289   3.205   2.869
10324SOL    HW231872   3.244   3.127   3.005
10325SOL     OW31873   0.446   4.859   2.489
10325SOL    HW131874   0.543   4.881   2.495
10325SOL    HW231875   0.423   4.834   2.395
10326SOL     OW31876   5.825   4.125   6.903
10326SOL    HW131877   5.861   4.032   6.900
10326SOL    HW231878   5.754   4.136   6.834
10327SOL     OW31879   2.332   3.201   1.735
10327SOL    HW131880   2.336   3.284   1.790
10327SOL    HW231881   2.424   3.179   1.701
10328SOL     OW31882   6.276   2.509   1.614
10328SOL    HW131883   6.271   2.427   1.557
10328SOL    HW231884   6.194   2.564   1.600
10329SOL     OW31885   2.771   1.272   3.125
10329SOL    HW131886   2.734   1.206   3.060
10329SOL    HW231887   2.870   1.281   3.110
10330SOL     OW31888   4.144   0.416   1.789
10330SOL    HW131889   4.184   0.474   1.718
10330SOL    HW231890   4.189   0.436   1.877
10331SOL     OW31891   6.145   6.335   6.501
10331SOL    HW131892   6.196   6.263   6.455
10331SOL    HW231893   6.199   6.419   6.501
10332SOL     OW31894   0.482   0.031   6.782
10332SOL    HW131895   0.570   0.075   6.766
10332SOL    HW231896   0.495   6.956   6.792
10333SOL     OW31897   0.307   5.737   4.926
10333SOL    HW131898   0.219   5.785   4.921
10333SOL    HW231899   0.304   5.658   4.865
10334SOL     OW31900   3.201   0.426   4.185
10334SOL    HW131901   3.139   0.352   4.210
10334SOL    HW231902   3.153   0.493   4.129
10335SOL     OW31903   1.451   4.478   6.852
10335SOL    HW131904   1.362   4.448   6.887
10335SOL    HW231905   1.469   4.432   6.765
10336SOL     OW31906   6.574   6.975   2.197
10336SOL    HW131907   6.623   6.936   2.118
10336SOL    HW231908   6.615   0.040   2.220
10337SOL     OW31909   0.519   5.780   6.432
10337SOL    HW131910   0.501   5.683   6.420
10337SOL    HW231911   0.527   5.824   6.342
10338SOL     OW31912   1.477   6.371   2.252
10338SOL    HW131913   1.489   6.351   2.154
10338SOL    HW231914   1.392   6.422   2.265
10339SOL     OW31915   6.077   3.413   5.964
10339SOL    HW131916   6.004   3.404   5.896
10339SOL    HW231917   6.055   3.487   6.027
10340SOL     OW31918   2.026   2.885   6.860
10340SOL    HW131919   1.934   2.858   6.887
10340SOL    HW231920   2.053   2.968   6.908
10341SOL     OW31921   2.049   3.467   2.296
10341SOL    HW131922   2.098   3.453   2.382
10341SOL    HW231923   2.104   3.432   2.221
10342SOL     OW31924   1.650   0.343   3.557
10342SOL    HW131925   1.596   0.387   3.629
10342SOL    HW231926   1.601   0.262   3.524
10343SOL     OW31927   2.546   5.332   0.278
10343SOL    HW131928   2.478   5.328   0.205
10343SOL    HW231929   2.588   5.243   0.290
10344SOL     OW31930   3.946   3.914   0.161
10344SOL    HW131931   3.884   3.982   0.199
10344SOL    HW231932   3.939   3.829   0.214
10345SOL     OW31933   1.759   2.918   5.643
10345SOL    HW131934   1.777   3.011   5.675
10345SOL    HW231935   1.791   2.853   5.712
10346SOL     OW31936   0.047   5.428   1.313
10346SOL    HW131937   0.135   5.444   1.359
10346SOL    HW231938   0.064   5.406   1.217
10347SOL     OW31939   4.907   0.949   3.304
10347SOL    HW131940   4.955   0.899   3.232
10347SOL    HW231941   4.865   0.885   3.368
10348SOL     OW31942   6.284   2.661   0.230
10348SOL    HW131943   6.361   2.645   0.169
10348SOL    HW231944   6.253   2.756   0.220
10349SOL     OW31945   0.761   0.773   6.739
10349SOL    HW131946   0.751   0.870   6.717
10349SOL    HW231947   0.736   0.759   6.835
10350SOL     OW31948   2.748   5.354   5.321
10350SOL    HW131949   2.748   5.261   5.285
10350SOL    HW231950   2.653   5.385   5.332
10351SOL     OW31951   4.892   5.283   6.960
10351SOL    HW131952   4.918   5.190   6.933
10351SOL    HW231953   4.945   5.310   0.017
10352SOL     OW31954   3.071   0.684   6.295
10352SOL    HW131955   3.092   0.713   6.202
10352SOL    HW231956   3.086   0.585   6.304
10353SOL     OW31957   6.727   3.212   4.632
10353SOL    HW131958   6.766   3.123   4.657
10353SOL    HW231959   6.769   3.244   4.547
10354SOL     OW31960   5.624   1.077   1.339
10354SOL    HW131961   5.545   1.025   1.373
10354SOL    HW231962   5.653   1.142   1.409
10355SOL     OW31963   2.454   6.208   1.961
10355SOL    HW131964   2.439   6.289   2.018
10355SOL    HW231965   2.383   6.140   1.980
10356SOL     OW31966   0.151   4.535   6.250
10356SOL    HW131967   0.176   4.593   6.172
10356SOL    HW231968   0.053   4.517   6.249
10357SOL     OW31969   2.442   2.581   6.385
10357SOL    HW131970   2.397   2.492   6.374
10357SOL    HW231971   2.397   2.648   6.326
10358SOL     OW31972   7.005   2.345   2.980
10358SOL    HW131973   6.934   2.293   2.932
10358SOL    HW231974   6.973   2.437   2.998
10359SOL     OW31975   0.703   1.416   0.823
10359SOL    HW131976   0.798   1.448   0.816
10359SOL    HW231977   0.669   1.432   0.915
10360SOL     OW31978   4.240   4.918   2.981
10360SOL    HW131979   4.248   4.837   2.923
10360SOL    HW231980   4.162   4.973   2.951
10361SOL     OW31981   2.406   6.374   2.321
10361SOL    HW131982   2.494   6.343   2.357
10361SOL    HW231983   2.419   6.416   2.231
10362SOL     OW31984   1.766   4.760   4.884
10362SOL    HW131985   1.802   4.668   4.902
10362SOL    HW231986   1.834   4.813   4.833
10363SOL     OW31987   4.463   1.151   3.359
10363SOL    HW131988   4.402   1.230   3.355
10363SOL    HW231989   4.437   1.092   3.435
10364SOL     OW31990   2.906   3.823   1.403
10364SOL    HW131991   2.956   3.868   1.477
10364SOL    HW231992   2.893   3.887   1.328
10365SOL     OW31993   4.188   5.839   0.485
10365SOL    HW131994   4.140   5.898   0.550
10365SOL    HW231995   4.287   5.857   0.490
10366SOL     OW31996   2.849   0.365   3.830
10366SOL    HW131997   2.851   0.464   3.844
10366SOL    HW231998   2.840   0.319   3.918
10367SOL     OW31999   5.905   1.985   2.395
10367SOL    HW132000   5.850   2.068   2.378
10367SOL    HW232001   5.846   1.915   2.434
10368SOL     OW32002   2.810   0.875   1.583
10368SOL    HW132003   2.781   0.799   1.641
10368SOL    HW232004   2.846   0.840   1.497
10369SOL     OW32005   4.245   1.116   0.795
10369SOL    HW132006   4.322   1.116   0.731
10369SOL    HW232007   4.167   1.162   0.752
10370SOL     OW32008   4.523   0.690   5.227
10370SOL    HW132009   4.593   0.745   5.182
10370SOL    HW232010   4.473   0.636   5.159
10371SOL     OW32011   3.146   5.885   5.651
10371SOL    HW132012   3.098   5.807   5.690
10371SOL    HW232013   3.241   5.885   5.683
10372SOL     OW32014   2.812   0.832   4.643
10372SOL    HW132015   2.901   0.839   4.598
10372SOL    HW232016   2.825   0.817   4.741
10373SOL     OW32017   1.562   6.689   4.801
10373SOL    HW132018   1.470   6.725   4.787
10373SOL    HW232019   1.565   6.592   4.774
10374SOL     OW32020   2.971   1.465   3.557
10374SOL    HW132021   3.019   1.550   3.537
10374SOL    HW232022   2.938   1.466   3.651
10375SOL     OW32023   5.181   2.082   0.357
10375SOL    HW132024   5.268   2.103   0.403
10375SOL    HW232025   5.199   2.023   0.278
10376SOL     OW32026   0.770   0.947   4.190
10376SOL    HW132027   0.833   1.001   4.246
10376SOL    HW232028   0.768   0.853   4.223
10377SOL     OW32029   0.164   0.522   3.530
10377SOL    HW132030   0.072   0.484   3.525
10377SOL    HW232031   0.161   0.610   3.578
10378SOL     OW32032   6.722   0.697   6.009
10378SOL    HW132033   6.746   0.782   5.962
10378SOL    HW232034   6.633   0.706   6.052
10379SOL     OW32035   5.618   0.339   5.361
10379SOL    HW132036   5.663   0.255   5.390
10379SOL    HW232037   5.519   0.331   5.373
10380SOL     OW32038   5.859   0.526   2.772
10380SOL    HW132039   5.813   0.440   2.749
10380SOL    HW232040   5.905   0.517   2.860
10381SOL     OW32041   4.633   5.437   6.105
10381SOL    HW132042   4.629   5.519   6.048
10381SOL    HW232043   4.681   5.457   6.190
10382SOL     OW32044   2.523   5.657   6.060
10382SOL    HW132045   2.590   5.583   6.062
10382SOL    HW232046   2.496   5.676   5.966
10383SOL     OW32047   1.713   3.426   0.537
10383SOL    HW132048   1.681   3.335   0.564
10383SOL    HW232049   1.807   3.439   0.570
10384SOL     OW32050   6.939   0.189   1.186
10384SOL    HW132051   0.015   0.198   1.181
10384SOL    HW232052   6.915   0.105   1.234
10385SOL     OW32053   5.802   0.253   6.374
10385SOL    HW132054   5.884   0.205   6.344
10385SOL    HW232055   5.809   0.277   6.471
10386SOL     OW32056   6.668   3.268   4.890
10386SOL    HW132057   6.679   3.251   4.792
10386SOL    HW232058   6.574   3.295   4.908
10387SOL     OW32059   2.297   2.253   3.068
10387SOL    HW132060   2.338   2.181   3.126
10387SOL    HW232061   2.229   2.303   3.122
10388SOL     OW32062   0.995   4.963   3.151
10388SOL    HW132063   1.072   4.953   3.214
10388SOL    HW232064   0.975   5.060   3.138
10389SOL     OW32065   0.922   5.204   3.477
10389SOL    HW132066   1.009   5.208   3.427
10389SOL    HW232067   0.924   5.270   3.552
10390SOL     OW32068   1.834   3.760   3.122
10390SOL    HW132069   1.829   3.809   3.035
10390SOL    HW232070   1.909   3.695   3.120
10391SOL     OW32071   1.554   6.009   6.515
10391SOL    HW132072   1.554   5.910   6.527
10391SOL    HW232073   1.554   6.031   6.417
10392SOL     OW32074   5.736   4.920   0.208
10392SOL    HW132075   5.662   4.912   0.275
10392SOL    HW232076   5.780   4.830   0.196
10393SOL     OW32077   0.928   1.321   3.991
10393SOL    HW132078   0.934   1.329   3.892
10393SOL    HW232079   0.963   1.232   4.020
10394SOL     OW32080   2.396   6.686   6.770
10394SOL    HW132081   2.435   6.622   6.836
10394SOL    HW232082   2.428   6.664   6.678
10395SOL     OW32083   6.895   0.901   4.127
10395SOL    HW132084   6.921   0.987   4.084
10395SOL    HW232085   6.827   0.855   4.070
10396SOL     OW32086   0.670   0.259   3.969
10396SOL    HW132087   0.654   0.222   4.060
10396SOL    HW232088   0.687   0.184   3.905
10397SOL     OW32089   3.990   0.976   3.338
10397SOL    HW132090   4.060   0.964   3.268
10397SOL    HW232091   3.968   1.073   3.346
10398SOL     OW32092   6.474   3.113   1.311
10398SOL    HW132093   6.402   3.107   1.241
10398SOL    HW232094   6.454   3.190   1.372
10399SOL     OW32095   4.592   2.180   5.487
10399SOL    HW132096   4.505   2.208   5.446
10399SOL    HW232097   4.575   2.135   5.574
10400SOL     OW32098   2.582   5.658   2.593
10400SOL    HW132099   2.603   5.753   2.567
10400SOL    HW232100   2.497   5.630   2.549
10401SOL     OW32101   6.958   5.779   2.259
10401SOL    HW132102   6.998   5.852   2.315
10401SOL    HW232103   7.015   5.763   2.179
10402SOL     OW32104   0.973   3.657   5.078
10402SOL    HW132105   0.969   3.579   5.015
10402SOL    HW232106   0.899   3.720   5.057
10403SOL     OW32107   5.592   1.765   2.029
10403SOL    HW132108   5.526   1.696   1.998
10403SOL    HW232109   5.543   1.850   2.052
10404SOL     OW32110   0.691   6.365   4.154
10404SOL    HW132111   0.649   6.280   4.125
10404SOL    HW232112   0.791   6.355   4.156
10405SOL     OW32113   2.012   6.559   5.719
10405SOL    HW132114   2.025   6.528   5.813
10405SOL    HW232115   2.093   6.535   5.665
10406SOL     OW32116   2.695   4.585   6.233
10406SOL    HW132117   2.672   4.489   6.250
10406SOL    HW232118   2.696   4.601   6.134
10407SOL     OW32119   1.053   1.911   6.117
10407SOL    HW132120   1.145   1.889   6.084
10407SOL    HW232121   1.026   2.001   6.083
10408SOL     OW32122   4.524   4.449   3.527
10408SOL    HW132123   4.456   4.519   3.550
10408SOL    HW232124   4.512   4.421   3.431
10409SOL     OW32125   0.365   3.772   1.877
10409SOL    HW132126   0.302   3.817   1.941
10409SOL    HW232127   0.352   3.810   1.785
10410SOL     OW32128   4.753   0.845   1.111
10410SOL    HW132129   4.683   0.885   1.170
10410SOL    HW232130   4.743   0.880   1.018
10411SOL     OW32131   2.198   4.633   2.876
10411SOL    HW132132   2.185   4.557   2.812
10411SOL    HW232133   2.295   4.645   2.895
10412SOL     OW32134   1.597   2.314   0.074
10412SOL    HW132135   1.658   2.355   0.005
10412SOL    HW232136   1.648   2.300   0.159
10413SOL     OW32137   0.368   2.085   6.684
10413SOL    HW132138   0.377   2.162   6.746
10413SOL    HW232139   0.453   2.032   6.684
10414SOL     OW32140   5.629   6.284   6.765
10414SOL    HW132141   5.677   6.369   6.745
10414SOL    HW232142   5.561   6.301   6.836
10415SOL     OW32143   0.195   5.958   3.539
10415SOL    HW132144   0.179   5.954   3.638
10415SOL    HW232145   0.135   6.027   3.498
10416SOL     OW32146   6.207   2.054   4.514
10416SOL    HW132147   6.202   1.984   4.585
10416SOL    HW232148   6.301   2.088   4.507
10417SOL     OW32149   3.992   5.061   3.401
10417SOL    HW132150   3.989   5.159   3.378
10417SOL    HW232151   4.079   5.022   3.372
10418SOL     OW32152   0.117   4.207   6.698
10418SOL    HW132153   0.102   4.172   6.791
10418SOL    HW232154   0.114   4.132   6.633
10419SOL     OW32155   3.321   0.924   5.242
10419SOL    HW132156   3.352   1.008   5.197
10419SOL    HW232157   3.278   0.864   5.175
10420SOL     OW32158   6.995   3.256   3.421
10420SOL    HW132159   6.947   3.252   3.509
10420SOL    HW232160   0.019   3.170   3.405
10421SOL     OW32161   1.149   4.857   4.050
10421SOL    HW132162   1.149   4.758   4.065
10421SOL    HW232163   1.055   4.891   4.057
10422SOL     OW32164   6.781   3.637   4.351
10422SOL    HW132165   6.746   3.689   4.429
10422SOL    HW232166   6.749   3.680   4.266
10423SOL     OW32167   3.656   4.887   4.048
10423SOL    HW132168   3.711   4.888   4.132
10423SOL    HW232169   3.559   4.885   4.072
10424SOL     OW32170   3.635   1.019   6.667
10424SOL    HW132171   3.734   1.028   6.661
10424SOL    HW232172   3.612   0.929   6.705
10425SOL     OW32173   2.052   1.044   0.850
10425SOL    HW132174   2.107   0.981   0.904
10425SOL    HW232175   2.109   1.088   0.781
10426SOL     OW32176   5.575   2.661   6.043
10426SOL    HW132177   5.548   2.567   6.065
10426SOL    HW232178   5.667   2.660   6.003
10427SOL     OW32179   5.873   6.707   4.898
10427SOL    HW132180   5.815   6.638   4.942
10427SOL    HW232181   5.817   6.768   4.843
10428SOL     OW32182   1.910   0.756   3.538
10428SOL    HW132183   1.855   0.750   3.455
10428SOL    HW232184   1.956   0.844   3.542
10429SOL     OW32185   1.061   3.132   2.533
10429SOL    HW132186   1.060   3.037   2.564
10429SOL    HW232187   1.133   3.182   2.582
10430SOL     OW32188   3.709   0.452   3.762
10430SOL    HW132189   3.799   0.490   3.783
10430SOL    HW232190   3.720   0.379   3.694
10431SOL     OW32191   3.132   1.917   3.764
10431SOL    HW132192   3.061   1.855   3.797
10431SOL    HW232193   3.136   1.912   3.664
10432SOL     OW32194   0.348   6.688   5.940
10432SOL    HW132195   0.341   6.778   5.898
10432SOL    HW232196   0.439   6.651   5.925
10433SOL     OW32197   1.732   0.097   2.028
10433SOL    HW132198   1.824   0.065   2.049
10433SOL    HW232199   1.665   0.040   2.076
10434SOL     OW32200   4.512   6.414   5.577
10434SOL    HW132201   4.472   6.448   5.662
10434SOL    HW232202   4.494   6.316   5.568
10435SOL     OW32203   1.239   2.568   6.648
10435SOL    HW132204   1.308   2.610   6.707
10435SOL    HW232205   1.157   2.625   6.648
10436SOL     OW32206   0.171   4.677   4.949
10436SOL    HW132207   0.132   4.586   4.964
10436SOL    HW232208   0.217   4.707   5.032
10437SOL     OW32209   5.520   5.304   5.344
10437SOL    HW132210   5.446   5.237   5.351
10437SOL    HW232211   5.501   5.366   5.269
10438SOL     OW32212   6.696   6.181   6.216
10438SOL    HW132213   6.788   6.176   6.254
10438SOL    HW232214   6.657   6.089   6.210
10439SOL     OW32215   6.741   6.825   4.438
10439SOL    HW132216   6.841   6.832   4.430
10439SOL    HW232217   6.717   6.805   4.533
10440SOL     OW32218   6.861   2.240   6.335
10440SOL    HW132219   6.957   2.239   6.307
10440SOL    HW232220   6.854   2.219   6.432
10441SOL     OW32221   3.780   1.982   0.980
10441SOL    HW132222   3.692   1.944   0.951
10441SOL    HW232223   3.778   2.081   0.971
10442SOL     OW32224   2.289   1.665   5.503
10442SOL    HW132225   2.370   1.615   5.470
10442SOL    HW232226   2.248   1.716   5.428
10443SOL     OW32227   0.659   1.286   3.115
10443SOL    HW132228   0.653   1.361   3.048
10443SOL    HW232229   0.747   1.241   3.105
10444SOL     OW32230   4.196   5.421   4.527
10444SOL    HW132231   4.252   5.476   4.588
10444SOL    HW232232   4.105   5.409   4.567
10445SOL     OW32233   1.911   4.102   2.662
10445SOL    HW132234   1.993   4.045   2.672
10445SOL    HW232235   1.911   4.173   2.732
10446SOL     OW32236   1.622   4.398   5.556
10446SOL    HW132237   1.703   4.344   5.580
10446SOL    HW232238   1.639   4.447   5.470
10447SOL     OW32239   0.157   1.599   3.131
10447SOL    HW132240   0.161   1.658   3.051
10447SOL    HW232241   0.225   1.526   3.122
10448SOL     OW32242   2.926   6.137   2.985
10448SOL    HW132243   2.895   6.229   2.961
10448SOL    HW232244   2.856   6.093   3.042
10449SOL     OW32245   3.812   5.647   6.248
10449SOL    HW132246   3.870   5.566   6.236
10449SOL    HW232247   3.805   5.697   6.162
10450SOL     OW32248   0.247   0.331   6.228
10450SOL    HW132249   0.262   0.407   6.290
10450SOL    HW232250   0.168   0.277   6.259
10451SOL     OW32251   2.241   0.703   3.323
10451SOL    HW132252   2.256   0.682   3.420
10451SOL    HW232253   2.268   0.797   3.304
10452SOL     OW32254   6.841   3.743   3.923
10452SOL    HW132255   6.836   3.648   3.955
10452SOL    HW232256   6.926   3.757   3.873
10453SOL     OW32257   4.488   5.428   3.333
10453SOL    HW132258   4.409   5.489   3.338
10453SOL    HW232259   4.460   5.338   3.302
10454SOL     OW32260   6.325   0.922   6.049
10454SOL    HW132261   6.248   0.936   6.111
10454SOL    HW232262   6.291   0.919   5.955
10455SOL     OW32263   5.828   6.678   4.299
10455SOL    HW132264   5.814   6.673   4.200
10455SOL    HW232265   5.749   6.637   4.346
10456SOL     OW32266   0.417   5.403   0.065
10456SOL    HW132267   0.495   5.451   0.027
10456SOL    HW232268   0.421   5.407   0.165
10457SOL     OW32269   3.676   2.515   7.005
10457SOL    HW132270   3.754   2.527   6.943
10457SOL    HW232271   3.598   2.481   6.953
10458SOL     OW32272   6.915   5.830   6.696
10458SOL    HW132273   6.839   5.894   6.697
10458SOL    HW232274   6.959   5.832   6.606
10459SOL     OW32275   6.985   5.337   0.516
10459SOL    HW132276   7.001   5.243   0.547
10459SOL    HW232277   0.017   5.400   0.570
10460SOL     OW32278   0.692   2.803   0.271
10460SOL    HW132279   0.777   2.833   0.227
10460SOL    HW232280   0.615   2.851   0.230
10461SOL     OW32281   6.974   5.720   5.105
10461SOL    HW132282   6.903   5.730   5.175
10461SOL    HW232283   0.017   5.650   5.134
10462SOL     OW32284   4.004   1.682   0.677
10462SOL    HW132285   3.971   1.674   0.583
10462SOL    HW232286   3.927   1.672   0.740
10463SOL     OW32287   4.988   2.980   6.339
10463SOL    HW132288   4.948   2.930   6.416
10463SOL    HW232289   5.051   2.921   6.289
10464SOL     OW32290   5.942   5.042   2.704
10464SOL    HW132291   5.863   5.101   2.688
10464SOL    HW232292   6.012   5.094   2.754
10465SOL     OW32293   6.097   3.793   2.264
10465SOL    HW132294   6.005   3.827   2.282
10465SOL    HW232295   6.123   3.815   2.170
10466SOL     OW32296   5.799   4.952   6.299
10466SOL    HW132297   5.765   5.027   6.356
10466SOL    HW232298   5.852   4.889   6.355
10467SOL     OW32299   1.781   2.818   6.997
10467SOL    HW132300   1.813   2.846   0.064
10467SOL    HW232301   1.705   2.876   6.969
10468SOL     OW32302   2.824   4.816   4.009
10468SOL    HW132303   2.919   4.804   4.037
10468SOL    HW232304   2.764   4.770   4.075
10469SOL     OW32305   6.210   1.613   5.020
10469SOL    HW132306   6.271   1.667   4.961
10469SOL    HW232307   6.180   1.531   4.970
10470SOL     OW32308   2.443   2.307   3.943
10470SOL    HW132309   2.358   2.292   3.993
10470SOL    HW232310   2.423   2.311   3.845
10471SOL     OW32311   2.841   6.903   0.710
10471SOL    HW132312   2.846   6.804   0.724
10471SOL    HW232313   2.921   6.946   0.749
10472SOL     OW32314   3.287   5.180   0.414
10472SOL    HW132315   3.285   5.195   0.512
10472SOL    HW232316   3.371   5.218   0.375
10473SOL     OW32317   5.231   4.283   6.742
10473SOL    HW132318   5.307   4.308   6.801
10473SOL    HW232319   5.196   4.364   6.695
10474SOL     OW32320   5.239   0.854   4.154
10474SOL    HW132321   5.188   0.939   4.141
10474SOL    HW232322   5.292   0.834   4.071
10475SOL     OW32323   0.923   6.591   1.862
10475SOL    HW132324   0.959   6.530   1.792
10475SOL    HW232325   0.884   6.672   1.818
10476SOL     OW32326   3.981   6.063   0.326
10476SOL    HW132327   4.005   5.971   0.296
10476SOL    HW232328   3.896   6.060   0.380
10477SOL     OW32329   6.223   6.527   4.066
10477SOL    HW132330   6.295   6.484   4.119
10477SOL    HW232331   6.248   6.622   4.047
10478SOL     OW32332   6.278   7.013   0.016
10478SOL    HW132333   6.215   6.980   0.087
10478SOL    HW232334   6.225   0.018   6.959
10479SOL     OW32335   0.222   1.648   2.554
10479SOL    HW132336   0.141   1.634   2.611
10479SOL    HW232337   0.213   1.734   2.504
10480SOL     OW32338   1.656   0.459   2.366
10480SOL    HW132339   1.603   0.383   2.328
10480SOL    HW232340   1.746   0.426   2.394
10481SOL     OW32341   6.970   0.613   2.745
10481SOL    HW132342   0.005   0.664   2.809
10481SOL    HW232343   6.932   0.533   2.791
10482SOL     OW32344   5.331   3.606   3.662
10482SOL    HW132345   5.324   3.593   3.563
10482SOL    HW232346   5.253   3.658   3.695
10483SOL     OW32347   6.356   5.246   0.508
10483SOL    HW132348   6.352   5.179   0.434
10483SOL    HW232349   6.436   5.228   0.566
10484SOL     OW32350   6.416   1.049   1.257
10484SOL    HW132351   6.496   1.046   1.318
10484SOL    HW232352   6.348   1.112   1.295
10485SOL     OW32353   5.309   3.640   5.800
10485SOL    HW132354   5.230   3.579   5.798
10485SOL    HW232355   5.322   3.675   5.892
10486SOL     OW32356   5.886   2.714   0.627
10486SOL    HW132357   5.867   2.698   0.724
10486SOL    HW232358   5.951   2.646   0.593
10487SOL     OW32359   6.139   6.568   1.427
10487SOL    HW132360   6.145   6.662   1.392
10487SOL    HW232361   6.146   6.569   1.527
10488SOL     OW32362   2.968   2.861   6.859
10488SOL    HW132363   3.025   2.927   6.908
10488SOL    HW232364   2.892   2.909   6.815
10489SOL     OW32365   0.051   5.622   6.417
10489SOL    HW132366   0.056   5.721   6.432
10489SOL    HW232367   0.140   5.581   6.438
10490SOL     OW32368   6.859   1.039   3.320
10490SOL    HW132369   6.900   0.993   3.399
10490SOL    HW232370   6.887   0.993   3.236
10491SOL     OW32371   2.047   4.620   6.168
10491SOL    HW132372   2.090   4.571   6.092
10491SOL    HW232373   2.114   4.633   6.241
10492SOL     OW32374   4.891   3.381   5.177
10492SOL    HW132375   4.841   3.454   5.130
10492SOL    HW232376   4.826   3.323   5.226
10493SOL     OW32377   3.710   0.964   1.874
10493SOL    HW132378   3.782   1.019   1.831
10493SOL    HW232379   3.732   0.867   1.862
10494SOL     OW32380   5.569   2.033   3.758
10494SOL    HW132381   5.531   1.962   3.818
10494SOL    HW232382   5.616   2.102   3.814
10495SOL     OW32383   2.266   6.831   0.659
10495SOL    HW132384   2.197   6.902   0.672
10495SOL    HW232385   2.349   6.856   0.707
10496SOL     OW32386   0.351   6.698   6.907
10496SOL    HW132387   0.276   6.764   6.911
10496SOL    HW232388   0.319   6.610   6.944
10497SOL     OW32389   1.592   0.830   0.775
10497SOL    HW132390   1.689   0.851   0.763
10497SOL    HW232391   1.562   0.860   0.865
10498SOL     OW32392   1.716   6.879   6.191
10498SOL    HW132393   1.726   6.975   6.164
10498SOL    HW232394   1.776   6.823   6.134
10499SOL     OW32395   2.890   5.670   3.245
10499SOL    HW132396   2.940   5.710   3.322
10499SOL    HW232397   2.948   5.602   3.200
10500SOL     OW32398   1.054   2.140   5.918
10500SOL    HW132399   1.115   2.218   5.905
10500SOL    HW232400   0.970   2.170   5.962
10501SOL     OW32401   2.127   3.927   2.642
10501SOL    HW132402   2.177   4.014   2.647
10501SOL    HW232403   2.162   3.873   2.566
10502SOL     OW32404   2.975   6.371   0.409
10502SOL    HW132405   3.067   6.332   0.414
10502SOL    HW232406   2.979   6.469   0.427
10503SOL     OW32407   3.517   3.086   0.449
10503SOL    HW132408   3.574   3.037   0.516
10503SOL    HW232409   3.454   3.147   0.498
10504SOL     OW32410   2.840   2.981   0.174
10504SOL    HW132411   2.873   3.075   0.163
10504SOL    HW232412   2.741   2.980   0.161
10505SOL     OW32413   6.176   6.257   1.052
10505SOL    HW132414   6.205   6.166   1.083
10505SOL    HW232415   6.174   6.319   1.130
10506SOL     OW32416   0.833   4.065   6.298
10506SOL    HW132417   0.836   4.043   6.200
10506SOL    HW232418   0.810   4.161   6.310
10507SOL     OW32419   0.913   0.693   6.426
10507SOL    HW132420   0.989   0.662   6.369
10507SOL    HW232421   0.939   0.688   6.522
10508SOL     OW32422   5.295   5.144   3.595
10508SOL    HW132423   5.280   5.156   3.693
10508SOL    HW232424   5.392   5.156   3.574
10509SOL     OW32425   1.164   6.473   6.822
10509SOL    HW132426   1.107   6.424   6.756
10509SOL    HW232427   1.118   6.476   6.910
10510SOL     OW32428   5.670   5.309   6.725
10510SOL    HW132429   5.715   5.397   6.708
10510SOL    HW232430   5.654   5.298   6.823
10511SOL     OW32431   4.250   3.256   0.422
10511SOL    HW132432   4.240   3.233   0.519
10511SOL    HW232433   4.292   3.179   0.374
10512SOL     OW32434   4.620   0.352   6.080
10512SOL    HW132435   4.590   0.417   6.010
10512SOL    HW232436   4.719   0.353   6.087
10513SOL     OW32437   0.772   2.225   5.918
10513SOL    HW132438   0.689   2.171   5.929
10513SOL    HW232439   0.752   2.322   5.936
10514SOL     OW32440   6.421   4.395   0.025
10514SOL    HW132441   6.409   4.295   0.023
10514SOL    HW232442   6.395   4.433   6.959
10515SOL     OW32443   6.469   1.882   3.168
10515SOL    HW132444   6.411   1.840   3.098
10515SOL    HW232445   6.526   1.952   3.126
10516SOL     OW32446   4.227   0.705   6.446
10516SOL    HW132447   4.303   0.771   6.451
10516SOL    HW232448   4.163   0.734   6.375
10517SOL     OW32449   6.724   1.834   2.696
10517SOL    HW132450   6.700   1.771   2.770
10517SOL    HW232451   6.677   1.808   2.613
10518SOL     OW32452   0.940   6.116   0.285
10518SOL    HW132453   0.848   6.126   0.322
10518SOL    HW232454   0.992   6.200   0.303
10519SOL     OW32455   3.402   3.075   5.642
10519SOL    HW132456   3.330   3.046   5.704
10519SOL    HW232457   3.361   3.116   5.560
10520SOL     OW32458   3.001   2.936   6.527
10520SOL    HW132459   3.087   2.886   6.520
10520SOL    HW232460   2.935   2.881   6.578
10521SOL     OW32461   6.382   6.207   1.674
10521SOL    HW132462   6.423   6.222   1.584
10521SOL    HW232463   6.436   6.140   1.725
10522SOL     OW32464   6.186   1.105   0.636
10522SOL    HW132465   6.192   1.117   0.537
10522SOL    HW232466   6.257   1.041   0.666
10523SOL     OW32467   0.147   5.355   6.320
10523SOL    HW132468   0.058   5.313   6.300
10523SOL    HW232469   0.155   5.370   6.418
10524SOL     OW32470   2.073   0.080   4.282
10524SOL    HW132471   2.094   0.174   4.255
10524SOL    HW232472   1.986   0.052   4.241
10525SOL     OW32473   1.469   6.686   5.062
10525SOL    HW132474   1.519   6.669   4.978
10525SOL    HW232475   1.375   6.715   5.040
10526SOL     OW32476   0.834   0.707   2.316
10526SOL    HW132477   0.810   0.783   2.255
10526SOL    HW232478   0.751   0.665   2.352
10527SOL     OW32479   0.983   2.750   4.545
10527SOL    HW132480   0.919   2.821   4.516
10527SOL    HW232481   0.973   2.735   4.643
10528SOL     OW32482   0.308   5.246   4.642
10528SOL    HW132483   0.229   5.246   4.580
10528SOL    HW232484   0.301   5.323   4.705
10529SOL     OW32485   0.889   6.459   3.704
10529SOL    HW132486   0.870   6.362   3.719
10529SOL    HW232487   0.984   6.478   3.729
10530SOL     OW32488   2.552   2.037   6.241
10530SOL    HW132489   2.532   2.051   6.144
10530SOL    HW232490   2.634   2.089   6.266
10531SOL     OW32491   1.473   3.521   5.051
10531SOL    HW132492   1.434   3.449   5.109
10531SOL    HW232493   1.573   3.516   5.055
10532SOL     OW32494   3.373   2.558   6.908
10532SOL    HW132495   3.410   2.466   6.920
10532SOL    HW232496   3.326   2.586   6.992
10533SOL     OW32497   3.167   1.389   5.268
10533SOL    HW132498   3.139   1.484   5.283
10533SOL    HW232499   3.215   1.382   5.180
10534SOL     OW32500   6.799   6.299   0.636
10534SOL    HW132501   6.850   6.373   0.679
10534SOL    HW232502   6.759   6.331   0.551
10535SOL     OW32503   0.484   1.252   2.679
10535SOL    HW132504   0.391   1.272   2.646
10535SOL    HW232505   0.481   1.238   2.778
10536SOL     OW32506   5.029   0.164   3.104
10536SOL    HW132507   5.000   0.251   3.064
10536SOL    HW232508   5.119   0.176   3.146
10537SOL     OW32509   3.009   5.436   3.111
10537SOL    HW132510   3.078   5.368   3.136
10537SOL    HW232511   2.918   5.396   3.124
10538SOL     OW32512   4.303   3.694   6.898
10538SOL    HW132513   4.272   3.753   6.824
10538SOL    HW232514   4.228   3.676   6.961
10539SOL     OW32515   1.000   3.271   6.265
10539SOL    HW132516   1.065   3.228   6.203
10539SOL    HW232517   1.049   3.319   6.338
10540SOL     OW32518   1.615   1.165   5.706
10540SOL    HW132519   1.581   1.194   5.617
10540SOL    HW232520   1.574   1.077   5.730
10541SOL     OW32521   4.071   3.566   0.982
10541SOL    HW132522   3.991   3.560   0.921
10541SOL    HW232523   4.079   3.482   1.036
10542SOL     OW32524   0.532   2.239   0.222
10542SOL    HW132525   0.432   2.243   0.224
10542SOL    HW232526   0.561   2.161   0.167
10543SOL     OW32527   0.112   2.249   5.943
10543SOL    HW132528   0.129   2.167   5.887
10543SOL    HW232529   0.017   2.248   5.974
10544SOL     OW32530   2.446   2.217   2.662
10544SOL    HW132531   2.347   2.221   2.655
10544SOL    HW232532   2.487   2.236   2.573
10545SOL     OW32533   6.979   0.182   2.544
10545SOL    HW132534   0.048   0.220   2.531
10545SOL    HW232535   6.986   0.090   2.585
10546SOL     OW32536   2.080   0.068   4.564
10546SOL    HW132537   2.092   0.084   4.465
10546SOL    HW232538   2.166   0.034   4.603
10547SOL     OW32539   4.535   1.179   1.887
10547SOL    HW132540   4.578   1.121   1.956
10547SOL    HW232541   4.458   1.228   1.928
10548SOL     OW32542   5.255   3.915   4.250
10548SOL    HW132543   5.178   3.935   4.310
10548SOL    HW232544   5.264   3.817   4.237
10549SOL     OW32545   1.006   0.499   2.423
10549SOL    HW132546   0.978   0.476   2.329
10549SOL    HW232547   0.999   0.598   2.436
10550SOL     OW32548   5.496   0.046   4.055
10550SOL    HW132549   5.402   0.066   4.030
10550SOL    HW232550   5.498   0.006   4.147
10551SOL     OW32551   1.383   1.996   5.383
10551SOL    HW132552   1.436   2.029   5.305
10551SOL    HW232553   1.287   2.019   5.369
10552SOL     OW32554   3.770   2.209   5.799
10552SOL    HW132555   3.867   2.226   5.780
10552SOL    HW232556   3.729   2.291   5.839
10553SOL     OW32557   0.580   5.441   0.436
10553SOL    HW132558   0.633   5.484   0.363
10553SOL    HW232559   0.639   5.382   0.491
10554SOL     OW32560   6.422   4.826   0.044
10554SOL    HW132561   6.496   4.870   7.016
10554SOL    HW232562   6.457   4.796   0.133
10555SOL     OW32563   3.313   1.770   2.033
10555SOL    HW132564   3.296   1.772   2.131
10555SOL    HW232565   3.391   1.829   2.011
10556SOL     OW32566   2.127   3.593   5.069
10556SOL    HW132567   2.124   3.581   4.969
10556SOL    HW232568   2.124   3.691   5.090
10557SOL     OW32569   0.534   2.607   2.975
10557SOL    HW132570   0.560   2.704   2.985
10557SOL    HW232571   0.496   2.593   2.883
10558SOL     OW32572   4.514   6.586   5.348
10558SOL    HW132573   4.534   6.555   5.441
10558SOL    HW232574   4.589   6.643   5.315
10559SOL     OW32575   4.137   1.892   0.832
10559SOL    HW132576   4.107   1.819   0.771
10559SOL    HW232577   4.081   1.973   0.817
10560SOL     OW32578   1.598   4.980   5.319
10560SOL    HW132579   1.502   5.008   5.322
10560SOL    HW232580   1.610   4.909   5.250
10561SOL     OW32581   1.561   5.208   6.954
10561SOL    HW132582   1.591   5.158   0.013
10561SOL    HW232583   1.531   5.143   6.885
10562SOL     OW32584   4.319   0.419   0.722
10562SOL    HW132585   4.370   0.491   0.676
10562SOL    HW232586   4.337   0.332   0.675
10563SOL     OW32587   1.799   1.788   5.123
10563SOL    HW132588   1.823   1.765   5.218
10563SOL    HW232589   1.834   1.718   5.062
10564SOL     OW32590   6.165   0.771   1.703
10564SOL    HW132591   6.098   0.774   1.628
10564SOL    HW232592   6.181   0.676   1.730
10565SOL     OW32593   6.471   1.069   5.595
10565SOL    HW132594   6.472   0.991   5.658
10565SOL    HW232595   6.467   1.154   5.648
10566SOL     OW32596   3.622   4.039   6.326
10566SOL    HW132597   3.602   3.962   6.266
10566SOL    HW232598   3.549   4.107   6.319
10567SOL     OW32599   1.682   3.512   4.604
10567SOL    HW132600   1.759   3.512   4.540
10567SOL    HW232601   1.685   3.429   4.660
10568SOL     OW32602   5.886   1.124   2.162
10568SOL    HW132603   5.947   1.187   2.116
10568SOL    HW232604   5.793   1.133   2.124
10569SOL     OW32605   6.056   3.183   2.427
10569SOL    HW132606   6.132   3.196   2.364
10569SOL    HW232607   5.976   3.150   2.377
10570SOL     OW32608   1.821   4.409   2.508
10570SOL    HW132609   1.905   4.376   2.466
10570SOL    HW232610   1.789   4.343   2.576
10571SOL     OW32611   6.694   5.371   3.169
10571SOL    HW132612   6.660   5.325   3.087
10571SOL    HW232613   6.676   5.469   3.161
10572SOL     OW32614   5.726   3.461   2.608
10572SOL    HW132615   5.628   3.478   2.598
10572SOL    HW232616   5.777   3.540   2.576
10573SOL     OW32617   5.895   5.848   3.557
10573SOL    HW132618   5.894   5.766   3.615
10573SOL    HW232619   5.913   5.821   3.462
10574SOL     OW32620   1.386   1.771   3.716
10574SOL    HW132621   1.370   1.870   3.720
10574SOL    HW232622   1.444   1.750   3.637
10575SOL     OW32623   0.688   0.946   4.596
10575SOL    HW132624   0.687   1.004   4.678
10575SOL    HW232625   0.649   0.997   4.519
10576SOL     OW32626   1.810   5.938   5.445
10576SOL    HW132627   1.770   5.874   5.510
10576SOL    HW232628   1.902   5.908   5.421
10577SOL     OW32629   1.873   2.903   6.222
10577SOL    HW132630   1.796   2.968   6.221
10577SOL    HW232631   1.932   2.920   6.144
10578SOL     OW32632   5.683   0.496   5.147
10578SOL    HW132633   5.663   0.456   5.237
10578SOL    HW232634   5.732   0.429   5.091
10579SOL     OW32635   4.136   1.547   0.907
10579SOL    HW132636   4.175   1.463   0.869
10579SOL    HW232637   4.095   1.601   0.833
10580SOL     OW32638   6.932   6.355   6.695
10580SOL    HW132639   6.859   6.333   6.630
10580SOL    HW232640   6.991   6.425   6.656
10581SOL     OW32641   6.242   0.622   3.123
10581SOL    HW132642   6.301   0.582   3.194
10581SOL    HW232643   6.220   0.716   3.146
10582SOL     OW32644   3.470   5.346   6.963
10582SOL    HW132645   3.388   5.340   6.907
10582SOL    HW232646   3.550   5.323   6.908
10583SOL     OW32647   3.866   0.912   6.853
10583SOL    HW132648   3.922   0.929   6.934
10583SOL    HW232649   3.777   0.877   6.881
10584SOL     OW32650   5.668   6.121   1.455
10584SOL    HW132651   5.757   6.076   1.443
10584SOL    HW232652   5.628   6.092   1.542
10585SOL     OW32653   1.370   3.067   5.732
10585SOL    HW132654   1.337   3.102   5.644
10585SOL    HW232655   1.362   2.967   5.733
10586SOL     OW32656   2.861   5.921   5.964
10586SOL    HW132657   2.849   6.020   5.957
10586SOL    HW232658   2.809   5.876   5.892
10587SOL     OW32659   5.779   3.620   7.009
10587SOL    HW132660   5.702   3.627   0.050
10587SOL    HW232661   5.756   3.555   6.937
10588SOL     OW32662   0.741   4.676   2.383
10588SOL    HW132663   0.727   4.734   2.464
10588SOL    HW232664   0.688   4.592   2.393
10589SOL     OW32665   5.614   2.739   4.384
10589SOL    HW132666   5.582   2.774   4.296
10589SOL    HW232667   5.713   2.726   4.380
10590SOL     OW32668   1.025   6.744   2.968
10590SOL    HW132669   0.945   6.786   2.923
10590SOL    HW232670   1.100   6.738   2.902
10591SOL     OW32671   1.428   1.483   5.803
10591SOL    HW132672   1.490   1.432   5.862
10591SOL    HW232673   1.334   1.466   5.831
10592SOL     OW32674   6.864   1.327   0.069
10592SOL    HW132675   6.896   1.263   7.022
10592SOL    HW232676   6.884   1.290   0.160
10593SOL     OW32677   2.316   5.560   1.787
10593SOL    HW132678   2.313   5.659   1.775
10593SOL    HW232679   2.410   5.532   1.807
10594SOL     OW32680   6.578   1.701   3.818
10594SOL    HW132681   6.516   1.632   3.782
10594SOL    HW232682   6.568   1.707   3.917
10595SOL     OW32683   3.215   6.845   6.021
10595SOL    HW132684   3.179   6.859   6.113
10595SOL    HW232685   3.197   6.751   5.992
10596SOL     OW32686   4.253   6.646   1.891
10596SOL    HW132687   4.183   6.714   1.913
10596SOL    HW232688   4.343   6.690   1.889
10597SOL     OW32689   2.793   1.594   4.594
10597SOL    HW132690   2.733   1.651   4.650
10597SOL    HW232691   2.776   1.498   4.615
10598SOL     OW32692   2.187   2.720   0.010
10598SOL    HW132693   2.111   2.755   6.978
10598SOL    HW232694   2.253   2.793   0.024
10599SOL     OW32695   6.401   1.465   0.062
10599SOL    HW132696   6.303   1.452   0.048
10599SOL    HW232697   6.420   1.562   0.079
10600SOL     OW32698   2.768   2.820   6.381
10600SOL    HW132699   2.864   2.849   6.382
10600SOL    HW232700   2.745   2.783   6.291
10601SOL     OW32701   2.762   6.568   6.400
10601SOL    HW132702   2.785   6.481   6.445
10601SOL    HW232703   2.790   6.564   6.304
10602SOL     OW32704   4.787   1.089   1.463
10602SOL    HW132705   4.769   0.992   1.482
10602SOL    HW232706   4.701   1.134   1.438
10603SOL     OW32707   1.401   5.847   3.817
10603SOL    HW132708   1.481   5.905   3.799
10603SOL    HW232709   1.430   5.755   3.841
10604SOL     OW32710   6.467   4.466   4.639
10604SOL    HW132711   6.467   4.372   4.674
10604SOL    HW232712   6.559   4.504   4.648
10605SOL     OW32713   1.015   5.620   0.319
10605SOL    HW132714   1.072   5.540   0.298
10605SOL    HW232715   1.033   5.652   0.412
10606SOL     OW32716   0.205   0.828   1.642
10606SOL    HW132717   0.139   0.879   1.587
10606SOL    HW232718   0.295   0.871   1.633
10607SOL     OW32719   4.533   4.365   6.515
10607SOL    HW132720   4.530   4.273   6.478
10607SOL    HW232721   4.451   4.415   6.487
10608SOL     OW32722   5.892   1.448   4.245
10608SOL    HW132723   5.890   1.543   4.274
10608SOL    HW232724   5.891   1.443   4.145
10609SOL     OW32725   3.907   6.002   1.124
10609SOL    HW132726   3.911   6.040   1.217
10609SOL    HW232727   3.995   5.961   1.101
10610SOL     OW32728   1.475   3.262   6.108
10610SOL    HW132729   1.388   3.272   6.060
10610SOL    HW232730   1.460   3.258   6.207
10611SOL     OW32731   5.178   2.870   6.184
10611SOL    HW132732   5.167   2.850   6.087
10611SOL    HW232733   5.264   2.830   6.217
10612SOL     OW32734   2.388   6.913   6.262
10612SOL    HW132735   2.370   6.846   6.334
10612SOL    HW232736   2.301   6.954   6.232
10613SOL     OW32737   0.421   6.990   5.416
10613SOL    HW132738   0.379   6.969   5.327
10613SOL    HW232739   0.356   6.969   5.489
10614SOL     OW32740   6.437   0.802   4.489
10614SOL    HW132741   6.529   0.832   4.513
10614SOL    HW232742   6.385   0.878   4.450
10615SOL     OW32743   4.883   5.485   4.985
10615SOL    HW132744   4.978   5.458   4.971
10615SOL    HW232745   4.880   5.571   5.035
10616SOL     OW32746   3.082   5.820   0.894
10616SOL    HW132747   3.169   5.866   0.909
10616SOL    HW232748   3.007   5.884   0.912
10617SOL     OW32749   2.246   2.494   0.233
10617SOL    HW132750   2.257   2.547   0.149
10617SOL    HW232751   2.165   2.436   0.226
10618SOL     OW32752   5.748   2.414   0.301
10618SOL    HW132753   5.698   2.456   0.377
10618SOL    HW232754   5.782   2.325   0.329
10619SOL     OW32755   0.721   4.173   3.101
10619SOL    HW132756   0.781   4.175   3.021
10619SOL    HW232757   0.673   4.085   3.105
10620SOL     OW32758   1.538   6.202   4.745
10620SOL    HW132759   1.596   6.129   4.783
10620SOL    HW232760   1.517   6.181   4.650
10621SOL     OW32761   1.071   5.977   6.669
10621SOL    HW132762   1.131   5.897   6.674
10621SOL    HW232763   1.033   5.996   6.760
10622SOL     OW32764   4.115   0.078   2.004
10622SOL    HW132765   4.059   7.019   2.007
10622SOL    HW232766   4.070   0.150   2.057
10623SOL     OW32767   5.623   2.451   3.510
10623SOL    HW132768   5.685   2.386   3.554
10623SOL    HW232769   5.630   2.540   3.555
10624SOL     OW32770   1.807   1.111   4.891
10624SOL    HW132771   1.799   1.208   4.869
10624SOL    HW232772   1.903   1.086   4.900
10625SOL     OW32773   0.695   3.433   6.780
10625SOL    HW132774   0.784   3.397   6.750
10625SOL    HW232775   0.623   3.372   6.749
10626SOL     OW32776   1.039   1.988   1.929
10626SOL    HW132777   1.003   1.895   1.935
10626SOL    HW232778   0.968   2.053   1.956
10627SOL     OW32779   6.870   6.751   2.361
10627SOL    HW132780   6.850   6.744   2.459
10627SOL    HW232781   6.788   6.729   2.309
10628SOL     OW32782   6.306   5.246   5.128
10628SOL    HW132783   6.340   5.333   5.094
10628SOL    HW232784   6.257   5.261   5.214
10629SOL     OW32785   2.387   4.875   5.866
10629SOL    HW132786   2.415   4.863   5.961
10629SOL    HW232787   2.318   4.947   5.860
10630SOL     OW32788   6.195   0.833   2.805
10630SOL    HW132789   6.151   0.758   2.756
10630SOL    HW232790   6.207   0.808   2.901
10631SOL     OW32791   0.283   6.909   3.856
10631SOL    HW132792   0.340   6.831   3.880
10631SOL    HW232793   0.289   6.978   3.928
10632SOL     OW32794   6.624   2.526   4.272
10632SOL    HW132795   6.583   2.484   4.353
10632SOL    HW232796   6.565   2.601   4.241
10633SOL     OW32797   2.511   4.896   1.266
10633SOL    HW132798   2.456   4.931   1.342
10633SOL    HW232799   2.526   4.970   1.199
10634SOL     OW32800   2.778   5.756   1.137
10634SOL    HW132801   2.753   5.682   1.200
10634SOL    HW232802   2.789   5.841   1.189
10635SOL     OW32803   2.803   0.795   0.852
10635SOL    HW132804   2.757   0.722   0.801
10635SOL    HW232805   2.879   0.830   0.798
10636SOL     OW32806   0.985   1.961   1.529
10636SOL    HW132807   1.016   1.874   1.566
10636SOL    HW232808   0.923   1.944   1.453
10637SOL     OW32809   3.477   4.186   5.252
10637SOL    HW132810   3.411   4.246   5.297
10637SOL    HW232811   3.570   4.215   5.276
10638SOL     OW32812   6.758   6.490   4.452
10638SOL    HW132813   6.669   6.532   4.470
10638SOL    HW232814   6.804   6.471   4.539
10639SOL     OW32815   0.551   0.870   5.078
10639SOL    HW132816   0.548   0.829   4.987
10639SOL    HW232817   0.645   0.875   5.109
10640SOL     OW32818   5.142   0.513   0.280
10640SOL    HW132819   5.133   0.415   0.297
10640SOL    HW232820   5.091   0.564   0.349
10641SOL     OW32821   5.244   1.635   0.165
10641SOL    HW132822   5.335   1.673   0.176
10641SOL    HW232823   5.217   1.639   0.069
10642SOL     OW32824   0.444   1.887   1.868
10642SOL    HW132825   0.376   1.888   1.941
10642SOL    HW232826   0.506   1.809   1.880
10643SOL     OW32827   2.276   3.818   5.360
10643SOL    HW132828   2.301   3.881   5.288
10643SOL    HW232829   2.359   3.777   5.400
10644SOL     OW32830   4.800   1.638   4.171
10644SOL    HW132831   4.799   1.586   4.257
10644SOL    HW232832   4.751   1.587   4.101
10645SOL     OW32833   1.780   0.454   4.653
10645SOL    HW132834   1.786   0.390   4.729
10645SOL    HW232835   1.780   0.548   4.688
10646SOL     OW32836   1.055   2.751   5.631
10646SOL    HW132837   1.074   2.787   5.723
10646SOL    HW232838   0.971   2.696   5.633
10647SOL     OW32839   6.382   4.788   0.774
10647SOL    HW132840   6.342   4.777   0.683
10647SOL    HW232841   6.388   4.885   0.796
10648SOL     OW32842   4.753   3.078   6.477
10648SOL    HW132843   4.830   3.081   6.413
10648SOL    HW232844   4.785   3.044   6.566
10649SOL     OW32845   6.779   4.979   5.674
10649SOL    HW132846   6.877   4.991   5.689
10649SOL    HW232847   6.762   4.955   5.578
10650SOL     OW32848   2.270   6.353   4.020
10650SOL    HW132849   2.357   6.401   4.033
10650SOL    HW232850   2.221   6.347   4.107
10651SOL     OW32851   5.047   6.670   5.578
10651SOL    HW132852   4.966   6.612   5.570
10651SOL    HW232853   5.128   6.619   5.548
10652SOL     OW32854   3.333   0.472   6.145
10652SOL    HW132855   3.297   0.560   6.115
10652SOL    HW232856   3.286   0.398   6.097
10653SOL     OW32857   5.200   4.638   4.151
10653SOL    HW132858   5.228   4.571   4.219
10653SOL    HW232859   5.132   4.597   4.090
10654SOL     OW32860   3.019   0.459   1.431
10654SOL    HW132861   3.004   0.397   1.508
10654SOL    HW232862   2.940   0.456   1.369
10655SOL     OW32863   3.126   6.378   1.718
10655SOL    HW132864   3.121   6.330   1.805
10655SOL    HW232865   3.204   6.343   1.666
10656SOL     OW32866   6.254   2.180   0.222
10656SOL    HW132867   6.345   2.197   0.261
10656SOL    HW232868   6.190   2.249   0.255
10657SOL     OW32869   5.365   6.934   1.149
10657SOL    HW132870   5.332   6.840   1.141
10657SOL    HW232871   5.297   6.990   1.196
10658SOL     OW32872   1.085   5.580   3.846
10658SOL    HW132873   1.004   5.563   3.902
10658SOL    HW232874   1.090   5.678   3.824
10659SOL     OW32875   5.662   0.224   1.028
10659SOL    HW132876   5.640   0.242   0.932
10659SOL    HW232877   5.753   0.261   1.048
10660SOL     OW32878   4.275   4.114   5.559
10660SOL    HW132879   4.368   4.110   5.523
10660SOL    HW232880   4.221   4.038   5.523
10661SOL     OW32881   0.474   6.278   2.265
10661SOL    HW132882   0.421   6.221   2.203
10661SOL    HW232883   0.562   6.300   2.222
10662SOL     OW32884   6.921   1.841   0.541
10662SOL    HW132885   7.007   1.891   0.531
10662SOL    HW232886   6.909   1.780   0.463
10663SOL     OW32887   0.393   0.395   0.927
10663SOL    HW132888   0.342   0.408   1.012
10663SOL    HW232889   0.448   0.476   0.907
10664SOL     OW32890   1.983   5.243   0.197
10664SOL    HW132891   1.943   5.312   0.257
10664SOL    HW232892   1.993   5.280   0.105
10665SOL     OW32893   6.561   2.149   0.696
10665SOL    HW132894   6.597   2.091   0.623
10665SOL    HW232895   6.488   2.102   0.744
10666SOL     OW32896   2.354   5.825   6.942
10666SOL    HW132897   2.398   5.807   6.854
10666SOL    HW232898   2.328   5.922   6.946
10667SOL     OW32899   3.293   1.749   5.765
10667SOL    HW132900   3.233   1.811   5.715
10667SOL    HW232901   3.370   1.723   5.707
10668SOL     OW32902   1.537   1.734   6.681
10668SOL    HW132903   1.556   1.656   6.622
10668SOL    HW232904   1.464   1.790   6.641
10669SOL     OW32905   1.751   6.937   7.005
10669SOL    HW132906   1.684   6.994   6.957
10669SOL    HW232907   1.706   6.855   0.016
10670SOL     OW32908   5.443   4.445   5.907
10670SOL    HW132909   5.534   4.411   5.930
10670SOL    HW232910   5.392   4.463   5.992
10671SOL     OW32911   2.423   2.517   2.928
10671SOL    HW132912   2.405   2.420   2.948
10671SOL    HW232913   2.514   2.527   2.888
10672SOL     OW32914   0.560   2.398   1.091
10672SOL    HW132915   0.521   2.387   1.182
10672SOL    HW232916   0.505   2.463   1.038
10673SOL     OW32917   2.683   3.087   5.320
10673SOL    HW132918   2.755   3.090   5.251
10673SOL    HW232919   2.597   3.057   5.277
10674SOL     OW32920   3.900   3.459   1.581
10674SOL    HW132921   3.963   3.449   1.504
10674SOL    HW232922   3.888   3.370   1.626
10675SOL     OW32923   0.314   6.829   5.610
10675SOL    HW132924   0.295   6.732   5.597
10675SOL    HW232925   0.286   6.858   5.701
10676SOL     OW32926   6.065   0.064   6.400
10676SOL    HW132927   6.140   0.000   6.420
10676SOL    HW232928   6.079   0.105   6.310
10677SOL     OW32929   0.325   0.436   1.204
10677SOL    HW132930   0.280   0.467   1.287
10677SOL    HW232931   0.422   0.463   1.206
10678SOL     OW32932   2.129   5.790   2.291
10678SOL    HW132933   2.097   5.866   2.234
10678SOL    HW232934   2.076   5.787   2.376
10679SOL     OW32935   5.219   5.252   3.833
10679SOL    HW132936   5.278   5.234   3.912
10679SOL    HW232937   5.140   5.306   3.862
10680SOL     OW32938   1.176   3.468   2.511
10680SOL    HW132939   1.230   3.436   2.433
10680SOL    HW232940   1.189   3.405   2.588
10681SOL     OW32941   6.281   2.493   5.605
10681SOL    HW132942   6.237   2.429   5.668
10681SOL    HW232943   6.213   2.559   5.572
10682SOL     OW32944   0.283   1.011   2.738
10682SOL    HW132945   0.291   0.918   2.774
10682SOL    HW232946   0.307   1.012   2.641
10683SOL     OW32947   1.628   1.961   4.809
10683SOL    HW132948   1.608   1.864   4.824
10683SOL    HW232949   1.701   1.970   4.742
10684SOL     OW32950   6.215   4.701   6.925
10684SOL    HW132951   6.279   4.754   6.981
10684SOL    HW232952   6.129   4.691   6.974
10685SOL     OW32953   0.230   2.975   3.162
10685SOL    HW132954   0.154   2.965   3.227
10685SOL    HW232955   0.317   2.971   3.212
10686SOL     OW32956   2.901   5.539   0.513
10686SOL    HW132957   2.894   5.475   0.590
10686SOL    HW232958   2.912   5.487   0.428
10687SOL     OW32959   0.345   4.725   2.695
10687SOL    HW132960   0.366   4.767   2.606
10687SOL    HW232961   0.405   4.764   2.765
10688SOL     OW32962   6.885   4.785   1.971
10688SOL    HW132963   6.876   4.876   2.012
10688SOL    HW232964   6.818   4.723   2.013
10689SOL     OW32965   0.667   0.553   2.476
10689SOL    HW132966   0.755   0.510   2.494
10689SOL    HW232967   0.593   0.494   2.509
10690SOL     OW32968   4.619   4.838   2.072
10690SOL    HW132969   4.528   4.844   2.114
10690SOL    HW232970   4.625   4.755   2.017
10691SOL     OW32971   6.886   1.339   1.926
10691SOL    HW132972   6.856   1.425   1.885
10691SOL    HW232973   6.806   1.284   1.950
10692SOL     OW32974   3.584   5.702   3.604
10692SOL    HW132975   3.680   5.704   3.573
10692SOL    HW232976   3.563   5.612   3.641
10693SOL     OW32977   6.571   1.479   1.889
10693SOL    HW132978   6.654   1.506   1.841
10693SOL    HW232979   6.593   1.408   1.956
10694SOL     OW32980   4.636   6.467   0.647
10694SOL    HW132981   4.628   6.431   0.740
10694SOL    HW232982   4.657   6.565   0.651
10695SOL     OW32983   0.072   2.241   3.995
10695SOL    HW132984   0.109   2.266   3.905
10695SOL    HW232985   7.022   2.173   3.983
10696SOL     OW32986   6.724   5.753   1.384
10696SOL    HW132987   6.748   5.666   1.342
10696SOL    HW232988   6.711   5.740   1.482
10697SOL     OW32989   1.503   6.100   4.283
10697SOL    HW132990   1.454   6.054   4.209
10697SOL    HW232991   1.591   6.134   4.248
10698SOL     OW32992   2.856   0.021   3.681
10698SOL    HW132993   2.822   7.023   3.773
10698SOL    HW232994   2.915   0.103   3.686
10699SOL     OW32995   3.275   1.994   2.897
10699SOL    HW132996   3.326   2.014   2.814
10699SOL    HW232997   3.300   2.059   2.969
10700SOL     OW32998   6.785   6.591   1.414
10700SOL    HW132999   6.803   6.686   1.440
10700SOL    HW233000   6.690   6.582   1.384
10701SOL     OW33001   2.784   6.258   0.569
10701SOL    HW133002   2.838   6.303   0.498
10701SOL    HW233003   2.821   6.167   0.587
10702SOL     OW33004   6.062   2.543   0.843
10702SOL    HW133005   6.122   2.621   0.826
10702SOL    HW233006   5.983   2.574   0.896
10703SOL     OW33007   3.935   3.910   3.878
10703SOL    HW133008   3.865   3.970   3.840
10703SOL    HW233009   3.892   3.835   3.928
10704SOL     OW33010   5.077   0.187   2.406
10704SOL    HW133011   4.982   0.191   2.436
10704SOL    HW233012   5.135   0.234   2.473
10705SOL     OW33013   0.040   3.221   6.101
10705SOL    HW133014   0.003   3.268   6.181
10705SOL    HW233015   7.015   3.251   6.019
10706SOL     OW33016   3.164   0.993   2.436
10706SOL    HW133017   3.152   0.933   2.515
10706SOL    HW233018   3.180   1.087   2.467
10707SOL     OW33019   6.056   0.175   6.172
10707SOL    HW133020   6.104   0.101   6.124
10707SOL    HW233021   6.114   0.256   6.174
10708SOL     OW33022   4.416   1.163   0.574
10708SOL    HW133023   4.369   1.165   0.485
10708SOL    HW233024   4.455   1.252   0.593
10709SOL     OW33025   5.912   6.726   5.741
10709SOL    HW133026   5.859   6.722   5.657
10709SOL    HW233027   6.006   6.754   5.720
10710SOL     OW33028   6.065   5.116   3.149
10710SOL    HW133029   6.121   5.177   3.204
10710SOL    HW233030   6.089   5.127   3.052
10711SOL     OW33031   1.680   0.051   3.774
10711SOL    HW133032   1.767   0.097   3.756
10711SOL    HW233033   1.640   0.086   3.859
10712SOL     OW33034   3.854   1.293   5.011
10712SOL    HW133035   3.804   1.338   4.938
10712SOL    HW233036   3.912   1.221   4.973
10713SOL     OW33037   1.102   5.965   1.536
10713SOL    HW133038   1.013   5.918   1.533
10713SOL    HW233039   1.146   5.959   1.446
10714SOL     OW33040   6.888   5.380   5.592
10714SOL    HW133041   6.832   5.323   5.532
10714SOL    HW233042   6.845   5.386   5.682
10715SOL     OW33043   5.185   1.778   4.404
10715SOL    HW133044   5.283   1.795   4.416
10715SOL    HW233045   5.137   1.803   4.488
10716SOL     OW33046   6.243   0.417   3.911
10716SOL    HW133047   6.210   0.337   3.961
10716SOL    HW233048   6.179   0.438   3.836
10717SOL     OW33049   0.233   0.252   1.553
10717SOL    HW133050   0.316   0.302   1.578
10717SOL    HW233051   0.158   0.316   1.538
10718SOL     OW33052   6.365   5.352   0.068
10718SOL    HW133053   6.407   5.348   7.000
10718SOL    HW233054   6.371   5.262   0.111
10719SOL     OW33055   5.453   0.585   1.874
10719SOL    HW133056   5.360   0.557   1.851
10719SOL    HW233057   5.508   0.504   1.893
10720SOL     OW33058   0.170   3.530   6.562
10720SOL    HW133059   0.247   3.559   6.506
10720SOL    HW233060   0.087   3.529   6.507
10721SOL     OW33061   4.935   2.663   4.732
10721SOL    HW133062   4.848   2.644   4.685
10721SOL    HW233063   4.985   2.733   4.682
10722SOL     OW33064   0.228   3.627   6.821
10722SOL    HW133065   0.233   3.528   6.835
10722SOL    HW233066   0.215   3.647   6.724
10723SOL     OW33067   5.885   3.928   6.639
10723SOL    HW133068   5.790   3.957   6.647
10723SOL    HW233069   5.918   3.896   6.728
10724SOL     OW33070   4.333   6.470   6.306
10724SOL    HW133071   4.285   6.430   6.228
10724SOL    HW233072   4.293   6.434   6.391
10725SOL     OW33073   6.804   6.020   5.156
10725SOL    HW133074   6.823   5.994   5.062
10725SOL    HW233075   6.714   6.065   5.161
10726SOL     OW33076   4.683   1.030   4.568
10726SOL    HW133077   4.777   1.026   4.599
10726SOL    HW233078   4.681   1.035   4.468
10727SOL     OW33079   2.269   6.465   5.636
10727SOL    HW133080   2.320   6.404   5.697
10727SOL    HW233081   2.333   6.512   5.575
10728SOL     OW33082   5.098   5.932   3.019
10728SOL    HW133083   5.090   6.025   2.983
10728SOL    HW233084   5.116   5.868   2.944
10729SOL     OW33085   5.715   2.636   2.986
10729SOL    HW133086   5.741   2.705   2.918
10729SOL    HW233087   5.628   2.662   3.028
10730SOL     OW33088   2.178   6.508   2.814
10730SOL    HW133089   2.257   6.562   2.784
10730SOL    HW233090   2.106   6.568   2.846
10731SOL     OW33091   3.560   0.033   6.528
10731SOL    HW133092   3.585   0.097   6.601
10731SOL    HW233093   3.606   6.969   6.543
10732SOL     OW33094   5.983   6.117   3.408
10732SOL    HW133095   5.965   6.119   3.506
10732SOL    HW233096   5.928   6.046   3.365
10733SOL     OW33097   0.158   0.540   5.904
10733SOL    HW133098   0.071   0.495   5.921
10733SOL    HW233099   0.233   0.478   5.927
10734SOL     OW33100   0.969   1.310   5.436
10734SOL    HW133101   0.873   1.281   5.439
10734SOL    HW233102   1.026   1.236   5.401
10735SOL     OW33103   1.384   5.429   1.839
10735SOL    HW133104   1.439   5.388   1.766
10735SOL    HW233105   1.414   5.523   1.854
10736SOL     OW33106   5.907   6.985   3.937
10736SOL    HW133107   5.905   0.023   4.017
10736SOL    HW233108   5.831   6.921   3.942
10737SOL     OW33109   6.648   1.302   2.089
10737SOL    HW133110   6.557   1.261   2.095
10737SOL    HW233111   6.700   1.284   2.172
10738SOL     OW33112   3.281   0.759   2.067
10738SOL    HW133113   3.269   0.739   2.165
10738SOL    HW233114   3.375   0.787   2.051
10739SOL     OW33115   5.866   2.422   3.007
10739SOL    HW133116   5.872   2.363   2.926
10739SOL    HW233117   5.792   2.488   2.994
10740SOL     OW33118   1.540   6.838   6.412
10740SOL    HW133119   1.571   6.832   6.317
10740SOL    HW233120   1.506   6.749   6.442
10741SOL     OW33121   2.519   2.466   3.581
10741SOL    HW133122   2.615   2.456   3.606
10741SOL    HW233123   2.491   2.561   3.590
10742SOL     OW33124   6.321   6.212   3.171
10742SOL    HW133125   6.237   6.266   3.175
10742SOL    HW233126   6.338   6.171   3.261
10743SOL     OW33127   3.814   1.073   5.856
10743SOL    HW133128   3.733   1.093   5.911
10743SOL    HW233129   3.805   1.118   5.767
10744SOL     OW33130   1.804   0.075   0.197
10744SOL    HW133131   1.838   0.169   0.189
10744SOL    HW233132   1.799   0.034   0.106
10745SOL     OW33133   2.180   5.040   1.320
10745SOL    HW133134   2.103   4.988   1.283
10745SOL    HW233135   2.239   4.978   1.372
10746SOL     OW33136   1.617   6.020   6.205
10746SOL    HW133137   1.618   6.039   6.107
10746SOL    HW233138   1.532   5.972   6.229
10747SOL     OW33139   6.263   1.427   4.637
10747SOL    HW133140   6.262   1.351   4.702
10747SOL    HW233141   6.174   1.434   4.592
10748SOL     OW33142   4.070   6.316   1.219
10748SOL    HW133143   4.144   6.351   1.277
10748SOL    HW233144   4.016   6.250   1.271
10749SOL     OW33145   5.561   5.645   2.342
10749SOL    HW133146   5.632   5.578   2.365
10749SOL    HW233147   5.486   5.638   2.408
10750SOL     OW33148   4.854   2.264   4.049
10750SOL    HW133149   4.808   2.202   3.986
10750SOL    HW233150   4.814   2.355   4.043
10751SOL     OW33151   0.342   5.022   5.056
10751SOL    HW133152   0.302   5.028   4.965
10751SOL    HW233153   0.340   4.928   5.088
10752SOL     OW33154   6.213   6.549   0.961
10752SOL    HW133155   6.270   6.467   0.958
10752SOL    HW233156   6.147   6.541   1.036
10753SOL     OW33157   4.703   6.293   3.881
10753SOL    HW133158   4.772   6.351   3.925
10753SOL    HW233159   4.647   6.249   3.950
10754SOL     OW33160   1.355   3.657   1.593
10754SOL    HW133161   1.447   3.677   1.627
10754SOL    HW233162   1.289   3.665   1.667
10755SOL     OW33163   6.120   3.309   1.171
10755SOL    HW133164   6.037   3.327   1.118
10755SOL    HW233165   6.121   3.368   1.252
10756SOL     OW33166   0.236   2.119   0.893
10756SOL    HW133167   0.170   2.169   0.948
10756SOL    HW233168   0.252   2.029   0.935
10757SOL     OW33169   0.278   3.879   1.587
10757SOL    HW133170   0.374   3.874   1.558
10757SOL    HW233171   0.232   3.952   1.537
10758SOL     OW33172   0.642   0.341   6.878
10758SOL    HW133173   0.546   0.370   6.885
10758SOL    HW233174   0.690   0.401   6.814
10759SOL     OW33175   2.693   2.518   6.303
10759SOL    HW133176   2.776   2.535   6.356
10759SOL    HW233177   2.615   2.558   6.349
10760SOL     OW33178   0.492   5.086   0.478
10760SOL    HW133179   0.415   5.023   0.469
10760SOL    HW233180   0.472   5.172   0.432
10761SOL     OW33181   0.291   1.558   6.125
10761SOL    HW133182   0.221   1.607   6.074
10761SOL    HW233183   0.282   1.460   6.106
10762SOL     OW33184   3.713   6.458   6.412
10762SOL    HW133185   3.636   6.522   6.402
10762SOL    HW233186   3.678   6.368   6.436
10763SOL     OW33187   5.385   0.291   3.219
10763SOL    HW133188   5.366   0.354   3.144
10763SOL    HW233189   5.480   0.259   3.212
10764SOL     OW33190   4.061   0.701   4.735
10764SOL    HW133191   4.070   0.712   4.834
10764SOL    HW233192   4.069   0.790   4.691
10765SOL     OW33193   6.644   1.741   2.958
10765SOL    HW133194   6.659   1.836   2.929
10765SOL    HW233195   6.717   1.715   3.021
10766SOL     OW33196   1.567   4.740   6.110
10766SOL    HW133197   1.566   4.705   6.204
10766SOL    HW233198   1.661   4.747   6.078
10767SOL     OW33199   1.851   5.831   0.317
10767SOL    HW133200   1.789   5.901   0.353
10767SOL    HW233201   1.810   5.788   0.237
10768SOL     OW33202   5.732   5.866   0.546
10768SOL    HW133203   5.662   5.844   0.477
10768SOL    HW233204   5.701   5.945   0.599
10769SOL     OW33205   3.339   3.285   4.673
10769SOL    HW133206   3.370   3.276   4.768
10769SOL    HW233207   3.354   3.379   4.642
10770SOL     OW33208   5.278   6.823   3.958
10770SOL    HW133209   5.345   6.775   4.014
10770SOL    HW233210   5.274   6.919   3.986
10771SOL     OW33211   4.971   5.936   5.883
10771SOL    HW133212   4.973   5.945   5.784
10771SOL    HW233213   4.903   5.999   5.921
10772SOL     OW33214   5.868   4.667   2.720
10772SOL    HW133215   5.946   4.608   2.736
10772SOL    HW233216   5.880   4.716   2.633
10773SOL     OW33217   6.863   4.568   1.021
10773SOL    HW133218   6.856   4.668   1.019
10773SOL    HW233219   6.798   4.529   0.955
10774SOL     OW33220   1.690   3.143   0.529
10774SOL    HW133221   1.649   3.074   0.589
10774SOL    HW233222   1.789   3.145   0.543
10775SOL     OW33223   1.075   4.379   1.183
10775SOL    HW133224   0.994   4.379   1.242
10775SOL    HW233225   1.072   4.458   1.122
10776SOL     OW33226   1.162   1.803   3.218
10776SOL    HW133227   1.135   1.756   3.134
10776SOL    HW233228   1.153   1.902   3.205
10777SOL     OW33229   3.723   1.332   2.156
10777SOL    HW133230   3.629   1.299   2.154
10777SOL    HW233231   3.730   1.411   2.217
10778SOL     OW33232   5.982   6.490   3.456
10778SOL    HW133233   6.079   6.499   3.480
10778SOL    HW233234   5.942   6.414   3.507
10779SOL     OW33235   5.464   4.153   4.196
10779SOL    HW133236   5.499   4.111   4.280
10779SOL    HW233237   5.373   4.118   4.177
10780SOL     OW33238   1.715   5.996   4.852
10780SOL    HW133239   1.639   5.953   4.901
10780SOL    HW233240   1.774   5.925   4.814
10781SOL     OW33241   5.929   2.063   5.465
10781SOL    HW133242   5.867   2.032   5.392
10781SOL    HW233243   5.897   2.150   5.501
10782SOL     OW33244   1.233   2.758   5.042
10782SOL    HW133245   1.236   2.660   5.021
10782SOL    HW233246   1.146   2.780   5.086
10783SOL     OW33247   1.214   2.738   3.002
10783SOL    HW133248   1.244   2.819   3.053
10783SOL    HW233249   1.223   2.756   2.904
10784SOL     OW33250   3.794   6.347   2.641
10784SOL    HW133251   3.713   6.309   2.685
10784SOL    HW233252   3.874   6.331   2.699
10785SOL     OW33253   1.692   5.817   2.463
10785SOL    HW133254   1.622   5.751   2.490
10785SOL    HW233255   1.780   5.771   2.456
10786SOL     OW33256   4.198   1.013   2.137
10786SOL    HW133257   4.132   1.056   2.199
10786SOL    HW233258   4.254   1.084   2.094
10787SOL     OW33259   3.810   1.542   3.769
10787SOL    HW133260   3.879   1.581   3.708
10787SOL    HW233261   3.852   1.473   3.827
10788SOL     OW33262   0.741   4.954   0.845
10788SOL    HW133263   0.716   4.961   0.942
10788SOL    HW233264   0.725   4.860   0.814
10789SOL     OW33265   6.436   1.742   0.561
10789SOL    HW133266   6.534   1.729   0.573
10789SOL    HW233267   6.412   1.837   0.583
10790SOL     OW33268   0.527   2.534   4.710
10790SOL    HW133269   0.433   2.518   4.740
10790SOL    HW233270   0.584   2.457   4.735
10791SOL     OW33271   1.464   1.849   3.258
10791SOL    HW133272   1.365   1.840   3.264
10791SOL    HW233273   1.502   1.770   3.210
10792SOL     OW33274   3.872   2.063   1.249
10792SOL    HW133275   3.964   2.045   1.284
10792SOL    HW233276   3.847   1.992   1.183
10793SOL     OW33277   4.395   1.260   5.006
10793SOL    HW133278   4.353   1.177   5.041
10793SOL    HW233279   4.493   1.245   4.992
10794SOL     OW33280   4.283   3.114   0.686
10794SOL    HW133281   4.210   3.051   0.714
10794SOL    HW233282   4.369   3.063   0.677
10795SOL     OW33283   0.436   3.602   3.317
10795SOL    HW133284   0.371   3.529   3.293
10795SOL    HW233285   0.514   3.598   3.255
10796SOL     OW33286   0.117   6.860   6.908
10796SOL    HW133287   0.076   6.859   7.000
10796SOL    HW233288   0.137   6.954   6.882
10797SOL     OW33289   4.241   4.007   0.444
10797SOL    HW133290   4.237   3.923   0.499
10797SOL    HW233291   4.296   4.076   0.493
10798SOL     OW33292   2.543   0.177   6.389
10798SOL    HW133293   2.556   0.078   6.398
10798SOL    HW233294   2.503   0.197   6.300
10799SOL     OW33295   2.629   1.548   2.985
10799SOL    HW133296   2.644   1.498   3.071
10799SOL    HW233297   2.595   1.484   2.916
10800SOL     OW33298   1.611   0.477   5.613
10800SOL    HW133299   1.584   0.573   5.604
10800SOL    HW233300   1.709   0.473   5.634
10801SOL     OW33301   2.832   6.516   6.152
10801SOL    HW133302   2.742   6.498   6.114
10801SOL    HW233303   2.882   6.577   6.091
10802SOL     OW33304   0.523   4.328   4.726
10802SOL    HW133305   0.602   4.268   4.727
10802SOL    HW233306   0.553   4.422   4.706
10803SOL     OW33307   6.897   4.430   5.145
10803SOL    HW133308   6.989   4.408   5.111
10803SOL    HW233309   6.833   4.361   5.112
10804SOL     OW33310   5.127   4.723   1.582
10804SOL    HW133311   5.033   4.756   1.577
10804SOL    HW233312   5.154   4.713   1.677
10805SOL     OW33313   4.356   6.744   0.640
10805SOL    HW133314   4.451   6.749   0.610
10805SOL    HW233315   4.298   6.799   0.580
10806SOL     OW33316   4.806   3.576   6.955
10806SOL    HW133317   4.714   3.592   6.993
10806SOL    HW233318   4.859   3.661   6.959
10807SOL     OW33319   4.275   6.619   3.422
10807SOL    HW133320   4.183   6.631   3.384
10807SOL    HW233321   4.288   6.522   3.446
10808SOL     OW33322   0.054   2.932   6.124
10808SOL    HW133323   0.122   2.905   6.056
10808SOL    HW233324   0.043   3.031   6.123
10809SOL     OW33325   2.557   0.761   3.259
10809SOL    HW133326   2.593   0.841   3.307
10809SOL    HW233327   2.539   0.688   3.325
10810SOL     OW33328   6.782   1.314   5.227
10810SOL    HW133329   6.743   1.244   5.287
10810SOL    HW233330   6.875   1.288   5.201
10811SOL     OW33331   4.593   4.766   5.642
10811SOL    HW133332   4.628   4.776   5.734
10811SOL    HW233333   4.547   4.677   5.633
10812SOL     OW33334   6.606   2.283   3.235
10812SOL    HW133335   6.542   2.276   3.159
10812SOL    HW233336   6.576   2.354   3.299
10813SOL     OW33337   2.555   6.023   1.530
10813SOL    HW133338   2.569   6.005   1.628
10813SOL    HW233339   2.515   5.942   1.487
10814SOL     OW33340   1.872   6.972   4.980
10814SOL    HW133341   1.852   6.904   4.910
10814SOL    HW233342   1.936   0.017   4.943
10815SOL     OW33343   4.979   2.734   2.960
10815SOL    HW133344   5.052   2.803   2.952
10815SOL    HW233345   4.919   2.759   3.036
10816SOL     OW33346   2.415   1.587   1.973
10816SOL    HW133347   2.405   1.538   1.887
10816SOL    HW233348   2.338   1.649   1.985
10817SOL     OW33349   4.468   6.608   2.185
10817SOL    HW133350   4.529   6.533   2.211
10817SOL    HW233351   4.518   6.673   2.128
10818SOL     OW33352   4.465   3.165   6.780
10818SOL    HW133353   4.502   3.188   6.870
10818SOL    HW233354   4.532   3.190   6.709
10819SOL     OW33355   0.176   4.007   6.478
10819SOL    HW133356   0.274   3.991   6.494
10819SOL    HW233357   0.159   4.012   6.379
10820SOL     OW33358   0.356   6.533   4.512
10820SOL    HW133359   0.439   6.487   4.544
10820SOL    HW233360   0.346   6.621   4.559
10821SOL     OW33361   6.743   0.354   0.709
10821SOL    HW133362   6.755   0.313   0.800
10821SOL    HW233363   6.758   0.284   0.639
10822SOL     OW33364   1.056   4.219   1.529
10822SOL    HW133365   1.051   4.140   1.467
10822SOL    HW233366   1.106   4.293   1.485
10823SOL     OW33367   1.407   0.580   1.036
10823SOL    HW133368   1.347   0.658   1.053
10823SOL    HW233369   1.402   0.556   0.939
10824SOL     OW33370   5.725   0.245   2.839
10824SOL    HW133371   5.779   0.162   2.825
10824SOL    HW233372   5.743   0.282   2.930
10825SOL     OW33373   3.518   1.107   1.118
10825SOL    HW133374   3.576   1.123   1.197
10825SOL    HW233375   3.460   1.187   1.103
10826SOL     OW33376   6.630   3.128   1.617
10826SOL    HW133377   6.718   3.100   1.577
10826SOL    HW233378   6.614   3.077   1.701
10827SOL     OW33379   0.086   2.416   4.235
10827SOL    HW133380   0.175   2.440   4.273
10827SOL    HW233381   0.098   2.378   4.144
10828SOL     OW33382   0.846   5.885   0.176
10828SOL    HW133383   0.797   5.848   0.255
10828SOL    HW233384   0.892   5.970   0.202
10829SOL     OW33385   3.016   3.540   1.419
10829SOL    HW133386   2.981   3.523   1.327
10829SOL    HW233387   2.980   3.627   1.453
10830SOL     OW33388   4.849   2.552   4.089
10830SOL    HW133389   4.937   2.564   4.044
10830SOL    HW233390   4.780   2.609   4.044
10831SOL     OW33391   5.363   1.827   3.026
10831SOL    HW133392   5.435   1.859   2.964
10831SOL    HW233393   5.291   1.781   2.973
10832SOL     OW33394   6.856   1.724   1.022
10832SOL    HW133395   6.802   1.758   1.099
10832SOL    HW233396   6.944   1.770   1.019
10833SOL     OW33397   3.273   6.917   4.597
10833SOL    HW133398   3.352   6.858   4.612
10833SOL    HW233399   3.304   7.010   4.576
10834SOL     OW33400   0.532   1.334   5.025
10834SOL    HW133401   0.491   1.243   5.022
10834SOL    HW233402   0.475   1.399   4.975
10835SOL     OW33403   6.764   1.540   2.385
10835SOL    HW133404   6.850   1.591   2.377
10835SOL    HW233405   6.695   1.600   2.426
10836SOL     OW33406   2.130   2.522   6.587
10836SOL    HW133407   2.177   2.576   6.657
10836SOL    HW233408   2.154   2.426   6.597
10837SOL     OW33409   0.624   5.202   0.809
10837SOL    HW133410   0.657   5.109   0.791
10837SOL    HW233411   0.698   5.267   0.789
10838SOL     OW33412   6.035   0.216   0.138
10838SOL    HW133413   5.953   0.203   0.082
10838SOL    HW233414   6.080   0.127   0.150
10839SOL     OW33415   2.337   1.901   0.683
10839SOL    HW133416   2.358   1.853   0.598
10839SOL    HW233417   2.408   1.967   0.702
10840SOL     OW33418   4.002   5.527   1.855
10840SOL    HW133419   4.045   5.502   1.942
10840SOL    HW233420   3.918   5.473   1.843
10841SOL     OW33421   3.616   4.717   6.405
10841SOL    HW133422   3.527   4.676   6.384
10841SOL    HW233423   3.685   4.679   6.344
10842SOL     OW33424   6.333   2.851   1.465
10842SOL    HW133425   6.392   2.797   1.525
10842SOL    HW233426   6.376   2.940   1.448
10843SOL     OW33427   0.234   1.474   1.912
10843SOL    HW133428   0.185   1.389   1.928
10843SOL    HW233429   0.328   1.455   1.884
10844SOL     OW33430   4.423   6.690   3.864
10844SOL    HW133431   4.357   6.616   3.847
10844SOL    HW233432   4.401   6.768   3.806
10845SOL     OW33433   1.848   2.686   0.777
10845SOL    HW133434   1.754   2.681   0.743
10845SOL    HW233435   1.850   2.663   0.874
10846SOL     OW33436   3.792   1.873   1.770
10846SOL    HW133437   3.741   1.959   1.762
10846SOL    HW233438   3.731   1.796   1.750
10847SOL     OW33439   4.293   3.028   6.360
10847SOL    HW133440   4.197   3.022   6.385
10847SOL    HW233441   4.321   3.124   6.356
10848SOL     OW33442   1.495   0.786   6.507
10848SOL    HW133443   1.454   0.777   6.416
10848SOL    HW233444   1.542   0.874   6.514
10849SOL     OW33445   2.609   4.796   4.196
10849SOL    HW133446   2.590   4.713   4.248
10849SOL    HW233447   2.526   4.850   4.187
10850SOL     OW33448   5.361   6.457   0.710
10850SOL    HW133449   5.401   6.516   0.640
10850SOL    HW233450   5.342   6.512   0.792
10851SOL     OW33451   4.013   2.116   6.221
10851SOL    HW133452   3.976   2.023   6.209
10851SOL    HW233453   4.056   2.145   6.136
10852SOL     OW33454   0.382   0.378   5.981
10852SOL    HW133455   0.360   0.365   6.077
10852SOL    HW233456   0.445   0.456   5.971
10853SOL     OW33457   2.235   1.235   4.564
10853SOL    HW133458   2.204   1.148   4.601
10853SOL    HW233459   2.308   1.272   4.623
10854SOL     OW33460   6.930   6.696   0.376
10854SOL    HW133461   6.872   6.700   0.295
10854SOL    HW233462   6.983   6.611   0.375
10855SOL     OW33463   0.959   6.335   0.687
10855SOL    HW133464   0.892   6.345   0.615
10855SOL    HW233465   1.033   6.402   0.673
10856SOL     OW33466   6.304   6.721   6.698
10856SOL    HW133467   6.353   6.722   6.785
10856SOL    HW233468   6.329   6.640   6.646
10857SOL     OW33469   5.905   1.132   4.106
10857SOL    HW133470   5.926   1.063   4.036
10857SOL    HW233471   5.834   1.098   4.166
10858SOL     OW33472   2.281   1.888   0.282
10858SOL    HW133473   2.349   1.842   0.225
10858SOL    HW233474   2.193   1.888   0.235
10859SOL     OW33475   0.771   4.549   2.004
10859SOL    HW133476   0.681   4.584   1.980
10859SOL    HW233477   0.764   4.453   2.029
10860SOL     OW33478   6.684   1.978   0.243
10860SOL    HW133479   6.766   1.965   0.188
10860SOL    HW233480   6.604   1.981   0.183
10861SOL     OW33481   3.147   2.897   2.090
10861SOL    HW133482   3.124   2.819   2.149
10861SOL    HW233483   3.174   2.975   2.147
10862SOL     OW33484   3.737   3.213   5.429
10862SOL    HW133485   3.703   3.205   5.335
10862SOL    HW233486   3.780   3.302   5.442
10863SOL     OW33487   1.792   1.563   3.200
10863SOL    HW133488   1.811   1.469   3.231
10863SOL    HW233489   1.866   1.623   3.229
10864SOL     OW33490   3.026   4.786   1.915
10864SOL    HW133491   3.109   4.742   1.949
10864SOL    HW233492   2.963   4.716   1.883
10865SOL     OW33493   4.016   1.501   3.314
10865SOL    HW133494   3.973   1.572   3.370
10865SOL    HW233495   4.010   1.526   3.217
10866SOL     OW33496   0.263   3.711   3.073
10866SOL    HW133497   0.303   3.738   3.161
10866SOL    HW233498   0.267   3.788   3.009
10867SOL     OW33499   4.462   3.683   0.256
10867SOL    HW133500   4.500   3.774   0.241
10867SOL    HW233501   4.515   3.636   0.327
10868SOL     OW33502   1.328   1.373   4.775
10868SOL    HW133503   1.232   1.403   4.777
10868SOL    HW233504   1.356   1.346   4.867
10869NA      NA33505   6.505   2.504   5.566
10870NA      NA33506   4.417   4.676   5.146
10871NA      NA33507   1.128   4.811   2.741
10872NA      NA33508   5.812   4.146   3.282
10873NA      NA33509   3.904   2.187   5.395
10874NA      NA33510   2.284   4.947   0.390
10875NA      NA33511   1.024   5.243   6.891
10876NA      NA33512   3.527   4.086   1.262
10877NA      NA33513   4.449   5.225   0.705
10878NA      NA33514   3.073   0.834   6.486
10879NA      NA33515   5.651   6.423   2.068
10880NA      NA33516   1.591   6.738   5.282
10881NA      NA33517   4.191   5.069   1.876
10882NA      NA33518   3.472   3.307   6.641
   7.02315   7.02315   7.02315
