Generated by trjconv : CNT in water t= 172.00000
33518
    1C        C    1   2.838   2.765   4.746
    1C        C    2   2.893   2.718   4.867
    1C        C    3   2.836   2.770   4.983
    1C        C    4   2.840   2.759   4.261
    1C        C    5   2.894   2.712   4.383
    1C        C    6   2.841   2.766   4.503
    1C        C    7   3.011   2.640   4.623
    1C        C    8   2.892   2.717   4.625
    1C        C    9   3.072   2.599   4.744
    1C        C   10   3.004   2.630   4.863
    1C        C   11   3.183   2.496   4.976
    1C        C   12   3.058   2.559   4.971
    1C        C   13   2.848   2.764   3.771
    1C        C   14   2.894   2.715   3.896
    1C        C   15   2.842   2.764   4.018
    1C        C   16   3.014   2.639   4.138
    1C        C   17   2.895   2.714   4.139
    1C        C   18   3.080   2.610   4.260
    1C        C   19   3.015   2.640   4.382
    1C        C   20   3.209   2.556   4.502
    1C        C   21   3.077   2.604   4.503
    1C        C   22   3.276   2.534   4.625
    1C        C   23   3.206   2.551   4.746
    1C        C   24   3.413   2.490   4.863
    1C        C   25   3.271   2.503   4.863
    1C        C   26   3.491   2.479   4.979
    1C        C   27   2.842   2.759   3.284
    1C        C   28   2.902   2.715   3.404
    1C        C   29   2.857   2.770   3.526
    1C        C   30   3.018   2.637   3.649
    1C        C   31   2.903   2.718   3.650
    1C        C   32   3.079   2.604   3.773
    1C        C   33   3.013   2.639   3.893
    1C        C   34   3.205   2.552   4.015
    1C        C   35   3.073   2.601   4.015
    1C        C   36   3.277   2.536   4.136
    1C        C   37   3.211   2.558   4.259
    1C        C   38   3.418   2.511   4.379
    1C        C   39   3.280   2.538   4.381
    1C        C   40   3.487   2.503   4.502
    1C        C   41   3.415   2.508   4.623
    1C        C   42   3.630   2.480   4.744
    1C        C   43   3.488   2.486   4.742
    1C        C   44   3.706   2.486   4.863
    1C        C   45   3.630   2.473   4.980
    1C        C   46   2.835   2.747   2.796
    1C        C   47   2.887   2.698   2.918
    1C        C   48   2.836   2.749   3.040
    1C        C   49   3.010   2.630   3.162
    1C        C   50   2.892   2.708   3.162
    1C        C   51   3.075   2.593   3.282
    1C        C   52   3.016   2.632   3.404
    1C        C   53   3.207   2.541   3.525
    1C        C   54   3.078   2.599   3.527
    1C        C   55   3.274   2.522   3.648
    1C        C   56   3.208   2.548   3.770
    1C        C   57   3.414   2.509   3.892
    1C        C   58   3.274   2.533   3.894
    1C        C   59   3.486   2.502   4.013
    1C        C   60   3.415   2.505   4.135
    1C        C   61   3.629   2.502   4.257
    1C        C   62   3.488   2.502   4.256
    1C        C   63   3.698   2.509   4.379
    1C        C   64   3.628   2.498   4.502
    1C        C   65   3.833   2.547   4.619
    1C        C   66   3.700   2.500   4.623
    1C        C   67   3.902   2.566   4.742
    1C        C   68   3.841   2.525   4.863
    1C        C   69   4.054   2.576   4.974
    1C        C   70   3.924   2.522   4.976
    1C        C   71   2.823   2.729   2.307
    1C        C   72   2.878   2.684   2.430
    1C        C   73   2.826   2.735   2.551
    1C        C   74   3.003   2.619   2.674
    1C        C   75   2.887   2.700   2.673
    1C        C   76   3.069   2.587   2.795
    1C        C   77   3.008   2.626   2.916
    1C        C   78   3.204   2.548   3.034
    1C        C   79   3.073   2.600   3.039
    1C        C   80   3.275   2.532   3.156
    1C        C   81   3.209   2.547   3.280
    1C        C   82   3.414   2.500   3.402
    1C        C   83   3.275   2.526   3.402
    1C        C   84   3.484   2.492   3.525
    1C        C   85   3.414   2.504   3.647
    1C        C   86   3.625   2.498   3.768
    1C        C   87   3.484   2.497   3.770
    1C        C   88   3.696   2.509   3.889
    1C        C   89   3.628   2.505   4.013
    1C        C   90   3.837   2.543   4.135
    1C        C   91   3.699   2.511   4.134
    1C        C   92   3.903   2.572   4.256
    1C        C   93   3.835   2.545   4.377
    1C        C   94   4.030   2.631   4.500
    1C        C   95   3.903   2.569   4.499
    1C        C   96   4.093   2.668   4.620
    1C        C   97   4.031   2.626   4.739
    1C        C   98   4.184   2.767   4.862
    1C        C   99   4.095   2.655   4.863
    1C        C  100   4.211   2.839   4.980
    1C        C  101   2.818   2.722   2.071
    1C        C  102   2.995   2.593   2.188
    1C        C  103   2.874   2.670   2.189
    1C        C  104   3.061   2.571   2.312
    1C        C  105   2.999   2.612   2.432
    1C        C  106   3.196   2.528   2.550
    1C        C  107   3.065   2.582   2.553
    1C        C  108   3.270   2.520   2.670
    1C        C  109   3.203   2.542   2.792
    1C        C  110   3.411   2.498   2.913
    1C        C  111   3.271   2.518   2.914
    1C        C  112   3.483   2.495   3.035
    1C        C  113   3.412   2.500   3.157
    1C        C  114   3.624   2.499   3.279
    1C        C  115   3.483   2.490   3.279
    1C        C  116   3.693   2.507   3.402
    1C        C  117   3.625   2.494   3.525
    1C        C  118   3.833   2.542   3.644
    1C        C  119   3.697   2.505   3.646
    1C        C  120   3.898   2.569   3.766
    1C        C  121   3.833   2.542   3.889
    1C        C  122   4.025   2.633   4.011
    1C        C  123   3.902   2.563   4.011
    1C        C  124   4.085   2.675   4.132
    1C        C  125   4.025   2.643   4.255
    1C        C  126   4.197   2.762   4.376
    1C        C  127   4.087   2.674   4.378
    1C        C  128   4.249   2.811   4.498
    1C        C  129   4.196   2.765   4.621
    1C        C  130   4.318   2.940   4.740
    1C        C  131   4.238   2.822   4.743
    1C        C  132   4.346   3.006   4.861
    1C        C  133   4.280   2.959   4.976
    1C        C  134   3.174   2.466   2.081
    1C        C  135   3.041   2.508   2.082
    1C        C  136   3.258   2.471   2.193
    1C        C  137   3.191   2.514   2.310
    1C        C  138   3.403   2.473   2.428
    1C        C  139   3.263   2.496   2.430
    1C        C  140   3.479   2.476   2.547
    1C        C  141   3.409   2.494   2.668
    1C        C  142   3.621   2.494   2.789
    1C        C  143   3.480   2.491   2.790
    1C        C  144   3.690   2.506   2.911
    1C        C  145   3.624   2.497   3.036
    1C        C  146   3.834   2.534   3.156
    1C        C  147   3.697   2.502   3.157
    1C        C  148   3.900   2.560   3.278
    1C        C  149   3.831   2.537   3.399
    1C        C  150   4.026   2.624   3.522
    1C        C  151   3.898   2.565   3.521
    1C        C  152   4.084   2.668   3.643
    1C        C  153   4.024   2.633   3.766
    1C        C  154   4.190   2.764   3.890
    1C        C  155   4.084   2.671   3.889
    1C        C  156   4.243   2.812   4.012
    1C        C  157   4.199   2.760   4.135
    1C        C  158   4.342   2.920   4.254
    1C        C  159   4.253   2.810   4.256
    1C        C  160   4.373   2.985   4.375
    1C        C  161   4.332   2.925   4.497
    1C        C  162   4.430   3.117   4.615
    1C        C  163   4.361   2.994   4.617
    1C        C  164   4.464   3.185   4.734
    1C        C  165   4.427   3.122   4.855
    1C        C  166   4.521   3.318   4.968
    1C        C  167   4.473   3.187   4.970
    1C        C  168   3.473   2.431   2.072
    1C        C  169   3.398   2.451   2.188
    1C        C  170   3.617   2.467   2.304
    1C        C  171   3.475   2.461   2.307
    1C        C  172   3.691   2.487   2.422
    1C        C  173   3.620   2.480   2.544
    1C        C  174   3.826   2.534   2.665
    1C        C  175   3.689   2.500   2.665
    1C        C  176   3.892   2.559   2.787
    1C        C  177   3.829   2.535   2.911
    1C        C  178   4.022   2.626   3.032
    1C        C  179   3.897   2.559   3.032
    1C        C  180   4.084   2.664   3.153
    1C        C  181   4.025   2.626   3.276
    1C        C  182   4.195   2.749   3.397
    1C        C  183   4.087   2.658   3.399
    1C        C  184   4.241   2.804   3.519
    1C        C  185   4.191   2.760   3.644
    1C        C  186   4.334   2.917   3.764
    1C        C  187   4.239   2.813   3.766
    1C        C  188   4.376   2.975   3.886
    1C        C  189   4.332   2.922   4.009
    1C        C  190   4.440   3.105   4.125
    1C        C  191   4.379   2.978   4.130
    1C        C  192   4.464   3.172   4.247
    1C        C  193   4.438   3.110   4.371
    1C        C  194   4.503   3.314   4.489
    1C        C  195   4.461   3.179   4.492
    1C        C  196   4.523   3.388   4.608
    1C        C  197   4.507   3.321   4.731
    1C        C  198   4.560   3.533   4.845
    1C        C  199   4.536   3.392   4.850
    1C        C  200   4.586   3.623   4.953
    1C        C  201   3.612   2.421   2.068
    1C        C  202   3.825   2.505   2.180
    1C        C  203   3.689   2.461   2.182
    1C        C  204   3.900   2.535   2.297
    1C        C  205   3.829   2.518   2.418
    1C        C  206   4.017   2.616   2.540
    1C        C  207   3.892   2.550   2.541
    1C        C  208   4.078   2.654   2.662
    1C        C  209   4.016   2.628   2.786
    1C        C  210   4.190   2.748   2.905
    1C        C  211   4.079   2.662   2.908
    1C        C  212   4.242   2.798   3.027
    1C        C  213   4.198   2.746   3.151
    1C        C  214   4.328   2.910   3.270
    1C        C  215   4.250   2.793   3.274
    1C        C  216   4.366   2.970   3.392
    1C        C  217   4.331   2.912   3.517
    1C        C  218   4.433   3.098   3.638
    1C        C  219   4.373   2.970   3.639
    1C        C  220   4.461   3.168   3.757
    1C        C  221   4.442   3.100   3.880
    1C        C  222   4.505   3.303   4.001
    1C        C  223   4.471   3.166   4.001
    1C        C  224   4.513   3.376   4.122
    1C        C  225   4.505   3.307   4.245
    1C        C  226   4.513   3.523   4.364
    1C        C  227   4.513   3.381   4.365
    1C        C  228   4.515   3.596   4.484
    1C        C  229   4.535   3.529   4.607
    1C        C  230   4.498   3.741   4.725
    1C        C  231   4.543   3.606   4.725
    1C        C  232   4.490   3.817   4.843
    1C        C  233   4.547   3.758   4.957
    1C        C  234   4.016   2.609   2.060
    1C        C  235   3.892   2.546   2.064
    1C        C  236   4.083   2.647   2.177
    1C        C  237   4.021   2.609   2.297
    1C        C  238   4.197   2.732   2.419
    1C        C  239   4.081   2.650   2.419
    1C        C  240   4.249   2.783   2.541
    1C        C  241   4.191   2.739   2.662
    1C        C  242   4.333   2.901   2.784
    1C        C  243   4.244   2.791   2.782
    1C        C  244   4.375   2.962   2.904
    1C        C  245   4.330   2.909   3.027
    1C        C  246   4.434   3.095   3.147
    1C        C  247   4.372   2.968   3.149
    1C        C  248   4.454   3.162   3.270
    1C        C  249   4.427   3.098   3.393
    1C        C  250   4.494   3.299   3.512
    1C        C  251   4.457   3.163   3.514
    1C        C  252   4.505   3.371   3.633
    1C        C  253   4.498   3.304   3.757
    1C        C  254   4.519   3.514   3.877
    1C        C  255   4.514   3.373   3.879
    1C        C  256   4.515   3.587   3.998
    1C        C  257   4.515   3.517   4.121
    1C        C  258   4.492   3.731   4.239
    1C        C  259   4.512   3.592   4.241
    1C        C  260   4.467   3.802   4.359
    1C        C  261   4.488   3.735   4.482
    1C        C  262   4.429   3.941   4.601
    1C        C  263   4.471   3.806   4.603
    1C        C  264   4.401   4.010   4.721
    1C        C  265   4.434   3.947   4.843
    1C        C  266   4.321   4.132   4.956
    1C        C  267   4.395   4.014   4.960
    1C        C  268   4.262   2.776   2.063
    1C        C  269   4.198   2.730   2.178
    1C        C  270   4.344   2.889   2.302
    1C        C  271   4.253   2.779   2.299
    1C        C  272   4.385   2.952   2.421
    1C        C  273   4.340   2.890   2.541
    1C        C  274   4.440   3.081   2.656
    1C        C  275   4.369   2.959   2.660
    1C        C  276   4.471   3.146   2.777
    1C        C  277   4.442   3.087   2.902
    1C        C  278   4.503   3.292   3.021
    1C        C  279   4.464   3.156   3.023
    1C        C  280   4.513   3.362   3.143
    1C        C  281   4.497   3.296   3.267
    1C        C  282   4.509   3.509   3.388
    1C        C  283   4.507   3.367   3.389
    1C        C  284   4.506   3.583   3.509
    1C        C  285   4.509   3.512   3.631
    1C        C  286   4.490   3.723   3.749
    1C        C  287   4.511   3.583   3.754
    1C        C  288   4.475   3.791   3.871
    1C        C  289   4.493   3.727   3.995
    1C        C  290   4.429   3.931   4.114
    1C        C  291   4.478   3.799   4.116
    1C        C  292   4.400   4.001   4.233
    1C        C  293   4.428   3.938   4.357
    1C        C  294   4.328   4.126   4.475
    1C        C  295   4.396   4.002   4.478
    1C        C  296   4.284   4.185   4.596
    1C        C  297   4.325   4.130   4.719
    1C        C  298   4.204   4.316   4.838
    1C        C  299   4.282   4.195   4.837
    1C        C  300   4.170   4.402   4.947
    1C        C  301   4.348   2.886   2.062
    1C        C  302   4.466   3.068   2.174
    1C        C  303   4.393   2.945   2.181
    1C        C  304   4.473   3.147   2.293
    1C        C  305   4.449   3.077   2.413
    1C        C  306   4.506   3.283   2.535
    1C        C  307   4.469   3.147   2.534
    1C        C  308   4.517   3.353   2.657
    1C        C  309   4.508   3.283   2.779
    1C        C  310   4.528   3.499   2.897
    1C        C  311   4.521   3.358   2.898
    1C        C  312   4.515   3.570   3.019
    1C        C  313   4.517   3.503   3.144
    1C        C  314   4.484   3.716   3.258
    1C        C  315   4.509   3.577   3.264
    1C        C  316   4.474   3.787   3.379
    1C        C  317   4.488   3.723   3.504
    1C        C  318   4.426   3.925   3.625
    1C        C  319   4.472   3.791   3.627
    1C        C  320   4.392   3.989   3.746
    1C        C  321   4.422   3.922   3.867
    1C        C  322   4.316   4.105   3.989
    1C        C  323   4.394   3.988   3.989
    1C        C  324   4.273   4.166   4.109
    1C        C  325   4.323   4.119   4.233
    1C        C  326   4.190   4.287   4.351
    1C        C  327   4.286   4.183   4.353
    1C        C  328   4.134   4.332   4.473
    1C        C  329   4.189   4.290   4.596
    1C        C  330   4.027   4.434   4.713
    1C        C  331   4.141   4.349   4.715
    1C        C  332   3.970   4.490   4.829
    1C        C  333   4.052   4.476   4.942
    1C        C  334   4.552   3.267   2.057
    1C        C  335   4.529   3.128   2.061
    1C        C  336   4.539   3.350   2.169
    1C        C  337   4.512   3.283   2.291
    1C        C  338   4.520   3.495   2.408
    1C        C  339   4.515   3.354   2.413
    1C        C  340   4.526   3.566   2.530
    1C        C  341   4.523   3.495   2.652
    1C        C  342   4.498   3.707   2.772
    1C        C  343   4.521   3.567   2.773
    1C        C  344   4.480   3.779   2.892
    1C        C  345   4.493   3.709   3.014
    1C        C  346   4.427   3.915   3.132
    1C        C  347   4.472   3.781   3.133
    1C        C  348   4.393   3.979   3.254
    1C        C  349   4.425   3.920   3.378
    1C        C  350   4.320   4.103   3.500
    1C        C  351   4.397   3.985   3.500
    1C        C  352   4.273   4.162   3.619
    1C        C  353   4.317   4.109   3.743
    1C        C  354   4.181   4.268   3.864
    1C        C  355   4.274   4.162   3.867
    1C        C  356   4.125   4.316   3.984
    1C        C  357   4.177   4.270   4.107
    1C        C  358   4.010   4.397   4.228
    1C        C  359   4.133   4.327   4.228
    1C        C  360   3.950   4.440   4.349
    1C        C  361   4.018   4.413   4.470
    1C        C  362   3.827   4.506   4.592
    1C        C  363   3.960   4.457   4.591
    1C        C  364   3.760   4.539   4.711
    1C        C  365   3.837   4.536   4.830
    1C        C  366   3.629   4.582   4.947
    1C        C  367   3.768   4.568   4.947
    1C        C  368   4.516   3.563   2.049
    1C        C  369   4.534   3.491   2.168
    1C        C  370   4.505   3.706   2.284
    1C        C  371   4.525   3.566   2.287
    1C        C  372   4.490   3.775   2.406
    1C        C  373   4.503   3.705   2.529
    1C        C  374   4.428   3.906   2.646
    1C        C  375   4.477   3.774   2.649
    1C        C  376   4.395   3.972   2.766
    1C        C  377   4.428   3.911   2.889
    1C        C  378   4.321   4.097   3.010
    1C        C  379   4.397   3.978   3.009
    1C        C  380   4.276   4.154   3.131
    1C        C  381   4.315   4.097   3.254
    1C        C  382   4.171   4.252   3.374
    1C        C  383   4.275   4.156   3.377
    1C        C  384   4.121   4.306   3.494
    1C        C  385   4.174   4.262   3.618
    1C        C  386   4.005   4.386   3.740
    1C        C  387   4.122   4.307   3.742
    1C        C  388   3.944   4.424   3.862
    1C        C  389   4.006   4.393   3.985
    1C        C  390   3.818   4.489   4.108
    1C        C  391   3.948   4.434   4.107
    1C        C  392   3.748   4.508   4.229
    1C        C  393   3.820   4.493   4.350
    1C        C  394   3.614   4.543   4.472
    1C        C  395   3.753   4.518   4.472
    1C        C  396   3.543   4.561   4.593
    1C        C  397   3.621   4.563   4.711
    1C        C  398   3.411   4.545   4.835
    1C        C  399   3.549   4.574   4.832
    1C        C  400   3.340   4.523   4.954
    1C        C  401   4.508   3.702   2.050
    1C        C  402   4.451   3.915   2.162
    1C        C  403   4.494   3.780   2.165
    1C        C  404   4.410   3.976   2.283
    1C        C  405   4.436   3.906   2.403
    1C        C  406   4.323   4.089   2.521
    1C        C  407   4.400   3.971   2.523
    1C        C  408   4.276   4.144   2.643
    1C        C  409   4.316   4.089   2.766
    1C        C  410   4.173   4.247   2.885
    1C        C  411   4.275   4.149   2.887
    1C        C  412   4.122   4.297   3.007
    1C        C  413   4.176   4.254   3.131
    1C        C  414   4.000   4.376   3.252
    1C        C  415   4.119   4.300   3.252
    1C        C  416   3.940   4.415   3.374
    1C        C  417   4.003   4.384   3.496
    1C        C  418   3.812   4.477   3.617
    1C        C  419   3.940   4.417   3.618
    1C        C  420   3.746   4.496   3.741
    1C        C  421   3.812   4.474   3.864
    1C        C  422   3.610   4.531   3.984
    1C        C  423   3.748   4.505   3.986
    1C        C  424   3.539   4.536   4.106
    1C        C  425   3.609   4.532   4.228
    1C        C  426   3.399   4.540   4.353
    1C        C  427   3.540   4.538   4.352
    1C        C  428   3.329   4.543   4.476
    1C        C  429   3.402   4.550   4.596
    1C        C  430   3.192   4.513   4.722
    1C        C  431   3.332   4.541   4.718
    1C        C  432   3.125   4.489   4.845
    1C        C  433   3.205   4.492   4.960
    1C        C  434   4.383   4.125   2.049
    1C        C  435   4.443   3.999   2.050
    1C        C  436   4.302   4.164   2.160
    1C        C  437   4.329   4.092   2.280
    1C        C  438   4.183   4.251   2.400
    1C        C  439   4.279   4.148   2.400
    1C        C  440   4.121   4.290   2.521
    1C        C  441   4.177   4.245   2.643
    1C        C  442   4.003   4.373   2.762
    1C        C  443   4.119   4.292   2.762
    1C        C  444   3.944   4.411   2.885
    1C        C  445   4.007   4.378   3.008
    1C        C  446   3.809   4.462   3.130
    1C        C  447   3.940   4.409   3.128
    1C        C  448   3.741   4.484   3.252
    1C        C  449   3.808   4.465   3.375
    1C        C  450   3.603   4.519   3.495
    1C        C  451   3.742   4.494   3.496
    1C        C  452   3.536   4.529   3.619
    1C        C  453   3.608   4.526   3.740
    1C        C  454   3.397   4.537   3.859
    1C        C  455   3.538   4.539   3.862
    1C        C  456   3.329   4.527   3.983
    1C        C  457   3.397   4.534   4.106
    1C        C  458   3.193   4.497   4.236
    1C        C  459   3.331   4.527   4.230
    1C        C  460   3.124   4.480   4.358
    1C        C  461   3.191   4.509   4.480
    1C        C  462   2.995   4.429   4.602
    1C        C  463   3.123   4.489   4.602
    1C        C  464   2.929   4.401   4.724
    1C        C  465   2.989   4.445   4.845
    1C        C  466   2.804   4.331   4.959
    1C        C  467   2.904   4.429   4.959
    1C        C  468   4.117   4.281   2.042
    1C        C  469   4.187   4.248   2.159
    1C        C  470   4.002   4.364   2.277
    1C        C  471   4.126   4.295   2.279
    1C        C  472   3.937   4.398   2.398
    1C        C  473   4.002   4.367   2.520
    1C        C  474   3.810   4.460   2.641
    1C        C  475   3.940   4.405   2.640
    1C        C  476   3.745   4.481   2.764
    1C        C  477   3.812   4.461   2.887
    1C        C  478   3.604   4.517   3.008
    1C        C  479   3.741   4.481   3.007
    1C        C  480   3.534   4.526   3.130
    1C        C  481   3.604   4.517   3.253
    1C        C  482   3.390   4.530   3.372
    1C        C  483   3.532   4.529   3.373
    1C        C  484   3.321   4.526   3.495
    1C        C  485   3.394   4.532   3.616
    1C        C  486   3.186   4.501   3.744
    1C        C  487   3.324   4.529   3.739
    1C        C  488   3.121   4.477   3.867
    1C        C  489   3.191   4.496   3.988
    1C        C  490   3.000   4.416   4.114
    1C        C  491   3.127   4.477   4.113
    1C        C  492   2.938   4.381   4.236
    1C        C  493   2.995   4.423   4.359
    1C        C  494   2.824   4.300   4.482
    1C        C  495   2.934   4.389   4.481
    1C        C  496   2.770   4.254   4.604
    1C        C  497   2.814   4.316   4.723
    1C        C  498   2.663   4.165   4.843
    1C        C  499   2.750   4.276   4.842
    1C        C  500   2.598   4.112   4.955
    1C        C  501   3.994   4.347   2.038
    1C        C  502   3.807   4.451   2.151
    1C        C  503   3.935   4.393   2.156
    1C        C  504   3.741   4.475   2.274
    1C        C  505   3.806   4.450   2.397
    1C        C  506   3.600   4.499   2.519
    1C        C  507   3.740   4.476   2.519
    1C        C  508   3.534   4.512   2.643
    1C        C  509   3.605   4.501   2.765
    1C        C  510   3.393   4.519   2.884
    1C        C  511   3.534   4.517   2.886
    1C        C  512   3.321   4.517   3.005
    1C        C  513   3.392   4.524   3.127
    1C        C  514   3.184   4.492   3.252
    1C        C  515   3.322   4.524   3.249
    1C        C  516   3.118   4.471   3.375
    1C        C  517   3.182   4.498   3.497
    1C        C  518   2.992   4.417   3.624
    1C        C  519   3.118   4.479   3.622
    1C        C  520   2.932   4.379   3.746
    1C        C  521   2.996   4.411   3.868
    1C        C  522   2.829   4.288   3.995
    1C        C  523   2.939   4.376   3.993
    1C        C  524   2.781   4.239   4.119
    1C        C  525   2.829   4.292   4.241
    1C        C  526   2.688   4.132   4.363
    1C        C  527   2.777   4.242   4.362
    1C        C  528   2.649   4.075   4.486
    1C        C  529   2.684   4.142   4.605
    1C        C  530   2.577   3.961   4.729
    1C        C  531   2.632   4.092   4.726
    1C        C  532   2.542   3.899   4.852
    1C        C  533   2.523   3.994   4.958
    1C        C  534   3.609   4.555   2.037
    1C        C  535   3.740   4.504   2.040
    1C        C  536   3.531   4.533   2.155
    1C        C  537   3.603   4.510   2.276
    1C        C  538   3.390   4.518   2.399
    1C        C  539   3.531   4.517   2.397
    1C        C  540   3.320   4.513   2.522
    1C        C  541   3.393   4.511   2.642
    1C        C  542   3.182   4.478   2.764
    1C        C  543   3.320   4.507   2.763
    1C        C  544   3.116   4.460   2.888
    1C        C  545   3.183   4.489   3.009
    1C        C  546   2.989   4.401   3.134
    1C        C  547   3.116   4.465   3.131
    1C        C  548   2.932   4.365   3.258
    1C        C  549   2.993   4.405   3.379
    1C        C  550   2.824   4.283   3.502
    1C        C  551   2.933   4.372   3.503
    1C        C  552   2.775   4.237   3.626
    1C        C  553   2.826   4.285   3.749
    1C        C  554   2.695   4.124   3.873
    1C        C  555   2.777   4.239   3.873
    1C        C  556   2.657   4.065   3.996
    1C        C  557   2.697   4.126   4.118
    1C        C  558   2.594   3.943   4.243
    1C        C  559   2.654   4.071   4.240
    1C        C  560   2.564   3.880   4.366
    1C        C  561   2.584   3.949   4.487
    1C        C  562   2.534   3.747   4.612
    1C        C  563   2.557   3.886   4.611
    1C        C  564   2.521   3.678   4.735
    1C        C  565   2.520   3.758   4.853
    1C        C  566   2.534   3.547   4.976
    1C        C  567   2.525   3.685   4.973
    1C        C  568   3.323   4.467   2.039
    1C        C  569   3.392   4.503   2.155
    1C        C  570   3.181   4.474   2.280
    1C        C  571   3.321   4.501   2.278
    1C        C  572   3.111   4.456   2.401
    1C        C  573   3.183   4.478   2.521
    1C        C  574   2.985   4.398   2.644
    1C        C  575   3.114   4.456   2.642
    1C        C  576   2.930   4.358   2.768
    1C        C  577   2.991   4.394   2.890
    1C        C  578   2.820   4.272   3.014
    1C        C  579   2.929   4.362   3.012
    1C        C  580   2.773   4.220   3.137
    1C        C  581   2.825   4.273   3.257
    1C        C  582   2.694   4.111   3.384
    1C        C  583   2.777   4.225   3.381
    1C        C  584   2.653   4.058   3.508
    1C        C  585   2.692   4.122   3.628
    1C        C  586   2.594   3.937   3.751
    1C        C  587   2.656   4.064   3.751
    1C        C  588   2.572   3.874   3.876
    1C        C  589   2.596   3.938   3.999
    1C        C  590   2.539   3.735   4.123
    1C        C  591   2.570   3.873   4.122
    1C        C  592   2.521   3.671   4.248
    1C        C  593   2.535   3.742   4.369
    1C        C  594   2.512   3.532   4.493
    1C        C  595   2.526   3.672   4.492
    1C        C  596   2.512   3.464   4.617
    1C        C  597   2.517   3.536   4.738
    1C        C  598   2.533   3.326   4.861
    1C        C  599   2.522   3.467   4.861
    1C        C  600   2.530   3.248   4.977
    1C        C  601   3.189   4.436   2.039
    1C        C  602   2.981   4.390   2.158
    1C        C  603   3.117   4.435   2.159
    1C        C  604   2.923   4.352   2.282
    1C        C  605   2.983   4.396   2.402
    1C        C  606   2.811   4.274   2.528
    1C        C  607   2.920   4.364   2.524
    1C        C  608   2.760   4.226   2.650
    1C        C  609   2.818   4.272   2.770
    1C        C  610   2.680   4.112   2.892
    1C        C  611   2.768   4.222   2.893
    1C        C  612   2.645   4.051   3.015
    1C        C  613   2.688   4.107   3.137
    1C        C  614   2.592   3.925   3.263
    1C        C  615   2.657   4.050   3.262
    1C        C  616   2.568   3.863   3.388
    1C        C  617   2.594   3.929   3.510
    1C        C  618   2.536   3.727   3.637
    1C        C  619   2.567   3.865   3.633
    1C        C  620   2.521   3.661   3.761
    1C        C  621   2.535   3.738   3.879
    1C        C  622   2.514   3.526   4.005
    1C        C  623   2.527   3.666   4.001
    1C        C  624   2.517   3.456   4.128
    1C        C  625   2.516   3.530   4.248
    1C        C  626   2.541   3.322   4.376
    1C        C  627   2.515   3.460   4.371
    1C        C  628   2.562   3.255   4.499
    1C        C  629   2.537   3.324   4.619
    1C        C  630   2.592   3.118   4.743
    1C        C  631   2.555   3.255   4.741
    1C        C  632   2.612   3.047   4.865
    1C        C  633   2.554   3.110   4.980
    1C        C  634   2.785   4.301   2.050
    1C        C  635   2.893   4.390   2.045
    1C        C  636   2.743   4.231   2.164
    1C        C  637   2.805   4.272   2.283
    1C        C  638   2.675   4.109   2.407
    1C        C  639   2.758   4.224   2.407
    1C        C  640   2.639   4.048   2.530
    1C        C  641   2.680   4.110   2.650
    1C        C  642   2.584   3.919   2.775
    1C        C  643   2.645   4.047   2.772
    1C        C  644   2.565   3.852   2.898
    1C        C  645   2.588   3.921   3.019
    1C        C  646   2.532   3.719   3.148
    1C        C  647   2.568   3.856   3.142
    1C        C  648   2.520   3.654   3.273
    1C        C  649   2.533   3.726   3.393
    1C        C  650   2.516   3.515   3.518
    1C        C  651   2.522   3.656   3.515
    1C        C  652   2.524   3.447   3.641
    1C        C  653   2.515   3.520   3.762
    1C        C  654   2.539   3.312   3.890
    1C        C  655   2.514   3.451   3.885
    1C        C  656   2.556   3.243   4.012
    1C        C  657   2.536   3.316   4.132
    1C        C  658   2.608   3.119   4.259
    1C        C  659   2.558   3.251   4.256
    1C        C  660   2.637   3.053   4.381
    1C        C  661   2.605   3.120   4.501
    1C        C  662   2.701   2.933   4.622
    1C        C  663   2.627   3.053   4.623
    1C        C  664   2.746   2.874   4.743
    1C        C  665   2.691   2.928   4.862
    1C        C  666   2.733   2.864   4.980
    1C        C  667   2.684   4.023   2.051
    1C        C  668   2.679   4.105   2.165
    1C        C  669   2.585   3.914   2.290
    1C        C  670   2.641   4.044   2.287
    1C        C  671   2.560   3.847   2.412
    1C        C  672   2.586   3.917   2.531
    1C        C  673   2.522   3.715   2.658
    1C        C  674   2.559   3.852   2.653
    1C        C  675   2.517   3.645   2.781
    1C        C  676   2.529   3.716   2.902
    1C        C  677   2.507   3.508   3.030
    1C        C  678   2.521   3.648   3.026
    1C        C  679   2.512   3.438   3.153
    1C        C  680   2.515   3.512   3.274
    1C        C  681   2.535   3.303   3.399
    1C        C  682   2.515   3.443   3.396
    1C        C  683   2.556   3.238   3.523
    1C        C  684   2.537   3.306   3.645
    1C        C  685   2.604   3.108   3.770
    1C        C  686   2.553   3.240   3.769
    1C        C  687   2.637   3.046   3.893
    1C        C  688   2.605   3.111   4.014
    1C        C  689   2.709   2.929   4.140
    1C        C  690   2.638   3.051   4.138
    1C        C  691   2.754   2.871   4.261
    1C        C  692   2.711   2.932   4.381
    1C        C  693   2.747   2.872   4.503
    1C        C  694   2.625   3.896   2.055
    1C        C  695   2.530   3.704   2.175
    1C        C  696   2.575   3.838   2.171
    1C        C  697   2.510   3.635   2.297
    1C        C  698   2.522   3.711   2.415
    1C        C  699   2.490   3.503   2.541
    1C        C  700   2.504   3.643   2.538
    1C        C  701   2.497   3.432   2.663
    1C        C  702   2.507   3.504   2.784
    1C        C  703   2.526   3.297   2.910
    1C        C  704   2.507   3.437   2.908
    1C        C  705   2.543   3.230   3.032
    1C        C  706   2.530   3.298   3.155
    1C        C  707   2.598   3.099   3.276
    1C        C  708   2.544   3.230   3.278
    1C        C  709   2.630   3.040   3.400
    1C        C  710   2.605   3.106   3.523
    1C        C  711   2.711   2.926   3.650
    1C        C  712   2.636   3.046   3.647
    1C        C  713   2.756   2.871   3.772
    1C        C  714   2.716   2.929   3.894
    1C        C  715   2.750   2.871   4.019
    1C        C  716   2.454   3.499   2.063
    1C        C  717   2.479   3.636   2.063
    1C        C  718   2.470   3.419   2.180
    1C        C  719   2.489   3.495   2.299
    1C        C  720   2.514   3.287   2.422
    1C        C  721   2.488   3.425   2.422
    1C        C  722   2.537   3.221   2.545
    1C        C  723   2.523   3.293   2.666
    1C        C  724   2.595   3.096   2.789
    1C        C  725   2.539   3.225   2.789
    1C        C  726   2.625   3.031   2.911
    1C        C  727   2.593   3.097   3.032
    1C        C  728   2.709   2.920   3.158
    1C        C  729   2.631   3.037   3.154
    1C        C  730   2.751   2.867   3.283
    1C        C  731   2.714   2.927   3.406
    1C        C  732   2.760   2.873   3.528
    1C        C  733   2.497   3.198   2.071
    1C        C  734   2.492   3.278   2.186
    1C        C  735   2.568   3.073   2.308
    1C        C  736   2.524   3.208   2.305
    1C        C  737   2.608   3.012   2.430
    1C        C  738   2.588   3.089   2.547
    1C        C  739   2.697   2.907   2.669
    1C        C  740   2.623   3.027   2.669
    1C        C  741   2.743   2.854   2.792
    1C        C  742   2.704   2.914   2.913
    1C        C  743   2.747   2.859   3.036
    1C        C  744   2.545   3.067   2.074
    1C        C  745   2.683   2.892   2.186
    1C        C  746   2.598   3.005   2.188
    1C        C  747   2.729   2.836   2.307
    1C        C  748   2.682   2.892   2.427
    1C        C  749   2.734   2.842   2.549
    1C        C  750   2.740   2.837   2.070
    1C        C  751   3.657   2.308   1.983
    1C        O  752   3.646   2.191   2.029
    1C        O  753   3.674   2.312   1.845
    1C        C  754   4.612   3.053   1.964
    1C        O  755   4.564   3.031   1.849
    1C        O  756   4.739   3.004   1.997
    1C        C  757   4.481   4.222   1.994
    1C        O  758   4.566   4.284   2.063
    1C        O  759   4.465   4.269   1.863
    1C        C  760   3.581   4.663   1.940
    1C        O  761   3.528   4.774   1.967
    1C        O  762   3.570   4.640   1.802
    1C        C  763   2.879   4.513   1.964
    1C        O  764   2.810   4.515   1.858
    1C        O  765   2.898   4.638   2.024
    1C        C  766   2.358   3.472   1.953
    1C        O  767   2.385   3.425   1.840
    1C        O  768   2.220   3.492   1.967
    1C        C  769   4.694   3.601   5.051
    1C        O  770   4.678   3.529   5.154
    1C        O  771   4.826   3.588   5.005
    1C        C  772   4.265   4.424   5.058
    1C        O  773   4.213   4.444   5.171
    1C        O  774   4.360   4.523   5.027
    1C        C  775   4.159   2.523   5.064
    1C        O  776   4.214   2.413   5.034
    1C        O  777   4.144   2.544   5.202
    1C        C  778   2.881   4.530   5.066
    1C        O  779   2.819   4.637   5.041
    1C        O  780   2.905   4.508   5.202
    1C        C  781   2.462   3.028   5.061
    1C        O  782   2.378   2.943   5.021
    1C        O  783   2.418   3.069   5.186
    1C        C  784   2.395   4.020   5.028
    1C        O  785   2.282   4.056   4.986
    1C        O  786   2.395   3.994   5.166
    1C        C  787   2.954   2.431   1.989
    1C        O  788   2.959   2.447   1.864
    1C        O  789   2.894   2.311   2.024
    1C        C  790   3.194   2.378   5.064
    1C        O  791   3.172   2.260   5.025
    1C        O  792   3.198   2.389   5.203
    1C        H  793   4.297   3.009   5.069
    1C        H  794   4.208   2.791   5.075
    1C        H  795   4.487   3.131   5.060
    1C        H  796   4.558   3.360   5.060
    1C        H  797   4.572   3.825   5.036
    1C        H  798   4.426   3.982   5.057
    1C        H  799   4.248   4.138   5.034
    1C        H  800   4.033   4.545   5.022
    1C        H  801   3.822   4.602   5.033
    1C        H  802   3.584   4.579   5.043
    1C        H  803   3.394   4.505   5.044
    1C        H  804   3.170   4.441   5.048
    1C        H  805   3.892   2.472   5.064
    1C        H  806   3.680   2.488   5.074
    1C        H  807   2.986   2.505   5.029
    1C        H  808   3.441   2.491   5.073
    1C        H  809   2.858   2.725   5.078
    1C        H  810   2.700   2.897   5.076
    1C        H  811   2.486   3.288   5.066
    1C        H  812   2.596   3.502   5.050
    1C        H  813   2.462   3.725   5.049
    1C        H  814   2.613   4.156   5.052
    1C        H  815   2.794   4.282   5.054
    1C        H  816   2.768   2.908   1.995
    1C        H  817   2.807   2.664   1.982
    1C        H  818   3.201   2.405   1.998
    1C        H  819   3.425   2.442   1.977
    1C        H  820   3.830   2.567   1.979
    1C        H  821   4.072   2.595   1.970
    1C        H  822   4.258   2.720   1.972
    1C        H  823   4.385   2.920   1.968
    1C        H  824   4.629   3.300   1.991
    1C        H  825   4.535   3.522   1.952
    1C        H  826   4.562   3.751   1.972
    1C        H  827   3.807   4.551   1.971
    1C        H  828   3.935   4.328   1.951
    1C        H  829   4.139   4.220   1.956
    1C        H  830   4.490   3.963   1.960
    1C        H  831   2.610   3.847   1.961
    1C        H  832   2.751   4.048   1.971
    1C        H  833   2.714   4.310   1.971
    1C        H  834   3.371   4.464   1.943
    1C        H  835   3.144   4.404   1.947
    1C        H  836   2.516   3.001   1.996
    1C        H  837   2.453   3.237   1.981
    1C        H  838   2.455   3.695   1.977
    2V3OU   H29  839   2.807   3.547   1.777
    2V3OU   C27  840   2.782   3.500   1.876
    2V3OU   H27  841   2.720   3.570   1.938
    2V3OU   H28  842   2.729   3.402   1.867
    2V3OU   O11  843   2.907   3.474   1.940
    2V3OU   C15  844   2.919   3.398   2.054
    2V3OU   C13  845   3.045   3.369   2.109
    2V3OU   C14  846   3.072   3.269   2.203
    2V3OU   C16  847   2.968   3.187   2.244
    2V3OU    H6  848   2.989   3.096   2.302
    2V3OU   C12  849   3.210   3.235   2.246
    2V3OU    O2  850   3.234   3.138   2.320
    2V3OU   C10  851   3.323   3.309   2.186
    2V3OU    C8  852   3.452   3.266   2.212
    2V3OU   O10  853   3.490   3.148   2.270
    2V3OU   H26  854   3.401   3.112   2.281
    2V3OU    C6  855   3.562   3.348   2.171
    2V3OU    C5  856   3.534   3.465   2.102
    2V3OU    C4  857   3.701   3.295   2.172
    2V3OU    H4  858   3.719   3.231   2.264
    2V3OU    H5  859   3.711   3.225   2.085
    2V3OU    C2  860   3.815   3.398   2.172
    2V3OU    O6  861   3.806   3.470   2.295
    2V3OU   H21  862   3.757   3.550   2.273
    2V3OU    C3  863   3.780   3.498   2.062
    2V3OU    H2  864   3.865   3.571   2.067
    2V3OU    H3  865   3.777   3.438   1.967
    2V3OU   C25  866   3.950   3.330   2.150
    2V3OU    O7  867   3.998   3.301   2.040
    2V3OU   C26  868   4.028   3.289   2.274
    2V3OU   H22  869   4.066   3.386   2.314
    2V3OU   H23  870   4.118   3.228   2.246
    2V3OU    O8  871   3.960   3.216   2.373
    2V3OU   H24  872   3.926   3.266   2.449
    2V3OU    C1  873   3.644   3.563   2.074
    2V3OU    H1  874   3.622   3.621   1.979
    2V3OU    O3  875   3.660   3.653   2.184
    2V3OU   C19  876   3.622   3.790   2.167
    2V3OU    H9  877   3.524   3.797   2.112
    2V3OU    O4  878   3.716   3.851   2.081
    2V3OU   C20  879   3.843   3.877   2.141
    2V3OU   H10  880   3.898   3.779   2.149
    2V3OU   C24  881   3.609   3.856   2.304
    2V3OU   H16  882   3.542   3.795   2.368
    2V3OU   H17  883   3.563   3.956   2.282
    2V3OU   C23  884   3.748   3.871   2.366
    2V3OU   H15  885   3.791   3.768   2.387
    2V3OU    N1  886   3.733   3.948   2.489
    2V3OU   H19  887   3.791   3.907   2.559
    2V3OU   H20  888   3.640   3.931   2.523
    2V3OU   C21  889   3.853   3.946   2.277
    2V3OU   H11  890   3.955   3.927   2.321
    2V3OU    O5  891   3.824   4.085   2.274
    2V3OU   H18  892   3.787   4.103   2.361
    2V3OU   C22  893   3.911   3.951   2.027
    2V3OU   H12  894   3.858   4.047   2.004
    2V3OU   H13  895   3.906   3.889   1.934
    2V3OU   H14  896   4.021   3.959   2.047
    2V3OU   C11  897   3.153   3.466   2.087
    2V3OU    O1  898   3.125   3.584   2.056
    2V3OU    C9  899   3.294   3.425   2.109
    2V3OU    C7  900   3.400   3.504   2.068
    2V3OU    O9  901   3.386   3.613   1.984
    2V3OU   H25  902   3.290   3.626   1.977
    2V3OU   C17  903   2.817   3.317   2.108
    2V3OU    H7  904   2.716   3.337   2.070
    2V3OU   C18  905   2.840   3.209   2.193
    2V3OU    H8  906   2.763   3.165   2.258
    3SOL     OW  907   2.665   4.383   0.896
    3SOL    HW1  908   2.730   4.339   0.958
    3SOL    HW2  909   2.572   4.362   0.926
    4SOL     OW  910   6.095   5.550   1.745
    4SOL    HW1  911   6.115   5.528   1.841
    4SOL    HW2  912   6.172   5.520   1.688
    5SOL     OW  913   3.345   1.266   3.092
    5SOL    HW1  914   3.371   1.179   3.051
    5SOL    HW2  915   3.386   1.274   3.183
    6SOL     OW  916   4.759   1.576   1.893
    6SOL    HW1  917   4.660   1.587   1.884
    6SOL    HW2  918   4.805   1.647   1.838
    7SOL     OW  919   6.180   3.319   2.340
    7SOL    HW1  920   6.088   3.329   2.300
    7SOL    HW2  921   6.216   3.409   2.363
    8SOL     OW  922   3.006   6.667   5.709
    8SOL    HW1  923   2.932   6.608   5.740
    8SOL    HW2  924   3.052   6.707   5.789
    9SOL     OW  925   0.222   4.976   5.767
    9SOL    HW1  926   0.191   4.882   5.781
    9SOL    HW2  927   0.161   5.023   5.703
   10SOL     OW  928   1.116   4.717   5.851
   10SOL    HW1  929   1.084   4.655   5.779
   10SOL    HW2  930   1.157   4.664   5.926
   11SOL     OW  931   2.948   0.425   0.107
   11SOL    HW1  932   3.002   0.388   0.032
   11SOL    HW2  933   3.005   0.486   0.163
   12SOL     OW  934   4.079   6.192   3.869
   12SOL    HW1  935   4.003   6.177   3.806
   12SOL    HW2  936   4.158   6.226   3.819
   13SOL     OW  937   3.145   5.698   4.219
   13SOL    HW1  938   3.238   5.717   4.186
   13SOL    HW2  939   3.150   5.652   4.308
   14SOL     OW  940   4.759   5.201   6.496
   14SOL    HW1  941   4.825   5.275   6.485
   14SOL    HW2  942   4.752   5.149   6.410
   15SOL     OW  943   0.872   4.968   0.546
   15SOL    HW1  944   0.925   4.942   0.465
   15SOL    HW2  945   0.779   4.930   0.538
   16SOL     OW  946   5.645   3.050   5.599
   16SOL    HW1  947   5.655   3.147   5.623
   16SOL    HW2  948   5.620   3.042   5.503
   17SOL     OW  949   5.400   6.015   5.183
   17SOL    HW1  950   5.397   5.916   5.199
   17SOL    HW2  951   5.488   6.050   5.213
   18SOL     OW  952   3.125   1.067   6.641
   18SOL    HW1  953   3.123   0.977   6.597
   18SOL    HW2  954   3.141   1.055   6.739
   19SOL     OW  955   0.097   6.909   2.903
   19SOL    HW1  956   0.159   6.830   2.911
   19SOL    HW2  957   0.145   6.984   2.858
   20SOL     OW  958   4.529   1.675   4.281
   20SOL    HW1  959   4.540   1.637   4.373
   20SOL    HW2  960   4.613   1.724   4.255
   21SOL     OW  961   3.220   2.110   2.194
   21SOL    HW1  962   3.224   2.168   2.113
   21SOL    HW2  963   3.293   2.135   2.258
   22SOL     OW  964   2.545   0.093   0.516
   22SOL    HW1  965   2.569   0.061   0.424
   22SOL    HW2  966   2.493   0.021   0.563
   23SOL     OW  967   4.499   6.695   3.438
   23SOL    HW1  968   4.506   6.791   3.466
   23SOL    HW2  969   4.525   6.636   3.514
   24SOL     OW  970   5.082   1.112   3.169
   24SOL    HW1  971   5.009   1.081   3.109
   24SOL    HW2  972   5.128   1.191   3.128
   25SOL     OW  973   3.596   6.719   5.673
   25SOL    HW1  974   3.504   6.724   5.636
   25SOL    HW2  975   3.657   6.779   5.621
   26SOL     OW  976   6.395   0.772   0.297
   26SOL    HW1  977   6.423   0.832   0.222
   26SOL    HW2  978   6.474   0.750   0.354
   27SOL     OW  979   0.407   1.437   1.680
   27SOL    HW1  980   0.425   1.362   1.743
   27SOL    HW2  981   0.309   1.458   1.680
   28SOL     OW  982   3.828   1.374   0.186
   28SOL    HW1  983   3.828   1.453   0.126
   28SOL    HW2  984   3.777   1.395   0.270
   29SOL     OW  985   5.831   2.777   2.036
   29SOL    HW1  986   5.860   2.758   2.130
   29SOL    HW2  987   5.748   2.724   2.016
   30SOL     OW  988   4.039   0.664   5.105
   30SOL    HW1  989   4.102   0.610   5.049
   30SOL    HW2  990   4.056   0.761   5.091
   31SOL     OW  991   0.507   1.752   5.894
   31SOL    HW1  992   0.528   1.844   5.925
   31SOL    HW2  993   0.550   1.736   5.805
   32SOL     OW  994   6.779   1.150   3.005
   32SOL    HW1  995   6.691   1.115   2.974
   32SOL    HW2  996   6.851   1.118   2.943
   33SOL     OW  997   2.522   3.492   0.227
   33SOL    HW1  998   2.429   3.458   0.212
   33SOL    HW2  999   2.553   3.464   0.318
   34SOL     OW 1000   2.031   1.519   4.006
   34SOL    HW1 1001   2.005   1.614   4.019
   34SOL    HW2 1002   1.970   1.476   3.939
   35SOL     OW 1003   3.609   1.853   0.097
   35SOL    HW1 1004   3.669   1.850   0.017
   35SOL    HW2 1005   3.515   1.867   0.068
   36SOL     OW 1006   0.043   0.950   6.285
   36SOL    HW1 1007   0.093   1.035   6.306
   36SOL    HW2 1008   0.051   0.931   6.187
   37SOL     OW 1009   1.348   0.577   0.665
   37SOL    HW1 1010   1.256   0.543   0.680
   37SOL    HW2 1011   1.411   0.499   0.654
   38SOL     OW 1012   0.469   4.684   2.110
   38SOL    HW1 1013   0.407   4.761   2.093
   38SOL    HW2 1014   0.514   4.659   2.024
   39SOL     OW 1015   6.864   4.820   6.546
   39SOL    HW1 1016   6.834   4.825   6.451
   39SOL    HW2 1017   6.927   4.744   6.558
   40SOL     OW 1018   5.720   2.375   1.199
   40SOL    HW1 1019   5.817   2.354   1.198
   40SOL    HW2 1020   5.667   2.290   1.189
   41SOL     OW 1021   0.566   6.310   4.263
   41SOL    HW1 1022   0.552   6.237   4.197
   41SOL    HW2 1023   0.544   6.398   4.220
   42SOL     OW 1024   2.392   5.543   6.117
   42SOL    HW1 1025   2.471   5.510   6.169
   42SOL    HW2 1026   2.332   5.466   6.097
   43SOL     OW 1027   5.626   6.432   5.561
   43SOL    HW1 1028   5.640   6.390   5.651
   43SOL    HW2 1029   5.572   6.371   5.503
   44SOL     OW 1030   5.706   2.409   6.213
   44SOL    HW1 1031   5.773   2.424   6.286
   44SOL    HW2 1032   5.753   2.410   6.125
   45SOL     OW 1033   3.347   0.046   3.469
   45SOL    HW1 1034   3.354   6.986   3.529
   45SOL    HW2 1035   3.262   0.042   3.417
   46SOL     OW 1036   1.224   3.382   4.319
   46SOL    HW1 1037   1.162   3.337   4.384
   46SOL    HW2 1038   1.173   3.452   4.268
   47SOL     OW 1039   5.043   4.449   2.279
   47SOL    HW1 1040   5.050   4.350   2.287
   47SOL    HW2 1041   5.033   4.489   2.370
   48SOL     OW 1042   0.146   2.768   5.700
   48SOL    HW1 1043   0.244   2.750   5.713
   48SOL    HW2 1044   0.133   2.863   5.673
   49SOL     OW 1045   4.686   4.046   1.815
   49SOL    HW1 1046   4.708   4.135   1.855
   49SOL    HW2 1047   4.717   3.974   1.877
   50SOL     OW 1048   6.355   2.682   5.922
   50SOL    HW1 1049   6.408   2.613   5.872
   50SOL    HW2 1050   6.284   2.719   5.862
   51SOL     OW 1051   3.002   6.250   2.501
   51SOL    HW1 1052   3.071   6.183   2.475
   51SOL    HW2 1053   3.021   6.337   2.456
   52SOL     OW 1054   5.075   2.644   3.331
   52SOL    HW1 1055   4.998   2.700   3.359
   52SOL    HW2 1056   5.161   2.692   3.353
   53SOL     OW 1057   4.269   0.391   4.767
   53SOL    HW1 1058   4.322   0.455   4.712
   53SOL    HW2 1059   4.201   0.345   4.708
   54SOL     OW 1060   3.764   4.997   0.595
   54SOL    HW1 1061   3.835   4.928   0.580
   54SOL    HW2 1062   3.788   5.054   0.673
   55SOL     OW 1063   3.791   1.377   6.357
   55SOL    HW1 1064   3.798   1.466   6.403
   55SOL    HW2 1065   3.766   1.391   6.261
   56SOL     OW 1066   0.714   0.455   1.172
   56SOL    HW1 1067   0.646   0.393   1.210
   56SOL    HW2 1068   0.736   0.526   1.239
   57SOL     OW 1069   5.713   0.516   0.667
   57SOL    HW1 1070   5.635   0.578   0.668
   57SOL    HW2 1071   5.792   0.562   0.628
   58SOL     OW 1072   6.544   6.663   5.325
   58SOL    HW1 1073   6.457   6.638   5.283
   58SOL    HW2 1074   6.567   6.757   5.301
   59SOL     OW 1075   1.844   1.336   6.294
   59SOL    HW1 1076   1.942   1.330   6.311
   59SOL    HW2 1077   1.808   1.246   6.271
   60SOL     OW 1078   5.942   1.255   6.355
   60SOL    HW1 1079   5.867   1.321   6.350
   60SOL    HW2 1080   5.955   1.212   6.266
   61SOL     OW 1081   5.088   1.964   4.770
   61SOL    HW1 1082   5.081   2.064   4.774
   61SOL    HW2 1083   5.079   1.927   4.862
   62SOL     OW 1084   6.961   0.521   3.236
   62SOL    HW1 1085   0.012   0.463   3.277
   62SOL    HW2 1086   6.871   0.480   3.250
   63SOL     OW 1087   6.466   1.479   3.718
   63SOL    HW1 1088   6.512   1.427   3.789
   63SOL    HW2 1089   6.398   1.540   3.759
   64SOL     OW 1090   0.138   3.737   6.615
   64SOL    HW1 1091   0.232   3.759   6.643
   64SOL    HW2 1092   0.132   3.639   6.593
   65SOL     OW 1093   6.851   4.517   5.416
   65SOL    HW1 1094   6.832   4.423   5.443
   65SOL    HW2 1095   6.869   4.521   5.318
   66SOL     OW 1096   3.705   0.845   6.550
   66SOL    HW1 1097   3.712   0.745   6.553
   66SOL    HW2 1098   3.611   0.873   6.567
   67SOL     OW 1099   5.238   4.424   5.412
   67SOL    HW1 1100   5.214   4.509   5.366
   67SOL    HW2 1101   5.294   4.368   5.351
   68SOL     OW 1102   5.638   0.777   6.794
   68SOL    HW1 1103   5.681   0.754   6.881
   68SOL    HW2 1104   5.637   0.877   6.783
   69SOL     OW 1105   0.738   3.074   6.814
   69SOL    HW1 1106   0.837   3.076   6.829
   69SOL    HW2 1107   0.716   3.010   6.741
   70SOL     OW 1108   6.087   4.742   3.582
   70SOL    HW1 1109   5.996   4.708   3.608
   70SOL    HW2 1110   6.154   4.668   3.588
   71SOL     OW 1111   4.319   1.782   2.479
   71SOL    HW1 1112   4.407   1.797   2.526
   71SOL    HW2 1113   4.293   1.686   2.488
   72SOL     OW 1114   3.064   5.893   5.149
   72SOL    HW1 1115   3.048   5.960   5.221
   72SOL    HW2 1116   3.161   5.894   5.123
   73SOL     OW 1117   3.771   1.344   0.932
   73SOL    HW1 1118   3.686   1.301   0.962
   73SOL    HW2 1119   3.828   1.365   1.012
   74SOL     OW 1120   4.668   6.048   5.868
   74SOL    HW1 1121   4.608   5.973   5.837
   74SOL    HW2 1122   4.717   6.020   5.950
   75SOL     OW 1123   4.157   0.351   6.819
   75SOL    HW1 1124   4.083   0.303   6.771
   75SOL    HW2 1125   4.150   0.334   6.917
   76SOL     OW 1126   2.565   2.457   1.618
   76SOL    HW1 1127   2.500   2.533   1.616
   76SOL    HW2 1128   2.657   2.491   1.637
   77SOL     OW 1129   5.686   5.961   4.200
   77SOL    HW1 1130   5.724   5.880   4.244
   77SOL    HW2 1131   5.587   5.951   4.190
   78SOL     OW 1132   5.892   0.860   5.661
   78SOL    HW1 1133   5.988   0.886   5.667
   78SOL    HW2 1134   5.881   0.785   5.596
   79SOL     OW 1135   3.306   6.882   0.538
   79SOL    HW1 1136   3.374   6.929   0.483
   79SOL    HW2 1137   3.236   6.947   0.568
   80SOL     OW 1138   5.596   1.843   4.231
   80SOL    HW1 1139   5.556   1.882   4.314
   80SOL    HW2 1140   5.532   1.777   4.191
   81SOL     OW 1141   2.086   0.301   3.012
   81SOL    HW1 1142   2.095   0.249   2.927
   81SOL    HW2 1143   2.110   0.397   2.995
   82SOL     OW 1144   6.561   5.275   0.430
   82SOL    HW1 1145   6.472   5.283   0.385
   82SOL    HW2 1146   6.608   5.194   0.396
   83SOL     OW 1147   6.985   0.483   0.708
   83SOL    HW1 1148   0.057   0.491   0.746
   83SOL    HW2 1149   6.936   0.409   0.753
   84SOL     OW 1150   5.163   3.460   3.622
   84SOL    HW1 1151   5.178   3.551   3.661
   84SOL    HW2 1152   5.211   3.452   3.535
   85SOL     OW 1153   2.039   1.976   5.152
   85SOL    HW1 1154   2.057   1.923   5.069
   85SOL    HW2 1155   1.956   2.031   5.138
   86SOL     OW 1156   0.277   0.662   5.778
   86SOL    HW1 1157   0.340   0.724   5.825
   86SOL    HW2 1158   0.306   0.567   5.792
   87SOL     OW 1159   5.000   3.539   0.636
   87SOL    HW1 1160   5.022   3.565   0.730
   87SOL    HW2 1161   5.036   3.607   0.573
   88SOL     OW 1162   3.647   1.705   6.174
   88SOL    HW1 1163   3.713   1.748   6.114
   88SOL    HW2 1164   3.570   1.767   6.190
   89SOL     OW 1165   0.811   2.547   5.721
   89SOL    HW1 1166   0.881   2.599   5.770
   89SOL    HW2 1167   0.760   2.492   5.787
   90SOL     OW 1168   4.175   6.357   3.197
   90SOL    HW1 1169   4.206   6.439   3.245
   90SOL    HW2 1170   4.077   6.366   3.175
   91SOL     OW 1171   4.824   4.172   4.591
   91SOL    HW1 1172   4.806   4.077   4.569
   91SOL    HW2 1173   4.811   4.229   4.509
   92SOL     OW 1174   3.153   3.724   0.470
   92SOL    HW1 1175   3.104   3.777   0.540
   92SOL    HW2 1176   3.093   3.708   0.392
   93SOL     OW 1177   2.302   3.314   6.540
   93SOL    HW1 1178   2.279   3.366   6.458
   93SOL    HW2 1179   2.399   3.325   6.561
   94SOL     OW 1180   2.562   6.014   5.993
   94SOL    HW1 1181   2.509   6.059   6.064
   94SOL    HW2 1182   2.516   5.930   5.965
   95SOL     OW 1183   0.820   0.937   3.303
   95SOL    HW1 1184   0.792   0.995   3.227
   95SOL    HW2 1185   0.897   0.880   3.275
   96SOL     OW 1186   3.992   0.094   5.187
   96SOL    HW1 1187   3.977   0.124   5.092
   96SOL    HW2 1188   3.981   0.173   5.248
   97SOL     OW 1189   1.346   3.604   6.098
   97SOL    HW1 1190   1.349   3.682   6.161
   97SOL    HW2 1191   1.349   3.638   6.004
   98SOL     OW 1192   6.505   3.859   0.361
   98SOL    HW1 1193   6.509   3.959   0.367
   98SOL    HW2 1194   6.465   3.832   0.273
   99SOL     OW 1195   4.510   3.589   1.375
   99SOL    HW1 1196   4.600   3.545   1.387
   99SOL    HW2 1197   4.523   3.682   1.341
  100SOL     OW 1198   0.105   0.221   5.465
  100SOL    HW1 1199   0.056   0.192   5.548
  100SOL    HW2 1200   0.059   0.301   5.426
  101SOL     OW 1201   1.675   5.650   2.565
  101SOL    HW1 1202   1.749   5.685   2.622
  101SOL    HW2 1203   1.622   5.726   2.528
  102SOL     OW 1204   4.052   0.512   2.373
  102SOL    HW1 1205   4.123   0.484   2.437
  102SOL    HW2 1206   3.962   0.484   2.408
  103SOL     OW 1207   3.257   1.148   2.338
  103SOL    HW1 1208   3.329   1.158   2.406
  103SOL    HW2 1209   3.296   1.157   2.246
  104SOL     OW 1210   0.251   5.509   2.462
  104SOL    HW1 1211   0.336   5.465   2.491
  104SOL    HW2 1212   0.247   5.510   2.362
  105SOL     OW 1213   6.673   2.588   6.351
  105SOL    HW1 1214   6.711   2.542   6.271
  105SOL    HW2 1215   6.640   2.520   6.416
  106SOL     OW 1216   3.847   6.138   4.557
  106SOL    HW1 1217   3.848   6.120   4.655
  106SOL    HW2 1218   3.767   6.096   4.516
  107SOL     OW 1219   1.578   1.150   1.855
  107SOL    HW1 1220   1.497   1.113   1.900
  107SOL    HW2 1221   1.619   1.221   1.912
  108SOL     OW 1222   3.863   5.142   5.566
  108SOL    HW1 1223   3.869   5.239   5.593
  108SOL    HW2 1224   3.854   5.086   5.648
  109SOL     OW 1225   0.872   1.002   1.469
  109SOL    HW1 1226   0.868   0.943   1.388
  109SOL    HW2 1227   0.788   1.056   1.475
  110SOL     OW 1228   3.982   6.123   5.433
  110SOL    HW1 1229   3.948   6.176   5.511
  110SOL    HW2 1230   3.932   6.036   5.427
  111SOL     OW 1231   3.450   0.681   5.016
  111SOL    HW1 1232   3.520   0.748   5.037
  111SOL    HW2 1233   3.484   0.618   4.946
  112SOL     OW 1234   5.682   6.542   6.534
  112SOL    HW1 1235   5.745   6.615   6.560
  112SOL    HW2 1236   5.607   6.581   6.481
  113SOL     OW 1237   6.005   4.741   3.325
  113SOL    HW1 1238   6.032   4.732   3.421
  113SOL    HW2 1239   6.044   4.825   3.288
  114SOL     OW 1240   0.928   0.084   1.313
  114SOL    HW1 1241   0.922   0.073   1.214
  114SOL    HW2 1242   0.843   0.124   1.347
  115SOL     OW 1243   3.605   1.617   3.161
  115SOL    HW1 1244   3.590   1.704   3.208
  115SOL    HW2 1245   3.670   1.562   3.213
  116SOL     OW 1246   6.185   5.174   1.886
  116SOL    HW1 1247   6.130   5.233   1.945
  116SOL    HW2 1248   6.167   5.078   1.909
  117SOL     OW 1249   1.441   1.494   6.951
  117SOL    HW1 1250   1.398   1.521   6.865
  117SOL    HW2 1251   1.539   1.481   6.937
  118SOL     OW 1252   1.401   1.632   3.213
  118SOL    HW1 1253   1.429   1.603   3.305
  118SOL    HW2 1254   1.302   1.646   3.211
  119SOL     OW 1255   0.904   1.678   6.305
  119SOL    HW1 1256   0.935   1.597   6.355
  119SOL    HW2 1257   0.960   1.756   6.331
  120SOL     OW 1258   6.363   6.742   0.438
  120SOL    HW1 1259   6.338   6.668   0.500
  120SOL    HW2 1260   6.298   6.817   0.448
  121SOL     OW 1261   2.187   3.439   6.303
  121SOL    HW1 1262   2.251   3.424   6.228
  121SOL    HW2 1263   2.099   3.469   6.266
  122SOL     OW 1264   1.705   4.670   6.522
  122SOL    HW1 1265   1.804   4.664   6.510
  122SOL    HW2 1266   1.664   4.579   6.512
  123SOL     OW 1267   0.174   1.585   1.647
  123SOL    HW1 1268   0.189   1.616   1.741
  123SOL    HW2 1269   0.218   1.648   1.584
  124SOL     OW 1270   5.060   3.178   0.665
  124SOL    HW1 1271   4.973   3.224   0.643
  124SOL    HW2 1272   5.062   3.155   0.762
  125SOL     OW 1273   2.884   1.534   2.196
  125SOL    HW1 1274   2.929   1.448   2.176
  125SOL    HW2 1275   2.931   1.580   2.272
  126SOL     OW 1276   2.482   3.742   1.299
  126SOL    HW1 1277   2.462   3.656   1.346
  126SOL    HW2 1278   2.580   3.763   1.309
  127SOL     OW 1279   0.243   5.436   5.981
  127SOL    HW1 1280   0.299   5.407   6.058
  127SOL    HW2 1281   0.154   5.468   6.013
  128SOL     OW 1282   4.691   2.347   1.243
  128SOL    HW1 1283   4.626   2.356   1.168
  128SOL    HW2 1284   4.729   2.254   1.244
  129SOL     OW 1285   3.554   2.998   5.959
  129SOL    HW1 1286   3.461   2.963   5.972
  129SOL    HW2 1287   3.580   3.051   6.040
  130SOL     OW 1288   0.562   1.066   3.855
  130SOL    HW1 1289   0.560   1.020   3.943
  130SOL    HW2 1290   0.569   1.165   3.869
  131SOL     OW 1291   5.088   2.162   3.323
  131SOL    HW1 1292   5.081   2.098   3.399
  131SOL    HW2 1293   4.997   2.192   3.295
  132SOL     OW 1294   2.450   2.698   0.783
  132SOL    HW1 1295   2.493   2.767   0.724
  132SOL    HW2 1296   2.472   2.718   0.879
  133SOL     OW 1297   4.820   6.753   4.141
  133SOL    HW1 1298   4.741   6.809   4.116
  133SOL    HW2 1299   4.886   6.810   4.190
  134SOL     OW 1300   6.136   1.706   2.262
  134SOL    HW1 1301   6.113   1.748   2.173
  134SOL    HW2 1302   6.213   1.643   2.250
  135SOL     OW 1303   5.782   3.753   2.854
  135SOL    HW1 1304   5.733   3.762   2.941
  135SOL    HW2 1305   5.734   3.688   2.795
  136SOL     OW 1306   3.059   3.865   6.679
  136SOL    HW1 1307   2.974   3.907   6.647
  136SOL    HW2 1308   3.122   3.852   6.602
  137SOL     OW 1309   5.241   1.578   4.848
  137SOL    HW1 1310   5.185   1.496   4.834
  137SOL    HW2 1311   5.334   1.551   4.872
  138SOL     OW 1312   0.476   4.712   3.155
  138SOL    HW1 1313   0.515   4.623   3.179
  138SOL    HW2 1314   0.449   4.711   3.059
  139SOL     OW 1315   2.450   6.651   4.915
  139SOL    HW1 1316   2.511   6.687   4.986
  139SOL    HW2 1317   2.428   6.556   4.935
  140SOL     OW 1318   0.645   5.353   3.618
  140SOL    HW1 1319   0.581   5.428   3.633
  140SOL    HW2 1320   0.654   5.337   3.520
  141SOL     OW 1321   6.105   3.136   4.762
  141SOL    HW1 1322   6.015   3.134   4.718
  141SOL    HW2 1323   6.146   3.227   4.751
  142SOL     OW 1324   2.147   4.051   0.523
  142SOL    HW1 1325   2.061   4.069   0.570
  142SOL    HW2 1326   2.134   3.978   0.456
  143SOL     OW 1327   5.487   4.464   1.757
  143SOL    HW1 1328   5.398   4.489   1.794
  143SOL    HW2 1329   5.475   4.409   1.674
  144SOL     OW 1330   1.543   6.242   6.880
  144SOL    HW1 1331   1.594   6.166   6.921
  144SOL    HW2 1332   1.556   6.241   6.780
  145SOL     OW 1333   0.300   5.179   0.086
  145SOL    HW1 1334   0.254   5.199   7.020
  145SOL    HW2 1335   0.303   5.262   0.142
  146SOL     OW 1336   5.069   0.650   6.489
  146SOL    HW1 1337   5.130   0.637   6.567
  146SOL    HW2 1338   5.054   0.562   6.443
  147SOL     OW 1339   5.893   3.795   6.453
  147SOL    HW1 1340   5.881   3.878   6.397
  147SOL    HW2 1341   5.923   3.820   6.544
  148SOL     OW 1342   0.012   5.600   6.420
  148SOL    HW1 1343   0.101   5.569   6.454
  148SOL    HW2 1344   6.982   5.645   6.494
  149SOL     OW 1345   2.988   1.954   4.668
  149SOL    HW1 1346   2.961   1.962   4.572
  149SOL    HW2 1347   2.993   2.045   4.709
  150SOL     OW 1348   5.980   5.545   6.577
  150SOL    HW1 1349   5.932   5.561   6.491
  150SOL    HW2 1350   5.920   5.567   6.654
  151SOL     OW 1351   3.589   2.416   1.096
  151SOL    HW1 1352   3.575   2.448   1.189
  151SOL    HW2 1353   3.501   2.415   1.047
  152SOL     OW 1354   1.448   1.314   3.362
  152SOL    HW1 1355   1.373   1.373   3.331
  152SOL    HW2 1356   1.409   1.231   3.403
  153SOL     OW 1357   2.885   0.312   1.832
  153SOL    HW1 1358   2.836   0.286   1.749
  153SOL    HW2 1359   2.983   0.305   1.817
  154SOL     OW 1360   0.472   1.833   2.864
  154SOL    HW1 1361   0.400   1.792   2.809
  154SOL    HW2 1362   0.432   1.882   2.941
  155SOL     OW 1363   6.431   1.676   3.304
  155SOL    HW1 1364   6.388   1.630   3.381
  155SOL    HW2 1365   6.488   1.611   3.254
  156SOL     OW 1366   7.004   1.994   0.471
  156SOL    HW1 1367   0.048   2.046   0.414
  156SOL    HW2 1368   0.035   1.950   0.545
  157SOL     OW 1369   6.310   3.312   1.604
  157SOL    HW1 1370   6.402   3.280   1.630
  157SOL    HW2 1371   6.311   3.411   1.594
  158SOL     OW 1372   2.596   6.045   2.144
  158SOL    HW1 1373   2.554   6.130   2.176
  158SOL    HW2 1374   2.611   5.984   2.222
  159SOL     OW 1375   4.577   4.530   1.971
  159SOL    HW1 1376   4.503   4.535   1.904
  159SOL    HW2 1377   4.580   4.438   2.011
  160SOL     OW 1378   6.536   5.602   0.221
  160SOL    HW1 1379   6.554   5.696   0.192
  160SOL    HW2 1380   6.609   5.572   0.283
  161SOL     OW 1381   1.996   5.611   4.684
  161SOL    HW1 1382   2.075   5.553   4.664
  161SOL    HW2 1383   2.000   5.692   4.625
  162SOL     OW 1384   4.103   6.948   6.740
  162SOL    HW1 1385   4.166   7.009   6.790
  162SOL    HW2 1386   4.010   6.964   6.772
  163SOL     OW 1387   5.306   5.869   0.744
  163SOL    HW1 1388   5.279   5.963   0.768
  163SOL    HW2 1389   5.392   5.846   0.790
  164SOL     OW 1390   6.423   4.805   0.239
  164SOL    HW1 1391   6.495   4.827   0.174
  164SOL    HW2 1392   6.417   4.705   0.249
  165SOL     OW 1393   5.389   2.704   1.668
  165SOL    HW1 1394   5.314   2.766   1.645
  165SOL    HW2 1395   5.368   2.657   1.754
  166SOL     OW 1396   6.801   5.231   3.864
  166SOL    HW1 1397   6.736   5.209   3.936
  166SOL    HW2 1398   6.876   5.166   3.865
  167SOL     OW 1399   5.611   2.555   6.837
  167SOL    HW1 1400   5.684   2.488   6.824
  167SOL    HW2 1401   5.629   2.609   6.920
  168SOL     OW 1402   1.956   3.420   1.323
  168SOL    HW1 1403   2.005   3.395   1.240
  168SOL    HW2 1404   2.006   3.384   1.402
  169SOL     OW 1405   4.214   0.608   1.836
  169SOL    HW1 1406   4.258   0.659   1.910
  169SOL    HW2 1407   4.131   0.656   1.807
  170SOL     OW 1408   0.826   0.726   3.496
  170SOL    HW1 1409   0.814   0.793   3.422
  170SOL    HW2 1410   0.737   0.707   3.538
  171SOL     OW 1411   3.934   4.765   0.547
  171SOL    HW1 1412   3.972   4.701   0.613
  171SOL    HW2 1413   3.930   4.721   0.457
  172SOL     OW 1414   6.057   1.691   4.225
  172SOL    HW1 1415   5.969   1.730   4.198
  172SOL    HW2 1416   6.051   1.591   4.223
  173SOL     OW 1417   6.752   2.251   4.648
  173SOL    HW1 1418   6.804   2.166   4.657
  173SOL    HW2 1419   6.656   2.230   4.629
  174SOL     OW 1420   3.392   5.627   4.568
  174SOL    HW1 1421   3.483   5.665   4.548
  174SOL    HW2 1422   3.401   5.533   4.601
  175SOL     OW 1423   2.524   6.990   2.088
  175SOL    HW1 1424   2.468   0.021   2.153
  175SOL    HW2 1425   2.566   6.912   2.135
  176SOL     OW 1426   1.148   4.519   1.154
  176SOL    HW1 1427   1.246   4.514   1.137
  176SOL    HW2 1428   1.131   4.565   1.242
  177SOL     OW 1429   5.744   3.070   2.803
  177SOL    HW1 1430   5.807   3.005   2.761
  177SOL    HW2 1431   5.717   3.138   2.735
  178SOL     OW 1432   3.151   2.723   6.256
  178SOL    HW1 1433   3.226   2.657   6.249
  178SOL    HW2 1434   3.083   2.703   6.185
  179SOL     OW 1435   2.635   1.530   6.157
  179SOL    HW1 1436   2.629   1.489   6.066
  179SOL    HW2 1437   2.705   1.483   6.210
  180SOL     OW 1438   1.625   7.015   6.745
  180SOL    HW1 1439   1.707   6.960   6.756
  180SOL    HW2 1440   1.561   6.969   6.683
  181SOL     OW 1441   3.269   2.096   6.091
  181SOL    HW1 1442   3.196   2.030   6.071
  181SOL    HW2 1443   3.292   2.146   6.007
  182SOL     OW 1444   3.710   1.634   4.002
  182SOL    HW1 1445   3.612   1.617   3.997
  182SOL    HW2 1446   3.760   1.555   3.968
  183SOL     OW 1447   3.371   2.108   3.259
  183SOL    HW1 1448   3.293   2.137   3.314
  183SOL    HW2 1449   3.356   2.015   3.226
  184SOL     OW 1450   1.941   6.158   4.239
  184SOL    HW1 1451   1.906   6.156   4.146
  184SOL    HW2 1452   1.879   6.210   4.297
  185SOL     OW 1453   0.461   1.806   6.299
  185SOL    HW1 1454   0.429   1.719   6.337
  185SOL    HW2 1455   0.485   1.868   6.374
  186SOL     OW 1456   5.856   1.136   3.919
  186SOL    HW1 1457   5.946   1.103   3.891
  186SOL    HW2 1458   5.849   1.234   3.899
  187SOL     OW 1459   4.659   0.429   3.079
  187SOL    HW1 1460   4.652   0.371   3.160
  187SOL    HW2 1461   4.587   0.498   3.081
  188SOL     OW 1462   0.013   1.881   2.396
  188SOL    HW1 1463   7.005   1.914   2.306
  188SOL    HW2 1464   6.964   1.908   2.464
  189SOL     OW 1465   2.307   4.981   1.855
  189SOL    HW1 1466   2.340   4.895   1.892
  189SOL    HW2 1467   2.221   5.007   1.901
  190SOL     OW 1468   4.349   1.420   4.208
  190SOL    HW1 1469   4.373   1.419   4.111
  190SOL    HW2 1470   4.414   1.476   4.259
  191SOL     OW 1471   5.511   5.745   6.715
  191SOL    HW1 1472   5.532   5.810   6.642
  191SOL    HW2 1473   5.550   5.656   6.692
  192SOL     OW 1474   0.416   5.554   1.639
  192SOL    HW1 1475   0.503   5.587   1.603
  192SOL    HW2 1476   0.397   5.597   1.727
  193SOL     OW 1477   4.693   2.790   5.696
  193SOL    HW1 1478   4.746   2.773   5.779
  193SOL    HW2 1479   4.726   2.731   5.622
  194SOL     OW 1480   3.766   0.763   2.471
  194SOL    HW1 1481   3.717   0.782   2.556
  194SOL    HW2 1482   3.784   0.665   2.464
  195SOL     OW 1483   1.674   0.058   5.077
  195SOL    HW1 1484   1.682   0.110   4.992
  195SOL    HW2 1485   1.721   0.107   5.151
  196SOL     OW 1486   2.441   1.433   6.622
  196SOL    HW1 1487   2.461   1.518   6.670
  196SOL    HW2 1488   2.348   1.405   6.642
  197SOL     OW 1489   2.241   0.289   0.739
  197SOL    HW1 1490   2.183   0.356   0.785
  197SOL    HW2 1491   2.254   0.315   0.644
  198SOL     OW 1492   4.722   0.763   2.957
  198SOL    HW1 1493   4.655   0.698   2.921
  198SOL    HW2 1494   4.814   0.728   2.939
  199SOL     OW 1495   1.160   2.069   4.275
  199SOL    HW1 1496   1.228   2.057   4.348
  199SOL    HW2 1497   1.203   2.053   4.186
  200SOL     OW 1498   1.323   3.532   0.540
  200SOL    HW1 1499   1.349   3.507   0.633
  200SOL    HW2 1500   1.267   3.614   0.541
  201SOL     OW 1501   0.452   6.474   5.629
  201SOL    HW1 1502   0.402   6.486   5.542
  201SOL    HW2 1503   0.549   6.459   5.610
  202SOL     OW 1504   3.424   1.714   6.600
  202SOL    HW1 1505   3.471   1.798   6.627
  202SOL    HW2 1506   3.378   1.729   6.512
  203SOL     OW 1507   6.204   2.158   5.336
  203SOL    HW1 1508   6.192   2.059   5.323
  203SOL    HW2 1509   6.188   2.181   5.431
  204SOL     OW 1510   0.686   0.282   4.426
  204SOL    HW1 1511   0.775   0.328   4.429
  204SOL    HW2 1512   0.670   0.247   4.334
  205SOL     OW 1513   1.156   2.428   2.989
  205SOL    HW1 1514   1.238   2.427   3.047
  205SOL    HW2 1515   1.080   2.384   3.038
  206SOL     OW 1516   0.688   3.780   1.183
  206SOL    HW1 1517   0.770   3.784   1.125
  206SOL    HW2 1518   0.692   3.853   1.251
  207SOL     OW 1519   5.434   1.323   4.105
  207SOL    HW1 1520   5.510   1.282   4.054
  207SOL    HW2 1521   5.467   1.403   4.154
  208SOL     OW 1522   0.187   4.401   5.896
  208SOL    HW1 1523   0.229   4.311   5.912
  208SOL    HW2 1524   0.173   4.414   5.797
  209SOL     OW 1525   6.992   5.074   3.383
  209SOL    HW1 1526   0.072   5.076   3.381
  209SOL    HW2 1527   6.959   5.142   3.448
  210SOL     OW 1528   4.516   2.155   0.361
  210SOL    HW1 1529   4.571   2.214   0.421
  210SOL    HW2 1530   4.517   2.062   0.396
  211SOL     OW 1531   1.381   6.126   1.853
  211SOL    HW1 1532   1.328   6.126   1.768
  211SOL    HW2 1533   1.343   6.193   1.916
  212SOL     OW 1534   1.542   3.214   2.698
  212SOL    HW1 1535   1.473   3.145   2.676
  212SOL    HW2 1536   1.512   3.268   2.775
  213SOL     OW 1537   2.530   6.463   0.937
  213SOL    HW1 1538   2.494   6.392   0.997
  213SOL    HW2 1539   2.567   6.421   0.854
  214SOL     OW 1540   3.337   5.377   3.138
  214SOL    HW1 1541   3.299   5.424   3.217
  214SOL    HW2 1542   3.289   5.407   3.055
  215SOL     OW 1543   2.908   3.677   0.838
  215SOL    HW1 1544   2.973   3.743   0.802
  215SOL    HW2 1545   2.952   3.620   0.908
  216SOL     OW 1546   0.426   6.033   3.313
  216SOL    HW1 1547   0.450   6.092   3.237
  216SOL    HW2 1548   0.352   6.075   3.366
  217SOL     OW 1549   1.489   2.517   4.772
  217SOL    HW1 1550   1.460   2.447   4.707
  217SOL    HW2 1551   1.409   2.556   4.818
  218SOL     OW 1552   0.797   2.431   4.587
  218SOL    HW1 1553   0.820   2.380   4.504
  218SOL    HW2 1554   0.719   2.491   4.569
  219SOL     OW 1555   4.034   6.943   0.203
  219SOL    HW1 1556   3.985   6.936   0.289
  219SOL    HW2 1557   4.055   6.852   0.168
  220SOL     OW 1558   2.913   6.871   1.458
  220SOL    HW1 1559   2.839   6.875   1.391
  220SOL    HW2 1560   2.904   6.947   1.522
  221SOL     OW 1561   5.576   4.151   0.991
  221SOL    HW1 1562   5.607   4.216   0.922
  221SOL    HW2 1563   5.511   4.196   1.053
  222SOL     OW 1564   1.270   5.154   5.692
  222SOL    HW1 1565   1.223   5.065   5.690
  222SOL    HW2 1566   1.356   5.147   5.643
  223SOL     OW 1567   6.962   3.067   5.833
  223SOL    HW1 1568   6.944   3.165   5.828
  223SOL    HW2 1569   7.011   3.047   5.918
  224SOL     OW 1570   3.039   1.684   6.327
  224SOL    HW1 1571   2.959   1.673   6.386
  224SOL    HW2 1572   3.010   1.713   6.236
  225SOL     OW 1573   4.238   4.156   6.380
  225SOL    HW1 1574   4.160   4.098   6.404
  225SOL    HW2 1575   4.283   4.188   6.464
  226SOL     OW 1576   0.310   1.546   5.916
  226SOL    HW1 1577   0.362   1.462   5.901
  226SOL    HW2 1578   0.373   1.624   5.917
  227SOL     OW 1579   1.118   3.816   2.219
  227SOL    HW1 1580   1.193   3.883   2.224
  227SOL    HW2 1581   1.082   3.814   2.125
  228SOL     OW 1582   2.086   0.331   2.669
  228SOL    HW1 1583   2.028   0.381   2.605
  228SOL    HW2 1584   2.173   0.310   2.625
  229SOL     OW 1585   5.818   5.650   6.375
  229SOL    HW1 1586   5.728   5.688   6.393
  229SOL    HW2 1587   5.886   5.724   6.373
  230SOL     OW 1588   4.154   5.749   4.073
  230SOL    HW1 1589   4.060   5.777   4.090
  230SOL    HW2 1590   4.211   5.831   4.064
  231SOL     OW 1591   6.008   1.072   6.645
  231SOL    HW1 1592   6.105   1.056   6.624
  231SOL    HW2 1593   5.973   0.994   6.697
  232SOL     OW 1594   6.895   3.382   0.048
  232SOL    HW1 1595   6.829   3.342   7.005
  232SOL    HW2 1596   6.970   3.424   7.015
  233SOL     OW 1597   3.651   1.184   2.978
  233SOL    HW1 1598   3.627   1.281   2.972
  233SOL    HW2 1599   3.581   1.130   2.932
  234SOL     OW 1600   5.096   0.964   6.443
  234SOL    HW1 1601   5.127   1.038   6.503
  234SOL    HW2 1602   5.120   0.876   6.484
  235SOL     OW 1603   4.846   3.062   2.239
  235SOL    HW1 1604   4.943   3.043   2.225
  235SOL    HW2 1605   4.800   3.063   2.150
  236SOL     OW 1606   5.173   3.224   6.846
  236SOL    HW1 1607   5.138   3.158   6.779
  236SOL    HW2 1608   5.263   3.194   6.879
  237SOL     OW 1609   0.300   4.487   2.153
  237SOL    HW1 1610   0.210   4.529   2.163
  237SOL    HW2 1611   0.370   4.558   2.146
  238SOL     OW 1612   6.036   1.718   0.438
  238SOL    HW1 1613   5.970   1.746   0.369
  238SOL    HW2 1614   6.066   1.624   0.419
  239SOL     OW 1615   0.788   4.139   6.783
  239SOL    HW1 1616   0.880   4.111   6.754
  239SOL    HW2 1617   0.729   4.058   6.786
  240SOL     OW 1618   0.698   2.688   3.298
  240SOL    HW1 1619   0.719   2.675   3.395
  240SOL    HW2 1620   0.642   2.612   3.266
  241SOL     OW 1621   2.996   2.166   4.837
  241SOL    HW1 1622   2.917   2.225   4.819
  241SOL    HW2 1623   3.057   2.211   4.902
  242SOL     OW 1624   3.348   3.846   4.201
  242SOL    HW1 1625   3.268   3.840   4.141
  242SOL    HW2 1626   3.400   3.929   4.179
  243SOL     OW 1627   4.900   0.832   0.078
  243SOL    HW1 1628   4.820   0.790   0.122
  243SOL    HW2 1629   4.965   0.861   0.148
  244SOL     OW 1630   6.269   3.977   5.733
  244SOL    HW1 1631   6.310   3.894   5.772
  244SOL    HW2 1632   6.306   3.993   5.642
  245SOL     OW 1633   4.747   1.824   4.231
  245SOL    HW1 1634   4.788   1.855   4.145
  245SOL    HW2 1635   4.713   1.903   4.282
  246SOL     OW 1636   4.425   2.042   3.345
  246SOL    HW1 1637   4.364   2.075   3.418
  246SOL    HW2 1638   4.468   1.957   3.374
  247SOL     OW 1639   2.559   2.097   0.734
  247SOL    HW1 1640   2.642   2.125   0.685
  247SOL    HW2 1641   2.579   2.090   0.832
  248SOL     OW 1642   3.360   1.413   2.795
  248SOL    HW1 1643   3.365   1.361   2.880
  248SOL    HW2 1644   3.296   1.489   2.806
  249SOL     OW 1645   5.458   0.036   5.118
  249SOL    HW1 1646   5.481   0.043   5.215
  249SOL    HW2 1647   5.539   0.006   5.067
  250SOL     OW 1648   4.695   3.362   0.326
  250SOL    HW1 1649   4.602   3.327   0.315
  250SOL    HW2 1650   4.743   3.356   0.239
  251SOL     OW 1651   4.481   3.386   5.293
  251SOL    HW1 1652   4.399   3.346   5.251
  251SOL    HW2 1653   4.528   3.444   5.227
  252SOL     OW 1654   6.934   6.565   5.024
  252SOL    HW1 1655   6.971   6.546   4.933
  252SOL    HW2 1656   6.978   6.647   5.061
  253SOL     OW 1657   3.167   5.444   6.275
  253SOL    HW1 1658   3.101   5.505   6.318
  253SOL    HW2 1659   3.151   5.350   6.307
  254SOL     OW 1660   6.418   2.282   4.130
  254SOL    HW1 1661   6.461   2.260   4.043
  254SOL    HW2 1662   6.412   2.200   4.186
  255SOL     OW 1663   2.377   5.153   5.370
  255SOL    HW1 1664   2.421   5.067   5.345
  255SOL    HW2 1665   2.355   5.205   5.287
  256SOL     OW 1666   5.756   4.373   5.977
  256SOL    HW1 1667   5.816   4.366   5.897
  256SOL    HW2 1668   5.672   4.421   5.952
  257SOL     OW 1669   5.017   0.705   3.524
  257SOL    HW1 1670   5.024   0.681   3.427
  257SOL    HW2 1671   4.926   0.743   3.542
  258SOL     OW 1672   2.188   4.845   5.248
  258SOL    HW1 1673   2.260   4.823   5.315
  258SOL    HW2 1674   2.098   4.827   5.289
  259SOL     OW 1675   6.404   1.300   2.980
  259SOL    HW1 1676   6.311   1.263   2.985
  259SOL    HW2 1677   6.466   1.228   2.947
  260SOL     OW 1678   4.098   6.413   2.700
  260SOL    HW1 1679   4.041   6.377   2.774
  260SOL    HW2 1680   4.167   6.474   2.738
  261SOL     OW 1681   6.028   3.480   0.642
  261SOL    HW1 1682   5.948   3.518   0.595
  261SOL    HW2 1683   6.009   3.385   0.668
  262SOL     OW 1684   0.937   3.639   7.000
  262SOL    HW1 1685   0.898   3.731   6.993
  262SOL    HW2 1686   0.972   3.625   0.073
  263SOL     OW 1687   2.200   0.646   4.851
  263SOL    HW1 1688   2.148   0.566   4.818
  263SOL    HW2 1689   2.136   0.715   4.886
  264SOL     OW 1690   6.041   3.058   6.442
  264SOL    HW1 1691   6.077   2.996   6.372
  264SOL    HW2 1692   6.019   3.146   6.399
  265SOL     OW 1693   5.618   6.510   2.823
  265SOL    HW1 1694   5.713   6.529   2.849
  265SOL    HW2 1695   5.577   6.593   2.786
  266SOL     OW 1696   3.692   2.834   5.738
  266SOL    HW1 1697   3.779   2.861   5.697
  266SOL    HW2 1698   3.683   2.877   5.828
  267SOL     OW 1699   0.770   1.529   5.962
  267SOL    HW1 1700   0.756   1.589   5.883
  267SOL    HW2 1701   0.718   1.565   6.040
  268SOL     OW 1702   3.477   1.319   6.243
  268SOL    HW1 1703   3.468   1.246   6.176
  268SOL    HW2 1704   3.388   1.363   6.255
  269SOL     OW 1705   1.543   3.805   1.143
  269SOL    HW1 1706   1.495   3.718   1.147
  269SOL    HW2 1707   1.639   3.792   1.166
  270SOL     OW 1708   1.427   6.018   0.654
  270SOL    HW1 1709   1.511   5.969   0.629
  270SOL    HW2 1710   1.445   6.115   0.662
  271SOL     OW 1711   6.919   1.641   6.557
  271SOL    HW1 1712   6.890   1.594   6.640
  271SOL    HW2 1713   6.954   1.731   6.580
  272SOL     OW 1714   3.578   5.992   3.910
  272SOL    HW1 1715   3.637   6.071   3.926
  272SOL    HW2 1716   3.546   5.955   3.997
  273SOL     OW 1717   2.577   4.544   4.423
  273SOL    HW1 1718   2.503   4.498   4.472
  273SOL    HW2 1719   2.576   4.642   4.444
  274SOL     OW 1720   3.934   1.512   2.952
  274SOL    HW1 1721   3.959   1.605   2.926
  274SOL    HW2 1722   3.834   1.501   2.947
  275SOL     OW 1723   6.627   5.322   3.652
  275SOL    HW1 1724   6.565   5.247   3.627
  275SOL    HW2 1725   6.680   5.295   3.733
  276SOL     OW 1726   6.932   6.469   2.445
  276SOL    HW1 1727   7.006   6.410   2.475
  276SOL    HW2 1728   6.864   6.476   2.518
  277SOL     OW 1729   0.864   3.789   0.418
  277SOL    HW1 1730   0.809   3.753   0.493
  277SOL    HW2 1731   0.932   3.853   0.455
  278SOL     OW 1732   0.482   4.272   1.903
  278SOL    HW1 1733   0.533   4.215   1.838
  278SOL    HW2 1734   0.436   4.346   1.853
  279SOL     OW 1735   5.668   2.984   4.478
  279SOL    HW1 1736   5.614   3.066   4.458
  279SOL    HW2 1737   5.731   2.967   4.403
  280SOL     OW 1738   2.534   6.075   3.029
  280SOL    HW1 1739   2.595   6.000   3.005
  280SOL    HW2 1740   2.489   6.110   2.946
  281SOL     OW 1741   2.514   4.399   1.849
  281SOL    HW1 1742   2.605   4.407   1.809
  281SOL    HW2 1743   2.467   4.320   1.811
  282SOL     OW 1744   3.287   1.389   5.358
  282SOL    HW1 1745   3.340   1.445   5.293
  282SOL    HW2 1746   3.328   1.298   5.364
  283SOL     OW 1747   5.745   2.601   6.555
  283SOL    HW1 1748   5.679   2.658   6.506
  283SOL    HW2 1749   5.808   2.559   6.490
  284SOL     OW 1750   1.306   3.994   3.691
  284SOL    HW1 1751   1.340   3.904   3.717
  284SOL    HW2 1752   1.380   4.061   3.693
  285SOL     OW 1753   5.852   4.945   4.205
  285SOL    HW1 1754   5.912   4.949   4.285
  285SOL    HW2 1755   5.774   4.886   4.225
  286SOL     OW 1756   3.298   4.771   6.586
  286SOL    HW1 1757   3.267   4.823   6.507
  286SOL    HW2 1758   3.393   4.796   6.607
  287SOL     OW 1759   1.007   3.585   1.293
  287SOL    HW1 1760   1.036   3.509   1.235
  287SOL    HW2 1761   0.974   3.549   1.380
  288SOL     OW 1762   3.096   1.391   6.882
  288SOL    HW1 1763   3.126   1.453   6.955
  288SOL    HW2 1764   3.176   1.351   6.837
  289SOL     OW 1765   2.033   4.239   5.855
  289SOL    HW1 1766   1.980   4.184   5.791
  289SOL    HW2 1767   2.008   4.335   5.845
  290SOL     OW 1768   6.595   1.938   4.728
  290SOL    HW1 1769   6.533   2.005   4.770
  290SOL    HW2 1770   6.682   1.937   4.779
  291SOL     OW 1771   1.326   2.242   4.864
  291SOL    HW1 1772   1.342   2.277   4.772
  291SOL    HW2 1773   1.337   2.143   4.865
  292SOL     OW 1774   1.744   2.223   3.268
  292SOL    HW1 1775   1.764   2.142   3.213
  292SOL    HW2 1776   1.651   2.254   3.251
  293SOL     OW 1777   4.109   5.992   3.052
  293SOL    HW1 1778   4.025   6.022   3.097
  293SOL    HW2 1779   4.101   5.896   3.025
  294SOL     OW 1780   0.466   6.116   6.689
  294SOL    HW1 1781   0.492   6.085   6.597
  294SOL    HW2 1782   0.443   6.036   6.745
  295SOL     OW 1783   3.679   0.911   3.731
  295SOL    HW1 1784   3.610   0.969   3.688
  295SOL    HW2 1785   3.739   0.967   3.787
  296SOL     OW 1786   3.869   1.845   3.040
  296SOL    HW1 1787   3.810   1.808   2.969
  296SOL    HW2 1788   3.959   1.801   3.035
  297SOL     OW 1789   2.633   4.600   4.091
  297SOL    HW1 1790   2.553   4.559   4.047
  297SOL    HW2 1791   2.629   4.584   4.189
  298SOL     OW 1792   3.477   5.669   2.315
  298SOL    HW1 1793   3.487   5.767   2.297
  298SOL    HW2 1794   3.431   5.626   2.237
  299SOL     OW 1795   5.543   3.405   6.299
  299SOL    HW1 1796   5.510   3.371   6.387
  299SOL    HW2 1797   5.479   3.379   6.227
  300SOL     OW 1798   6.056   1.150   2.608
  300SOL    HW1 1799   5.974   1.123   2.556
  300SOL    HW2 1800   6.085   1.073   2.666
  301SOL     OW 1801   4.745   3.487   1.428
  301SOL    HW1 1802   4.730   3.391   1.451
  301SOL    HW2 1803   4.779   3.536   1.508
  302SOL     OW 1804   1.289   0.500   3.096
  302SOL    HW1 1805   1.306   0.538   3.005
  302SOL    HW2 1806   1.192   0.481   3.106
  303SOL     OW 1807   6.048   0.858   2.266
  303SOL    HW1 1808   6.085   0.931   2.324
  303SOL    HW2 1809   5.953   0.840   2.293
  304SOL     OW 1810   2.146   0.427   3.421
  304SOL    HW1 1811   2.187   0.505   3.375
  304SOL    HW2 1812   2.104   0.457   3.507
  305SOL     OW 1813   0.243   3.544   0.314
  305SOL    HW1 1814   0.334   3.541   0.356
  305SOL    HW2 1815   0.250   3.514   0.219
  306SOL     OW 1816   1.704   0.692   3.521
  306SOL    HW1 1817   1.737   0.601   3.496
  306SOL    HW2 1818   1.625   0.716   3.465
  307SOL     OW 1819   4.787   6.752   0.840
  307SOL    HW1 1820   4.688   6.763   0.836
  307SOL    HW2 1821   4.817   6.750   0.935
  308SOL     OW 1822   6.476   3.459   4.793
  308SOL    HW1 1823   6.429   3.546   4.779
  308SOL    HW2 1824   6.461   3.427   4.886
  309SOL     OW 1825   4.203   3.937   5.938
  309SOL    HW1 1826   4.276   3.928   5.870
  309SOL    HW2 1827   4.195   3.852   5.990
  310SOL     OW 1828   6.511   6.592   5.824
  310SOL    HW1 1829   6.562   6.527   5.767
  310SOL    HW2 1830   6.501   6.555   5.916
  311SOL     OW 1831   6.623   4.991   1.524
  311SOL    HW1 1832   6.528   5.019   1.531
  311SOL    HW2 1833   6.670   5.049   1.458
  312SOL     OW 1834   4.850   2.404   5.888
  312SOL    HW1 1835   4.829   2.367   5.798
  312SOL    HW2 1836   4.802   2.350   5.958
  313SOL     OW 1837   2.883   4.407   1.637
  313SOL    HW1 1838   2.820   4.435   1.709
  313SOL    HW2 1839   2.935   4.327   1.667
  314SOL     OW 1840   3.257   5.844   0.397
  314SOL    HW1 1841   3.240   5.748   0.374
  314SOL    HW2 1842   3.313   5.848   0.480
  315SOL     OW 1843   1.225   2.546   3.455
  315SOL    HW1 1844   1.184   2.494   3.380
  315SOL    HW2 1845   1.174   2.631   3.468
  316SOL     OW 1846   2.006   2.222   4.455
  316SOL    HW1 1847   2.063   2.144   4.482
  316SOL    HW2 1848   2.049   2.271   4.380
  317SOL     OW 1849   1.051   1.437   0.232
  317SOL    HW1 1850   1.131   1.399   0.186
  317SOL    HW2 1851   0.968   1.405   0.185
  318SOL     OW 1852   1.069   4.881   0.799
  318SOL    HW1 1853   1.042   4.965   0.845
  318SOL    HW2 1854   1.002   4.859   0.728
  319SOL     OW 1855   0.181   0.269   2.319
  319SOL    HW1 1856   0.140   0.180   2.337
  319SOL    HW2 1857   0.124   0.341   2.359
  320SOL     OW 1858   5.124   2.597   6.809
  320SOL    HW1 1859   5.060   2.612   6.885
  320SOL    HW2 1860   5.200   2.540   6.841
  321SOL     OW 1861   2.516   1.277   2.218
  321SOL    HW1 1862   2.610   1.246   2.235
  321SOL    HW2 1863   2.483   1.236   2.132
  322SOL     OW 1864   3.116   3.512   4.429
  322SOL    HW1 1865   3.120   3.553   4.338
  322SOL    HW2 1866   3.037   3.549   4.478
  323SOL     OW 1867   0.582   3.952   6.773
  323SOL    HW1 1868   0.494   3.991   6.800
  323SOL    HW2 1869   0.567   3.874   6.712
  324SOL     OW 1870   1.439   3.060   4.005
  324SOL    HW1 1871   1.347   3.093   3.983
  324SOL    HW2 1872   1.491   3.046   3.920
  325SOL     OW 1873   1.771   2.908   1.409
  325SOL    HW1 1874   1.760   2.822   1.458
  325SOL    HW2 1875   1.783   2.890   1.312
  326SOL     OW 1876   1.667   5.955   6.860
  326SOL    HW1 1877   1.658   5.864   6.819
  326SOL    HW2 1878   1.681   6.023   6.788
  327SOL     OW 1879   0.912   5.357   3.654
  327SOL    HW1 1880   0.815   5.361   3.627
  327SOL    HW2 1881   0.928   5.272   3.705
  328SOL     OW 1882   3.257   4.990   3.060
  328SOL    HW1 1883   3.267   4.985   3.160
  328SOL    HW2 1884   3.339   4.953   3.017
  329SOL     OW 1885   3.510   4.189   3.964
  329SOL    HW1 1886   3.589   4.156   4.016
  329SOL    HW2 1887   3.526   4.175   3.866
  330SOL     OW 1888   3.304   6.022   1.948
  330SOL    HW1 1889   3.330   6.114   1.975
  330SOL    HW2 1890   3.225   6.025   1.888
  331SOL     OW 1891   4.807   4.838   6.838
  331SOL    HW1 1892   4.731   4.889   6.798
  331SOL    HW2 1893   4.891   4.858   6.788
  332SOL     OW 1894   3.416   2.047   4.174
  332SOL    HW1 1895   3.514   2.058   4.159
  332SOL    HW2 1896   3.373   2.011   4.091
  333SOL     OW 1897   3.749   0.230   0.299
  333SOL    HW1 1898   3.806   0.232   0.216
  333SOL    HW2 1899   3.795   0.281   0.372
  334SOL     OW 1900   2.756   6.895   1.238
  334SOL    HW1 1901   2.659   6.871   1.228
  334SOL    HW2 1902   2.812   6.820   1.205
  335SOL     OW 1903   3.193   6.546   3.968
  335SOL    HW1 1904   3.106   6.500   3.952
  335SOL    HW2 1905   3.251   6.537   3.887
  336SOL     OW 1906   2.237   0.760   3.847
  336SOL    HW1 1907   2.310   0.710   3.800
  336SOL    HW2 1908   2.216   0.844   3.796
  337SOL     OW 1909   0.091   3.521   1.258
  337SOL    HW1 1910   0.184   3.494   1.234
  337SOL    HW2 1911   0.027   3.484   1.190
  338SOL     OW 1912   2.836   2.894   1.250
  338SOL    HW1 1913   2.881   2.875   1.163
  338SOL    HW2 1914   2.888   2.853   1.325
  339SOL     OW 1915   3.866   0.078   3.600
  339SOL    HW1 1916   3.849   0.147   3.529
  339SOL    HW2 1917   3.957   0.092   3.639
  340SOL     OW 1918   5.394   4.199   4.749
  340SOL    HW1 1919   5.485   4.159   4.736
  340SOL    HW2 1920   5.402   4.294   4.776
  341SOL     OW 1921   6.109   6.737   3.868
  341SOL    HW1 1922   6.195   6.785   3.882
  341SOL    HW2 1923   6.058   6.733   3.954
  342SOL     OW 1924   5.830   4.307   0.261
  342SOL    HW1 1925   5.921   4.266   0.264
  342SOL    HW2 1926   5.762   4.236   0.248
  343SOL     OW 1927   2.882   5.718   1.672
  343SOL    HW1 1928   2.921   5.731   1.581
  343SOL    HW2 1929   2.869   5.620   1.688
  344SOL     OW 1930   2.276   5.316   1.365
  344SOL    HW1 1931   2.369   5.278   1.369
  344SOL    HW2 1932   2.225   5.288   1.446
  345SOL     OW 1933   6.827   0.608   5.618
  345SOL    HW1 1934   6.812   0.527   5.563
  345SOL    HW2 1935   6.773   0.602   5.702
  346SOL     OW 1936   2.060   6.971   2.033
  346SOL    HW1 1937   1.965   6.992   2.010
  346SOL    HW2 1938   2.082   7.012   2.122
  347SOL     OW 1939   4.997   0.407   6.344
  347SOL    HW1 1940   5.048   0.339   6.291
  347SOL    HW2 1941   4.980   0.487   6.287
  348SOL     OW 1942   4.343   4.727   1.582
  348SOL    HW1 1943   4.412   4.671   1.627
  348SOL    HW2 1944   4.387   4.791   1.519
  349SOL     OW 1945   0.218   4.792   2.069
  349SOL    HW1 1946   0.204   4.890   2.051
  349SOL    HW2 1947   0.143   4.740   2.028
  350SOL     OW 1948   3.716   3.679   1.713
  350SOL    HW1 1949   3.677   3.602   1.662
  350SOL    HW2 1950   3.649   3.713   1.778
  351SOL     OW 1951   2.781   2.428   0.452
  351SOL    HW1 1952   2.711   2.464   0.514
  351SOL    HW2 1953   2.855   2.494   0.443
  352SOL     OW 1954   3.869   7.011   4.912
  352SOL    HW1 1955   3.895   6.929   4.963
  352SOL    HW2 1956   3.916   7.012   4.824
  353SOL     OW 1957   2.430   0.162   0.878
  353SOL    HW1 1958   2.459   0.072   0.846
  353SOL    HW2 1959   2.355   0.196   0.820
  354SOL     OW 1960   4.253   2.637   0.332
  354SOL    HW1 1961   4.298   2.722   0.359
  354SOL    HW2 1962   4.317   2.560   0.341
  355SOL     OW 1963   6.480   3.015   2.522
  355SOL    HW1 1964   6.559   3.067   2.490
  355SOL    HW2 1965   6.426   2.984   2.443
  356SOL     OW 1966   4.035   5.467   4.647
  356SOL    HW1 1967   3.936   5.468   4.661
  356SOL    HW2 1968   4.066   5.558   4.622
  357SOL     OW 1969   6.803   6.866   5.179
  357SOL    HW1 1970   6.796   6.891   5.275
  357SOL    HW2 1971   6.897   6.836   5.160
  358SOL     OW 1972   6.205   0.191   1.342
  358SOL    HW1 1973   6.207   0.162   1.246
  358SOL    HW2 1974   6.277   0.144   1.393
  359SOL     OW 1975   1.389   2.561   2.362
  359SOL    HW1 1976   1.461   2.567   2.431
  359SOL    HW2 1977   1.373   2.465   2.339
  360SOL     OW 1978   2.815   6.001   6.448
  360SOL    HW1 1979   2.875   6.074   6.412
  360SOL    HW2 1980   2.801   5.932   6.377
  361SOL     OW 1981   5.620   5.503   2.740
  361SOL    HW1 1982   5.706   5.459   2.766
  361SOL    HW2 1983   5.637   5.600   2.720
  362SOL     OW 1984   3.636   3.970   0.477
  362SOL    HW1 1985   3.710   3.905   0.463
  362SOL    HW2 1986   3.548   3.924   0.463
  363SOL     OW 1987   3.353   5.215   3.824
  363SOL    HW1 1988   3.274   5.249   3.874
  363SOL    HW2 1989   3.435   5.263   3.854
  364SOL     OW 1990   0.218   5.504   4.964
  364SOL    HW1 1991   0.145   5.441   4.938
  364SOL    HW2 1992   0.306   5.460   4.949
  365SOL     OW 1993   4.235   6.549   2.919
  365SOL    HW1 1994   4.258   6.628   2.976
  365SOL    HW2 1995   4.278   6.467   2.956
  366SOL     OW 1996   5.366   1.121   0.207
  366SOL    HW1 1997   5.386   1.112   0.305
  366SOL    HW2 1998   5.445   1.161   0.161
  367SOL     OW 1999   5.213   2.740   0.840
  367SOL    HW1 2000   5.184   2.740   0.745
  367SOL    HW2 2001   5.134   2.726   0.900
  368SOL     OW 2002   1.527   4.716   5.043
  368SOL    HW1 2003   1.622   4.731   5.014
  368SOL    HW2 2004   1.521   4.632   5.097
  369SOL     OW 2005   6.544   4.336   1.957
  369SOL    HW1 2006   6.509   4.423   1.923
  369SOL    HW2 2007   6.640   4.326   1.928
  370SOL     OW 2008   2.504   1.168   5.305
  370SOL    HW1 2009   2.589   1.205   5.267
  370SOL    HW2 2010   2.481   1.083   5.257
  371SOL     OW 2011   2.101   3.810   6.258
  371SOL    HW1 2012   2.133   3.719   6.284
  371SOL    HW2 2013   2.104   3.819   6.158
  372SOL     OW 2014   0.136   0.333   5.028
  372SOL    HW1 2015   0.053   0.325   5.083
  372SOL    HW2 2016   0.215   0.307   5.082
  373SOL     OW 2017   0.109   6.713   5.669
  373SOL    HW1 2018   0.053   6.656   5.729
  373SOL    HW2 2019   0.206   6.698   5.689
  374SOL     OW 2020   4.188   7.017   2.256
  374SOL    HW1 2021   4.114   0.001   2.189
  374SOL    HW2 2022   4.265   0.053   2.225
  375SOL     OW 2023   6.825   4.740   3.814
  375SOL    HW1 2024   6.867   4.657   3.778
  375SOL    HW2 2025   6.834   4.814   3.747
  376SOL     OW 2026   1.505   3.301   3.722
  376SOL    HW1 2027   1.502   3.201   3.727
  376SOL    HW2 2028   1.448   3.340   3.795
  377SOL     OW 2029   5.876   2.840   2.730
  377SOL    HW1 2030   5.973   2.817   2.724
  377SOL    HW2 2031   5.821   2.761   2.702
  378SOL     OW 2032   3.911   2.989   5.653
  378SOL    HW1 2033   3.941   2.998   5.558
  378SOL    HW2 2034   3.984   3.020   5.714
  379SOL     OW 2035   5.802   3.309   1.544
  379SOL    HW1 2036   5.721   3.255   1.568
  379SOL    HW2 2037   5.884   3.259   1.569
  380SOL     OW 2038   2.311   1.534   1.827
  380SOL    HW1 2039   2.350   1.551   1.736
  380SOL    HW2 2040   2.273   1.442   1.831
  381SOL     OW 2041   2.321   4.578   1.834
  381SOL    HW1 2042   2.390   4.506   1.824
  381SOL    HW2 2043   2.349   4.641   1.907
  382SOL     OW 2044   3.680   5.859   6.878
  382SOL    HW1 2045   3.719   5.861   6.786
  382SOL    HW2 2046   3.752   5.839   6.945
  383SOL     OW 2047   6.367   2.943   6.047
  383SOL    HW1 2048   6.327   2.917   6.135
  383SOL    HW2 2049   6.367   2.864   5.986
  384SOL     OW 2050   1.247   4.546   5.084
  384SOL    HW1 2051   1.318   4.512   5.146
  384SOL    HW2 2052   1.276   4.530   4.990
  385SOL     OW 2053   4.989   6.630   0.105
  385SOL    HW1 2054   4.985   6.730   0.105
  385SOL    HW2 2055   4.898   6.592   0.086
  386SOL     OW 2056   4.271   6.790   5.268
  386SOL    HW1 2057   4.296   6.882   5.238
  386SOL    HW2 2058   4.315   6.771   5.357
  387SOL     OW 2059   0.180   6.796   3.884
  387SOL    HW1 2060   0.207   6.719   3.942
  387SOL    HW2 2061   0.102   6.843   3.926
  388SOL     OW 2062   6.923   2.135   5.255
  388SOL    HW1 2063   6.954   2.046   5.287
  388SOL    HW2 2064   6.986   2.206   5.287
  389SOL     OW 2065   4.306   4.180   1.667
  389SOL    HW1 2066   4.236   4.108   1.675
  389SOL    HW2 2067   4.360   4.183   1.751
  390SOL     OW 2068   3.371   1.195   0.509
  390SOL    HW1 2069   3.458   1.146   0.519
  390SOL    HW2 2070   3.320   1.158   0.432
  391SOL     OW 2071   2.701   4.074   5.779
  391SOL    HW1 2072   2.755   4.149   5.817
  391SOL    HW2 2073   2.630   4.112   5.719
  392SOL     OW 2074   1.643   3.365   2.189
  392SOL    HW1 2075   1.611   3.384   2.096
  392SOL    HW2 2076   1.679   3.449   2.229
  393SOL     OW 2077   1.071   4.330   0.728
  393SOL    HW1 2078   1.050   4.403   0.793
  393SOL    HW2 2079   1.060   4.364   0.635
  394SOL     OW 2080   0.102   3.338   0.417
  394SOL    HW1 2081   0.158   3.271   0.367
  394SOL    HW2 2082   0.129   3.430   0.388
  395SOL     OW 2083   5.378   4.174   2.345
  395SOL    HW1 2084   5.408   4.148   2.437
  395SOL    HW2 2085   5.440   4.244   2.309
  396SOL     OW 2086   2.564   2.012   2.126
  396SOL    HW1 2087   2.624   1.936   2.148
  396SOL    HW2 2088   2.574   2.084   2.195
  397SOL     OW 2089   4.715   1.357   5.640
  397SOL    HW1 2090   4.759   1.446   5.653
  397SOL    HW2 2091   4.642   1.346   5.708
  398SOL     OW 2092   0.987   0.051   4.344
  398SOL    HW1 2093   0.921   0.117   4.379
  398SOL    HW2 2094   0.955   0.015   4.257
  399SOL     OW 2095   5.847   6.168   3.760
  399SOL    HW1 2096   5.762   6.124   3.731
  399SOL    HW2 2097   5.869   6.138   3.853
  400SOL     OW 2098   6.215   0.248   4.507
  400SOL    HW1 2099   6.134   0.264   4.564
  400SOL    HW2 2100   6.214   0.154   4.474
  401SOL     OW 2101   6.552   0.884   5.968
  401SOL    HW1 2102   6.559   0.784   5.976
  401SOL    HW2 2103   6.559   0.925   6.059
  402SOL     OW 2104   6.156   0.544   2.506
  402SOL    HW1 2105   6.247   0.571   2.476
  402SOL    HW2 2106   6.160   0.508   2.599
  403SOL     OW 2107   2.740   0.414   5.920
  403SOL    HW1 2108   2.773   0.322   5.901
  403SOL    HW2 2109   2.801   0.457   5.988
  404SOL     OW 2110   3.744   6.500   5.580
  404SOL    HW1 2111   3.688   6.572   5.621
  404SOL    HW2 2112   3.818   6.542   5.527
  405SOL     OW 2113   1.828   3.771   3.478
  405SOL    HW1 2114   1.891   3.695   3.490
  405SOL    HW2 2115   1.824   3.825   3.562
  406SOL     OW 2116   0.864   5.167   4.925
  406SOL    HW1 2117   0.779   5.134   4.967
  406SOL    HW2 2118   0.871   5.131   4.832
  407SOL     OW 2119   1.607   3.573   3.682
  407SOL    HW1 2120   1.550   3.653   3.700
  407SOL    HW2 2121   1.561   3.491   3.718
  408SOL     OW 2122   3.722   1.852   2.791
  408SOL    HW1 2123   3.736   1.909   2.710
  408SOL    HW2 2124   3.648   1.788   2.774
  409SOL     OW 2125   0.796   3.710   1.666
  409SOL    HW1 2126   0.869   3.649   1.698
  409SOL    HW2 2127   0.750   3.751   1.744
  410SOL     OW 2128   1.742   2.370   1.118
  410SOL    HW1 2129   1.714   2.381   1.213
  410SOL    HW2 2130   1.824   2.313   1.114
  411SOL     OW 2131   0.238   2.254   1.845
  411SOL    HW1 2132   0.306   2.187   1.816
  411SOL    HW2 2133   0.231   2.252   1.945
  412SOL     OW 2134   2.638   4.652   3.072
  412SOL    HW1 2135   2.722   4.702   3.052
  412SOL    HW2 2136   2.563   4.692   3.018
  413SOL     OW 2137   3.780   4.967   2.471
  413SOL    HW1 2138   3.696   4.914   2.459
  413SOL    HW2 2139   3.756   5.062   2.493
  414SOL     OW 2140   3.085   6.856   3.973
  414SOL    HW1 2141   3.036   6.941   3.993
  414SOL    HW2 2142   3.082   6.796   4.053
  415SOL     OW 2143   6.703   1.328   0.249
  415SOL    HW1 2144   6.738   1.299   0.160
  415SOL    HW2 2145   6.612   1.367   0.238
  416SOL     OW 2146   5.130   3.831   5.103
  416SOL    HW1 2147   5.142   3.738   5.067
  416SOL    HW2 2148   5.104   3.892   5.028
  417SOL     OW 2149   2.720   2.243   6.828
  417SOL    HW1 2150   2.811   2.259   6.866
  417SOL    HW2 2151   2.689   2.152   6.854
  418SOL     OW 2152   3.415   0.029   4.454
  418SOL    HW1 2153   3.490   7.014   4.400
  418SOL    HW2 2154   3.363   0.096   4.401
  419SOL     OW 2155   0.421   6.841   1.460
  419SOL    HW1 2156   0.485   6.814   1.532
  419SOL    HW2 2157   0.360   6.912   1.495
  420SOL     OW 2158   5.359   0.917   6.867
  420SOL    HW1 2159   5.398   0.885   6.953
  420SOL    HW2 2160   5.430   0.957   6.810
  421SOL     OW 2161   5.187   4.133   4.584
  421SOL    HW1 2162   5.136   4.049   4.603
  421SOL    HW2 2163   5.260   4.143   4.651
  422SOL     OW 2164   4.793   2.085   1.222
  422SOL    HW1 2165   4.725   2.014   1.239
  422SOL    HW2 2166   4.872   2.070   1.282
  423SOL     OW 2167   3.170   1.184   6.210
  423SOL    HW1 2168   3.267   1.172   6.189
  423SOL    HW2 2169   3.116   1.167   6.128
  424SOL     OW 2170   1.356   4.812   2.933
  424SOL    HW1 2171   1.452   4.833   2.915
  424SOL    HW2 2172   1.345   4.782   3.027
  425SOL     OW 2173   4.768   1.292   4.804
  425SOL    HW1 2174   4.735   1.352   4.731
  425SOL    HW2 2175   4.868   1.294   4.806
  426SOL     OW 2176   2.579   2.252   5.031
  426SOL    HW1 2177   2.625   2.326   4.981
  426SOL    HW2 2178   2.640   2.173   5.037
  427SOL     OW 2179   4.432   1.436   3.539
  427SOL    HW1 2180   4.419   1.361   3.604
  427SOL    HW2 2181   4.530   1.457   3.531
  428SOL     OW 2182   3.080   1.029   5.030
  428SOL    HW1 2183   3.022   0.951   5.007
  428SOL    HW2 2184   3.025   1.100   5.074
  429SOL     OW 2185   1.049   6.271   3.861
  429SOL    HW1 2186   0.999   6.294   3.778
  429SOL    HW2 2187   1.131   6.220   3.838
  430SOL     OW 2188   2.062   6.883   4.073
  430SOL    HW1 2189   2.002   6.963   4.068
  430SOL    HW2 2190   2.155   6.913   4.091
  431SOL     OW 2191   3.218   2.006   1.156
  431SOL    HW1 2192   3.126   2.005   1.194
  431SOL    HW2 2193   3.220   2.065   1.075
  432SOL     OW 2194   4.557   2.072   1.498
  432SOL    HW1 2195   4.575   2.103   1.405
  432SOL    HW2 2196   4.644   2.063   1.547
  433SOL     OW 2197   2.826   6.476   6.490
  433SOL    HW1 2198   2.810   6.488   6.392
  433SOL    HW2 2199   2.875   6.555   6.526
  434SOL     OW 2200   3.759   6.563   3.603
  434SOL    HW1 2201   3.746   6.465   3.619
  434SOL    HW2 2202   3.839   6.576   3.544
  435SOL     OW 2203   3.562   1.783   5.833
  435SOL    HW1 2204   3.651   1.741   5.852
  435SOL    HW2 2205   3.574   1.864   5.776
  436SOL     OW 2206   3.890   6.187   3.534
  436SOL    HW1 2207   3.957   6.113   3.543
  436SOL    HW2 2208   3.833   6.169   3.454
  437SOL     OW 2209   0.008   0.464   4.244
  437SOL    HW1 2210   7.004   0.457   4.147
  437SOL    HW2 2211   0.013   0.561   4.270
  438SOL     OW 2212   1.153   5.013   2.958
  438SOL    HW1 2213   1.059   5.041   2.935
  438SOL    HW2 2214   1.170   4.921   2.924
  439SOL     OW 2215   6.033   0.383   2.707
  439SOL    HW1 2216   5.963   0.342   2.649
  439SOL    HW2 2217   6.108   0.318   2.719
  440SOL     OW 2218   4.300   0.371   0.254
  440SOL    HW1 2219   4.385   0.415   0.223
  440SOL    HW2 2220   4.320   0.278   0.283
  441SOL     OW 2221   6.470   4.633   2.790
  441SOL    HW1 2222   6.447   4.540   2.762
  441SOL    HW2 2223   6.561   4.634   2.830
  442SOL     OW 2224   5.184   3.930   5.675
  442SOL    HW1 2225   5.258   3.996   5.665
  442SOL    HW2 2226   5.131   3.927   5.590
  443SOL     OW 2227   5.110   4.323   3.411
  443SOL    HW1 2228   5.180   4.273   3.361
  443SOL    HW2 2229   5.153   4.389   3.473
  444SOL     OW 2230   4.065   1.172   1.213
  444SOL    HW1 2231   4.122   1.157   1.294
  444SOL    HW2 2232   4.104   1.245   1.158
  445SOL     OW 2233   2.368   5.823   2.882
  445SOL    HW1 2234   2.465   5.819   2.859
  445SOL    HW2 2235   2.349   5.905   2.936
  446SOL     OW 2236   5.676   5.809   2.606
  446SOL    HW1 2237   5.708   5.836   2.696
  446SOL    HW2 2238   5.642   5.889   2.556
  447SOL     OW 2239   5.944   4.396   6.640
  447SOL    HW1 2240   5.978   4.302   6.645
  447SOL    HW2 2241   5.974   4.438   6.555
  448SOL     OW 2242   3.405   1.506   2.347
  448SOL    HW1 2243   3.306   1.511   2.332
  448SOL    HW2 2244   3.422   1.467   2.438
  449SOL     OW 2245   1.664   2.665   4.023
  449SOL    HW1 2246   1.586   2.631   3.971
  449SOL    HW2 2247   1.634   2.735   4.087
  450SOL     OW 2248   0.784   4.621   2.994
  450SOL    HW1 2249   0.738   4.702   3.029
  450SOL    HW2 2250   0.879   4.620   3.026
  451SOL     OW 2251   0.844   1.883   3.706
  451SOL    HW1 2252   0.889   1.892   3.795
  451SOL    HW2 2253   0.845   1.971   3.659
  452SOL     OW 2254   3.855   6.718   3.138
  452SOL    HW1 2255   3.924   6.752   3.074
  452SOL    HW2 2256   3.889   6.635   3.183
  453SOL     OW 2257   4.016   0.132   7.016
  453SOL    HW1 2258   4.009   0.073   0.076
  453SOL    HW2 2259   3.968   0.089   6.939
  454SOL     OW 2260   0.086   4.690   6.537
  454SOL    HW1 2261   0.089   4.716   6.441
  454SOL    HW2 2262   0.127   4.762   6.593
  455SOL     OW 2263   6.857   4.281   5.770
  455SOL    HW1 2264   6.811   4.360   5.811
  455SOL    HW2 2265   6.844   4.201   5.828
  456SOL     OW 2266   2.240   1.080   3.042
  456SOL    HW1 2267   2.286   1.152   2.990
  456SOL    HW2 2268   2.204   1.011   2.980
  457SOL     OW 2269   2.001   5.807   6.242
  457SOL    HW1 2270   2.008   5.843   6.149
  457SOL    HW2 2271   1.938   5.865   6.294
  458SOL     OW 2272   2.353   1.311   3.264
  458SOL    HW1 2273   2.316   1.245   3.329
  458SOL    HW2 2274   2.392   1.263   3.186
  459SOL     OW 2275   2.253   0.018   5.011
  459SOL    HW1 2276   2.208   0.046   4.926
  459SOL    HW2 2277   2.249   0.093   5.076
  460SOL     OW 2278   1.389   1.709   5.209
  460SOL    HW1 2279   1.478   1.666   5.225
  460SOL    HW2 2280   1.340   1.658   5.138
  461SOL     OW 2281   0.528   4.885   5.345
  461SOL    HW1 2282   0.591   4.812   5.320
  461SOL    HW2 2283   0.442   4.845   5.377
  462SOL     OW 2284   3.734   3.415   4.303
  462SOL    HW1 2285   3.714   3.483   4.373
  462SOL    HW2 2286   3.660   3.347   4.301
  463SOL     OW 2287   6.156   6.338   2.148
  463SOL    HW1 2288   6.235   6.390   2.116
  463SOL    HW2 2289   6.185   6.276   2.221
  464SOL     OW 2290   3.299   6.177   6.167
  464SOL    HW1 2291   3.332   6.099   6.114
  464SOL    HW2 2292   3.376   6.231   6.199
  465SOL     OW 2293   0.780   2.192   0.735
  465SOL    HW1 2294   0.854   2.143   0.689
  465SOL    HW2 2295   0.780   2.288   0.706
  466SOL     OW 2296   3.485   6.219   4.844
  466SOL    HW1 2297   3.551   6.250   4.912
  466SOL    HW2 2298   3.501   6.123   4.822
  467SOL     OW 2299   6.933   1.445   2.801
  467SOL    HW1 2300   6.873   1.517   2.835
  467SOL    HW2 2301   6.892   1.355   2.819
  468SOL     OW 2302   3.805   0.640   6.208
  468SOL    HW1 2303   3.825   0.734   6.179
  468SOL    HW2 2304   3.862   0.616   6.286
  469SOL     OW 2305   2.822   4.285   5.917
  469SOL    HW1 2306   2.885   4.328   5.853
  469SOL    HW2 2307   2.875   4.239   5.989
  470SOL     OW 2308   2.380   5.613   3.242
  470SOL    HW1 2309   2.469   5.597   3.199
  470SOL    HW2 2310   2.364   5.545   3.314
  471SOL     OW 2311   2.649   2.120   4.038
  471SOL    HW1 2312   2.706   2.096   3.959
  471SOL    HW2 2313   2.554   2.131   4.008
  472SOL     OW 2314   6.431   4.320   5.908
  472SOL    HW1 2315   6.456   4.264   5.987
  472SOL    HW2 2316   6.412   4.413   5.938
  473SOL     OW 2317   7.017   2.255   2.767
  473SOL    HW1 2318   6.993   2.340   2.815
  473SOL    HW2 2319   7.010   2.270   2.668
  474SOL     OW 2320   6.270   6.333   4.749
  474SOL    HW1 2321   6.253   6.373   4.660
  474SOL    HW2 2322   6.366   6.345   4.773
  475SOL     OW 2323   6.084   1.495   0.303
  475SOL    HW1 2324   6.172   1.540   0.313
  475SOL    HW2 2325   6.070   1.470   0.207
  476SOL     OW 2326   0.670   3.883   1.838
  476SOL    HW1 2327   0.751   3.911   1.785
  476SOL    HW2 2328   0.652   3.951   1.909
  477SOL     OW 2329   1.874   5.420   3.428
  477SOL    HW1 2330   1.957   5.374   3.457
  477SOL    HW2 2331   1.890   5.466   3.340
  478SOL     OW 2332   4.407   5.630   3.146
  478SOL    HW1 2333   4.481   5.594   3.202
  478SOL    HW2 2334   4.424   5.609   3.050
  479SOL     OW 2335   3.924   3.245   3.397
  479SOL    HW1 2336   3.960   3.336   3.375
  479SOL    HW2 2337   3.954   3.219   3.489
  480SOL     OW 2338   1.085   6.849   2.505
  480SOL    HW1 2339   1.028   6.790   2.448
  480SOL    HW2 2340   1.103   6.805   2.593
  481SOL     OW 2341   0.799   6.402   0.357
  481SOL    HW1 2342   0.851   6.381   0.274
  481SOL    HW2 2343   0.707   6.430   0.332
  482SOL     OW 2344   5.253   4.550   2.094
  482SOL    HW1 2345   5.190   4.508   2.159
  482SOL    HW2 2346   5.347   4.543   2.129
  483SOL     OW 2347   5.985   2.374   3.359
  483SOL    HW1 2348   6.044   2.409   3.286
  483SOL    HW2 2349   6.028   2.391   3.448
  484SOL     OW 2350   2.360   4.320   4.178
  484SOL    HW1 2351   2.451   4.320   4.137
  484SOL    HW2 2352   2.316   4.231   4.163
  485SOL     OW 2353   5.482   3.337   2.917
  485SOL    HW1 2354   5.538   3.300   2.843
  485SOL    HW2 2355   5.385   3.331   2.891
  486SOL     OW 2356   6.501   6.381   5.514
  486SOL    HW1 2357   6.513   6.304   5.576
  486SOL    HW2 2358   6.404   6.394   5.495
  487SOL     OW 2359   0.135   6.394   4.210
  487SOL    HW1 2360   0.070   6.336   4.161
  487SOL    HW2 2361   0.191   6.337   4.270
  488SOL     OW 2362   1.887   6.713   3.273
  488SOL    HW1 2363   1.904   6.726   3.175
  488SOL    HW2 2364   1.846   6.796   3.311
  489SOL     OW 2365   6.959   5.677   4.793
  489SOL    HW1 2366   6.974   5.639   4.884
  489SOL    HW2 2367   6.996   5.770   4.789
  490SOL     OW 2368   1.570   4.890   6.026
  490SOL    HW1 2369   1.657   4.923   6.063
  490SOL    HW2 2370   1.495   4.941   6.067
  491SOL     OW 2371   0.473   2.681   0.996
  491SOL    HW1 2372   0.427   2.617   0.934
  491SOL    HW2 2373   0.543   2.732   0.946
  492SOL     OW 2374   1.642   1.529   5.557
  492SOL    HW1 2375   1.565   1.469   5.580
  492SOL    HW2 2376   1.728   1.481   5.577
  493SOL     OW 2377   2.180   6.216   4.871
  493SOL    HW1 2378   2.277   6.215   4.850
  493SOL    HW2 2379   2.139   6.301   4.838
  494SOL     OW 2380   2.257   0.288   5.105
  494SOL    HW1 2381   2.343   0.333   5.129
  494SOL    HW2 2382   2.190   0.357   5.078
  495SOL     OW 2383   4.314   6.138   5.576
  495SOL    HW1 2384   4.375   6.065   5.544
  495SOL    HW2 2385   4.227   6.099   5.605
  496SOL     OW 2386   5.743   2.352   2.706
  496SOL    HW1 2387   5.771   2.389   2.795
  496SOL    HW2 2388   5.664   2.292   2.717
  497SOL     OW 2389   3.468   1.153   6.608
  497SOL    HW1 2390   3.474   1.059   6.642
  497SOL    HW2 2391   3.375   1.187   6.622
  498SOL     OW 2392   0.704   5.574   1.900
  498SOL    HW1 2393   0.722   5.559   1.997
  498SOL    HW2 2394   0.747   5.502   1.846
  499SOL     OW 2395   3.681   5.355   0.112
  499SOL    HW1 2396   3.589   5.338   0.076
  499SOL    HW2 2397   3.746   5.365   0.037
  500SOL     OW 2398   5.608   2.030   6.755
  500SOL    HW1 2399   5.615   2.120   6.798
  500SOL    HW2 2400   5.615   1.959   6.825
  501SOL     OW 2401   0.916   6.425   2.949
  501SOL    HW1 2402   0.966   6.386   2.872
  501SOL    HW2 2403   0.945   6.381   3.034
  502SOL     OW 2404   1.897   4.238   6.375
  502SOL    HW1 2405   1.901   4.149   6.420
  502SOL    HW2 2406   1.840   4.231   6.293
  503SOL     OW 2407   3.548   4.788   6.769
  503SOL    HW1 2408   3.609   4.709   6.762
  503SOL    HW2 2409   3.462   4.761   6.812
  504SOL     OW 2410   6.227   6.080   1.899
  504SOL    HW1 2411   6.231   6.007   1.968
  504SOL    HW2 2412   6.136   6.122   1.901
  505SOL     OW 2413   5.212   6.729   5.699
  505SOL    HW1 2414   5.129   6.674   5.694
  505SOL    HW2 2415   5.215   6.793   5.623
  506SOL     OW 2416   2.906   5.949   3.011
  506SOL    HW1 2417   2.935   5.889   3.085
  506SOL    HW2 2418   2.986   5.982   2.961
  507SOL     OW 2419   4.123   1.255   1.987
  507SOL    HW1 2420   4.194   1.234   2.053
  507SOL    HW2 2421   4.074   1.338   2.014
  508SOL     OW 2422   0.684   4.632   4.749
  508SOL    HW1 2423   0.600   4.607   4.702
  508SOL    HW2 2424   0.760   4.578   4.712
  509SOL     OW 2425   4.252   0.737   6.184
  509SOL    HW1 2426   4.208   0.823   6.160
  509SOL    HW2 2427   4.343   0.755   6.221
  510SOL     OW 2428   6.443   4.609   5.991
  510SOL    HW1 2429   6.391   4.589   6.074
  510SOL    HW2 2430   6.538   4.583   6.003
  511SOL     OW 2431   1.259   1.518   0.505
  511SOL    HW1 2432   1.214   1.592   0.455
  511SOL    HW2 2433   1.240   1.527   0.603
  512SOL     OW 2434   5.647   2.066   0.304
  512SOL    HW1 2435   5.584   2.048   0.229
  512SOL    HW2 2436   5.702   2.147   0.283
  513SOL     OW 2437   5.812   0.648   2.792
  513SOL    HW1 2438   5.801   0.735   2.745
  513SOL    HW2 2439   5.906   0.640   2.826
  514SOL     OW 2440   0.047   7.005   3.990
  514SOL    HW1 2441   0.034   0.068   3.936
  514SOL    HW2 2442   7.013   7.011   4.074
  515SOL     OW 2443   3.373   0.215   6.646
  515SOL    HW1 2444   3.365   0.118   6.669
  515SOL    HW2 2445   3.427   0.262   6.716
  516SOL     OW 2446   2.818   4.870   1.351
  516SOL    HW1 2447   2.740   4.814   1.379
  516SOL    HW2 2448   2.891   4.861   1.419
  517SOL     OW 2449   3.002   5.189   2.506
  517SOL    HW1 2450   3.033   5.282   2.525
  517SOL    HW2 2451   3.064   5.124   2.550
  518SOL     OW 2452   2.053   2.869   3.664
  518SOL    HW1 2453   2.038   2.856   3.566
  518SOL    HW2 2454   2.144   2.833   3.688
  519SOL     OW 2455   6.927   6.422   3.436
  519SOL    HW1 2456   6.956   6.462   3.523
  519SOL    HW2 2457   7.006   6.386   3.387
  520SOL     OW 2458   0.922   2.855   6.924
  520SOL    HW1 2459   0.916   2.832   6.826
  520SOL    HW2 2460   0.950   2.774   6.975
  521SOL     OW 2461   4.875   5.010   4.940
  521SOL    HW1 2462   4.939   4.967   5.004
  521SOL    HW2 2463   4.781   4.992   4.970
  522SOL     OW 2464   4.420   3.427   1.157
  522SOL    HW1 2465   4.437   3.482   1.238
  522SOL    HW2 2466   4.494   3.440   1.091
  523SOL     OW 2467   0.211   5.924   1.717
  523SOL    HW1 2468   0.260   5.924   1.804
  523SOL    HW2 2469   0.158   5.840   1.708
  524SOL     OW 2470   0.321   2.609   2.342
  524SOL    HW1 2471   0.326   2.670   2.421
  524SOL    HW2 2472   0.282   2.658   2.264
  525SOL     OW 2473   1.207   3.287   6.996
  525SOL    HW1 2474   1.281   3.340   6.953
  525SOL    HW2 2475   1.245   3.226   0.044
  526SOL     OW 2476   3.471   0.122   5.159
  526SOL    HW1 2477   3.399   0.191   5.151
  526SOL    HW2 2478   3.488   0.082   5.069
  527SOL     OW 2479   1.374   2.326   6.751
  527SOL    HW1 2480   1.365   2.350   6.654
  527SOL    HW2 2481   1.426   2.397   6.798
  528SOL     OW 2482   0.003   3.303   4.340
  528SOL    HW1 2483   6.930   3.329   4.366
  528SOL    HW2 2484   0.010   3.203   4.335
  529SOL     OW 2485   2.627   6.647   5.712
  529SOL    HW1 2486   2.675   6.634   5.799
  529SOL    HW2 2487   2.533   6.613   5.721
  530SOL     OW 2488   3.628   3.251   1.803
  530SOL    HW1 2489   3.576   3.336   1.806
  530SOL    HW2 2490   3.714   3.266   1.755
  531SOL     OW 2491   2.675   1.011   2.086
  531SOL    HW1 2492   2.716   1.068   2.157
  531SOL    HW2 2493   2.744   0.950   2.048
  532SOL     OW 2494   2.710   2.890   6.922
  532SOL    HW1 2495   2.683   2.827   6.849
  532SOL    HW2 2496   2.689   2.849   7.010
  533SOL     OW 2497   3.948   0.410   3.492
  533SOL    HW1 2498   4.016   0.446   3.556
  533SOL    HW2 2499   3.860   0.455   3.507
  534SOL     OW 2500   0.974   5.128   0.882
  534SOL    HW1 2501   1.004   5.200   0.944
  534SOL    HW2 2502   1.010   5.146   0.790
  535SOL     OW 2503   5.309   4.109   3.286
  535SOL    HW1 2504   5.247   4.150   3.219
  535SOL    HW2 2505   5.379   4.176   3.311
  536SOL     OW 2506   6.501   6.212   2.823
  536SOL    HW1 2507   6.467   6.172   2.908
  536SOL    HW2 2508   6.511   6.311   2.834
  537SOL     OW 2509   3.332   0.192   3.949
  537SOL    HW1 2510   3.311   0.273   3.894
  537SOL    HW2 2511   3.292   0.111   3.907
  538SOL     OW 2512   2.606   5.127   5.629
  538SOL    HW1 2513   2.667   5.057   5.666
  538SOL    HW2 2514   2.513   5.111   5.663
  539SOL     OW 2515   1.256   5.530   0.630
  539SOL    HW1 2516   1.180   5.477   0.595
  539SOL    HW2 2517   1.338   5.513   0.574
  540SOL     OW 2518   1.625   0.321   3.837
  540SOL    HW1 2519   1.592   0.335   3.930
  540SOL    HW2 2520   1.662   0.406   3.801
  541SOL     OW 2521   4.140   6.565   4.149
  541SOL    HW1 2522   4.154   6.550   4.051
  541SOL    HW2 2523   4.206   6.510   4.201
  542SOL     OW 2524   3.051   5.683   6.358
  542SOL    HW1 2525   2.985   5.737   6.305
  542SOL    HW2 2526   3.143   5.705   6.328
  543SOL     OW 2527   5.980   3.091   4.181
  543SOL    HW1 2528   5.929   3.005   4.170
  543SOL    HW2 2529   6.055   3.093   4.115
  544SOL     OW 2530   0.146   4.746   0.244
  544SOL    HW1 2531   0.093   4.736   0.328
  544SOL    HW2 2532   0.214   4.819   0.256
  545SOL     OW 2533   5.256   1.408   1.015
  545SOL    HW1 2534   5.245   1.332   0.951
  545SOL    HW2 2535   5.260   1.494   0.964
  546SOL     OW 2536   0.556   4.208   2.319
  546SOL    HW1 2537   0.574   4.130   2.378
  546SOL    HW2 2538   0.468   4.248   2.342
  547SOL     OW 2539   3.557   1.894   0.348
  547SOL    HW1 2540   3.591   1.875   0.256
  547SOL    HW2 2541   3.476   1.837   0.366
  548SOL     OW 2542   3.913   3.138   0.124
  548SOL    HW1 2543   3.896   3.204   0.198
  548SOL    HW2 2544   3.917   3.187   0.037
  549SOL     OW 2545   5.718   2.571   0.655
  549SOL    HW1 2546   5.725   2.669   0.670
  549SOL    HW2 2547   5.633   2.551   0.605
  550SOL     OW 2548   0.241   4.506   3.095
  550SOL    HW1 2549   0.156   4.502   3.148
  550SOL    HW2 2550   0.255   4.599   3.061
  551SOL     OW 2551   6.983   1.005   0.371
  551SOL    HW1 2552   0.037   0.942   0.393
  551SOL    HW2 2553   6.991   1.087   0.429
  552SOL     OW 2554   5.002   5.562   6.054
  552SOL    HW1 2555   4.973   5.525   5.966
  552SOL    HW2 2556   5.047   5.490   6.107
  553SOL     OW 2557   3.270   0.548   4.815
  553SOL    HW1 2558   3.231   0.638   4.794
  553SOL    HW2 2559   3.342   0.526   4.750
  554SOL     OW 2560   5.539   5.806   0.840
  554SOL    HW1 2561   5.623   5.861   0.839
  554SOL    HW2 2562   5.562   5.710   0.824
  555SOL     OW 2563   3.002   5.549   5.443
  555SOL    HW1 2564   2.950   5.632   5.422
  555SOL    HW2 2565   2.966   5.506   5.525
  556SOL     OW 2566   4.982   2.249   3.810
  556SOL    HW1 2567   4.894   2.296   3.818
  556SOL    HW2 2568   5.045   2.305   3.757
  557SOL     OW 2569   0.293   4.716   5.463
  557SOL    HW1 2570   0.258   4.701   5.556
  557SOL    HW2 2571   0.297   4.629   5.414
  558SOL     OW 2572   3.768   3.677   3.131
  558SOL    HW1 2573   3.788   3.608   3.061
  558SOL    HW2 2574   3.797   3.643   3.221
  559SOL     OW 2575   6.484   6.180   5.695
  559SOL    HW1 2576   6.495   6.082   5.675
  559SOL    HW2 2577   6.444   6.190   5.786
  560SOL     OW 2578   6.902   3.045   3.450
  560SOL    HW1 2579   6.891   2.946   3.460
  560SOL    HW2 2580   6.923   3.085   3.539
  561SOL     OW 2581   6.921   3.269   6.565
  561SOL    HW1 2582   6.973   3.203   6.619
  561SOL    HW2 2583   6.915   3.356   6.614
  562SOL     OW 2584   4.899   6.779   5.659
  562SOL    HW1 2585   4.804   6.797   5.635
  562SOL    HW2 2586   4.920   6.823   5.747
  563SOL     OW 2587   1.420   1.664   4.451
  563SOL    HW1 2588   1.517   1.660   4.426
  563SOL    HW2 2589   1.382   1.571   4.450
  564SOL     OW 2590   0.239   1.198   6.252
  564SOL    HW1 2591   0.306   1.193   6.326
  564SOL    HW2 2592   0.201   1.291   6.248
  565SOL     OW 2593   3.372   2.907   3.878
  565SOL    HW1 2594   3.401   2.889   3.972
  565SOL    HW2 2595   3.358   3.005   3.865
  566SOL     OW 2596   2.908   5.399   2.921
  566SOL    HW1 2597   2.842   5.326   2.901
  566SOL    HW2 2598   2.993   5.381   2.871
  567SOL     OW 2599   2.538   2.478   0.586
  567SOL    HW1 2600   2.542   2.410   0.660
  567SOL    HW2 2601   2.504   2.564   0.622
  568SOL     OW 2602   5.474   6.832   0.625
  568SOL    HW1 2603   5.508   6.871   0.710
  568SOL    HW2 2604   5.494   6.895   0.550
  569SOL     OW 2605   0.414   2.392   0.056
  569SOL    HW1 2606   0.381   2.481   0.025
  569SOL    HW2 2607   0.405   2.325   7.002
  570SOL     OW 2608   2.924   0.450   6.119
  570SOL    HW1 2609   3.004   0.440   6.060
  570SOL    HW2 2610   2.915   0.369   6.177
  571SOL     OW 2611   2.587   4.968   3.504
  571SOL    HW1 2612   2.570   4.915   3.587
  571SOL    HW2 2613   2.631   4.910   3.435
  572SOL     OW 2614   1.651   5.872   4.580
  572SOL    HW1 2615   1.679   5.968   4.582
  572SOL    HW2 2616   1.553   5.866   4.598
  573SOL     OW 2617   6.484   2.018   5.915
  573SOL    HW1 2618   6.534   2.018   6.001
  573SOL    HW2 2619   6.418   1.944   5.914
  574SOL     OW 2620   3.205   1.118   4.783
  574SOL    HW1 2621   3.245   1.201   4.820
  574SOL    HW2 2622   3.130   1.088   4.842
  575SOL     OW 2623   3.737   2.832   1.086
  575SOL    HW1 2624   3.772   2.740   1.106
  575SOL    HW2 2625   3.766   2.859   0.995
  576SOL     OW 2626   2.328   2.873   2.844
  576SOL    HW1 2627   2.250   2.858   2.782
  576SOL    HW2 2628   2.385   2.791   2.846
  577SOL     OW 2629   0.600   0.739   2.145
  577SOL    HW1 2630   0.637   0.747   2.052
  577SOL    HW2 2631   0.547   0.655   2.152
  578SOL     OW 2632   1.594   5.421   0.153
  578SOL    HW1 2633   1.649   5.504   0.151
  578SOL    HW2 2634   1.508   5.440   0.201
  579SOL     OW 2635   2.392   4.369   2.589
  579SOL    HW1 2636   2.458   4.353   2.516
  579SOL    HW2 2637   2.343   4.455   2.572
  580SOL     OW 2638   4.552   5.226   5.057
  580SOL    HW1 2639   4.600   5.205   4.972
  580SOL    HW2 2640   4.588   5.169   5.131
  581SOL     OW 2641   0.553   2.954   3.715
  581SOL    HW1 2642   0.487   3.030   3.721
  581SOL    HW2 2643   0.621   2.975   3.645
  582SOL     OW 2644   5.049   5.485   3.336
  582SOL    HW1 2645   5.095   5.405   3.297
  582SOL    HW2 2646   5.085   5.568   3.293
  583SOL     OW 2647   2.918   5.103   5.326
  583SOL    HW1 2648   2.856   5.044   5.275
  583SOL    HW2 2649   2.867   5.175   5.372
  584SOL     OW 2650   3.480   0.266   6.262
  584SOL    HW1 2651   3.565   0.255   6.212
  584SOL    HW2 2652   3.442   0.176   6.284
  585SOL     OW 2653   3.740   6.938   1.407
  585SOL    HW1 2654   3.690   6.852   1.395
  585SOL    HW2 2655   3.677   7.009   1.437
  586SOL     OW 2656   4.319   0.221   1.267
  586SOL    HW1 2657   4.391   0.255   1.327
  586SOL    HW2 2658   4.342   0.241   1.172
  587SOL     OW 2659   5.570   2.058   1.799
  587SOL    HW1 2660   5.624   2.010   1.868
  587SOL    HW2 2661   5.626   2.076   1.719
  588SOL     OW 2662   1.739   5.416   0.880
  588SOL    HW1 2663   1.699   5.506   0.895
  588SOL    HW2 2664   1.775   5.381   0.967
  589SOL     OW 2665   3.103   5.945   1.456
  589SOL    HW1 2666   3.199   5.946   1.483
  589SOL    HW2 2667   3.068   5.851   1.458
  590SOL     OW 2668   5.911   1.667   0.774
  590SOL    HW1 2669   5.876   1.669   0.681
  590SOL    HW2 2670   5.966   1.585   0.787
  591SOL     OW 2671   4.386   6.095   4.285
  591SOL    HW1 2672   4.341   6.041   4.214
  591SOL    HW2 2673   4.482   6.066   4.293
  592SOL     OW 2674   4.875   0.998   3.775
  592SOL    HW1 2675   4.973   0.985   3.761
  592SOL    HW2 2676   4.851   0.974   3.869
  593SOL     OW 2677   4.095   2.169   4.687
  593SOL    HW1 2678   4.079   2.182   4.785
  593SOL    HW2 2679   4.180   2.216   4.661
  594SOL     OW 2680   5.955   1.996   1.319
  594SOL    HW1 2681   6.001   2.085   1.329
  594SOL    HW2 2682   5.886   2.003   1.247
  595SOL     OW 2683   5.193   6.723   3.374
  595SOL    HW1 2684   5.150   6.641   3.413
  595SOL    HW2 2685   5.122   6.791   3.355
  596SOL     OW 2686   7.004   4.500   3.438
  596SOL    HW1 2687   0.005   4.408   3.472
  596SOL    HW2 2688   0.051   4.528   3.370
  597SOL     OW 2689   3.473   0.039   5.720
  597SOL    HW1 2690   3.559   0.011   5.678
  597SOL    HW2 2691   3.481   0.031   5.820
  598SOL     OW 2692   3.124   3.836   4.881
  598SOL    HW1 2693   3.027   3.844   4.907
  598SOL    HW2 2694   3.152   3.741   4.888
  599SOL     OW 2695   1.941   5.909   1.977
  599SOL    HW1 2696   2.009   5.977   2.005
  599SOL    HW2 2697   1.901   5.867   2.058
  600SOL     OW 2698   0.209   3.902   5.567
  600SOL    HW1 2699   0.303   3.932   5.552
  600SOL    HW2 2700   0.203   3.803   5.555
  601SOL     OW 2701   1.943   1.214   5.086
  601SOL    HW1 2702   1.853   1.175   5.065
  601SOL    HW2 2703   1.968   1.280   5.016
  602SOL     OW 2704   3.104   6.791   5.450
  602SOL    HW1 2705   3.020   6.741   5.472
  602SOL    HW2 2706   3.087   6.854   5.374
  603SOL     OW 2707   1.808   0.946   5.592
  603SOL    HW1 2708   1.868   1.025   5.584
  603SOL    HW2 2709   1.768   0.925   5.503
  604SOL     OW 2710   0.028   2.480   1.621
  604SOL    HW1 2711   0.040   2.455   1.525
  604SOL    HW2 2712   0.033   2.580   1.630
  605SOL     OW 2713   0.390   5.117   2.342
  605SOL    HW1 2714   0.389   5.017   2.336
  605SOL    HW2 2715   0.296   5.151   2.346
  606SOL     OW 2716   4.633   6.829   5.586
  606SOL    HW1 2717   4.640   6.767   5.507
  606SOL    HW2 2718   4.580   6.785   5.658
  607SOL     OW 2719   0.925   5.454   5.670
  607SOL    HW1 2720   0.911   5.547   5.638
  607SOL    HW2 2721   0.865   5.392   5.619
  608SOL     OW 2722   4.110   0.184   6.559
  608SOL    HW1 2723   4.162   0.114   6.608
  608SOL    HW2 2724   4.059   0.142   6.484
  609SOL     OW 2725   3.917   2.303   1.729
  609SOL    HW1 2726   3.932   2.384   1.674
  609SOL    HW2 2727   3.829   2.311   1.777
  610SOL     OW 2728   4.655   2.379   0.447
  610SOL    HW1 2729   4.643   2.398   0.545
  610SOL    HW2 2730   4.751   2.388   0.423
  611SOL     OW 2731   4.201   6.859   2.469
  611SOL    HW1 2732   4.201   6.922   2.392
  611SOL    HW2 2733   4.174   6.768   2.437
  612SOL     OW 2734   2.775   4.729   5.536
  612SOL    HW1 2735   2.742   4.642   5.572
  612SOL    HW2 2736   2.823   4.714   5.449
  613SOL     OW 2737   5.707   5.163   4.920
  613SOL    HW1 2738   5.751   5.203   5.000
  613SOL    HW2 2739   5.684   5.235   4.854
  614SOL     OW 2740   4.972   5.239   5.235
  614SOL    HW1 2741   4.957   5.277   5.144
  614SOL    HW2 2742   4.921   5.293   5.302
  615SOL     OW 2743   0.058   4.313   0.680
  615SOL    HW1 2744   0.005   4.269   0.608
  615SOL    HW2 2745   0.001   4.327   0.761
  616SOL     OW 2746   6.819   3.183   3.244
  616SOL    HW1 2747   6.756   3.256   3.271
  616SOL    HW2 2748   6.847   3.131   3.324
  617SOL     OW 2749   1.994   5.272   6.482
  617SOL    HW1 2750   1.990   5.372   6.481
  617SOL    HW2 2751   1.902   5.234   6.480
  618SOL     OW 2752   1.704   1.637   1.796
  618SOL    HW1 2753   1.795   1.606   1.824
  618SOL    HW2 2754   1.703   1.653   1.697
  619SOL     OW 2755   1.770   1.781   0.410
  619SOL    HW1 2756   1.701   1.748   0.347
  619SOL    HW2 2757   1.783   1.880   0.397
  620SOL     OW 2758   4.871   2.061   0.477
  620SOL    HW1 2759   4.962   2.068   0.518
  620SOL    HW2 2760   4.802   2.089   0.544
  621SOL     OW 2761   6.392   4.996   6.572
  621SOL    HW1 2762   6.311   5.052   6.586
  621SOL    HW2 2763   6.459   5.048   6.518
  622SOL     OW 2764   1.733   1.280   0.284
  622SOL    HW1 2765   1.651   1.228   0.261
  622SOL    HW2 2766   1.792   1.224   0.343
  623SOL     OW 2767   0.408   5.670   5.896
  623SOL    HW1 2768   0.371   5.593   5.947
  623SOL    HW2 2769   0.503   5.686   5.924
  624SOL     OW 2770   0.656   2.716   2.413
  624SOL    HW1 2771   0.561   2.730   2.439
  624SOL    HW2 2772   0.661   2.698   2.315
  625SOL     OW 2773   3.373   1.542   1.886
  625SOL    HW1 2774   3.310   1.511   1.957
  625SOL    HW2 2775   3.325   1.607   1.826
  626SOL     OW 2776   2.171   6.026   3.524
  626SOL    HW1 2777   2.187   5.956   3.593
  626SOL    HW2 2778   2.205   5.993   3.435
  627SOL     OW 2779   5.450   0.513   0.370
  627SOL    HW1 2780   5.428   0.608   0.347
  627SOL    HW2 2781   5.395   0.451   0.315
  628SOL     OW 2782   5.123   5.358   4.765
  628SOL    HW1 2783   5.148   5.381   4.671
  628SOL    HW2 2784   5.203   5.368   4.825
  629SOL     OW 2785   0.783   0.602   1.406
  629SOL    HW1 2786   0.790   0.692   1.364
  629SOL    HW2 2787   0.701   0.598   1.464
  630SOL     OW 2788   4.921   1.956   2.208
  630SOL    HW1 2789   4.949   1.874   2.259
  630SOL    HW2 2790   4.987   2.029   2.225
  631SOL     OW 2791   3.052   0.879   5.285
  631SOL    HW1 2792   3.150   0.872   5.271
  631SOL    HW2 2793   3.007   0.797   5.249
  632SOL     OW 2794   2.523   1.101   0.438
  632SOL    HW1 2795   2.499   1.005   0.453
  632SOL    HW2 2796   2.481   1.134   0.354
  633SOL     OW 2797   3.234   5.534   0.600
  633SOL    HW1 2798   3.138   5.527   0.626
  633SOL    HW2 2799   3.289   5.476   0.659
  634SOL     OW 2800   4.106   4.977   1.496
  634SOL    HW1 2801   4.095   4.893   1.550
  634SOL    HW2 2802   4.031   5.039   1.516
  635SOL     OW 2803   3.802   6.838   3.451
  635SOL    HW1 2804   3.827   6.922   3.500
  635SOL    HW2 2805   3.723   6.856   3.393
  636SOL     OW 2806   4.913   5.354   6.247
  636SOL    HW1 2807   4.829   5.317   6.206
  636SOL    HW2 2808   4.889   5.427   6.311
  637SOL     OW 2809   5.096   5.015   1.998
  637SOL    HW1 2810   5.004   4.985   2.021
  637SOL    HW2 2811   5.137   4.951   1.932
  638SOL     OW 2812   5.047   1.234   2.410
  638SOL    HW1 2813   5.053   1.186   2.322
  638SOL    HW2 2814   5.124   1.207   2.467
  639SOL     OW 2815   4.722   4.726   1.854
  639SOL    HW1 2816   4.787   4.672   1.801
  639SOL    HW2 2817   4.650   4.667   1.890
  640SOL     OW 2818   2.323   4.170   5.655
  640SOL    HW1 2819   2.417   4.192   5.630
  640SOL    HW2 2820   2.261   4.200   5.582
  641SOL     OW 2821   0.654   5.310   4.147
  641SOL    HW1 2822   0.740   5.321   4.197
  641SOL    HW2 2823   0.583   5.280   4.211
  642SOL     OW 2824   0.186   4.734   4.740
  642SOL    HW1 2825   0.153   4.808   4.682
  642SOL    HW2 2826   0.156   4.749   4.834
  643SOL     OW 2827   6.090   6.085   4.632
  643SOL    HW1 2828   6.113   6.028   4.553
  643SOL    HW2 2829   6.062   6.176   4.601
  644SOL     OW 2830   1.088   5.977   2.981
  644SOL    HW1 2831   1.097   5.882   3.010
  644SOL    HW2 2832   1.053   6.032   3.057
  645SOL     OW 2833   4.732   2.293   4.499
  645SOL    HW1 2834   4.652   2.343   4.465
  645SOL    HW2 2835   4.815   2.337   4.467
  646SOL     OW 2836   1.954   1.471   3.664
  646SOL    HW1 2837   2.008   1.403   3.616
  646SOL    HW2 2838   2.005   1.558   3.667
  647SOL     OW 2839   6.106   2.897   6.659
  647SOL    HW1 2840   6.154   2.811   6.642
  647SOL    HW2 2841   6.106   2.952   6.576
  648SOL     OW 2842   6.090   3.949   2.603
  648SOL    HW1 2843   6.013   3.989   2.653
  648SOL    HW2 2844   6.171   4.007   2.615
  649SOL     OW 2845   3.997   4.036   0.682
  649SOL    HW1 2846   4.034   3.999   0.597
  649SOL    HW2 2847   4.069   4.086   0.730
  650SOL     OW 2848   4.746   4.524   0.470
  650SOL    HW1 2849   4.811   4.599   0.462
  650SOL    HW2 2850   4.759   4.478   0.557
  651SOL     OW 2851   0.711   6.361   0.818
  651SOL    HW1 2852   0.681   6.428   0.887
  651SOL    HW2 2853   0.750   6.281   0.864
  652SOL     OW 2854   4.699   6.811   3.202
  652SOL    HW1 2855   4.688   6.724   3.250
  652SOL    HW2 2856   4.757   6.872   3.255
  653SOL     OW 2857   3.179   5.342   4.896
  653SOL    HW1 2858   3.220   5.278   4.962
  653SOL    HW2 2859   3.123   5.409   4.945
  654SOL     OW 2860   0.179   5.059   6.033
  654SOL    HW1 2861   0.134   4.980   6.076
  654SOL    HW2 2862   0.196   5.040   5.937
  655SOL     OW 2863   0.594   0.222   2.059
  655SOL    HW1 2864   0.625   0.132   2.027
  655SOL    HW2 2865   0.509   0.247   2.013
  656SOL     OW 2866   2.141   5.998   2.670
  656SOL    HW1 2867   2.056   6.021   2.719
  656SOL    HW2 2868   2.197   6.080   2.660
  657SOL     OW 2869   2.478   1.805   1.216
  657SOL    HW1 2870   2.405   1.816   1.284
  657SOL    HW2 2871   2.451   1.735   1.150
  658SOL     OW 2872   3.481   3.823   6.959
  658SOL    HW1 2873   3.498   3.819   6.861
  658SOL    HW2 2874   3.436   3.910   6.981
  659SOL     OW 2875   2.799   6.489   6.228
  659SOL    HW1 2876   2.804   6.400   6.184
  659SOL    HW2 2877   2.708   6.529   6.212
  660SOL     OW 2878   3.633   5.837   2.002
  660SOL    HW1 2879   3.698   5.772   2.041
  660SOL    HW2 2880   3.544   5.792   1.992
  661SOL     OW 2881   4.323   6.278   3.774
  661SOL    HW1 2882   4.401   6.231   3.814
  661SOL    HW2 2883   4.315   6.253   3.678
  662SOL     OW 2884   3.594   0.912   5.055
  662SOL    HW1 2885   3.683   0.933   5.094
  662SOL    HW2 2886   3.530   0.986   5.078
  663SOL     OW 2887   1.970   4.237   4.858
  663SOL    HW1 2888   1.926   4.148   4.845
  663SOL    HW2 2889   1.927   4.304   4.798
  664SOL     OW 2890   0.490   6.587   5.888
  664SOL    HW1 2891   0.567   6.651   5.886
  664SOL    HW2 2892   0.461   6.568   5.794
  665SOL     OW 2893   3.540   5.390   3.955
  665SOL    HW1 2894   3.461   5.448   3.976
  665SOL    HW2 2895   3.620   5.424   4.004
  666SOL     OW 2896   4.327   0.686   2.071
  666SOL    HW1 2897   4.408   0.738   2.098
  666SOL    HW2 2898   4.328   0.597   2.118
  667SOL     OW 2899   1.042   5.280   1.885
  667SOL    HW1 2900   1.006   5.249   1.797
  667SOL    HW2 2901   1.054   5.202   1.946
  668SOL     OW 2902   5.722   5.297   6.123
  668SOL    HW1 2903   5.775   5.220   6.087
  668SOL    HW2 2904   5.783   5.361   6.169
  669SOL     OW 2905   5.653   1.300   3.054
  669SOL    HW1 2906   5.703   1.381   3.025
  669SOL    HW2 2907   5.656   1.293   3.154
  670SOL     OW 2908   2.124   1.763   2.607
  670SOL    HW1 2909   2.127   1.780   2.508
  670SOL    HW2 2910   2.216   1.771   2.645
  671SOL     OW 2911   2.942   6.170   1.514
  671SOL    HW1 2912   2.915   6.189   1.608
  671SOL    HW2 2913   3.001   6.089   1.513
  672SOL     OW 2914   6.967   4.998   2.013
  672SOL    HW1 2915   6.924   4.946   1.939
  672SOL    HW2 2916   0.040   5.021   1.987
  673SOL     OW 2917   5.213   6.833   1.244
  673SOL    HW1 2918   5.265   6.824   1.159
  673SOL    HW2 2919   5.153   6.913   1.237
  674SOL     OW 2920   0.267   2.158   5.010
  674SOL    HW1 2921   0.209   2.238   5.024
  674SOL    HW2 2922   0.328   2.174   4.932
  675SOL     OW 2923   6.266   2.351   2.044
  675SOL    HW1 2924   6.267   2.428   2.108
  675SOL    HW2 2925   6.358   2.313   2.036
  676SOL     OW 2926   2.493   4.498   4.758
  676SOL    HW1 2927   2.540   4.584   4.736
  676SOL    HW2 2928   2.515   4.471   4.851
  677SOL     OW 2929   5.209   0.683   1.706
  677SOL    HW1 2930   5.260   0.746   1.646
  677SOL    HW2 2931   5.196   0.596   1.658
  678SOL     OW 2932   2.596   4.639   5.192
  678SOL    HW1 2933   2.640   4.596   5.271
  678SOL    HW2 2934   2.662   4.648   5.118
  679SOL     OW 2935   5.184   2.238   5.076
  679SOL    HW1 2936   5.132   2.233   4.991
  679SOL    HW2 2937   5.280   2.221   5.057
  680SOL     OW 2938   5.290   6.200   4.639
  680SOL    HW1 2939   5.250   6.290   4.660
  680SOL    HW2 2940   5.251   6.131   4.700
  681SOL     OW 2941   4.676   5.817   2.371
  681SOL    HW1 2942   4.680   5.914   2.347
  681SOL    HW2 2943   4.769   5.779   2.375
  682SOL     OW 2944   6.931   1.412   1.898
  682SOL    HW1 2945   6.874   1.397   1.817
  682SOL    HW2 2946   6.876   1.456   1.969
  683SOL     OW 2947   4.179   2.999   1.392
  683SOL    HW1 2948   4.092   3.017   1.439
  683SOL    HW2 2949   4.185   3.057   1.311
  684SOL     OW 2950   6.083   0.443   6.513
  684SOL    HW1 2951   6.034   0.415   6.431
  684SOL    HW2 2952   6.165   0.386   6.524
  685SOL     OW 2953   2.879   1.437   3.497
  685SOL    HW1 2954   2.944   1.507   3.527
  685SOL    HW2 2955   2.892   1.354   3.552
  686SOL     OW 2956   4.489   1.240   3.735
  686SOL    HW1 2957   4.412   1.222   3.798
  686SOL    HW2 2958   4.553   1.302   3.779
  687SOL     OW 2959   0.785   1.604   4.694
  687SOL    HW1 2960   0.839   1.656   4.628
  687SOL    HW2 2961   0.693   1.643   4.700
  688SOL     OW 2962   6.990   0.648   5.833
  688SOL    HW1 2963   0.066   0.620   5.824
  688SOL    HW2 2964   6.952   0.665   5.742
  689SOL     OW 2965   1.613   4.422   6.185
  689SOL    HW1 2966   1.608   4.485   6.107
  689SOL    HW2 2967   1.530   4.432   6.240
  690SOL     OW 2968   6.929   3.943   3.556
  690SOL    HW1 2969   6.997   3.929   3.484
  690SOL    HW2 2970   6.840   3.961   3.514
  691SOL     OW 2971   4.208   1.497   0.832
  691SOL    HW1 2972   4.143   1.555   0.783
  691SOL    HW2 2973   4.282   1.471   0.770
  692SOL     OW 2974   3.403   1.488   5.130
  692SOL    HW1 2975   3.443   1.552   5.065
  692SOL    HW2 2976   3.323   1.445   5.089
  693SOL     OW 2977   4.854   6.428   3.768
  693SOL    HW1 2978   4.873   6.459   3.861
  693SOL    HW2 2979   4.841   6.329   3.768
  694SOL     OW 2980   4.213   5.862   4.365
  694SOL    HW1 2981   4.189   5.956   4.339
  694SOL    HW2 2982   4.185   5.800   4.291
  695SOL     OW 2983   3.529   5.731   4.812
  695SOL    HW1 2984   3.481   5.689   4.735
  695SOL    HW2 2985   3.600   5.669   4.845
  696SOL     OW 2986   4.898   4.103   3.426
  696SOL    HW1 2987   4.974   4.166   3.410
  696SOL    HW2 2988   4.859   4.121   3.516
  697SOL     OW 2989   1.317   3.517   2.076
  697SOL    HW1 2990   1.257   3.573   2.133
  697SOL    HW2 2991   1.347   3.437   2.127
  698SOL     OW 2992   4.664   6.679   1.733
  698SOL    HW1 2993   4.630   6.770   1.754
  698SOL    HW2 2994   4.761   6.685   1.707
  699SOL     OW 2995   2.296   3.431   0.033
  699SOL    HW1 2996   2.317   3.496   6.980
  699SOL    HW2 2997   2.206   3.390   0.017
  700SOL     OW 2998   3.190   0.243   2.179
  700SOL    HW1 2999   3.105   0.213   2.135
  700SOL    HW2 3000   3.262   0.176   2.161
  701SOL     OW 3001   6.258   4.578   1.246
  701SOL    HW1 3002   6.290   4.654   1.189
  701SOL    HW2 3003   6.333   4.515   1.265
  702SOL     OW 3004   2.562   0.166   4.415
  702SOL    HW1 3005   2.572   0.089   4.479
  702SOL    HW2 3006   2.465   0.180   4.394
  703SOL     OW 3007   3.117   3.491   5.396
  703SOL    HW1 3008   3.184   3.435   5.347
  703SOL    HW2 3009   3.053   3.432   5.444
  704SOL     OW 3010   2.170   2.636   5.988
  704SOL    HW1 3011   2.138   2.694   6.062
  704SOL    HW2 3012   2.260   2.665   5.958
  705SOL     OW 3013   6.859   6.002   3.586
  705SOL    HW1 3014   6.850   5.990   3.685
  705SOL    HW2 3015   6.910   5.925   3.548
  706SOL     OW 3016   4.361   1.643   5.220
  706SOL    HW1 3017   4.319   1.667   5.132
  706SOL    HW2 3018   4.389   1.548   5.218
  707SOL     OW 3019   3.882   5.719   3.344
  707SOL    HW1 3020   3.956   5.654   3.329
  707SOL    HW2 3021   3.795   5.670   3.352
  708SOL     OW 3022   2.426   1.558   3.602
  708SOL    HW1 3023   2.472   1.483   3.555
  708SOL    HW2 3024   2.479   1.642   3.589
  709SOL     OW 3025   1.742   6.804   1.486
  709SOL    HW1 3026   1.714   6.709   1.472
  709SOL    HW2 3027   1.714   6.859   1.408
  710SOL     OW 3028   4.927   2.425   1.998
  710SOL    HW1 3029   4.864   2.347   1.999
  710SOL    HW2 3030   4.947   2.452   2.093
  711SOL     OW 3031   6.732   2.829   6.219
  711SOL    HW1 3032   6.685   2.771   6.286
  711SOL    HW2 3033   6.827   2.842   6.247
  712SOL     OW 3034   4.989   2.765   1.031
  712SOL    HW1 3035   4.935   2.847   1.012
  712SOL    HW2 3036   4.929   2.690   1.058
  713SOL     OW 3037   4.250   2.754   5.375
  713SOL    HW1 3038   4.320   2.739   5.445
  713SOL    HW2 3039   4.248   2.677   5.312
  714SOL     OW 3040   6.007   5.219   3.821
  714SOL    HW1 3041   5.969   5.274   3.746
  714SOL    HW2 3042   6.054   5.139   3.783
  715SOL     OW 3043   6.731   4.852   5.376
  715SOL    HW1 3044   6.679   4.847   5.462
  715SOL    HW2 3045   6.684   4.914   5.313
  716SOL     OW 3046   1.986   1.107   3.148
  716SOL    HW1 3047   2.075   1.101   3.103
  716SOL    HW2 3048   1.916   1.069   3.087
  717SOL     OW 3049   5.973   4.601   3.976
  717SOL    HW1 3050   6.058   4.552   3.997
  717SOL    HW2 3051   5.909   4.592   4.052
  718SOL     OW 3052   4.869   2.837   4.443
  718SOL    HW1 3053   4.903   2.930   4.455
  718SOL    HW2 3054   4.805   2.816   4.517
  719SOL     OW 3055   6.223   0.178   2.099
  719SOL    HW1 3056   6.237   0.084   2.128
  719SOL    HW2 3057   6.216   0.237   2.180
  720SOL     OW 3058   2.735   0.425   5.640
  720SOL    HW1 3059   2.670   0.351   5.624
  720SOL    HW2 3060   2.725   0.459   5.733
  721SOL     OW 3061   0.681   1.405   2.060
  721SOL    HW1 3062   0.730   1.461   1.993
  721SOL    HW2 3063   0.747   1.361   2.121
  722SOL     OW 3064   3.975   0.946   6.510
  722SOL    HW1 3065   3.881   0.912   6.522
  722SOL    HW2 3066   4.026   0.935   6.595
  723SOL     OW 3067   1.947   6.376   3.412
  723SOL    HW1 3068   2.000   6.351   3.331
  723SOL    HW2 3069   1.946   6.475   3.422
  724SOL     OW 3070   6.925   0.705   3.451
  724SOL    HW1 3071   6.985   0.784   3.465
  724SOL    HW2 3072   6.959   0.651   3.374
  725SOL     OW 3073   1.685   4.703   1.880
  725SOL    HW1 3074   1.642   4.792   1.862
  725SOL    HW2 3075   1.703   4.656   1.793
  726SOL     OW 3076   2.613   5.184   0.844
  726SOL    HW1 3077   2.656   5.171   0.755
  726SOL    HW2 3078   2.639   5.108   0.905
  727SOL     OW 3079   4.445   5.331   6.026
  727SOL    HW1 3080   4.424   5.234   6.014
  727SOL    HW2 3081   4.376   5.373   6.084
  728SOL     OW 3082   0.060   3.180   4.658
  728SOL    HW1 3083   0.037   3.278   4.653
  728SOL    HW2 3084   6.998   3.126   4.641
  729SOL     OW 3085   0.615   2.951   1.235
  729SOL    HW1 3086   0.527   2.919   1.200
  729SOL    HW2 3087   0.613   3.050   1.244
  730SOL     OW 3088   5.430   0.560   2.843
  730SOL    HW1 3089   5.462   0.465   2.842
  730SOL    HW2 3090   5.494   0.616   2.895
  731SOL     OW 3091   4.724   4.596   6.752
  731SOL    HW1 3092   4.736   4.685   6.796
  731SOL    HW2 3093   4.786   4.529   6.794
  732SOL     OW 3094   5.502   1.877   2.169
  732SOL    HW1 3095   5.496   1.968   2.209
  732SOL    HW2 3096   5.583   1.871   2.111
  733SOL     OW 3097   5.622   0.375   4.266
  733SOL    HW1 3098   5.609   0.360   4.168
  733SOL    HW2 3099   5.685   0.306   4.302
  734SOL     OW 3100   6.588   4.612   2.484
  734SOL    HW1 3101   6.513   4.677   2.492
  734SOL    HW2 3102   6.553   4.519   2.492
  735SOL     OW 3103   5.501   0.599   1.768
  735SOL    HW1 3104   5.476   0.618   1.673
  735SOL    HW2 3105   5.598   0.617   1.782
  736SOL     OW 3106   1.478   1.310   4.005
  736SOL    HW1 3107   1.380   1.296   3.989
  736SOL    HW2 3108   1.523   1.221   4.012
  737SOL     OW 3109   5.806   2.039   5.483
  737SOL    HW1 3110   5.887   2.000   5.527
  737SOL    HW2 3111   5.754   1.966   5.439
  738SOL     OW 3112   2.737   3.864   1.316
  738SOL    HW1 3113   2.806   3.863   1.243
  738SOL    HW2 3114   2.768   3.806   1.392
  739SOL     OW 3115   3.633   0.199   5.359
  739SOL    HW1 3116   3.582   0.141   5.296
  739SOL    HW2 3117   3.627   0.294   5.330
  740SOL     OW 3118   5.917   2.147   2.596
  740SOL    HW1 3119   5.856   2.068   2.596
  740SOL    HW2 3120   5.872   2.224   2.641
  741SOL     OW 3121   1.779   1.236   4.734
  741SOL    HW1 3122   1.864   1.224   4.786
  741SOL    HW2 3123   1.771   1.163   4.666
  742SOL     OW 3124   2.470   5.852   1.626
  742SOL    HW1 3125   2.399   5.917   1.651
  742SOL    HW2 3126   2.535   5.842   1.702
  743SOL     OW 3127   0.529   6.423   3.442
  743SOL    HW1 3128   0.460   6.466   3.384
  743SOL    HW2 3129   0.520   6.457   3.536
  744SOL     OW 3130   6.660   0.801   0.392
  744SOL    HW1 3131   6.650   0.897   0.419
  744SOL    HW2 3132   6.726   0.757   0.453
  745SOL     OW 3133   2.152   6.292   5.336
  745SOL    HW1 3134   2.222   6.355   5.370
  745SOL    HW2 3135   2.196   6.222   5.279
  746SOL     OW 3136   5.670   3.850   5.233
  746SOL    HW1 3137   5.737   3.811   5.170
  746SOL    HW2 3138   5.668   3.796   5.317
  747SOL     OW 3139   5.247   5.486   3.804
  747SOL    HW1 3140   5.275   5.451   3.893
  747SOL    HW2 3141   5.170   5.549   3.816
  748SOL     OW 3142   5.315   5.012   2.570
  748SOL    HW1 3143   5.287   5.107   2.557
  748SOL    HW2 3144   5.267   4.954   2.504
  749SOL     OW 3145   5.271   3.387   3.401
  749SOL    HW1 3146   5.355   3.333   3.406
  749SOL    HW2 3147   5.275   3.446   3.321
  750SOL     OW 3148   3.523   0.967   1.347
  750SOL    HW1 3149   3.555   0.996   1.256
  750SOL    HW2 3150   3.526   0.868   1.353
  751SOL     OW 3151   5.129   2.161   0.898
  751SOL    HW1 3152   5.197   2.194   0.832
  751SOL    HW2 3153   5.084   2.239   0.942
  752SOL     OW 3154   3.703   2.244   6.086
  752SOL    HW1 3155   3.633   2.206   6.146
  752SOL    HW2 3156   3.705   2.343   6.095
  753SOL     OW 3157   2.762   3.274   5.293
  753SOL    HW1 3158   2.747   3.371   5.308
  753SOL    HW2 3159   2.674   3.226   5.290
  754SOL     OW 3160   5.190   1.004   0.044
  754SOL    HW1 3161   5.260   1.057   0.092
  754SOL    HW2 3162   5.232   0.955   6.988
  755SOL     OW 3163   3.069   4.349   5.318
  755SOL    HW1 3164   3.161   4.389   5.315
  755SOL    HW2 3165   3.007   4.403   5.261
  756SOL     OW 3166   3.334   5.189   6.905
  756SOL    HW1 3167   3.356   5.129   6.982
  756SOL    HW2 3168   3.294   5.274   6.939
  757SOL     OW 3169   2.020   0.057   2.651
  757SOL    HW1 3170   2.019   0.157   2.650
  757SOL    HW2 3171   1.929   0.024   2.674
  758SOL     OW 3172   3.499   1.325   3.753
  758SOL    HW1 3173   3.501   1.378   3.838
  758SOL    HW2 3174   3.575   1.260   3.753
  759SOL     OW 3175   0.332   1.900   3.093
  759SOL    HW1 3176   0.262   1.931   3.028
  759SOL    HW2 3177   0.287   1.853   3.169
  760SOL     OW 3178   6.401   6.655   3.776
  760SOL    HW1 3179   6.431   6.707   3.696
  760SOL    HW2 3180   6.481   6.623   3.827
  761SOL     OW 3181   5.577   4.524   5.561
  761SOL    HW1 3182   5.512   4.462   5.516
  761SOL    HW2 3183   5.669   4.485   5.557
  762SOL     OW 3184   2.809   6.399   5.664
  762SOL    HW1 3185   2.756   6.356   5.737
  762SOL    HW2 3186   2.751   6.410   5.583
  763SOL     OW 3187   5.391   0.371   6.378
  763SOL    HW1 3188   5.406   0.316   6.460
  763SOL    HW2 3189   5.296   0.401   6.374
  764SOL     OW 3190   5.824   1.140   5.256
  764SOL    HW1 3191   5.792   1.101   5.169
  764SOL    HW2 3192   5.889   1.077   5.298
  765SOL     OW 3193   1.234   6.650   0.706
  765SOL    HW1 3194   1.198   6.572   0.654
  765SOL    HW2 3195   1.311   6.690   0.657
  766SOL     OW 3196   2.593   2.150   5.458
  766SOL    HW1 3197   2.644   2.226   5.418
  766SOL    HW2 3198   2.608   2.149   5.557
  767SOL     OW 3199   6.628   6.683   3.588
  767SOL    HW1 3200   6.634   6.771   3.541
  767SOL    HW2 3201   6.690   6.683   3.666
  768SOL     OW 3202   2.190   6.729   2.928
  768SOL    HW1 3203   2.132   6.787   2.985
  768SOL    HW2 3204   2.193   6.765   2.835
  769SOL     OW 3205   3.875   1.364   5.153
  769SOL    HW1 3206   3.802   1.399   5.211
  769SOL    HW2 3207   3.963   1.380   5.197
  770SOL     OW 3208   1.697   4.734   4.409
  770SOL    HW1 3209   1.795   4.753   4.397
  770SOL    HW2 3210   1.650   4.745   4.322
  771SOL     OW 3211   0.535   5.843   3.491
  771SOL    HW1 3212   0.491   5.905   3.426
  771SOL    HW2 3213   0.593   5.896   3.554
  772SOL     OW 3214   5.812   4.893   6.636
  772SOL    HW1 3215   5.800   4.796   6.659
  772SOL    HW2 3216   5.771   4.950   6.706
  773SOL     OW 3217   1.431   3.704   2.967
  773SOL    HW1 3218   1.332   3.703   2.982
  773SOL    HW2 3219   1.450   3.740   2.876
  774SOL     OW 3220   2.017   1.840   3.397
  774SOL    HW1 3221   2.064   1.822   3.483
  774SOL    HW2 3222   1.990   1.937   3.393
  775SOL     OW 3223   1.784   2.922   4.162
  775SOL    HW1 3224   1.856   2.950   4.099
  775SOL    HW2 3225   1.703   2.979   4.148
  776SOL     OW 3226   6.991   6.230   6.118
  776SOL    HW1 3227   0.060   6.187   6.133
  776SOL    HW2 3228   6.939   6.229   6.203
  777SOL     OW 3229   1.690   3.544   0.648
  777SOL    HW1 3230   1.664   3.628   0.696
  777SOL    HW2 3231   1.657   3.465   0.700
  778SOL     OW 3232   2.851   7.020   1.701
  778SOL    HW1 3233   2.767   0.040   1.664
  778SOL    HW2 3234   2.831   6.975   1.788
  779SOL     OW 3235   0.265   2.731   1.677
  779SOL    HW1 3236   0.305   2.739   1.586
  779SOL    HW2 3237   0.218   2.816   1.701
  780SOL     OW 3238   1.261   2.387   4.347
  780SOL    HW1 3239   1.328   2.329   4.302
  780SOL    HW2 3240   1.174   2.381   4.297
  781SOL     OW 3241   6.691   4.684   0.059
  781SOL    HW1 3242   6.733   4.684   0.149
  781SOL    HW2 3243   6.761   4.701   7.009
  782SOL     OW 3244   2.184   4.276   5.420
  782SOL    HW1 3245   2.258   4.329   5.379
  782SOL    HW2 3246   2.128   4.236   5.347
  783SOL     OW 3247   5.846   5.614   6.814
  783SOL    HW1 3248   5.862   5.713   6.807
  783SOL    HW2 3249   5.758   5.598   6.859
  784SOL     OW 3250   2.519   5.788   2.256
  784SOL    HW1 3251   2.451   5.790   2.329
  784SOL    HW2 3252   2.479   5.747   2.174
  785SOL     OW 3253   0.431   0.216   3.447
  785SOL    HW1 3254   0.367   0.222   3.523
  785SOL    HW2 3255   0.475   0.304   3.433
  786SOL     OW 3256   6.057   0.606   3.254
  786SOL    HW1 3257   5.987   0.538   3.236
  786SOL    HW2 3258   6.017   0.697   3.254
  787SOL     OW 3259   2.442   0.840   0.377
  787SOL    HW1 3260   2.382   0.790   0.315
  787SOL    HW2 3261   2.469   0.780   0.453
  788SOL     OW 3262   3.730   2.964   1.699
  788SOL    HW1 3263   3.794   2.899   1.739
  788SOL    HW2 3264   3.670   3.000   1.770
  789SOL     OW 3265   4.124   5.737   1.809
  789SOL    HW1 3266   4.197   5.804   1.795
  789SOL    HW2 3267   4.060   5.771   1.878
  790SOL     OW 3268   1.189   1.944   1.599
  790SOL    HW1 3269   1.093   1.971   1.590
  790SOL    HW2 3270   1.245   2.003   1.540
  791SOL     OW 3271   2.740   5.732   5.650
  791SOL    HW1 3272   2.791   5.800   5.599
  791SOL    HW2 3273   2.644   5.734   5.622
  792SOL     OW 3274   0.267   1.599   0.844
  792SOL    HW1 3275   0.270   1.699   0.855
  792SOL    HW2 3276   0.351   1.559   0.879
  793SOL     OW 3277   5.002   5.880   4.523
  793SOL    HW1 3278   4.959   5.954   4.574
  793SOL    HW2 3279   5.024   5.804   4.586
  794SOL     OW 3280   3.383   3.317   4.712
  794SOL    HW1 3281   3.464   3.265   4.684
  794SOL    HW2 3282   3.381   3.405   4.664
  795SOL     OW 3283   3.729   0.576   5.718
  795SOL    HW1 3284   3.635   0.543   5.721
  795SOL    HW2 3285   3.776   0.534   5.640
  796SOL     OW 3286   1.857   2.712   6.776
  796SOL    HW1 3287   1.833   2.634   6.719
  796SOL    HW2 3288   1.931   2.763   6.733
  797SOL     OW 3289   4.302   0.297   0.968
  797SOL    HW1 3290   4.341   0.370   0.912
  797SOL    HW2 3291   4.213   0.326   1.003
  798SOL     OW 3292   2.869   6.407   1.398
  798SOL    HW1 3293   2.915   6.322   1.424
  798SOL    HW2 3294   2.788   6.420   1.456
  799SOL     OW 3295   0.156   2.214   6.215
  799SOL    HW1 3296   0.253   2.233   6.231
  799SOL    HW2 3297   0.106   2.221   6.302
  800SOL     OW 3298   6.224   1.162   1.989
  800SOL    HW1 3299   6.186   1.120   1.907
  800SOL    HW2 3300   6.324   1.167   1.980
  801SOL     OW 3301   2.299   5.314   5.553
  801SOL    HW1 3302   2.337   5.250   5.487
  801SOL    HW2 3303   2.215   5.354   5.516
  802SOL     OW 3304   4.915   2.421   6.313
  802SOL    HW1 3305   4.829   2.470   6.302
  802SOL    HW2 3306   4.991   2.487   6.314
  803SOL     OW 3307   2.819   0.163   5.810
  803SOL    HW1 3308   2.731   0.118   5.797
  803SOL    HW2 3309   2.886   0.096   5.841
  804SOL     OW 3310   5.983   6.857   1.405
  804SOL    HW1 3311   5.924   6.799   1.349
  804SOL    HW2 3312   5.988   6.822   1.498
  805SOL     OW 3313   2.139   0.473   3.899
  805SOL    HW1 3314   2.220   0.424   3.929
  805SOL    HW2 3315   2.140   0.566   3.936
  806SOL     OW 3316   0.144   0.269   5.767
  806SOL    HW1 3317   0.195   0.183   5.767
  806SOL    HW2 3318   0.119   0.293   5.861
  807SOL     OW 3319   0.739   6.877   4.385
  807SOL    HW1 3320   0.707   6.911   4.297
  807SOL    HW2 3321   0.814   6.811   4.371
  808SOL     OW 3322   5.712   2.815   0.373
  808SOL    HW1 3323   5.703   2.787   0.277
  808SOL    HW2 3324   5.659   2.899   0.388
  809SOL     OW 3325   0.339   5.585   6.774
  809SOL    HW1 3326   0.306   5.546   6.688
  809SOL    HW2 3327   0.418   5.533   6.806
  810SOL     OW 3328   2.491   3.388   0.801
  810SOL    HW1 3329   2.403   3.433   0.816
  810SOL    HW2 3330   2.502   3.312   0.865
  811SOL     OW 3331   5.800   5.134   4.428
  811SOL    HW1 3332   5.763   5.182   4.348
  811SOL    HW2 3333   5.897   5.154   4.436
  812SOL     OW 3334   0.408   2.071   2.343
  812SOL    HW1 3335   0.494   2.114   2.368
  812SOL    HW2 3336   0.332   2.120   2.385
  813SOL     OW 3337   2.450   0.773   4.173
  813SOL    HW1 3338   2.417   0.736   4.260
  813SOL    HW2 3339   2.454   0.699   4.106
  814SOL     OW 3340   6.913   5.747   2.401
  814SOL    HW1 3341   6.926   5.654   2.437
  814SOL    HW2 3342   6.824   5.752   2.356
  815SOL     OW 3343   4.853   2.805   3.385
  815SOL    HW1 3344   4.796   2.804   3.467
  815SOL    HW2 3345   4.881   2.899   3.365
  816SOL     OW 3346   5.314   3.860   0.430
  816SOL    HW1 3347   5.292   3.942   0.482
  816SOL    HW2 3348   5.291   3.874   0.334
  817SOL     OW 3349   1.355   5.425   0.880
  817SOL    HW1 3350   1.318   5.483   0.808
  817SOL    HW2 3351   1.376   5.334   0.843
  818SOL     OW 3352   5.324   2.755   3.391
  818SOL    HW1 3353   5.385   2.722   3.319
  818SOL    HW2 3354   5.359   2.841   3.428
  819SOL     OW 3355   5.817   2.628   1.154
  819SOL    HW1 3356   5.856   2.621   1.246
  819SOL    HW2 3357   5.760   2.548   1.136
  820SOL     OW 3358   2.660   2.135   4.629
  820SOL    HW1 3359   2.646   2.218   4.575
  820SOL    HW2 3360   2.676   2.057   4.568
  821SOL     OW 3361   6.020   4.842   4.415
  821SOL    HW1 3362   6.105   4.798   4.444
  821SOL    HW2 3363   5.980   4.891   4.492
  822SOL     OW 3364   0.491   4.371   3.157
  822SOL    HW1 3365   0.496   4.331   3.249
  822SOL    HW2 3366   0.403   4.418   3.146
  823SOL     OW 3367   0.563   4.122   5.835
  823SOL    HW1 3368   0.597   4.040   5.790
  823SOL    HW2 3369   0.633   4.194   5.831
  824SOL     OW 3370   5.431   1.449   5.015
  824SOL    HW1 3371   5.493   1.489   5.082
  824SOL    HW2 3372   5.348   1.418   5.062
  825SOL     OW 3373   6.278   6.334   0.795
  825SOL    HW1 3374   6.271   6.306   0.700
  825SOL    HW2 3375   6.364   6.302   0.834
  826SOL     OW 3376   3.999   2.158   6.115
  826SOL    HW1 3377   4.013   2.165   6.214
  826SOL    HW2 3378   3.917   2.209   6.089
  827SOL     OW 3379   3.238   3.956   5.083
  827SOL    HW1 3380   3.196   3.920   5.000
  827SOL    HW2 3381   3.232   3.888   5.156
  828SOL     OW 3382   6.246   5.422   4.593
  828SOL    HW1 3383   6.304   5.503   4.591
  828SOL    HW2 3384   6.269   5.366   4.673
  829SOL     OW 3385   3.751   2.979   2.346
  829SOL    HW1 3386   3.691   3.058   2.330
  829SOL    HW2 3387   3.785   2.944   2.259
  830SOL     OW 3388   6.043   4.708   6.596
  830SOL    HW1 3389   5.990   4.793   6.597
  830SOL    HW2 3390   6.080   4.691   6.688
  831SOL     OW 3391   5.327   6.640   1.656
  831SOL    HW1 3392   5.236   6.624   1.694
  831SOL    HW2 3393   5.357   6.559   1.607
  832SOL     OW 3394   4.111   1.616   4.220
  832SOL    HW1 3395   4.066   1.620   4.131
  832SOL    HW2 3396   4.175   1.538   4.221
  833SOL     OW 3397   1.133   3.834   6.599
  833SOL    HW1 3398   1.068   3.763   6.572
  833SOL    HW2 3399   1.210   3.834   6.536
  834SOL     OW 3400   4.705   3.682   6.603
  834SOL    HW1 3401   4.767   3.660   6.528
  834SOL    HW2 3402   4.616   3.709   6.566
  835SOL     OW 3403   2.110   1.003   4.991
  835SOL    HW1 3404   2.078   0.911   5.014
  835SOL    HW2 3405   2.062   1.070   5.047
  836SOL     OW 3406   3.262   1.861   5.737
  836SOL    HW1 3407   3.356   1.834   5.758
  836SOL    HW2 3408   3.256   1.892   5.642
  837SOL     OW 3409   1.659   0.415   1.396
  837SOL    HW1 3410   1.626   0.344   1.460
  837SOL    HW2 3411   1.732   0.467   1.439
  838SOL     OW 3412   1.977   5.860   4.276
  838SOL    HW1 3413   1.937   5.857   4.184
  838SOL    HW2 3414   2.072   5.893   4.270
  839SOL     OW 3415   2.343   1.062   1.711
  839SOL    HW1 3416   2.432   1.079   1.669
  839SOL    HW2 3417   2.282   1.020   1.644
  840SOL     OW 3418   6.029   5.792   0.212
  840SOL    HW1 3419   6.119   5.785   0.255
  840SOL    HW2 3420   5.959   5.756   0.274
  841SOL     OW 3421   4.348   5.568   5.884
  841SOL    HW1 3422   4.296   5.581   5.799
  841SOL    HW2 3423   4.379   5.473   5.890
  842SOL     OW 3424   3.118   6.905   6.958
  842SOL    HW1 3425   3.052   6.980   6.949
  842SOL    HW2 3426   3.163   6.911   0.027
  843SOL     OW 3427   2.206   2.081   1.825
  843SOL    HW1 3428   2.177   1.997   1.778
  843SOL    HW2 3429   2.215   2.063   1.923
  844SOL     OW 3430   0.564   6.473   1.071
  844SOL    HW1 3431   0.615   6.421   1.140
  844SOL    HW2 3432   0.537   6.561   1.110
  845SOL     OW 3433   4.008   2.174   3.196
  845SOL    HW1 3434   3.921   2.174   3.146
  845SOL    HW2 3435   4.065   2.248   3.162
  846SOL     OW 3436   2.763   1.668   5.774
  846SOL    HW1 3437   2.761   1.579   5.819
  846SOL    HW2 3438   2.715   1.662   5.686
  847SOL     OW 3439   2.213   3.245   1.647
  847SOL    HW1 3440   2.308   3.216   1.662
  847SOL    HW2 3441   2.198   3.333   1.692
  848SOL     OW 3442   6.232   6.656   5.915
  848SOL    HW1 3443   6.160   6.588   5.929
  848SOL    HW2 3444   6.321   6.612   5.918
  849SOL     OW 3445   5.860   3.194   0.069
  849SOL    HW1 3446   5.953   3.230   0.074
  849SOL    HW2 3447   5.839   3.144   0.152
  850SOL     OW 3448   6.908   0.370   4.691
  850SOL    HW1 3449   6.905   0.455   4.744
  850SOL    HW2 3450   6.978   0.378   4.619
  851SOL     OW 3451   6.605   3.316   6.640
  851SOL    HW1 3452   6.610   3.232   6.586
  851SOL    HW2 3453   6.511   3.351   6.640
  852SOL     OW 3454   0.186   4.578   0.690
  852SOL    HW1 3455   0.186   4.480   0.669
  852SOL    HW2 3456   0.195   4.592   0.788
  853SOL     OW 3457   2.410   3.988   6.596
  853SOL    HW1 3458   2.361   3.939   6.668
  853SOL    HW2 3459   2.363   3.974   6.509
  854SOL     OW 3460   5.945   6.718   6.713
  854SOL    HW1 3461   5.965   6.721   6.811
  854SOL    HW2 3462   5.938   6.811   6.677
  855SOL     OW 3463   6.977   0.674   0.152
  855SOL    HW1 3464   7.014   0.594   0.106
  855SOL    HW2 3465   6.881   0.657   0.176
  856SOL     OW 3466   1.509   6.889   5.974
  856SOL    HW1 3467   1.520   6.822   6.047
  856SOL    HW2 3468   1.456   6.967   6.007
  857SOL     OW 3469   0.211   4.549   2.594
  857SOL    HW1 3470   0.208   4.558   2.495
  857SOL    HW2 3471   0.144   4.610   2.636
  858SOL     OW 3472   2.907   3.863   1.036
  858SOL    HW1 3473   2.862   3.928   0.974
  858SOL    HW2 3474   2.956   3.794   0.983
  859SOL     OW 3475   4.782   6.168   5.422
  859SOL    HW1 3476   4.862   6.155   5.363
  859SOL    HW2 3477   4.743   6.258   5.406
  860SOL     OW 3478   5.630   3.038   6.824
  860SOL    HW1 3479   5.703   3.097   6.790
  860SOL    HW2 3480   5.610   2.968   6.755
  861SOL     OW 3481   1.599   5.569   3.036
  861SOL    HW1 3482   1.560   5.656   3.006
  861SOL    HW2 3483   1.675   5.544   2.978
  862SOL     OW 3484   1.847   5.090   3.744
  862SOL    HW1 3485   1.872   5.008   3.692
  862SOL    HW2 3486   1.778   5.066   3.812
  863SOL     OW 3487   6.265   0.779   5.859
  863SOL    HW1 3488   6.310   0.860   5.896
  863SOL    HW2 3489   6.302   0.697   5.902
  864SOL     OW 3490   4.895   0.329   5.239
  864SOL    HW1 3491   4.912   0.426   5.258
  864SOL    HW2 3492   4.810   0.320   5.187
  865SOL     OW 3493   1.977   6.966   5.532
  865SOL    HW1 3494   2.030   6.925   5.606
  865SOL    HW2 3495   1.990   0.045   5.532
  866SOL     OW 3496   3.300   6.720   1.054
  866SOL    HW1 3497   3.398   6.742   1.052
  866SOL    HW2 3498   3.270   6.694   0.963
  867SOL     OW 3499   5.705   2.871   0.701
  867SOL    HW1 3500   5.700   2.916   0.612
  867SOL    HW2 3501   5.660   2.927   0.770
  868SOL     OW 3502   0.206   2.315   2.351
  868SOL    HW1 3503   0.113   2.328   2.386
  868SOL    HW2 3504   0.261   2.395   2.373
  869SOL     OW 3505   6.960   3.492   4.106
  869SOL    HW1 3506   6.991   3.437   4.183
  869SOL    HW2 3507   6.963   3.438   4.022
  870SOL     OW 3508   3.973   4.713   1.190
  870SOL    HW1 3509   4.018   4.671   1.269
  870SOL    HW2 3510   3.880   4.739   1.214
  871SOL     OW 3511   5.050   2.057   3.997
  871SOL    HW1 3512   5.007   2.101   3.918
  871SOL    HW2 3513   5.112   2.122   4.041
  872SOL     OW 3514   0.057   1.918   4.493
  872SOL    HW1 3515   0.017   1.887   4.408
  872SOL    HW2 3516   0.107   1.843   4.536
  873SOL     OW 3517   4.322   6.660   5.567
  873SOL    HW1 3518   4.308   6.572   5.521
  873SOL    HW2 3519   4.413   6.660   5.609
  874SOL     OW 3520   6.073   4.163   6.646
  874SOL    HW1 3521   6.089   4.155   6.744
  874SOL    HW2 3522   6.115   4.086   6.599
  875SOL     OW 3523   5.244   5.605   0.861
  875SOL    HW1 3524   5.224   5.618   0.958
  875SOL    HW2 3525   5.278   5.690   0.822
  876SOL     OW 3526   0.720   5.086   1.999
  876SOL    HW1 3527   0.663   5.139   2.062
  876SOL    HW2 3528   0.810   5.072   2.039
  877SOL     OW 3529   2.647   4.096   6.450
  877SOL    HW1 3530   2.579   4.060   6.514
  877SOL    HW2 3531   2.604   4.163   6.390
  878SOL     OW 3532   4.569   6.844   4.062
  878SOL    HW1 3533   4.508   6.841   4.141
  878SOL    HW2 3534   4.575   6.753   4.021
  879SOL     OW 3535   3.769   0.738   1.490
  879SOL    HW1 3536   3.815   0.650   1.480
  879SOL    HW2 3537   3.817   0.808   1.436
  880SOL     OW 3538   4.049   3.785   3.892
  880SOL    HW1 3539   4.044   3.836   3.978
  880SOL    HW2 3540   4.039   3.687   3.910
  881SOL     OW 3541   4.856   3.172   4.737
  881SOL    HW1 3542   4.896   3.251   4.784
  881SOL    HW2 3543   4.817   3.201   4.650
  882SOL     OW 3544   0.766   2.999   4.183
  882SOL    HW1 3545   0.863   2.976   4.175
  882SOL    HW2 3546   0.716   2.958   4.107
  883SOL     OW 3547   3.623   0.790   1.901
  883SOL    HW1 3548   3.524   0.790   1.884
  883SOL    HW2 3549   3.640   0.791   1.999
  884SOL     OW 3550   5.382   3.361   6.075
  884SOL    HW1 3551   5.313   3.405   6.018
  884SOL    HW2 3552   5.360   3.264   6.086
  885SOL     OW 3553   3.892   1.225   4.932
  885SOL    HW1 3554   3.894   1.267   5.023
  885SOL    HW2 3555   3.964   1.264   4.875
  886SOL     OW 3556   3.598   0.053   0.696
  886SOL    HW1 3557   3.588   0.152   0.706
  886SOL    HW2 3558   3.648   0.017   0.774
  887SOL     OW 3559   3.870   6.882   4.229
  887SOL    HW1 3560   3.874   6.982   4.229
  887SOL    HW2 3561   3.874   6.849   4.135
  888SOL     OW 3562   0.178   6.331   3.246
  888SOL    HW1 3563   0.201   6.241   3.283
  888SOL    HW2 3564   0.101   6.322   3.183
  889SOL     OW 3565   0.215   3.835   0.615
  889SOL    HW1 3566   0.196   3.855   0.519
  889SOL    HW2 3567   0.271   3.908   0.654
  890SOL     OW 3568   1.613   5.604   3.320
  890SOL    HW1 3569   1.611   5.514   3.364
  890SOL    HW2 3570   1.644   5.593   3.225
  891SOL     OW 3571   5.278   5.643   0.435
  891SOL    HW1 3572   5.262   5.581   0.512
  891SOL    HW2 3573   5.226   5.612   0.356
  892SOL     OW 3574   2.159   3.886   5.251
  892SOL    HW1 3575   2.246   3.933   5.236
  892SOL    HW2 3576   2.157   3.801   5.199
  893SOL     OW 3577   1.816   6.655   2.742
  893SOL    HW1 3578   1.904   6.645   2.696
  893SOL    HW2 3579   1.750   6.695   2.678
  894SOL     OW 3580   1.091   3.085   1.805
  894SOL    HW1 3581   1.136   3.117   1.888
  894SOL    HW2 3582   1.008   3.035   1.830
  895SOL     OW 3583   0.405   4.292   3.893
  895SOL    HW1 3584   0.382   4.214   3.951
  895SOL    HW2 3585   0.326   4.316   3.837
  896SOL     OW 3586   5.305   4.681   0.798
  896SOL    HW1 3587   5.230   4.623   0.830
  896SOL    HW2 3588   5.364   4.628   0.738
  897SOL     OW 3589   4.210   1.642   0.090
  897SOL    HW1 3590   4.290   1.681   0.134
  897SOL    HW2 3591   4.212   1.542   0.098
  898SOL     OW 3592   2.934   6.166   2.741
  898SOL    HW1 3593   2.946   6.211   2.653
  898SOL    HW2 3594   2.846   6.192   2.781
  899SOL     OW 3595   0.189   6.314   6.478
  899SOL    HW1 3596   0.270   6.351   6.522
  899SOL    HW2 3597   0.214   6.237   6.420
  900SOL     OW 3598   5.707   6.709   0.447
  900SOL    HW1 3599   5.654   6.793   0.442
  900SOL    HW2 3600   5.756   6.705   0.534
  901SOL     OW 3601   2.076   0.162   3.497
  901SOL    HW1 3602   2.092   0.256   3.466
  901SOL    HW2 3603   1.990   0.129   3.458
  902SOL     OW 3604   0.664   2.383   0.236
  902SOL    HW1 3605   0.673   2.470   0.187
  902SOL    HW2 3606   0.619   2.316   0.178
  903SOL     OW 3607   6.806   2.674   6.932
  903SOL    HW1 3608   6.837   2.753   6.985
  903SOL    HW2 3609   6.726   2.698   6.878
  904SOL     OW 3610   2.705   2.270   2.767
  904SOL    HW1 3611   2.664   2.355   2.734
  904SOL    HW2 3612   2.793   2.256   2.723
  905SOL     OW 3613   5.212   1.715   6.862
  905SOL    HW1 3614   5.236   1.662   6.944
  905SOL    HW2 3615   5.265   1.800   6.861
  906SOL     OW 3616   0.190   2.082   5.977
  906SOL    HW1 3617   0.213   1.985   5.973
  906SOL    HW2 3618   0.217   2.119   6.066
  907SOL     OW 3619   5.445   3.754   0.686
  907SOL    HW1 3620   5.417   3.659   0.697
  907SOL    HW2 3621   5.422   3.785   0.594
  908SOL     OW 3622   2.876   4.766   2.525
  908SOL    HW1 3623   2.864   4.670   2.549
  908SOL    HW2 3624   2.870   4.776   2.425
  909SOL     OW 3625   4.534   5.600   0.801
  909SOL    HW1 3626   4.527   5.667   0.726
  909SOL    HW2 3627   4.606   5.534   0.779
  910SOL     OW 3628   2.632   2.331   1.321
  910SOL    HW1 3629   2.672   2.269   1.388
  910SOL    HW2 3630   2.587   2.407   1.368
  911SOL     OW 3631   0.872   5.983   6.255
  911SOL    HW1 3632   0.896   6.014   6.163
  911SOL    HW2 3633   0.895   5.887   6.266
  912SOL     OW 3634   6.185   1.960   2.987
  912SOL    HW1 3635   6.125   1.921   2.917
  912SOL    HW2 3636   6.227   2.044   2.952
  913SOL     OW 3637   4.323   6.728   3.089
  913SOL    HW1 3638   4.399   6.664   3.098
  913SOL    HW2 3639   4.357   6.814   3.049
  914SOL     OW 3640   2.139   0.163   6.843
  914SOL    HW1 3641   2.180   0.091   6.787
  914SOL    HW2 3642   2.102   0.235   6.785
  915SOL     OW 3643   6.078   4.494   6.424
  915SOL    HW1 3644   6.108   4.531   6.336
  915SOL    HW2 3645   6.084   4.565   6.494
  916SOL     OW 3646   1.536   2.256   2.126
  916SOL    HW1 3647   1.492   2.302   2.048
  916SOL    HW2 3648   1.631   2.237   2.105
  917SOL     OW 3649   0.289   6.103   0.301
  917SOL    HW1 3650   0.354   6.178   0.307
  917SOL    HW2 3651   0.325   6.023   0.350
  918SOL     OW 3652   2.874   0.318   0.493
  918SOL    HW1 3653   2.842   0.239   0.544
  918SOL    HW2 3654   2.965   0.300   0.456
  919SOL     OW 3655   5.645   1.648   3.324
  919SOL    HW1 3656   5.581   1.724   3.312
  919SOL    HW2 3657   5.594   1.565   3.345
  920SOL     OW 3658   2.611   4.042   1.706
  920SOL    HW1 3659   2.584   4.049   1.610
  920SOL    HW2 3660   2.546   4.093   1.762
  921SOL     OW 3661   4.890   6.198   4.315
  921SOL    HW1 3662   4.817   6.255   4.352
  921SOL    HW2 3663   4.979   6.237   4.339
  922SOL     OW 3664   4.002   3.894   4.204
  922SOL    HW1 3665   3.931   3.874   4.272
  922SOL    HW2 3666   4.091   3.865   4.238
  923SOL     OW 3667   2.781   3.122   6.798
  923SOL    HW1 3668   2.720   3.194   6.833
  923SOL    HW2 3669   2.762   3.036   6.846
  924SOL     OW 3670   6.217   3.990   2.163
  924SOL    HW1 3671   6.177   3.939   2.087
  924SOL    HW2 3672   6.200   3.941   2.249
  925SOL     OW 3673   6.826   2.813   0.176
  925SOL    HW1 3674   6.896   2.788   0.243
  925SOL    HW2 3675   6.744   2.759   0.192
  926SOL     OW 3676   6.930   1.071   0.828
  926SOL    HW1 3677   6.944   1.108   0.921
  926SOL    HW2 3678   6.991   0.993   0.814
  927SOL     OW 3679   5.556   3.837   3.736
  927SOL    HW1 3680   5.641   3.877   3.771
  927SOL    HW2 3681   5.577   3.781   3.655
  928SOL     OW 3682   2.750   6.102   0.751
  928SOL    HW1 3683   2.846   6.081   0.737
  928SOL    HW2 3684   2.697   6.017   0.750
  929SOL     OW 3685   6.856   0.504   6.749
  929SOL    HW1 3686   6.822   0.470   6.662
  929SOL    HW2 3687   6.825   0.444   6.823
  930SOL     OW 3688   4.417   5.541   6.621
  930SOL    HW1 3689   4.381   5.544   6.715
  930SOL    HW2 3690   4.341   5.545   6.556
  931SOL     OW 3691   6.447   2.322   4.591
  931SOL    HW1 3692   6.371   2.260   4.610
  931SOL    HW2 3693   6.418   2.392   4.527
  932SOL     OW 3694   2.293   1.759   3.211
  932SOL    HW1 3695   2.289   1.844   3.264
  932SOL    HW2 3696   2.247   1.686   3.261
  933SOL     OW 3697   1.589   4.938   2.851
  933SOL    HW1 3698   1.663   4.932   2.784
  933SOL    HW2 3699   1.523   5.006   2.820
  934SOL     OW 3700   2.476   6.130   5.526
  934SOL    HW1 3701   2.436   6.041   5.505
  934SOL    HW2 3702   2.519   6.168   5.444
  935SOL     OW 3703   4.949   3.980   3.835
  935SOL    HW1 3704   4.885   4.010   3.764
  935SOL    HW2 3705   4.916   3.895   3.876
  936SOL     OW 3706   1.426   0.255   6.424
  936SOL    HW1 3707   1.519   0.248   6.388
  936SOL    HW2 3708   1.427   0.240   6.523
  937SOL     OW 3709   4.995   1.902   5.374
  937SOL    HW1 3710   5.057   1.865   5.443
  937SOL    HW2 3711   4.922   1.836   5.355
  938SOL     OW 3712   6.328   5.488   4.136
  938SOL    HW1 3713   6.253   5.490   4.202
  938SOL    HW2 3714   6.295   5.450   4.049
  939SOL     OW 3715   0.397   6.699   4.304
  939SOL    HW1 3716   0.323   6.765   4.314
  939SOL    HW2 3717   0.466   6.735   4.241
  940SOL     OW 3718   0.702   4.218   0.460
  940SOL    HW1 3719   0.682   4.128   0.423
  940SOL    HW2 3720   0.678   4.288   0.392
  941SOL     OW 3721   4.981   0.337   6.797
  941SOL    HW1 3722   4.922   0.326   6.717
  941SOL    HW2 3723   4.932   0.387   6.868
  942SOL     OW 3724   6.301   6.140   1.341
  942SOL    HW1 3725   6.333   6.221   1.390
  942SOL    HW2 3726   6.268   6.072   1.406
  943SOL     OW 3727   2.212   4.552   2.577
  943SOL    HW1 3728   2.126   4.557   2.629
  943SOL    HW2 3729   2.201   4.602   2.491
  944SOL     OW 3730   0.361   4.994   4.203
  944SOL    HW1 3731   0.385   5.062   4.272
  944SOL    HW2 3732   0.441   4.976   4.145
  945SOL     OW 3733   0.741   5.076   5.434
  945SOL    HW1 3734   0.787   5.058   5.521
  945SOL    HW2 3735   0.666   5.010   5.422
  946SOL     OW 3736   4.852   4.761   4.277
  946SOL    HW1 3737   4.879   4.717   4.363
  946SOL    HW2 3738   4.910   4.841   4.260
  947SOL     OW 3739   3.659   3.340   3.615
  947SOL    HW1 3740   3.612   3.258   3.648
  947SOL    HW2 3741   3.696   3.323   3.524
  948SOL     OW 3742   5.194   0.861   2.570
  948SOL    HW1 3743   5.117   0.882   2.631
  948SOL    HW2 3744   5.226   0.768   2.587
  949SOL     OW 3745   3.162   6.623   6.925
  949SOL    HW1 3746   3.157   6.723   6.923
  949SOL    HW2 3747   3.070   6.585   6.915
  950SOL     OW 3748   5.635   5.743   2.240
  950SOL    HW1 3749   5.566   5.740   2.313
  950SOL    HW2 3750   5.708   5.678   2.261
  951SOL     OW 3751   1.060   6.815   3.554
  951SOL    HW1 3752   1.108   6.887   3.604
  951SOL    HW2 3753   1.041   6.739   3.615
  952SOL     OW 3754   4.114   1.989   2.851
  952SOL    HW1 3755   4.112   1.892   2.829
  952SOL    HW2 3756   4.109   2.001   2.950
  953SOL     OW 3757   5.999   5.775   5.080
  953SOL    HW1 3758   5.974   5.731   4.994
  953SOL    HW2 3759   5.937   5.852   5.097
  954SOL     OW 3760   4.149   6.026   2.276
  954SOL    HW1 3761   4.243   6.036   2.244
  954SOL    HW2 3762   4.117   6.113   2.314
  955SOL     OW 3763   1.889   4.299   6.924
  955SOL    HW1 3764   1.902   4.347   7.010
  955SOL    HW2 3765   1.939   4.345   6.851
  956SOL     OW 3766   0.313   1.069   1.002
  956SOL    HW1 3767   0.253   1.008   0.951
  956SOL    HW2 3768   0.395   1.089   0.948
  957SOL     OW 3769   6.010   1.525   2.048
  957SOL    HW1 3770   6.024   1.587   1.971
  957SOL    HW2 3771   6.096   1.514   2.098
  958SOL     OW 3772   4.958   6.049   2.456
  958SOL    HW1 3773   4.981   6.140   2.423
  958SOL    HW2 3774   4.859   6.041   2.465
  959SOL     OW 3775   3.669   6.708   4.489
  959SOL    HW1 3776   3.711   6.655   4.562
  959SOL    HW2 3777   3.604   6.651   4.439
  960SOL     OW 3778   1.241   0.901   0.777
  960SOL    HW1 3779   1.179   0.831   0.741
  960SOL    HW2 3780   1.298   0.937   0.703
  961SOL     OW 3781   3.587   6.715   3.220
  961SOL    HW1 3782   3.540   6.798   3.189
  961SOL    HW2 3783   3.680   6.714   3.183
  962SOL     OW 3784   6.041   0.783   4.519
  962SOL    HW1 3785   5.992   0.853   4.468
  962SOL    HW2 3786   5.992   0.763   4.604
  963SOL     OW 3787   4.677   1.266   1.145
  963SOL    HW1 3788   4.638   1.349   1.107
  963SOL    HW2 3789   4.776   1.265   1.128
  964SOL     OW 3790   4.632   4.964   5.522
  964SOL    HW1 3791   4.609   5.026   5.596
  964SOL    HW2 3792   4.636   5.015   5.436
  965SOL     OW 3793   6.390   2.093   2.378
  965SOL    HW1 3794   6.427   2.128   2.292
  965SOL    HW2 3795   6.332   2.013   2.360
  966SOL     OW 3796   4.882   2.483   3.231
  966SOL    HW1 3797   4.806   2.539   3.198
  966SOL    HW2 3798   4.945   2.541   3.283
  967SOL     OW 3799   3.118   4.909   6.419
  967SOL    HW1 3800   3.026   4.870   6.408
  967SOL    HW2 3801   3.122   4.961   6.504
  968SOL     OW 3802   3.851   0.056   1.194
  968SOL    HW1 3803   3.809   0.010   1.273
  968SOL    HW2 3804   3.888   7.007   1.132
  969SOL     OW 3805   2.731   5.281   5.435
  969SOL    HW1 3806   2.771   5.370   5.455
  969SOL    HW2 3807   2.661   5.259   5.504
  970SOL     OW 3808   6.017   1.145   6.123
  970SOL    HW1 3809   6.105   1.187   6.101
  970SOL    HW2 3810   5.965   1.130   6.038
  971SOL     OW 3811   6.854   3.390   2.606
  971SOL    HW1 3812   6.870   3.369   2.702
  971SOL    HW2 3813   6.756   3.405   2.591
  972SOL     OW 3814   6.639   2.723   1.160
  972SOL    HW1 3815   6.647   2.818   1.192
  972SOL    HW2 3816   6.570   2.719   1.088
  973SOL     OW 3817   0.127   4.330   6.401
  973SOL    HW1 3818   0.070   4.253   6.372
  973SOL    HW2 3819   0.195   4.298   6.467
  974SOL     OW 3820   0.747   5.063   2.416
  974SOL    HW1 3821   0.730   5.006   2.335
  974SOL    HW2 3822   0.688   5.033   2.491
  975SOL     OW 3823   2.573   6.942   0.832
  975SOL    HW1 3824   2.648   6.957   0.896
  975SOL    HW2 3825   2.603   6.881   0.759
  976SOL     OW 3826   6.213   3.942   1.778
  976SOL    HW1 3827   6.179   3.901   1.863
  976SOL    HW2 3828   6.313   3.934   1.775
  977SOL     OW 3829   0.884   1.338   2.257
  977SOL    HW1 3830   0.951   1.369   2.189
  977SOL    HW2 3831   0.906   1.245   2.285
  978SOL     OW 3832   5.226   1.971   1.087
  978SOL    HW1 3833   5.164   1.895   1.108
  978SOL    HW2 3834   5.188   2.025   1.012
  979SOL     OW 3835   6.988   2.958   6.747
  979SOL    HW1 3836   6.932   2.964   6.831
  979SOL    HW2 3837   0.060   2.990   6.767
  980SOL     OW 3838   4.113   1.025   4.602
  980SOL    HW1 3839   4.095   0.989   4.693
  980SOL    HW2 3840   4.051   1.101   4.584
  981SOL     OW 3841   0.273   0.325   5.268
  981SOL    HW1 3842   0.230   0.262   5.333
  981SOL    HW2 3843   0.372   0.316   5.274
  982SOL     OW 3844   0.365   1.479   5.389
  982SOL    HW1 3845   0.294   1.420   5.350
  982SOL    HW2 3846   0.339   1.507   5.481
  983SOL     OW 3847   6.691   2.927   3.210
  983SOL    HW1 3848   6.596   2.925   3.179
  983SOL    HW2 3849   6.729   3.018   3.191
  984SOL     OW 3850   1.507   2.225   3.122
  984SOL    HW1 3851   1.557   2.244   3.038
  984SOL    HW2 3852   1.497   2.127   3.134
  985SOL     OW 3853   6.093   3.997   4.625
  985SOL    HW1 3854   6.110   4.018   4.529
  985SOL    HW2 3855   6.021   4.056   4.660
  986SOL     OW 3856   4.746   4.736   1.508
  986SOL    HW1 3857   4.751   4.835   1.520
  986SOL    HW2 3858   4.795   4.691   1.583
  987SOL     OW 3859   5.590   6.434   3.471
  987SOL    HW1 3860   5.550   6.522   3.497
  987SOL    HW2 3861   5.529   6.387   3.407
  988SOL     OW 3862   3.280   3.682   2.406
  988SOL    HW1 3863   3.304   3.720   2.496
  988SOL    HW2 3864   3.258   3.757   2.344
  989SOL     OW 3865   6.752   2.145   0.461
  989SOL    HW1 3866   6.844   2.108   0.466
  989SOL    HW2 3867   6.755   2.238   0.424
  990SOL     OW 3868   3.386   0.350   2.926
  990SOL    HW1 3869   3.415   0.446   2.925
  990SOL    HW2 3870   3.404   0.312   3.017
  991SOL     OW 3871   6.556   4.592   3.158
  991SOL    HW1 3872   6.490   4.658   3.193
  991SOL    HW2 3873   6.644   4.606   3.202
  992SOL     OW 3874   1.020   2.937   1.489
  992SOL    HW1 3875   1.106   2.904   1.450
  992SOL    HW2 3876   1.001   3.028   1.453
  993SOL     OW 3877   0.926   4.113   1.002
  993SOL    HW1 3878   0.927   4.104   0.902
  993SOL    HW2 3879   0.898   4.206   1.026
  994SOL     OW 3880   3.707   5.856   1.201
  994SOL    HW1 3881   3.708   5.892   1.107
  994SOL    HW2 3882   3.627   5.797   1.213
  995SOL     OW 3883   4.467   3.625   5.444
  995SOL    HW1 3884   4.510   3.542   5.409
  995SOL    HW2 3885   4.403   3.661   5.377
  996SOL     OW 3886   4.064   5.399   5.197
  996SOL    HW1 3887   4.155   5.363   5.178
  996SOL    HW2 3888   4.040   5.468   5.129
  997SOL     OW 3889   1.056   6.736   3.283
  997SOL    HW1 3890   0.963   6.722   3.251
  997SOL    HW2 3891   1.056   6.743   3.383
  998SOL     OW 3892   6.210   0.451   5.844
  998SOL    HW1 3893   6.157   0.425   5.924
  998SOL    HW2 3894   6.245   0.368   5.799
  999SOL     OW 3895   4.803   3.853   1.960
  999SOL    HW1 3896   4.792   3.766   1.911
  999SOL    HW2 3897   4.888   3.851   2.013
 1000SOL     OW 3898   4.866   1.276   1.586
 1000SOL    HW1 3899   4.811   1.192   1.588
 1000SOL    HW2 3900   4.805   1.355   1.587
 1001SOL     OW 3901   2.893   6.208   2.070
 1001SOL    HW1 3902   2.840   6.193   2.154
 1001SOL    HW2 3903   2.987   6.230   2.094
 1002SOL     OW 3904   5.703   1.885   1.507
 1002SOL    HW1 3905   5.627   1.937   1.468
 1002SOL    HW2 3906   5.781   1.946   1.521
 1003SOL     OW 3907   1.657   6.068   2.751
 1003SOL    HW1 3908   1.641   6.100   2.658
 1003SOL    HW2 3909   1.754   6.043   2.762
 1004SOL     OW 3910   6.273   1.430   2.114
 1004SOL    HW1 3911   6.368   1.436   2.146
 1004SOL    HW2 3912   6.249   1.335   2.097
 1005SOL     OW 3913   1.495   4.623   3.714
 1005SOL    HW1 3914   1.570   4.593   3.774
 1005SOL    HW2 3915   1.515   4.714   3.679
 1006SOL     OW 3916   2.064   3.455   0.501
 1006SOL    HW1 3917   2.092   3.548   0.478
 1006SOL    HW2 3918   2.092   3.393   0.428
 1007SOL     OW 3919   4.582   1.479   6.694
 1007SOL    HW1 3920   4.662   1.539   6.701
 1007SOL    HW2 3921   4.501   1.533   6.676
 1008SOL     OW 3922   0.462   3.961   5.484
 1008SOL    HW1 3923   0.516   4.039   5.516
 1008SOL    HW2 3924   0.483   3.944   5.388
 1009SOL     OW 3925   6.275   5.195   5.284
 1009SOL    HW1 3926   6.358   5.249   5.274
 1009SOL    HW2 3927   6.197   5.256   5.299
 1010SOL     OW 3928   2.627   2.204   1.557
 1010SOL    HW1 3929   2.722   2.188   1.586
 1010SOL    HW2 3930   2.601   2.298   1.578
 1011SOL     OW 3931   0.534   5.635   2.775
 1011SOL    HW1 3932   0.458   5.700   2.781
 1011SOL    HW2 3933   0.532   5.573   2.853
 1012SOL     OW 3934   6.607   6.638   2.699
 1012SOL    HW1 3935   6.537   6.566   2.693
 1012SOL    HW2 3936   6.678   6.609   2.764
 1013SOL     OW 3937   6.647   1.415   6.175
 1013SOL    HW1 3938   6.680   1.470   6.252
 1013SOL    HW2 3939   6.725   1.371   6.130
 1014SOL     OW 3940   0.876   4.504   4.587
 1014SOL    HW1 3941   0.965   4.518   4.629
 1014SOL    HW2 3942   0.866   4.566   4.510
 1015SOL     OW 3943   3.304   0.627   6.567
 1015SOL    HW1 3944   3.394   0.583   6.573
 1015SOL    HW2 3945   3.265   0.611   6.477
 1016SOL     OW 3946   4.717   4.489   1.348
 1016SOL    HW1 3947   4.804   4.441   1.362
 1016SOL    HW2 3948   4.718   4.575   1.399
 1017SOL     OW 3949   3.092   1.328   1.609
 1017SOL    HW1 3950   3.110   1.237   1.572
 1017SOL    HW2 3951   3.152   1.394   1.565
 1018SOL     OW 3952   6.898   4.513   3.704
 1018SOL    HW1 3953   6.908   4.534   3.607
 1018SOL    HW2 3954   6.898   4.414   3.716
 1019SOL     OW 3955   6.685   5.059   0.311
 1019SOL    HW1 3956   6.703   4.979   0.369
 1019SOL    HW2 3957   6.665   5.028   0.218
 1020SOL     OW 3958   6.378   0.828   0.937
 1020SOL    HW1 3959   6.348   0.863   0.848
 1020SOL    HW2 3960   6.310   0.851   1.007
 1021SOL     OW 3961   6.651   5.733   2.313
 1021SOL    HW1 3962   6.627   5.702   2.221
 1021SOL    HW2 3963   6.569   5.734   2.370
 1022SOL     OW 3964   2.825   5.972   5.956
 1022SOL    HW1 3965   2.725   5.975   5.957
 1022SOL    HW2 3966   2.861   6.046   6.013
 1023SOL     OW 3967   6.823   0.595   2.334
 1023SOL    HW1 3968   6.734   0.638   2.316
 1023SOL    HW2 3969   6.889   0.626   2.266
 1024SOL     OW 3970   0.438   1.127   4.272
 1024SOL    HW1 3971   0.340   1.109   4.270
 1024SOL    HW2 3972   0.455   1.226   4.266
 1025SOL     OW 3973   4.549   3.191   0.570
 1025SOL    HW1 3974   4.505   3.217   0.656
 1025SOL    HW2 3975   4.554   3.271   0.510
 1026SOL     OW 3976   3.193   2.500   1.719
 1026SOL    HW1 3977   3.114   2.513   1.778
 1026SOL    HW2 3978   3.227   2.407   1.729
 1027SOL     OW 3979   1.930   6.327   1.928
 1027SOL    HW1 3980   1.938   6.230   1.949
 1027SOL    HW2 3981   1.838   6.346   1.892
 1028SOL     OW 3982   1.623   6.563   3.319
 1028SOL    HW1 3983   1.674   6.648   3.315
 1028SOL    HW2 3984   1.559   6.566   3.395
 1029SOL     OW 3985   1.257   1.826   6.094
 1029SOL    HW1 3986   1.210   1.738   6.105
 1029SOL    HW2 3987   1.319   1.821   6.016
 1030SOL     OW 3988   3.356   3.249   1.636
 1030SOL    HW1 3989   3.427   3.235   1.566
 1030SOL    HW2 3990   3.306   3.164   1.650
 1031SOL     OW 3991   3.992   3.322   1.546
 1031SOL    HW1 3992   3.966   3.226   1.559
 1031SOL    HW2 3993   4.045   3.353   1.625
 1032SOL     OW 3994   2.446   0.908   5.181
 1032SOL    HW1 3995   2.387   0.878   5.255
 1032SOL    HW2 3996   2.540   0.879   5.200
 1033SOL     OW 3997   2.040   6.270   2.470
 1033SOL    HW1 3998   1.940   6.263   2.465
 1033SOL    HW2 3999   2.070   6.257   2.564
 1034SOL     OW 4000   2.200   6.194   4.281
 1034SOL    HW1 4001   2.218   6.285   4.319
 1034SOL    HW2 4002   2.103   6.186   4.258
 1035SOL     OW 4003   0.540   2.017   5.958
 1035SOL    HW1 4004   0.500   2.061   5.878
 1035SOL    HW2 4005   0.503   2.057   6.041
 1036SOL     OW 4006   5.058   1.100   1.859
 1036SOL    HW1 4007   5.146   1.066   1.892
 1036SOL    HW2 4008   5.052   1.199   1.875
 1037SOL     OW 4009   0.819   1.920   2.627
 1037SOL    HW1 4010   0.733   1.963   2.598
 1037SOL    HW2 4011   0.891   1.942   2.560
 1038SOL     OW 4012   1.440   1.362   6.499
 1038SOL    HW1 4013   1.463   1.266   6.487
 1038SOL    HW2 4014   1.523   1.418   6.489
 1039SOL     OW 4015   2.943   3.238   3.662
 1039SOL    HW1 4016   2.912   3.186   3.741
 1039SOL    HW2 4017   3.032   3.205   3.632
 1040SOL     OW 4018   5.189   1.095   3.421
 1040SOL    HW1 4019   5.141   1.119   3.337
 1040SOL    HW2 4020   5.167   1.162   3.492
 1041SOL     OW 4021   6.822   6.772   3.750
 1041SOL    HW1 4022   6.903   6.781   3.691
 1041SOL    HW2 4023   6.833   6.830   3.831
 1042SOL     OW 4024   4.705   5.143   2.914
 1042SOL    HW1 4025   4.768   5.138   2.837
 1042SOL    HW2 4026   4.727   5.223   2.969
 1043SOL     OW 4027   3.637   2.132   3.274
 1043SOL    HW1 4028   3.542   2.157   3.255
 1043SOL    HW2 4029   3.694   2.156   3.195
 1044SOL     OW 4030   6.055   5.905   1.131
 1044SOL    HW1 4031   6.097   5.974   1.072
 1044SOL    HW2 4032   6.052   5.939   1.225
 1045SOL     OW 4033   2.750   0.009   3.118
 1045SOL    HW1 4034   2.807   0.050   3.189
 1045SOL    HW2 4035   2.658   7.012   3.154
 1046SOL     OW 4036   2.538   1.399   0.940
 1046SOL    HW1 4037   2.628   1.393   0.983
 1046SOL    HW2 4038   2.515   1.310   0.900
 1047SOL     OW 4039   3.272   0.169   4.253
 1047SOL    HW1 4040   3.321   0.142   4.170
 1047SOL    HW2 4041   3.184   0.209   4.227
 1048SOL     OW 4042   3.089   5.429   2.628
 1048SOL    HW1 4043   3.160   5.426   2.558
 1048SOL    HW2 4044   3.131   5.429   2.719
 1049SOL     OW 4045   4.623   6.899   3.797
 1049SOL    HW1 4046   4.607   6.895   3.896
 1049SOL    HW2 4047   4.542   6.937   3.752
 1050SOL     OW 4048   4.159   5.410   3.051
 1050SOL    HW1 4049   4.061   5.428   3.064
 1050SOL    HW2 4050   4.201   5.488   3.004
 1051SOL     OW 4051   0.058   5.628   0.224
 1051SOL    HW1 4052   0.117   5.649   0.302
 1051SOL    HW2 4053   0.114   5.607   0.144
 1052SOL     OW 4054   4.713   1.148   5.428
 1052SOL    HW1 4055   4.638   1.083   5.434
 1052SOL    HW2 4056   4.698   1.224   5.492
 1053SOL     OW 4057   6.274   3.574   2.367
 1053SOL    HW1 4058   6.196   3.635   2.376
 1053SOL    HW2 4059   6.343   3.598   2.435
 1054SOL     OW 4060   2.944   3.315   0.985
 1054SOL    HW1 4061   2.990   3.231   1.014
 1054SOL    HW2 4062   2.856   3.324   1.032
 1055SOL     OW 4063   5.164   5.877   6.479
 1055SOL    HW1 4064   5.181   5.811   6.552
 1055SOL    HW2 4065   5.209   5.963   6.501
 1056SOL     OW 4066   1.318   3.674   0.226
 1056SOL    HW1 4067   1.237   3.622   0.252
 1056SOL    HW2 4068   1.382   3.614   0.177
 1057SOL     OW 4069   3.732   1.998   1.867
 1057SOL    HW1 4070   3.828   1.984   1.890
 1057SOL    HW2 4071   3.699   2.082   1.909
 1058SOL     OW 4072   4.201   2.335   3.100
 1058SOL    HW1 4073   4.196   2.424   3.055
 1058SOL    HW2 4074   4.295   2.302   3.097
 1059SOL     OW 4075   2.706   6.760   2.188
 1059SOL    HW1 4076   2.650   6.748   2.270
 1059SOL    HW2 4077   2.769   6.683   2.179
 1060SOL     OW 4078   6.865   4.821   4.070
 1060SOL    HW1 4079   6.879   4.778   3.981
 1060SOL    HW2 4080   6.916   4.907   4.074
 1061SOL     OW 4081   6.462   3.811   6.780
 1061SOL    HW1 4082   6.505   3.819   6.690
 1061SOL    HW2 4083   6.469   3.716   6.812
 1062SOL     OW 4084   4.101   6.388   5.624
 1062SOL    HW1 4085   4.102   6.437   5.537
 1062SOL    HW2 4086   4.190   6.397   5.668
 1063SOL     OW 4087   0.148   6.920   6.271
 1063SOL    HW1 4088   0.117   7.015   6.285
 1063SOL    HW2 4089   0.145   6.872   6.358
 1064SOL     OW 4090   0.607   4.119   2.066
 1064SOL    HW1 4091   0.556   4.177   2.003
 1064SOL    HW2 4092   0.593   4.151   2.160
 1065SOL     OW 4093   3.070   0.817   3.859
 1065SOL    HW1 4094   3.070   0.915   3.837
 1065SOL    HW2 4095   3.108   0.804   3.950
 1066SOL     OW 4096   4.661   6.816   2.373
 1066SOL    HW1 4097   4.754   6.777   2.369
 1066SOL    HW2 4098   4.642   6.866   2.289
 1067SOL     OW 4099   2.735   1.079   6.536
 1067SOL    HW1 4100   2.732   1.140   6.616
 1067SOL    HW2 4101   2.819   1.096   6.485
 1068SOL     OW 4102   5.797   4.114   1.385
 1068SOL    HW1 4103   5.703   4.086   1.402
 1068SOL    HW2 4104   5.811   4.129   1.287
 1069SOL     OW 4105   5.449   5.311   0.925
 1069SOL    HW1 4106   5.494   5.383   0.977
 1069SOL    HW2 4107   5.518   5.255   0.878
 1070SOL     OW 4108   2.314   0.287   2.516
 1070SOL    HW1 4109   2.393   0.327   2.468
 1070SOL    HW2 4110   2.347   0.220   2.583
 1071SOL     OW 4111   0.483   1.681   4.631
 1071SOL    HW1 4112   0.478   1.697   4.729
 1071SOL    HW2 4113   0.407   1.623   4.603
 1072SOL     OW 4114   1.848   0.542   1.576
 1072SOL    HW1 4115   1.904   0.577   1.651
 1072SOL    HW2 4116   1.876   0.448   1.554
 1073SOL     OW 4117   6.055   1.922   3.482
 1073SOL    HW1 4118   6.103   1.915   3.569
 1073SOL    HW2 4119   6.122   1.930   3.408
 1074SOL     OW 4120   2.802   5.132   1.348
 1074SOL    HW1 4121   2.763   5.039   1.347
 1074SOL    HW2 4122   2.862   5.144   1.269
 1075SOL     OW 4123   6.312   1.525   4.587
 1075SOL    HW1 4124   6.305   1.428   4.566
 1075SOL    HW2 4125   6.285   1.540   4.682
 1076SOL     OW 4126   1.742   3.490   5.387
 1076SOL    HW1 4127   1.677   3.442   5.445
 1076SOL    HW2 4128   1.740   3.587   5.408
 1077SOL     OW 4129   6.727   6.658   0.089
 1077SOL    HW1 4130   6.729   6.704   7.020
 1077SOL    HW2 4131   6.819   6.626   0.112
 1078SOL     OW 4132   6.587   6.992   2.765
 1078SOL    HW1 4133   6.573   6.946   2.852
 1078SOL    HW2 4134   6.648   6.937   2.708
 1079SOL     OW 4135   1.603   5.501   1.881
 1079SOL    HW1 4136   1.544   5.514   1.801
 1079SOL    HW2 4137   1.569   5.425   1.935
 1080SOL     OW 4138   2.112   5.607   5.200
 1080SOL    HW1 4139   2.128   5.613   5.101
 1080SOL    HW2 4140   2.104   5.700   5.237
 1081SOL     OW 4141   0.386   5.812   3.921
 1081SOL    HW1 4142   0.397   5.895   3.866
 1081SOL    HW2 4143   0.294   5.810   3.960
 1082SOL     OW 4144   6.038   1.542   6.174
 1082SOL    HW1 4145   6.101   1.490   6.233
 1082SOL    HW2 4146   5.946   1.537   6.211
 1083SOL     OW 4147   4.572   3.766   0.515
 1083SOL    HW1 4148   4.607   3.856   0.542
 1083SOL    HW2 4149   4.644   3.714   0.469
 1084SOL     OW 4150   6.521   6.787   6.446
 1084SOL    HW1 4151   6.520   6.707   6.385
 1084SOL    HW2 4152   6.439   6.842   6.430
 1085SOL     OW 4153   2.103   3.515   3.896
 1085SOL    HW1 4154   2.006   3.523   3.873
 1085SOL    HW2 4155   2.153   3.478   3.817
 1086SOL     OW 4156   6.757   4.777   6.272
 1086SOL    HW1 4157   6.717   4.687   6.258
 1086SOL    HW2 4158   6.700   4.846   6.227
 1087SOL     OW 4159   1.366   1.620   5.699
 1087SOL    HW1 4160   1.279   1.578   5.727
 1087SOL    HW2 4161   1.392   1.690   5.766
 1088SOL     OW 4162   0.086   5.381   3.042
 1088SOL    HW1 4163   0.073   5.407   2.946
 1088SOL    HW2 4164   0.141   5.451   3.088
 1089SOL     OW 4165   0.761   5.831   4.934
 1089SOL    HW1 4166   0.792   5.754   4.991
 1089SOL    HW2 4167   0.664   5.849   4.954
 1090SOL     OW 4168   5.509   1.896   3.318
 1090SOL    HW1 4169   5.462   1.922   3.234
 1090SOL    HW2 4170   5.452   1.917   3.397
 1091SOL     OW 4171   1.927   3.171   3.466
 1091SOL    HW1 4172   1.889   3.205   3.553
 1091SOL    HW2 4173   2.026   3.165   3.474
 1092SOL     OW 4174   0.810   4.633   0.434
 1092SOL    HW1 4175   0.869   4.703   0.395
 1092SOL    HW2 4176   0.732   4.675   0.478
 1093SOL     OW 4177   3.043   0.221   1.479
 1093SOL    HW1 4178   3.074   0.273   1.559
 1093SOL    HW2 4179   3.113   0.155   1.454
 1094SOL     OW 4180   0.627   6.857   2.637
 1094SOL    HW1 4181   0.617   6.957   2.633
 1094SOL    HW2 4182   0.707   6.835   2.692
 1095SOL     OW 4183   0.774   2.731   6.361
 1095SOL    HW1 4184   0.687   2.773   6.386
 1095SOL    HW2 4185   0.792   2.744   6.264
 1096SOL     OW 4186   2.986   4.839   0.884
 1096SOL    HW1 4187   2.903   4.783   0.883
 1096SOL    HW2 4188   2.994   4.885   0.972
 1097SOL     OW 4189   2.061   5.736   3.332
 1097SOL    HW1 4190   2.141   5.752   3.390
 1097SOL    HW2 4191   1.986   5.702   3.388
 1098SOL     OW 4192   5.772   4.385   6.898
 1098SOL    HW1 4193   5.792   4.317   6.969
 1098SOL    HW2 4194   5.787   4.345   6.808
 1099SOL     OW 4195   4.783   1.207   6.446
 1099SOL    HW1 4196   4.738   1.296   6.439
 1099SOL    HW2 4197   4.860   1.214   6.509
 1100SOL     OW 4198   3.249   1.093   3.981
 1100SOL    HW1 4199   3.331   1.042   3.957
 1100SOL    HW2 4200   3.265   1.144   4.065
 1101SOL     OW 4201   5.722   3.494   5.485
 1101SOL    HW1 4202   5.687   3.436   5.559
 1101SOL    HW2 4203   5.811   3.531   5.511
 1102SOL     OW 4204   2.464   1.055   4.546
 1102SOL    HW1 4205   2.515   1.141   4.549
 1102SOL    HW2 4206   2.502   0.992   4.613
 1103SOL     OW 4207   2.614   1.570   6.976
 1103SOL    HW1 4208   2.689   1.569   6.909
 1103SOL    HW2 4209   2.622   1.489   0.016
 1104SOL     OW 4210   1.317   4.441   3.600
 1104SOL    HW1 4211   1.253   4.413   3.671
 1104SOL    HW2 4212   1.384   4.504   3.640
 1105SOL     OW 4213   4.926   2.471   4.465
 1105SOL    HW1 4214   4.966   2.519   4.388
 1105SOL    HW2 4215   4.936   2.525   4.548
 1106SOL     OW 4216   0.365   1.413   0.369
 1106SOL    HW1 4217   0.457   1.396   0.332
 1106SOL    HW2 4218   0.372   1.460   0.457
 1107SOL     OW 4219   1.095   0.636   0.088
 1107SOL    HW1 4220   1.189   0.604   0.088
 1107SOL    HW2 4221   1.069   0.662   7.015
 1108SOL     OW 4222   3.907   6.367   4.457
 1108SOL    HW1 4223   3.885   6.389   4.362
 1108SOL    HW2 4224   3.862   6.282   4.482
 1109SOL     OW 4225   5.852   1.801   3.743
 1109SOL    HW1 4226   5.767   1.766   3.703
 1109SOL    HW2 4227   5.831   1.879   3.802
 1110SOL     OW 4228   3.219   0.978   2.826
 1110SOL    HW1 4229   3.160   0.976   2.907
 1110SOL    HW2 4230   3.180   0.920   2.755
 1111SOL     OW 4231   5.070   4.320   6.211
 1111SOL    HW1 4232   5.039   4.333   6.117
 1111SOL    HW2 4233   5.001   4.270   6.263
 1112SOL     OW 4234   6.422   6.984   3.267
 1112SOL    HW1 4235   6.458   6.993   3.360
 1112SOL    HW2 4236   6.402   6.888   3.247
 1113SOL     OW 4237   6.208   4.346   1.580
 1113SOL    HW1 4238   6.150   4.397   1.517
 1113SOL    HW2 4239   6.150   4.291   1.641
 1114SOL     OW 4240   3.818   2.556   5.742
 1114SOL    HW1 4241   3.783   2.481   5.685
 1114SOL    HW2 4242   3.747   2.626   5.750
 1115SOL     OW 4243   4.218   4.299   5.593
 1115SOL    HW1 4244   4.122   4.275   5.609
 1115SOL    HW2 4245   4.276   4.248   5.657
 1116SOL     OW 4246   5.556   0.364   0.135
 1116SOL    HW1 4247   5.556   0.271   0.173
 1116SOL    HW2 4248   5.649   0.386   0.104
 1117SOL     OW 4249   1.029   2.291   1.499
 1117SOL    HW1 4250   0.943   2.270   1.452
 1117SOL    HW2 4251   1.018   2.279   1.598
 1118SOL     OW 4252   2.047   5.528   0.330
 1118SOL    HW1 4253   2.103   5.450   0.359
 1118SOL    HW2 4254   2.054   5.540   0.231
 1119SOL     OW 4255   4.312   4.618   2.377
 1119SOL    HW1 4256   4.220   4.617   2.337
 1119SOL    HW2 4257   4.364   4.539   2.345
 1120SOL     OW 4258   6.412   5.796   1.073
 1120SOL    HW1 4259   6.430   5.878   1.128
 1120SOL    HW2 4260   6.402   5.717   1.134
 1121SOL     OW 4261   0.956   4.750   4.420
 1121SOL    HW1 4262   0.878   4.798   4.460
 1121SOL    HW2 4263   1.002   4.811   4.356
 1122SOL     OW 4264   6.607   2.676   2.081
 1122SOL    HW1 4265   6.608   2.701   2.177
 1122SOL    HW2 4266   6.517   2.695   2.042
 1123SOL     OW 4267   4.497   2.276   3.807
 1123SOL    HW1 4268   4.475   2.344   3.738
 1123SOL    HW2 4269   4.568   2.215   3.773
 1124SOL     OW 4270   1.216   3.450   5.431
 1124SOL    HW1 4271   1.298   3.399   5.457
 1124SOL    HW2 4272   1.157   3.392   5.375
 1125SOL     OW 4273   1.728   2.962   4.558
 1125SOL    HW1 4274   1.692   2.878   4.599
 1125SOL    HW2 4275   1.792   3.005   4.620
 1126SOL     OW 4276   4.511   5.706   5.340
 1126SOL    HW1 4277   4.578   5.777   5.363
 1126SOL    HW2 4278   4.422   5.730   5.378
 1127SOL     OW 4279   5.684   6.473   4.572
 1127SOL    HW1 4280   5.721   6.382   4.589
 1127SOL    HW2 4281   5.584   6.468   4.572
 1128SOL     OW 4282   5.668   1.430   4.866
 1128SOL    HW1 4283   5.580   1.427   4.913
 1128SOL    HW2 4284   5.680   1.521   4.824
 1129SOL     OW 4285   1.853   6.842   0.557
 1129SOL    HW1 4286   1.922   6.807   0.620
 1129SOL    HW2 4287   1.816   6.928   0.592
 1130SOL     OW 4288   2.122   5.247   1.602
 1130SOL    HW1 4289   2.126   5.328   1.661
 1130SOL    HW2 4290   2.028   5.228   1.576
 1131SOL     OW 4291   1.631   0.466   4.614
 1131SOL    HW1 4292   1.659   0.397   4.547
 1131SOL    HW2 4293   1.712   0.514   4.648
 1132SOL     OW 4294   4.865   0.570   2.650
 1132SOL    HW1 4295   4.933   0.526   2.592
 1132SOL    HW2 4296   4.910   0.616   2.727
 1133SOL     OW 4297   1.445   0.229   6.683
 1133SOL    HW1 4298   1.472   0.162   6.753
 1133SOL    HW2 4299   1.491   0.316   6.701
 1134SOL     OW 4300   5.479   6.657   2.263
 1134SOL    HW1 4301   5.484   6.634   2.166
 1134SOL    HW2 4302   5.437   6.747   2.274
 1135SOL     OW 4303   2.522   6.206   3.722
 1135SOL    HW1 4304   2.592   6.172   3.784
 1135SOL    HW2 4305   2.456   6.261   3.773
 1136SOL     OW 4306   3.433   5.228   3.390
 1136SOL    HW1 4307   3.525   5.259   3.415
 1136SOL    HW2 4308   3.428   5.213   3.292
 1137SOL     OW 4309   0.969   6.073   6.508
 1137SOL    HW1 4310   0.927   6.039   6.424
 1137SOL    HW2 4311   0.907   6.137   6.553
 1138SOL     OW 4312   1.808   2.537   5.113
 1138SOL    HW1 4313   1.886   2.575   5.163
 1138SOL    HW2 4314   1.730   2.530   5.175
 1139SOL     OW 4315   2.353   4.994   4.069
 1139SOL    HW1 4316   2.432   4.945   4.106
 1139SOL    HW2 4317   2.384   5.077   4.023
 1140SOL     OW 4318   2.200   0.503   2.351
 1140SOL    HW1 4319   2.271   0.441   2.384
 1140SOL    HW2 4320   2.225   0.537   2.261
 1141SOL     OW 4321   6.190   5.377   6.352
 1141SOL    HW1 4322   6.262   5.348   6.290
 1141SOL    HW2 4323   6.183   5.313   6.428
 1142SOL     OW 4324   2.438   0.145   3.650
 1142SOL    HW1 4325   2.383   0.083   3.594
 1142SOL    HW2 4326   2.456   0.102   3.739
 1143SOL     OW 4327   1.187   2.727   2.288
 1143SOL    HW1 4328   1.121   2.664   2.246
 1143SOL    HW2 4329   1.267   2.675   2.319
 1144SOL     OW 4330   5.325   4.560   2.613
 1144SOL    HW1 4331   5.265   4.481   2.601
 1144SOL    HW2 4332   5.420   4.532   2.607
 1145SOL     OW 4333   0.973   2.463   0.561
 1145SOL    HW1 4334   0.898   2.435   0.501
 1145SOL    HW2 4335   1.060   2.434   0.522
 1146SOL     OW 4336   0.525   2.208   1.058
 1146SOL    HW1 4337   0.592   2.276   1.088
 1146SOL    HW2 4338   0.451   2.202   1.125
 1147SOL     OW 4339   3.037   6.284   0.613
 1147SOL    HW1 4340   3.005   6.209   0.671
 1147SOL    HW2 4341   3.060   6.248   0.522
 1148SOL     OW 4342   3.917   6.443   1.744
 1148SOL    HW1 4343   3.836   6.456   1.686
 1148SOL    HW2 4344   3.957   6.353   1.725
 1149SOL     OW 4345   6.112   2.972   1.832
 1149SOL    HW1 4346   6.099   3.041   1.760
 1149SOL    HW2 4347   6.199   2.926   1.818
 1150SOL     OW 4348   0.857   3.883   0.002
 1150SOL    HW1 4349   0.823   3.953   0.064
 1150SOL    HW2 4350   0.858   3.918   6.929
 1151SOL     OW 4351   6.104   5.163   4.457
 1151SOL    HW1 4352   6.150   5.184   4.371
 1151SOL    HW2 4353   6.165   5.110   4.515
 1152SOL     OW 4354   4.353   6.547   6.708
 1152SOL    HW1 4355   4.264   6.579   6.674
 1152SOL    HW2 4356   4.424   6.613   6.683
 1153SOL     OW 4357   6.768   6.919   1.252
 1153SOL    HW1 4358   6.693   6.924   1.187
 1153SOL    HW2 4359   6.821   7.004   1.248
 1154SOL     OW 4360   0.725   3.999   1.345
 1154SOL    HW1 4361   0.738   4.095   1.318
 1154SOL    HW2 4362   0.814   3.958   1.365
 1155SOL     OW 4363   2.313   6.504   5.379
 1155SOL    HW1 4364   2.409   6.491   5.352
 1155SOL    HW2 4365   2.261   6.540   5.301
 1156SOL     OW 4366   4.191   1.758   5.011
 1156SOL    HW1 4367   4.252   1.837   5.013
 1156SOL    HW2 4368   4.099   1.787   5.036
 1157SOL     OW 4369   5.392   1.422   5.489
 1157SOL    HW1 4370   5.433   1.354   5.429
 1157SOL    HW2 4371   5.334   1.483   5.435
 1158SOL     OW 4372   6.066   6.081   4.340
 1158SOL    HW1 4373   6.084   5.983   4.353
 1158SOL    HW2 4374   6.097   6.109   4.249
 1159SOL     OW 4375   5.879   6.721   3.236
 1159SOL    HW1 4376   5.900   6.632   3.194
 1159SOL    HW2 4377   5.840   6.706   3.327
 1160SOL     OW 4378   3.976   6.028   1.545
 1160SOL    HW1 4379   3.886   6.066   1.566
 1160SOL    HW2 4380   3.970   5.928   1.539
 1161SOL     OW 4381   6.885   5.890   6.265
 1161SOL    HW1 4382   6.805   5.903   6.323
 1161SOL    HW2 4383   6.967   5.891   6.321
 1162SOL     OW 4384   2.448   2.245   5.947
 1162SOL    HW1 4385   2.353   2.275   5.935
 1162SOL    HW2 4386   2.508   2.324   5.945
 1163SOL     OW 4387   6.230   4.847   1.433
 1163SOL    HW1 4388   6.301   4.909   1.400
 1163SOL    HW2 4389   6.242   4.757   1.390
 1164SOL     OW 4390   5.385   2.467   4.824
 1164SOL    HW1 4391   5.397   2.378   4.779
 1164SOL    HW2 4392   5.290   2.477   4.852
 1165SOL     OW 4393   4.334   6.142   3.186
 1165SOL    HW1 4394   4.291   6.232   3.200
 1165SOL    HW2 4395   4.264   6.076   3.157
 1166SOL     OW 4396   1.739   6.607   6.818
 1166SOL    HW1 4397   1.753   6.705   6.807
 1166SOL    HW2 4398   1.663   6.592   6.881
 1167SOL     OW 4399   4.781   4.227   1.485
 1167SOL    HW1 4400   4.739   4.160   1.425
 1167SOL    HW2 4401   4.828   4.181   1.560
 1168SOL     OW 4402   6.151   2.132   1.910
 1168SOL    HW1 4403   6.155   2.217   1.962
 1168SOL    HW2 4404   6.087   2.142   1.834
 1169SOL     OW 4405   5.614   1.841   5.412
 1169SOL    HW1 4406   5.559   1.817   5.492
 1169SOL    HW2 4407   5.555   1.869   5.337
 1170SOL     OW 4408   4.682   0.129   2.677
 1170SOL    HW1 4409   4.619   0.074   2.731
 1170SOL    HW2 4410   4.766   0.145   2.729
 1171SOL     OW 4411   2.348   0.301   0.488
 1171SOL    HW1 4412   2.436   0.259   0.512
 1171SOL    HW2 4413   2.317   0.266   0.400
 1172SOL     OW 4414   5.224   4.161   1.281
 1172SOL    HW1 4415   5.144   4.145   1.223
 1172SOL    HW2 4416   5.195   4.172   1.376
 1173SOL     OW 4417   2.162   1.330   1.651
 1173SOL    HW1 4418   2.236   1.314   1.586
 1173SOL    HW2 4419   2.139   1.244   1.696
 1174SOL     OW 4420   3.355   4.081   1.969
 1174SOL    HW1 4421   3.444   4.125   1.956
 1174SOL    HW2 4422   3.335   4.075   2.067
 1175SOL     OW 4423   4.733   3.232   5.578
 1175SOL    HW1 4424   4.775   3.300   5.519
 1175SOL    HW2 4425   4.665   3.181   5.526
 1176SOL     OW 4426   4.830   3.375   6.311
 1176SOL    HW1 4427   4.917   3.355   6.355
 1176SOL    HW2 4428   4.843   3.379   6.212
 1177SOL     OW 4429   6.911   3.799   4.881
 1177SOL    HW1 4430   6.994   3.840   4.842
 1177SOL    HW2 4431   6.937   3.717   4.933
 1178SOL     OW 4432   2.695   3.064   0.423
 1178SOL    HW1 4433   2.660   3.157   0.407
 1178SOL    HW2 4434   2.624   3.009   0.466
 1179SOL     OW 4435   2.454   5.552   0.313
 1179SOL    HW1 4436   2.512   5.579   0.390
 1179SOL    HW2 4437   2.413   5.633   0.272
 1180SOL     OW 4438   2.541   6.036   3.308
 1180SOL    HW1 4439   2.521   6.119   3.361
 1180SOL    HW2 4440   2.529   6.055   3.211
 1181SOL     OW 4441   0.636   5.290   5.713
 1181SOL    HW1 4442   0.647   5.227   5.636
 1181SOL    HW2 4443   0.543   5.282   5.749
 1182SOL     OW 4444   3.699   5.333   3.512
 1182SOL    HW1 4445   3.689   5.395   3.590
 1182SOL    HW2 4446   3.781   5.357   3.461
 1183SOL     OW 4447   2.215   4.357   0.336
 1183SOL    HW1 4448   2.277   4.287   0.300
 1183SOL    HW2 4449   2.124   4.319   0.349
 1184SOL     OW 4450   0.221   0.573   4.606
 1184SOL    HW1 4451   0.211   0.543   4.701
 1184SOL    HW2 4452   0.204   0.672   4.601
 1185SOL     OW 4453   0.208   1.192   0.404
 1185SOL    HW1 4454   0.117   1.232   0.397
 1185SOL    HW2 4455   0.276   1.264   0.413
 1186SOL     OW 4456   5.174   5.782   5.520
 1186SOL    HW1 4457   5.164   5.725   5.602
 1186SOL    HW2 4458   5.224   5.731   5.450
 1187SOL     OW 4459   6.290   6.573   6.759
 1187SOL    HW1 4460   6.347   6.562   6.840
 1187SOL    HW2 4461   6.314   6.657   6.712
 1188SOL     OW 4462   3.600   6.110   5.237
 1188SOL    HW1 4463   3.526   6.047   5.215
 1188SOL    HW2 4464   3.649   6.077   5.318
 1189SOL     OW 4465   6.625   2.512   2.907
 1189SOL    HW1 4466   6.567   2.590   2.930
 1189SOL    HW2 4467   6.568   2.434   2.881
 1190SOL     OW 4468   2.747   5.851   4.157
 1190SOL    HW1 4469   2.684   5.836   4.233
 1190SOL    HW2 4470   2.714   5.804   4.076
 1191SOL     OW 4471   4.696   5.101   3.687
 1191SOL    HW1 4472   4.730   5.023   3.740
 1191SOL    HW2 4473   4.612   5.074   3.638
 1192SOL     OW 4474   3.899   5.479   3.096
 1192SOL    HW1 4475   3.885   5.380   3.102
 1192SOL    HW2 4476   3.810   5.524   3.088
 1193SOL     OW 4477   6.382   3.307   4.592
 1193SOL    HW1 4478   6.438   3.338   4.669
 1193SOL    HW2 4479   6.420   3.221   4.557
 1194SOL     OW 4480   5.331   0.011   1.730
 1194SOL    HW1 4481   5.310   6.959   1.796
 1194SOL    HW2 4482   5.390   6.994   1.658
 1195SOL     OW 4483   6.607   4.263   1.349
 1195SOL    HW1 4484   6.686   4.229   1.401
 1195SOL    HW2 4485   6.635   4.343   1.295
 1196SOL     OW 4486   0.064   5.640   2.875
 1196SOL    HW1 4487   0.108   5.603   2.794
 1196SOL    HW2 4488   6.985   5.630   2.867
 1197SOL     OW 4489   4.444   0.722   5.636
 1197SOL    HW1 4490   4.443   0.756   5.730
 1197SOL    HW2 4491   4.353   0.691   5.610
 1198SOL     OW 4492   1.223   2.755   1.850
 1198SOL    HW1 4493   1.234   2.827   1.919
 1198SOL    HW2 4494   1.310   2.709   1.835
 1199SOL     OW 4495   4.142   4.701   1.857
 1199SOL    HW1 4496   4.218   4.637   1.840
 1199SOL    HW2 4497   4.127   4.709   1.955
 1200SOL     OW 4498   3.208   3.553   3.738
 1200SOL    HW1 4499   3.306   3.535   3.724
 1200SOL    HW2 4500   3.193   3.585   3.831
 1201SOL     OW 4501   1.214   0.628   4.726
 1201SOL    HW1 4502   1.207   0.569   4.646
 1201SOL    HW2 4503   1.127   0.674   4.742
 1202SOL     OW 4504   0.642   5.740   6.002
 1202SOL    HW1 4505   0.649   5.823   5.947
 1202SOL    HW2 4506   0.733   5.714   6.033
 1203SOL     OW 4507   5.886   6.473   0.082
 1203SOL    HW1 4508   5.865   6.388   0.032
 1203SOL    HW2 4509   5.810   6.495   0.144
 1204SOL     OW 4510   3.367   6.836   1.415
 1204SOL    HW1 4511   3.454   6.789   1.400
 1204SOL    HW2 4512   3.294   6.789   1.365
 1205SOL     OW 4513   5.475   3.575   1.280
 1205SOL    HW1 4514   5.544   3.504   1.289
 1205SOL    HW2 4515   5.482   3.639   1.356
 1206SOL     OW 4516   3.086   2.802   5.295
 1206SOL    HW1 4517   3.117   2.845   5.380
 1206SOL    HW2 4518   2.988   2.785   5.300
 1207SOL     OW 4519   2.313   6.352   1.586
 1207SOL    HW1 4520   2.384   6.401   1.635
 1207SOL    HW2 4521   2.233   6.410   1.575
 1208SOL     OW 4522   3.310   3.418   0.753
 1208SOL    HW1 4523   3.257   3.420   0.668
 1208SOL    HW2 4524   3.305   3.507   0.797
 1209SOL     OW 4525   4.374   0.932   4.572
 1209SOL    HW1 4526   4.404   1.003   4.636
 1209SOL    HW2 4527   4.275   0.920   4.580
 1210SOL     OW 4528   2.626   0.420   3.450
 1210SOL    HW1 4529   2.532   0.403   3.480
 1210SOL    HW2 4530   2.661   0.341   3.401
 1211SOL     OW 4531   1.315   3.476   1.794
 1211SOL    HW1 4532   1.250   3.402   1.776
 1211SOL    HW2 4533   1.314   3.499   1.891
 1212SOL     OW 4534   6.324   0.313   6.533
 1212SOL    HW1 4535   6.364   0.394   6.490
 1212SOL    HW2 4536   6.398   0.252   6.563
 1213SOL     OW 4537   6.706   2.074   0.749
 1213SOL    HW1 4538   6.728   2.144   0.818
 1213SOL    HW2 4539   6.655   2.116   0.674
 1214SOL     OW 4540   0.470   3.053   0.496
 1214SOL    HW1 4541   0.418   3.105   0.427
 1214SOL    HW2 4542   0.461   2.955   0.477
 1215SOL     OW 4543   1.490   4.222   3.719
 1215SOL    HW1 4544   1.423   4.285   3.678
 1215SOL    HW2 4545   1.542   4.270   3.789
 1216SOL     OW 4546   5.038   0.789   1.265
 1216SOL    HW1 4547   5.068   0.882   1.288
 1216SOL    HW2 4548   4.948   0.792   1.223
 1217SOL     OW 4549   1.242   4.905   0.468
 1217SOL    HW1 4550   1.209   4.999   0.459
 1217SOL    HW2 4551   1.334   4.898   0.430
 1218SOL     OW 4552   2.123   4.445   4.004
 1218SOL    HW1 4553   2.221   4.426   4.006
 1218SOL    HW2 4554   2.107   4.541   4.026
 1219SOL     OW 4555   5.868   5.457   1.605
 1219SOL    HW1 4556   5.890   5.387   1.537
 1219SOL    HW2 4557   5.948   5.474   1.662
 1220SOL     OW 4558   0.882   5.027   2.896
 1220SOL    HW1 4559   0.791   5.014   2.936
 1220SOL    HW2 4560   0.895   4.961   2.822
 1221SOL     OW 4561   5.384   3.753   6.110
 1221SOL    HW1 4562   5.294   3.713   6.095
 1221SOL    HW2 4563   5.426   3.775   6.022
 1222SOL     OW 4564   6.255   6.718   6.340
 1222SOL    HW1 4565   6.267   6.769   6.255
 1222SOL    HW2 4566   6.160   6.689   6.348
 1223SOL     OW 4567   3.902   0.853   0.494
 1223SOL    HW1 4568   3.808   0.868   0.461
 1223SOL    HW2 4569   3.900   0.837   0.592
 1224SOL     OW 4570   2.630   6.370   0.708
 1224SOL    HW1 4571   2.681   6.284   0.709
 1224SOL    HW2 4572   2.606   6.393   0.613
 1225SOL     OW 4573   3.760   3.850   6.388
 1225SOL    HW1 4574   3.715   3.935   6.416
 1225SOL    HW2 4575   3.829   3.870   6.318
 1226SOL     OW 4576   2.479   5.572   0.935
 1226SOL    HW1 4577   2.488   5.637   0.859
 1226SOL    HW2 4578   2.489   5.621   1.022
 1227SOL     OW 4579   6.810   3.791   6.967
 1227SOL    HW1 4580   6.803   3.888   6.989
 1227SOL    HW2 4581   6.728   3.744   7.000
 1228SOL     OW 4582   4.592   2.849   0.035
 1228SOL    HW1 4583   4.528   2.867   0.110
 1228SOL    HW2 4584   4.620   2.753   0.039
 1229SOL     OW 4585   3.406   4.607   6.133
 1229SOL    HW1 4586   3.500   4.585   6.104
 1229SOL    HW2 4587   3.387   4.703   6.114
 1230SOL     OW 4588   4.528   0.193   3.545
 1230SOL    HW1 4589   4.575   0.214   3.459
 1230SOL    HW2 4590   4.493   0.278   3.585
 1231SOL     OW 4591   1.635   3.835   4.319
 1231SOL    HW1 4592   1.685   3.749   4.323
 1231SOL    HW2 4593   1.553   3.828   4.376
 1232SOL     OW 4594   0.991   2.352   5.920
 1232SOL    HW1 4595   1.066   2.387   5.864
 1232SOL    HW2 4596   1.018   2.264   5.959
 1233SOL     OW 4597   0.923   3.096   4.468
 1233SOL    HW1 4598   1.004   3.043   4.440
 1233SOL    HW2 4599   0.937   3.192   4.445
 1234SOL     OW 4600   6.295   3.888   5.081
 1234SOL    HW1 4601   6.265   3.918   4.990
 1234SOL    HW2 4602   6.301   3.968   5.142
 1235SOL     OW 4603   6.979   5.934   2.574
 1235SOL    HW1 4604   0.041   5.985   2.548
 1235SOL    HW2 4605   6.955   5.870   2.501
 1236SOL     OW 4606   4.954   1.347   6.636
 1236SOL    HW1 4607   4.937   1.428   6.581
 1236SOL    HW2 4608   4.880   1.335   6.702
 1237SOL     OW 4609   2.832   5.141   6.249
 1237SOL    HW1 4610   2.799   5.086   6.326
 1237SOL    HW2 4611   2.900   5.207   6.282
 1238SOL     OW 4612   2.112   1.095   0.595
 1238SOL    HW1 4613   2.089   1.111   0.691
 1238SOL    HW2 4614   2.091   1.000   0.571
 1239SOL     OW 4615   6.933   6.430   6.410
 1239SOL    HW1 4616   0.002   6.386   6.425
 1239SOL    HW2 4617   6.867   6.361   6.382
 1240SOL     OW 4618   5.485   5.627   2.015
 1240SOL    HW1 4619   5.522   5.538   1.988
 1240SOL    HW2 4620   5.548   5.672   2.078
 1241SOL     OW 4621   6.346   3.889   4.120
 1241SOL    HW1 4622   6.278   3.816   4.126
 1241SOL    HW2 4623   6.362   3.926   4.212
 1242SOL     OW 4624   1.134   3.790   1.173
 1242SOL    HW1 4625   1.223   3.749   1.151
 1242SOL    HW2 4626   1.081   3.726   1.230
 1243SOL     OW 4627   1.062   6.592   5.213
 1243SOL    HW1 4628   1.070   6.530   5.135
 1243SOL    HW2 4629   0.969   6.629   5.216
 1244SOL     OW 4630   0.179   5.996   3.690
 1244SOL    HW1 4631   0.143   6.086   3.668
 1244SOL    HW2 4632   0.277   6.001   3.707
 1245SOL     OW 4633   4.625   4.033   6.406
 1245SOL    HW1 4634   4.554   3.965   6.388
 1245SOL    HW2 4635   4.715   3.990   6.398
 1246SOL     OW 4636   2.458   6.272   2.238
 1246SOL    HW1 4637   2.359   6.282   2.241
 1246SOL    HW2 4638   2.499   6.360   2.211
 1247SOL     OW 4639   2.606   0.320   6.838
 1247SOL    HW1 4640   2.556   0.331   6.752
 1247SOL    HW2 4641   2.694   0.368   6.832
 1248SOL     OW 4642   2.391   6.872   4.432
 1248SOL    HW1 4643   2.396   6.801   4.502
 1248SOL    HW2 4644   2.340   6.838   4.353
 1249SOL     OW 4645   5.687   2.425   2.261
 1249SOL    HW1 4646   5.786   2.432   2.260
 1249SOL    HW2 4647   5.660   2.329   2.269
 1250SOL     OW 4648   6.872   4.528   4.777
 1250SOL    HW1 4649   6.806   4.599   4.751
 1250SOL    HW2 4650   6.922   4.556   4.859
 1251SOL     OW 4651   3.259   0.274   4.623
 1251SOL    HW1 4652   3.294   0.276   4.716
 1251SOL    HW2 4653   3.331   0.301   4.559
 1252SOL     OW 4654   3.698   3.678   6.110
 1252SOL    HW1 4655   3.727   3.597   6.161
 1252SOL    HW2 4656   3.768   3.749   6.117
 1253SOL     OW 4657   3.598   5.771   1.711
 1253SOL    HW1 4658   3.624   5.802   1.802
 1253SOL    HW2 4659   3.596   5.849   1.648
 1254SOL     OW 4660   6.320   3.242   2.589
 1254SOL    HW1 4661   6.349   3.149   2.567
 1254SOL    HW2 4662   6.259   3.276   2.517
 1255SOL     OW 4663   6.758   1.480   4.412
 1255SOL    HW1 4664   6.816   1.527   4.346
 1255SOL    HW2 4665   6.811   1.461   4.495
 1256SOL     OW 4666   6.921   6.841   2.700
 1256SOL    HW1 4667   6.999   6.844   2.762
 1256SOL    HW2 4668   6.879   6.751   2.703
 1257SOL     OW 4669   6.978   6.761   3.390
 1257SOL    HW1 4670   7.015   6.766   3.483
 1257SOL    HW2 4671   0.034   6.758   3.325
 1258SOL     OW 4672   0.250   5.068   3.449
 1258SOL    HW1 4673   0.313   5.015   3.392
 1258SOL    HW2 4674   0.267   5.046   3.545
 1259SOL     OW 4675   3.518   2.088   4.483
 1259SOL    HW1 4676   3.582   2.162   4.461
 1259SOL    HW2 4677   3.431   2.105   4.438
 1260SOL     OW 4678   1.036   1.891   6.606
 1260SOL    HW1 4679   1.093   1.823   6.560
 1260SOL    HW2 4680   1.089   1.936   6.677
 1261SOL     OW 4681   0.132   5.890   6.458
 1261SOL    HW1 4682   0.156   5.852   6.547
 1261SOL    HW2 4683   0.198   5.961   6.432
 1262SOL     OW 4684   5.536   5.090   2.221
 1262SOL    HW1 4685   5.599   5.076   2.145
 1262SOL    HW2 4686   5.449   5.044   2.201
 1263SOL     OW 4687   0.247   1.189   2.827
 1263SOL    HW1 4688   0.322   1.144   2.779
 1263SOL    HW2 4689   0.229   1.278   2.785
 1264SOL     OW 4690   0.788   3.541   6.532
 1264SOL    HW1 4691   0.776   3.486   6.615
 1264SOL    HW2 4692   0.885   3.548   6.510
 1265SOL     OW 4693   6.749   5.419   4.706
 1265SOL    HW1 4694   6.747   5.319   4.706
 1265SOL    HW2 4695   6.730   5.453   4.613
 1266SOL     OW 4696   0.626   0.568   4.219
 1266SOL    HW1 4697   0.603   0.537   4.126
 1266SOL    HW2 4698   0.555   0.536   4.283
 1267SOL     OW 4699   5.087   0.861   2.083
 1267SOL    HW1 4700   5.020   0.858   2.009
 1267SOL    HW2 4701   5.179   0.848   2.045
 1268SOL     OW 4702   3.480   2.534   5.950
 1268SOL    HW1 4703   3.460   2.574   5.860
 1268SOL    HW2 4704   3.395   2.505   5.993
 1269SOL     OW 4705   5.288   2.761   4.172
 1269SOL    HW1 4706   5.281   2.802   4.082
 1269SOL    HW2 4707   5.375   2.786   4.214
 1270SOL     OW 4708   1.936   4.801   1.982
 1270SOL    HW1 4709   1.992   4.735   2.032
 1270SOL    HW2 4710   1.845   4.763   1.966
 1271SOL     OW 4711   2.813   0.769   1.460
 1271SOL    HW1 4712   2.733   0.810   1.502
 1271SOL    HW2 4713   2.798   0.758   1.362
 1272SOL     OW 4714   6.488   4.291   6.177
 1272SOL    HW1 4715   6.406   4.312   6.230
 1272SOL    HW2 4716   6.501   4.192   6.173
 1273SOL     OW 4717   1.952   3.995   5.062
 1273SOL    HW1 4718   1.969   3.944   4.978
 1273SOL    HW2 4719   2.031   3.987   5.123
 1274SOL     OW 4720   0.486   4.516   1.475
 1274SOL    HW1 4721   0.546   4.496   1.552
 1274SOL    HW2 4722   0.419   4.586   1.501
 1275SOL     OW 4723   2.668   0.072   3.474
 1275SOL    HW1 4724   2.601   0.017   3.423
 1275SOL    HW2 4725   2.625   0.108   3.556
 1276SOL     OW 4726   5.529   4.762   4.658
 1276SOL    HW1 4727   5.505   4.830   4.727
 1276SOL    HW2 4728   5.450   4.747   4.597
 1277SOL     OW 4729   1.436   5.042   6.962
 1277SOL    HW1 4730   1.371   5.114   6.986
 1277SOL    HW2 4731   1.393   4.981   6.895
 1278SOL     OW 4732   1.174   0.138   4.060
 1278SOL    HW1 4733   1.223   0.188   4.131
 1278SOL    HW2 4734   1.228   0.059   4.031
 1279SOL     OW 4735   2.000   3.601   5.945
 1279SOL    HW1 4736   1.944   3.612   6.027
 1279SOL    HW2 4737   1.944   3.618   5.864
 1280SOL     OW 4738   3.331   0.413   3.778
 1280SOL    HW1 4739   3.292   0.368   3.697
 1280SOL    HW2 4740   3.363   0.504   3.754
 1281SOL     OW 4741   3.012   5.952   4.161
 1281SOL    HW1 4742   2.913   5.938   4.155
 1281SOL    HW2 4743   3.059   5.870   4.130
 1282SOL     OW 4744   0.383   2.610   0.532
 1282SOL    HW1 4745   0.459   2.549   0.554
 1282SOL    HW2 4746   0.391   2.695   0.584
 1283SOL     OW 4747   6.558   4.265   5.113
 1283SOL    HW1 4748   6.484   4.199   5.127
 1283SOL    HW2 4749   6.544   4.344   5.172
 1284SOL     OW 4750   3.667   0.529   1.138
 1284SOL    HW1 4751   3.661   0.435   1.169
 1284SOL    HW2 4752   3.588   0.580   1.170
 1285SOL     OW 4753   3.909   1.427   5.593
 1285SOL    HW1 4754   4.006   1.451   5.604
 1285SOL    HW2 4755   3.856   1.510   5.574
 1286SOL     OW 4756   4.813   2.965   0.872
 1286SOL    HW1 4757   4.721   2.953   0.909
 1286SOL    HW2 4758   4.808   2.977   0.772
 1287SOL     OW 4759   5.166   4.679   5.315
 1287SOL    HW1 4760   5.076   4.658   5.276
 1287SOL    HW2 4761   5.156   4.747   5.388
 1288SOL     OW 4762   4.456   4.514   5.855
 1288SOL    HW1 4763   4.374   4.473   5.893
 1288SOL    HW2 4764   4.440   4.610   5.835
 1289SOL     OW 4765   6.611   0.496   1.909
 1289SOL    HW1 4766   6.537   0.429   1.916
 1289SOL    HW2 4767   6.690   0.453   1.865
 1290SOL     OW 4768   1.192   0.379   0.973
 1290SOL    HW1 4769   1.185   0.300   1.035
 1290SOL    HW2 4770   1.228   0.457   1.023
 1291SOL     OW 4771   6.263   4.759   4.505
 1291SOL    HW1 4772   6.255   4.837   4.567
 1291SOL    HW2 4773   6.339   4.773   4.442
 1292SOL     OW 4774   0.440   5.763   2.140
 1292SOL    HW1 4775   0.522   5.758   2.196
 1292SOL    HW2 4776   0.377   5.691   2.167
 1293SOL     OW 4777   2.151   2.109   0.383
 1293SOL    HW1 4778   2.241   2.116   0.424
 1293SOL    HW2 4779   2.159   2.065   0.293
 1294SOL     OW 4780   1.561   3.962   6.459
 1294SOL    HW1 4781   1.620   3.915   6.393
 1294SOL    HW2 4782   1.598   3.952   6.551
 1295SOL     OW 4783   0.131   3.873   1.115
 1295SOL    HW1 4784   0.150   3.838   1.207
 1295SOL    HW2 4785   0.187   3.825   1.048
 1296SOL     OW 4786   4.931   0.146   5.732
 1296SOL    HW1 4787   4.921   0.161   5.634
 1296SOL    HW2 4788   4.875   0.067   5.759
 1297SOL     OW 4789   1.009   6.401   1.642
 1297SOL    HW1 4790   1.043   6.364   1.556
 1297SOL    HW2 4791   0.915   6.434   1.630
 1298SOL     OW 4792   5.132   6.323   3.371
 1298SOL    HW1 4793   5.040   6.297   3.399
 1298SOL    HW2 4794   5.162   6.402   3.424
 1299SOL     OW 4795   1.992   3.004   4.002
 1299SOL    HW1 4796   1.993   3.096   3.962
 1299SOL    HW2 4797   2.077   2.957   3.980
 1300SOL     OW 4798   1.729   3.546   1.270
 1300SOL    HW1 4799   1.702   3.591   1.356
 1300SOL    HW2 4800   1.814   3.495   1.284
 1301SOL     OW 4801   0.777   0.026   1.954
 1301SOL    HW1 4802   0.857   0.015   2.014
 1301SOL    HW2 4803   0.801   0.085   1.877
 1302SOL     OW 4804   5.660   0.349   5.425
 1302SOL    HW1 4805   5.661   0.251   5.448
 1302SOL    HW2 4806   5.628   0.402   5.503
 1303SOL     OW 4807   4.264   0.362   1.720
 1303SOL    HW1 4808   4.272   0.446   1.773
 1303SOL    HW2 4809   4.299   0.376   1.628
 1304SOL     OW 4810   1.597   1.193   1.070
 1304SOL    HW1 4811   1.618   1.230   0.979
 1304SOL    HW2 4812   1.633   1.256   1.139
 1305SOL     OW 4813   5.299   4.544   6.079
 1305SOL    HW1 4814   5.217   4.584   6.120
 1305SOL    HW2 4815   5.376   4.607   6.090
 1306SOL     OW 4816   0.741   5.744   4.501
 1306SOL    HW1 4817   0.706   5.778   4.588
 1306SOL    HW2 4818   0.802   5.813   4.460
 1307SOL     OW 4819   1.803   3.248   3.724
 1307SOL    HW1 4820   1.779   3.331   3.775
 1307SOL    HW2 4821   1.737   3.176   3.744
 1308SOL     OW 4822   6.409   6.446   6.059
 1308SOL    HW1 4823   6.420   6.468   6.156
 1308SOL    HW2 4824   6.485   6.388   6.030
 1309SOL     OW 4825   5.419   4.698   5.703
 1309SOL    HW1 4826   5.330   4.654   5.715
 1309SOL    HW2 4827   5.482   4.634   5.658
 1310SOL     OW 4828   0.658   3.961   4.052
 1310SOL    HW1 4829   0.652   4.060   4.066
 1310SOL    HW2 4830   0.571   3.928   4.015
 1311SOL     OW 4831   6.462   5.603   6.159
 1311SOL    HW1 4832   6.434   5.637   6.250
 1311SOL    HW2 4833   6.381   5.592   6.102
 1312SOL     OW 4834   1.778   0.903   6.502
 1312SOL    HW1 4835   1.869   0.915   6.463
 1312SOL    HW2 4836   1.728   0.833   6.450
 1313SOL     OW 4837   6.690   5.293   2.664
 1313SOL    HW1 4838   6.595   5.320   2.681
 1313SOL    HW2 4839   6.716   5.221   2.729
 1314SOL     OW 4840   2.929   1.899   4.410
 1314SOL    HW1 4841   2.994   1.847   4.355
 1314SOL    HW2 4842   2.856   1.935   4.352
 1315SOL     OW 4843   0.041   0.594   3.682
 1315SOL    HW1 4844   7.018   0.638   3.603
 1315SOL    HW2 4845   0.023   0.649   3.764
 1316SOL     OW 4846   4.053   0.291   4.982
 1316SOL    HW1 4847   4.002   0.374   4.959
 1316SOL    HW2 4848   4.079   0.244   4.897
 1317SOL     OW 4849   2.212   4.778   5.672
 1317SOL    HW1 4850   2.113   4.765   5.662
 1317SOL    HW2 4851   2.260   4.701   5.630
 1318SOL     OW 4852   1.634   2.876   6.545
 1318SOL    HW1 4853   1.647   2.865   6.446
 1318SOL    HW2 4854   1.654   2.789   6.591
 1319SOL     OW 4855   0.343   5.986   6.915
 1319SOL    HW1 4856   0.412   6.030   6.973
 1319SOL    HW2 4857   0.255   5.985   6.963
 1320SOL     OW 4858   3.212   3.137   6.578
 1320SOL    HW1 4859   3.218   3.048   6.532
 1320SOL    HW2 4860   3.116   3.165   6.582
 1321SOL     OW 4861   4.820   2.305   6.753
 1321SOL    HW1 4862   4.873   2.280   6.673
 1321SOL    HW2 4863   4.725   2.325   6.726
 1322SOL     OW 4864   3.527   1.312   4.418
 1322SOL    HW1 4865   3.502   1.237   4.356
 1322SOL    HW2 4866   3.579   1.275   4.494
 1323SOL     OW 4867   3.590   6.584   0.907
 1323SOL    HW1 4868   3.505   6.606   0.859
 1323SOL    HW2 4869   3.657   6.657   0.894
 1324SOL     OW 4870   0.999   3.600   0.235
 1324SOL    HW1 4871   1.048   3.525   0.279
 1324SOL    HW2 4872   0.941   3.646   0.303
 1325SOL     OW 4873   4.018   6.498   5.332
 1325SOL    HW1 4874   3.945   6.496   5.264
 1325SOL    HW2 4875   4.086   6.428   5.311
 1326SOL     OW 4876   4.628   4.295   5.213
 1326SOL    HW1 4877   4.617   4.335   5.122
 1326SOL    HW2 4878   4.672   4.205   5.206
 1327SOL     OW 4879   0.386   6.337   0.848
 1327SOL    HW1 4880   0.423   6.365   0.760
 1327SOL    HW2 4881   0.438   6.381   0.921
 1328SOL     OW 4882   1.375   3.271   5.911
 1328SOL    HW1 4883   1.467   3.242   5.939
 1328SOL    HW2 4884   1.317   3.279   5.992
 1329SOL     OW 4885   0.233   1.715   2.795
 1329SOL    HW1 4886   0.157   1.732   2.858
 1329SOL    HW2 4887   0.236   1.618   2.772
 1330SOL     OW 4888   0.300   2.065   0.809
 1330SOL    HW1 4889   0.379   2.123   0.790
 1330SOL    HW2 4890   0.291   2.051   0.907
 1331SOL     OW 4891   4.696   2.370   2.557
 1331SOL    HW1 4892   4.654   2.458   2.534
 1331SOL    HW2 4893   4.649   2.331   2.636
 1332SOL     OW 4894   2.203   6.676   0.261
 1332SOL    HW1 4895   2.122   6.618   0.252
 1332SOL    HW2 4896   2.216   6.700   0.358
 1333SOL     OW 4897   3.109   3.972   3.065
 1333SOL    HW1 4898   3.110   4.037   2.989
 1333SOL    HW2 4899   3.163   3.891   3.042
 1334SOL     OW 4900   6.934   2.220   3.598
 1334SOL    HW1 4901   7.011   2.231   3.661
 1334SOL    HW2 4902   6.881   2.304   3.594
 1335SOL     OW 4903   1.755   2.102   2.385
 1335SOL    HW1 4904   1.776   2.004   2.379
 1335SOL    HW2 4905   1.683   2.124   2.319
 1336SOL     OW 4906   4.117   1.756   5.622
 1336SOL    HW1 4907   4.017   1.749   5.624
 1336SOL    HW2 4908   4.157   1.665   5.609
 1337SOL     OW 4909   6.623   1.464   2.663
 1337SOL    HW1 4910   6.540   1.489   2.713
 1337SOL    HW2 4911   6.625   1.365   2.651
 1338SOL     OW 4912   6.081   4.407   4.340
 1338SOL    HW1 4913   6.101   4.466   4.418
 1338SOL    HW2 4914   6.053   4.317   4.373
 1339SOL     OW 4915   6.885   0.375   6.984
 1339SOL    HW1 4916   6.821   0.374   0.040
 1339SOL    HW2 4917   6.947   0.297   6.992
 1340SOL     OW 4918   5.347   2.006   2.844
 1340SOL    HW1 4919   5.257   2.043   2.820
 1340SOL    HW2 4920   5.414   2.034   2.774
 1341SOL     OW 4921   4.214   6.244   0.466
 1341SOL    HW1 4922   4.303   6.277   0.498
 1341SOL    HW2 4923   4.227   6.169   0.401
 1342SOL     OW 4924   3.207   5.156   6.558
 1342SOL    HW1 4925   3.287   5.117   6.604
 1342SOL    HW2 4926   3.237   5.210   6.480
 1343SOL     OW 4927   6.025   5.319   3.033
 1343SOL    HW1 4928   6.006   5.328   3.131
 1343SOL    HW2 4929   6.008   5.225   3.004
 1344SOL     OW 4930   0.976   6.479   4.365
 1344SOL    HW1 4931   0.951   6.436   4.278
 1344SOL    HW2 4932   0.919   6.441   4.438
 1345SOL     OW 4933   1.064   4.534   2.078
 1345SOL    HW1 4934   1.061   4.455   2.138
 1345SOL    HW2 4935   0.995   4.601   2.107
 1346SOL     OW 4936   1.710   5.331   6.254
 1346SOL    HW1 4937   1.732   5.286   6.340
 1346SOL    HW2 4938   1.633   5.394   6.268
 1347SOL     OW 4939   1.934   0.084   6.430
 1347SOL    HW1 4940   1.917   7.011   6.465
 1347SOL    HW2 4941   1.942   0.081   6.331
 1348SOL     OW 4942   0.197   6.190   5.183
 1348SOL    HW1 4943   0.180   6.221   5.277
 1348SOL    HW2 4944   0.182   6.265   5.120
 1349SOL     OW 4945   5.605   2.523   4.003
 1349SOL    HW1 4946   5.599   2.424   4.015
 1349SOL    HW2 4947   5.542   2.551   3.930
 1350SOL     OW 4948   4.249   5.005   0.152
 1350SOL    HW1 4949   4.238   5.084   0.213
 1350SOL    HW2 4950   4.171   4.944   0.163
 1351SOL     OW 4951   5.773   2.362   3.807
 1351SOL    HW1 4952   5.766   2.454   3.844
 1351SOL    HW2 4953   5.687   2.313   3.820
 1352SOL     OW 4954   6.842   6.581   2.850
 1352SOL    HW1 4955   6.788   6.498   2.861
 1352SOL    HW2 4956   6.842   6.633   2.936
 1353SOL     OW 4957   0.976   1.904   0.216
 1353SOL    HW1 4958   0.895   1.895   0.157
 1353SOL    HW2 4959   0.964   1.984   0.275
 1354SOL     OW 4960   7.016   3.310   2.405
 1354SOL    HW1 4961   6.988   3.230   2.352
 1354SOL    HW2 4962   6.937   3.344   2.457
 1355SOL     OW 4963   6.049   3.435   4.260
 1355SOL    HW1 4964   5.973   3.370   4.272
 1355SOL    HW2 4965   6.136   3.387   4.272
 1356SOL     OW 4966   3.406   2.827   2.012
 1356SOL    HW1 4967   3.496   2.792   1.985
 1356SOL    HW2 4968   3.386   2.798   2.106
 1357SOL     OW 4969   6.485   4.020   6.148
 1357SOL    HW1 4970   6.576   3.980   6.155
 1357SOL    HW2 4971   6.418   3.947   6.136
 1358SOL     OW 4972   5.886   0.097   0.458
 1358SOL    HW1 4973   5.869   0.191   0.488
 1358SOL    HW2 4974   5.973   0.094   0.407
 1359SOL     OW 4975   6.879   4.861   2.232
 1359SOL    HW1 4976   6.932   4.909   2.162
 1359SOL    HW2 4977   6.853   4.771   2.198
 1360SOL     OW 4978   3.578   3.531   0.026
 1360SOL    HW1 4979   3.675   3.516   0.006
 1360SOL    HW2 4980   3.555   3.627   0.012
 1361SOL     OW 4981   0.081   4.613   5.027
 1361SOL    HW1 4982   0.028   4.658   5.099
 1361SOL    HW2 4983   0.086   4.515   5.045
 1362SOL     OW 4984   3.737   3.586   2.572
 1362SOL    HW1 4985   3.820   3.548   2.532
 1362SOL    HW2 4986   3.657   3.551   2.522
 1363SOL     OW 4987   0.145   4.835   4.331
 1363SOL    HW1 4988   0.134   4.860   4.427
 1363SOL    HW2 4989   0.222   4.886   4.292
 1364SOL     OW 4990   4.432   4.293   0.222
 1364SOL    HW1 4991   4.530   4.312   0.232
 1364SOL    HW2 4992   4.419   4.197   0.197
 1365SOL     OW 4993   0.291   4.460   6.723
 1365SOL    HW1 4994   0.378   4.416   6.743
 1365SOL    HW2 4995   0.261   4.435   6.631
 1366SOL     OW 4996   1.922   6.855   5.861
 1366SOL    HW1 4997   1.914   6.847   5.960
 1366SOL    HW2 4998   1.994   6.793   5.828
 1367SOL     OW 4999   1.762   1.440   2.286
 1367SOL    HW1 5000   1.735   1.455   2.382
 1367SOL    HW2 5001   1.742   1.522   2.233
 1368SOL     OW 5002   5.690   6.718   4.791
 1368SOL    HW1 5003   5.669   6.666   4.708
 1368SOL    HW2 5004   5.691   6.657   4.870
 1369SOL     OW 5005   1.512   6.257   3.169
 1369SOL    HW1 5006   1.584   6.288   3.232
 1369SOL    HW2 5007   1.534   6.286   3.076
 1370SOL     OW 5008   3.590   1.146   1.569
 1370SOL    HW1 5009   3.648   1.098   1.634
 1370SOL    HW2 5010   3.563   1.084   1.496
 1371SOL     OW 5011   4.298   1.375   4.709
 1371SOL    HW1 5012   4.348   1.411   4.631
 1371SOL    HW2 5013   4.216   1.430   4.725
 1372SOL     OW 5014   1.767   2.713   1.192
 1372SOL    HW1 5015   1.686   2.665   1.228
 1372SOL    HW2 5016   1.847   2.654   1.200
 1373SOL     OW 5017   0.025   4.704   0.481
 1373SOL    HW1 5018   0.084   4.634   0.523
 1373SOL    HW2 5019   0.042   4.792   0.525
 1374SOL     OW 5020   4.381   2.230   0.856
 1374SOL    HW1 5021   4.377   2.132   0.837
 1374SOL    HW2 5022   4.291   2.270   0.840
 1375SOL     OW 5023   0.146   5.064   5.348
 1375SOL    HW1 5024   0.239   5.100   5.349
 1375SOL    HW2 5025   0.109   5.069   5.255
 1376SOL     OW 5026   4.520   2.576   3.892
 1376SOL    HW1 5027   4.477   2.535   3.972
 1376SOL    HW2 5028   4.476   2.539   3.809
 1377SOL     OW 5029   0.575   4.576   5.169
 1377SOL    HW1 5030   0.576   4.570   5.269
 1377SOL    HW2 5031   0.660   4.618   5.138
 1378SOL     OW 5032   1.397   2.536   6.191
 1378SOL    HW1 5033   1.476   2.487   6.228
 1378SOL    HW2 5034   1.335   2.472   6.147
 1379SOL     OW 5035   3.261   5.994   3.290
 1379SOL    HW1 5036   3.213   6.076   3.258
 1379SOL    HW2 5037   3.216   5.959   3.372
 1380SOL     OW 5038   6.464   6.825   2.263
 1380SOL    HW1 5039   6.512   6.759   2.320
 1380SOL    HW2 5040   6.529   6.872   2.203
 1381SOL     OW 5041   5.876   3.144   0.346
 1381SOL    HW1 5042   5.795   3.202   0.336
 1381SOL    HW2 5043   5.899   3.134   0.442
 1382SOL     OW 5044   6.119   5.366   5.985
 1382SOL    HW1 5045   6.027   5.345   6.020
 1382SOL    HW2 5046   6.186   5.351   6.058
 1383SOL     OW 5047   0.328   0.668   0.138
 1383SOL    HW1 5048   0.301   0.753   0.184
 1383SOL    HW2 5049   0.339   0.595   0.206
 1384SOL     OW 5050   3.642   1.033   3.384
 1384SOL    HW1 5051   3.732   1.042   3.341
 1384SOL    HW2 5052   3.585   1.112   3.360
 1385SOL     OW 5053   6.419   2.909   3.104
 1385SOL    HW1 5054   6.381   2.975   3.039
 1385SOL    HW2 5055   6.356   2.898   3.180
 1386SOL     OW 5056   2.009   3.067   4.372
 1386SOL    HW1 5057   1.976   3.030   4.285
 1386SOL    HW2 5058   2.003   2.997   4.443
 1387SOL     OW 5059   3.638   0.379   4.834
 1387SOL    HW1 5060   3.579   0.451   4.797
 1387SOL    HW2 5061   3.698   0.418   4.904
 1388SOL     OW 5062   6.601   0.765   4.105
 1388SOL    HW1 5063   6.611   0.758   4.204
 1388SOL    HW2 5064   6.509   0.798   4.083
 1389SOL     OW 5065   6.032   6.977   4.243
 1389SOL    HW1 5066   6.021   6.900   4.180
 1389SOL    HW2 5067   6.010   0.042   4.195
 1390SOL     OW 5068   4.735   1.523   1.503
 1390SOL    HW1 5069   4.646   1.498   1.466
 1390SOL    HW2 5070   4.728   1.608   1.554
 1391SOL     OW 5071   6.694   0.496   4.522
 1391SOL    HW1 5072   6.755   0.462   4.594
 1391SOL    HW2 5073   6.694   0.433   4.445
 1392SOL     OW 5074   4.270   5.888   6.329
 1392SOL    HW1 5075   4.320   5.810   6.289
 1392SOL    HW2 5076   4.261   5.960   6.261
 1393SOL     OW 5077   6.571   1.664   6.484
 1393SOL    HW1 5078   6.606   1.576   6.516
 1393SOL    HW2 5079   6.526   1.651   6.396
 1394SOL     OW 5080   4.103   6.857   3.500
 1394SOL    HW1 5081   4.146   6.899   3.420
 1394SOL    HW2 5082   4.060   6.927   3.555
 1395SOL     OW 5083   1.373   5.176   2.887
 1395SOL    HW1 5084   1.394   5.225   2.972
 1395SOL    HW2 5085   1.302   5.108   2.905
 1396SOL     OW 5086   2.155   1.425   4.661
 1396SOL    HW1 5087   2.093   1.464   4.593
 1396SOL    HW2 5088   2.243   1.472   4.657
 1397SOL     OW 5089   0.481   4.854   4.565
 1397SOL    HW1 5090   0.421   4.813   4.633
 1397SOL    HW2 5091   0.459   4.951   4.556
 1398SOL     OW 5092   0.917   1.643   0.618
 1398SOL    HW1 5093   0.987   1.672   0.553
 1398SOL    HW2 5094   0.921   1.702   0.699
 1399SOL     OW 5095   3.580   0.335   0.714
 1399SOL    HW1 5096   3.524   0.412   0.686
 1399SOL    HW2 5097   3.633   0.359   0.795
 1400SOL     OW 5098   6.282   0.854   4.622
 1400SOL    HW1 5099   6.198   0.814   4.585
 1400SOL    HW2 5100   6.346   0.781   4.646
 1401SOL     OW 5101   5.458   0.709   3.467
 1401SOL    HW1 5102   5.517   0.640   3.509
 1401SOL    HW2 5103   5.461   0.700   3.368
 1402SOL     OW 5104   5.846   3.780   1.421
 1402SOL    HW1 5105   5.791   3.812   1.497
 1402SOL    HW2 5106   5.796   3.794   1.335
 1403SOL     OW 5107   3.620   2.951   6.996
 1403SOL    HW1 5108   3.699   2.915   6.947
 1403SOL    HW2 5109   3.594   3.040   6.958
 1404SOL     OW 5110   4.349   0.020   0.931
 1404SOL    HW1 5111   4.446   0.017   0.907
 1404SOL    HW2 5112   4.317   0.114   0.933
 1405SOL     OW 5113   2.083   3.330   1.087
 1405SOL    HW1 5114   2.040   3.242   1.069
 1405SOL    HW2 5115   2.180   3.316   1.106
 1406SOL     OW 5116   2.438   3.113   0.925
 1406SOL    HW1 5117   2.349   3.120   0.881
 1406SOL    HW2 5118   2.426   3.083   1.020
 1407SOL     OW 5119   0.676   3.049   1.517
 1407SOL    HW1 5120   0.725   3.069   1.433
 1407SOL    HW2 5121   0.713   3.104   1.592
 1408SOL     OW 5122   5.604   5.880   6.503
 1408SOL    HW1 5123   5.554   5.922   6.428
 1408SOL    HW2 5124   5.653   5.950   6.554
 1409SOL     OW 5125   6.897   0.992   5.852
 1409SOL    HW1 5126   6.981   1.045   5.867
 1409SOL    HW2 5127   6.868   0.951   5.939
 1410SOL     OW 5128   2.994   2.505   5.666
 1410SOL    HW1 5129   3.011   2.528   5.570
 1410SOL    HW2 5130   2.982   2.406   5.675
 1411SOL     OW 5131   3.893   5.826   0.046
 1411SOL    HW1 5132   3.962   5.893   0.073
 1411SOL    HW2 5133   3.837   5.803   0.125
 1412SOL     OW 5134   1.401   2.342   0.831
 1412SOL    HW1 5135   1.348   2.276   0.885
 1412SOL    HW2 5136   1.446   2.294   0.755
 1413SOL     OW 5137   1.670   1.608   5.290
 1413SOL    HW1 5138   1.635   1.592   5.382
 1413SOL    HW2 5139   1.664   1.523   5.237
 1414SOL     OW 5140   0.968   3.344   1.953
 1414SOL    HW1 5141   0.878   3.323   1.992
 1414SOL    HW2 5142   1.039   3.306   2.013
 1415SOL     OW 5143   2.645   1.907   3.433
 1415SOL    HW1 5144   2.650   1.810   3.413
 1415SOL    HW2 5145   2.596   1.954   3.360
 1416SOL     OW 5146   4.126   0.038   6.086
 1416SOL    HW1 5147   4.086   0.106   6.024
 1416SOL    HW2 5148   4.064   0.023   6.163
 1417SOL     OW 5149   3.670   2.842   6.265
 1417SOL    HW1 5150   3.587   2.897   6.271
 1417SOL    HW2 5151   3.655   2.754   6.311
 1418SOL     OW 5152   3.702   3.843   0.094
 1418SOL    HW1 5153   3.692   3.942   0.103
 1418SOL    HW2 5154   3.631   3.807   0.035
 1419SOL     OW 5155   2.011   5.190   3.483
 1419SOL    HW1 5156   2.056   5.194   3.571
 1419SOL    HW2 5157   1.914   5.169   3.496
 1420SOL     OW 5158   3.534   5.165   3.108
 1420SOL    HW1 5159   3.600   5.240   3.105
 1420SOL    HW2 5160   3.445   5.198   3.077
 1421SOL     OW 5161   0.883   5.582   6.101
 1421SOL    HW1 5162   0.806   5.538   6.054
 1421SOL    HW2 5163   0.969   5.555   6.057
 1422SOL     OW 5164   2.601   3.531   5.867
 1422SOL    HW1 5165   2.607   3.486   5.777
 1422SOL    HW2 5166   2.640   3.623   5.861
 1423SOL     OW 5167   4.658   0.756   4.622
 1423SOL    HW1 5168   4.654   0.812   4.704
 1423SOL    HW2 5169   4.626   0.809   4.544
 1424SOL     OW 5170   5.693   3.218   6.483
 1424SOL    HW1 5171   5.687   3.245   6.387
 1424SOL    HW2 5172   5.736   3.128   6.490
 1425SOL     OW 5173   3.935   6.751   3.995
 1425SOL    HW1 5174   3.971   6.658   4.005
 1425SOL    HW2 5175   3.871   6.754   3.918
 1426SOL     OW 5176   2.751   1.928   6.929
 1426SOL    HW1 5177   2.731   1.941   0.006
 1426SOL    HW2 5178   2.828   1.865   6.919
 1427SOL     OW 5179   0.908   1.321   3.041
 1427SOL    HW1 5180   0.899   1.412   3.081
 1427SOL    HW2 5181   0.992   1.279   3.073
 1428SOL     OW 5182   6.681   3.429   3.717
 1428SOL    HW1 5183   6.770   3.455   3.680
 1428SOL    HW2 5184   6.650   3.496   3.783
 1429SOL     OW 5185   6.124   1.382   0.573
 1429SOL    HW1 5186   6.094   1.415   0.483
 1429SOL    HW2 5187   6.220   1.404   0.587
 1430SOL     OW 5188   2.200   3.192   3.443
 1430SOL    HW1 5189   2.250   3.119   3.397
 1430SOL    HW2 5190   2.179   3.166   3.537
 1431SOL     OW 5191   2.297   1.492   6.341
 1431SOL    HW1 5192   2.379   1.457   6.386
 1431SOL    HW2 5193   2.268   1.577   6.385
 1432SOL     OW 5194   2.933   1.205   1.157
 1432SOL    HW1 5195   3.032   1.216   1.164
 1432SOL    HW2 5196   2.888   1.273   1.215
 1433SOL     OW 5197   2.887   0.371   4.484
 1433SOL    HW1 5198   2.854   0.369   4.389
 1433SOL    HW2 5199   2.939   0.288   4.503
 1434SOL     OW 5200   6.844   3.013   6.972
 1434SOL    HW1 5201   6.824   2.963   0.036
 1434SOL    HW2 5202   6.770   3.077   6.952
 1435SOL     OW 5203   0.861   0.186   5.110
 1435SOL    HW1 5204   0.763   0.164   5.111
 1435SOL    HW2 5205   0.901   0.156   5.024
 1436SOL     OW 5206   5.643   1.899   0.712
 1436SOL    HW1 5207   5.565   1.843   0.742
 1436SOL    HW2 5208   5.615   1.994   0.706
 1437SOL     OW 5209   4.151   1.348   6.192
 1437SOL    HW1 5210   4.197   1.296   6.120
 1437SOL    HW2 5211   4.087   1.288   6.241
 1438SOL     OW 5212   2.557   0.887   1.578
 1438SOL    HW1 5213   2.544   0.795   1.615
 1438SOL    HW2 5214   2.497   0.900   1.499
 1439SOL     OW 5215   6.709   5.226   6.865
 1439SOL    HW1 5216   6.739   5.209   6.771
 1439SOL    HW2 5217   6.779   5.196   6.929
 1440SOL     OW 5218   3.220   3.292   3.638
 1440SOL    HW1 5219   3.200   3.381   3.678
 1440SOL    HW2 5220   3.234   3.302   3.540
 1441SOL     OW 5221   0.275   2.488   4.353
 1441SOL    HW1 5222   0.205   2.453   4.291
 1441SOL    HW2 5223   0.302   2.580   4.324
 1442SOL     OW 5224   4.726   4.024   0.047
 1442SOL    HW1 5225   4.693   3.947   7.012
 1442SOL    HW2 5226   4.826   4.021   0.053
 1443SOL     OW 5227   1.029   1.630   3.556
 1443SOL    HW1 5228   0.937   1.668   3.564
 1443SOL    HW2 5229   1.064   1.648   3.464
 1444SOL     OW 5230   4.326   0.729   3.555
 1444SOL    HW1 5231   4.373   0.656   3.505
 1444SOL    HW2 5232   4.384   0.811   3.556
 1445SOL     OW 5233   6.572   2.275   1.964
 1445SOL    HW1 5234   6.644   2.340   1.990
 1445SOL    HW2 5235   6.557   2.280   1.866
 1446SOL     OW 5236   4.112   2.134   1.590
 1446SOL    HW1 5237   4.059   2.198   1.647
 1446SOL    HW2 5238   4.193   2.181   1.555
 1447SOL     OW 5239   6.210   1.455   4.828
 1447SOL    HW1 5240   6.112   1.447   4.845
 1447SOL    HW2 5241   6.253   1.365   4.836
 1448SOL     OW 5242   5.295   1.195   6.245
 1448SOL    HW1 5243   5.318   1.160   6.155
 1448SOL    HW2 5244   5.228   1.268   6.237
 1449SOL     OW 5245   5.166   5.632   1.155
 1449SOL    HW1 5246   5.119   5.673   1.233
 1449SOL    HW2 5247   5.187   5.537   1.174
 1450SOL     OW 5248   5.602   2.931   3.012
 1450SOL    HW1 5249   5.649   2.969   2.932
 1450SOL    HW2 5250   5.640   2.841   3.032
 1451SOL     OW 5251   1.622   6.516   2.907
 1451SOL    HW1 5252   1.667   6.534   2.820
 1451SOL    HW2 5253   1.564   6.435   2.898
 1452SOL     OW 5254   5.041   0.542   5.414
 1452SOL    HW1 5255   4.961   0.601   5.401
 1452SOL    HW2 5256   5.123   0.590   5.384
 1453SOL     OW 5257   5.109   4.068   4.865
 1453SOL    HW1 5258   5.174   4.144   4.864
 1453SOL    HW2 5259   5.141   3.996   4.803
 1454SOL     OW 5260   4.974   2.989   1.904
 1454SOL    HW1 5261   5.007   2.900   1.935
 1454SOL    HW2 5262   4.883   3.005   1.941
 1455SOL     OW 5263   1.118   1.085   1.952
 1455SOL    HW1 5264   1.217   1.076   1.938
 1455SOL    HW2 5265   1.089   1.022   2.024
 1456SOL     OW 5266   6.930   6.537   4.367
 1456SOL    HW1 5267   6.965   6.602   4.435
 1456SOL    HW2 5268   7.007   6.498   4.315
 1457SOL     OW 5269   1.941   0.373   4.028
 1457SOL    HW1 5270   2.021   0.417   3.987
 1457SOL    HW2 5271   1.859   0.401   3.979
 1458SOL     OW 5272   5.292   6.220   6.359
 1458SOL    HW1 5273   5.272   6.219   6.457
 1458SOL    HW2 5274   5.377   6.169   6.342
 1459SOL     OW 5275   3.270   6.156   6.955
 1459SOL    HW1 5276   3.329   6.123   6.882
 1459SOL    HW2 5277   3.195   6.092   6.969
 1460SOL     OW 5278   1.613   0.096   0.219
 1460SOL    HW1 5279   1.681   0.023   0.215
 1460SOL    HW2 5280   1.534   0.067   0.273
 1461SOL     OW 5281   5.512   4.548   2.202
 1461SOL    HW1 5282   5.529   4.599   2.286
 1461SOL    HW2 5283   5.552   4.457   2.210
 1462SOL     OW 5284   6.039   0.425   0.362
 1462SOL    HW1 5285   6.026   0.361   0.286
 1462SOL    HW2 5286   5.958   0.483   0.370
 1463SOL     OW 5287   1.137   0.686   5.257
 1463SOL    HW1 5288   1.081   0.755   5.305
 1463SOL    HW2 5289   1.189   0.730   5.185
 1464SOL     OW 5290   6.983   6.453   0.756
 1464SOL    HW1 5291   0.008   6.456   0.666
 1464SOL    HW2 5292   0.028   6.477   0.827
 1465SOL     OW 5293   0.547   0.204   4.785
 1465SOL    HW1 5294   0.575   0.138   4.716
 1465SOL    HW2 5295   0.450   0.226   4.774
 1466SOL     OW 5296   5.963   5.387   3.303
 1466SOL    HW1 5297   6.003   5.448   3.370
 1466SOL    HW2 5298   5.967   5.293   3.337
 1467SOL     OW 5299   0.947   1.204   3.857
 1467SOL    HW1 5300   0.913   1.293   3.885
 1467SOL    HW2 5301   0.891   1.169   3.782
 1468SOL     OW 5302   5.035   5.867   3.684
 1468SOL    HW1 5303   5.124   5.830   3.711
 1468SOL    HW2 5304   5.044   5.964   3.662
 1469SOL     OW 5305   0.852   1.036   2.454
 1469SOL    HW1 5306   0.828   1.106   2.521
 1469SOL    HW2 5307   0.781   0.964   2.455
 1470SOL     OW 5308   0.995   0.970   2.849
 1470SOL    HW1 5309   1.061   1.043   2.829
 1470SOL    HW2 5310   0.946   0.992   2.933
 1471SOL     OW 5311   0.293   0.311   6.834
 1471SOL    HW1 5312   0.336   0.286   6.747
 1471SOL    HW2 5313   0.247   0.399   6.824
 1472SOL     OW 5314   4.986   0.626   6.189
 1472SOL    HW1 5315   4.916   0.690   6.222
 1472SOL    HW2 5316   5.077   0.663   6.211
 1473SOL     OW 5317   6.218   4.718   2.862
 1473SOL    HW1 5318   6.154   4.698   2.937
 1473SOL    HW2 5319   6.310   4.688   2.888
 1474SOL     OW 5320   5.874   5.414   4.304
 1474SOL    HW1 5321   5.824   5.444   4.386
 1474SOL    HW2 5322   5.810   5.378   4.237
 1475SOL     OW 5323   6.724   0.996   2.168
 1475SOL    HW1 5324   6.688   0.927   2.231
 1475SOL    HW2 5325   6.744   0.953   2.079
 1476SOL     OW 5326   0.792   1.783   2.237
 1476SOL    HW1 5327   0.711   1.796   2.294
 1476SOL    HW2 5328   0.840   1.870   2.226
 1477SOL     OW 5329   2.859   6.601   5.302
 1477SOL    HW1 5330   2.941   6.566   5.257
 1477SOL    HW2 5331   2.867   6.700   5.312
 1478SOL     OW 5332   5.750   4.906   1.164
 1478SOL    HW1 5333   5.828   4.899   1.226
 1478SOL    HW2 5334   5.706   4.817   1.154
 1479SOL     OW 5335   1.952   4.421   0.139
 1479SOL    HW1 5336   1.986   4.331   0.167
 1479SOL    HW2 5337   1.949   4.482   0.218
 1480SOL     OW 5338   2.564   1.618   0.429
 1480SOL    HW1 5339   2.497   1.555   0.390
 1480SOL    HW2 5340   2.573   1.599   0.527
 1481SOL     OW 5341   5.825   2.462   5.919
 1481SOL    HW1 5342   5.893   2.392   5.898
 1481SOL    HW2 5343   5.788   2.500   5.834
 1482SOL     OW 5344   5.704   0.865   0.069
 1482SOL    HW1 5345   5.614   0.825   0.081
 1482SOL    HW2 5346   5.705   0.957   0.107
 1483SOL     OW 5347   6.197   2.432   0.328
 1483SOL    HW1 5348   6.275   2.386   0.371
 1483SOL    HW2 5349   6.178   2.517   0.378
 1484SOL     OW 5350   0.066   5.201   2.680
 1484SOL    HW1 5351   6.998   5.152   2.676
 1484SOL    HW2 5352   0.132   5.156   2.620
 1485SOL     OW 5353   5.475   2.478   3.727
 1485SOL    HW1 5354   5.401   2.471   3.659
 1485SOL    HW2 5355   5.508   2.573   3.730
 1486SOL     OW 5356   4.699   2.142   2.856
 1486SOL    HW1 5357   4.629   2.198   2.900
 1486SOL    HW2 5358   4.700   2.051   2.897
 1487SOL     OW 5359   5.955   1.581   5.805
 1487SOL    HW1 5360   5.899   1.634   5.741
 1487SOL    HW2 5361   5.897   1.532   5.869
 1488SOL     OW 5362   4.376   1.340   3.117
 1488SOL    HW1 5363   4.282   1.323   3.087
 1488SOL    HW2 5364   4.385   1.314   3.213
 1489SOL     OW 5365   3.656   5.030   4.947
 1489SOL    HW1 5366   3.571   5.083   4.952
 1489SOL    HW2 5367   3.654   4.970   4.867
 1490SOL     OW 5368   1.267   2.172   0.488
 1490SOL    HW1 5369   1.273   2.139   0.394
 1490SOL    HW2 5370   1.247   2.270   0.487
 1491SOL     OW 5371   0.001   3.352   3.885
 1491SOL    HW1 5372   6.999   3.422   3.817
 1491SOL    HW2 5373   6.971   3.268   3.862
 1492SOL     OW 5374   5.282   1.726   1.599
 1492SOL    HW1 5375   5.225   1.666   1.654
 1492SOL    HW2 5376   5.309   1.806   1.654
 1493SOL     OW 5377   4.680   0.310   5.085
 1493SOL    HW1 5378   4.595   0.262   5.105
 1493SOL    HW2 5379   4.664   0.374   5.009
 1494SOL     OW 5380   4.236   2.196   5.984
 1494SOL    HW1 5381   4.281   2.108   5.972
 1494SOL    HW2 5382   4.155   2.184   6.041
 1495SOL     OW 5383   0.958   3.129   2.832
 1495SOL    HW1 5384   1.017   3.153   2.909
 1495SOL    HW2 5385   0.941   3.211   2.777
 1496SOL     OW 5386   6.861   0.279   2.217
 1496SOL    HW1 5387   6.865   0.372   2.253
 1496SOL    HW2 5388   6.814   0.219   2.282
 1497SOL     OW 5389   6.494   5.159   4.343
 1497SOL    HW1 5390   6.403   5.151   4.302
 1497SOL    HW2 5391   6.546   5.075   4.323
 1498SOL     OW 5392   2.000   4.636   6.531
 1498SOL    HW1 5393   2.044   4.599   6.449
 1498SOL    HW2 5394   2.011   4.571   6.607
 1499SOL     OW 5395   1.278   4.128   4.887
 1499SOL    HW1 5396   1.265   4.134   4.986
 1499SOL    HW2 5397   1.192   4.152   4.841
 1500SOL     OW 5398   5.217   6.770   0.317
 1500SOL    HW1 5399   5.270   6.710   0.376
 1500SOL    HW2 5400   5.184   6.718   0.238
 1501SOL     OW 5401   4.195   0.403   6.451
 1501SOL    HW1 5402   4.201   0.319   6.504
 1501SOL    HW2 5403   4.278   0.412   6.394
 1502SOL     OW 5404   6.313   6.710   0.074
 1502SOL    HW1 5405   6.306   6.697   0.173
 1502SOL    HW2 5406   6.389   6.656   0.039
 1503SOL     OW 5407   3.145   3.151   6.928
 1503SOL    HW1 5408   3.097   3.234   6.959
 1503SOL    HW2 5409   3.113   3.073   6.981
 1504SOL     OW 5410   3.485   6.654   4.828
 1504SOL    HW1 5411   3.452   6.578   4.774
 1504SOL    HW2 5412   3.421   6.731   4.819
 1505SOL     OW 5413   5.642   6.359   5.828
 1505SOL    HW1 5414   5.626   6.262   5.846
 1505SOL    HW2 5415   5.604   6.413   5.903
 1506SOL     OW 5416   0.938   5.858   3.975
 1506SOL    HW1 5417   0.895   5.783   3.924
 1506SOL    HW2 5418   0.982   5.821   4.057
 1507SOL     OW 5419   1.331   1.432   5.494
 1507SOL    HW1 5420   1.326   1.500   5.566
 1507SOL    HW2 5421   1.248   1.437   5.438
 1508SOL     OW 5422   4.419   0.135   0.489
 1508SOL    HW1 5423   4.374   0.208   0.541
 1508SOL    HW2 5424   4.354   0.093   0.427
 1509SOL     OW 5425   4.617   2.942   6.811
 1509SOL    HW1 5426   4.584   2.914   6.902
 1509SOL    HW2 5427   4.562   2.898   6.741
 1510SOL     OW 5428   0.004   1.843   4.219
 1510SOL    HW1 5429   0.061   1.812   4.143
 1510SOL    HW2 5430   6.993   1.937   4.201
 1511SOL     OW 5431   2.851   1.922   0.606
 1511SOL    HW1 5432   2.859   1.910   0.705
 1511SOL    HW2 5433   2.817   2.014   0.586
 1512SOL     OW 5434   0.296   0.779   1.664
 1512SOL    HW1 5435   0.289   0.795   1.763
 1512SOL    HW2 5436   0.381   0.818   1.630
 1513SOL     OW 5437   3.583   0.224   4.160
 1513SOL    HW1 5438   3.526   0.213   4.079
 1513SOL    HW2 5439   3.672   0.183   4.144
 1514SOL     OW 5440   5.651   1.672   4.699
 1514SOL    HW1 5441   5.725   1.688   4.634
 1514SOL    HW2 5442   5.582   1.613   4.658
 1515SOL     OW 5443   0.390   4.381   5.135
 1515SOL    HW1 5444   0.386   4.343   5.043
 1515SOL    HW2 5445   0.475   4.433   5.147
 1516SOL     OW 5446   0.458   1.504   0.626
 1516SOL    HW1 5447   0.510   1.494   0.711
 1516SOL    HW2 5448   0.389   1.576   0.637
 1517SOL     OW 5449   4.619   6.060   3.567
 1517SOL    HW1 5450   4.687   6.013   3.510
 1517SOL    HW2 5451   4.536   6.005   3.571
 1518SOL     OW 5452   6.656   3.944   1.138
 1518SOL    HW1 5453   6.660   3.966   1.236
 1518SOL    HW2 5454   6.748   3.928   1.103
 1519SOL     OW 5455   6.093   4.487   1.069
 1519SOL    HW1 5456   5.994   4.484   1.082
 1519SOL    HW2 5457   6.137   4.509   1.156
 1520SOL     OW 5458   2.121   3.527   2.755
 1520SOL    HW1 5459   2.175   3.444   2.766
 1520SOL    HW2 5460   2.023   3.506   2.763
 1521SOL     OW 5461   1.859   3.231   6.596
 1521SOL    HW1 5462   1.763   3.210   6.615
 1521SOL    HW2 5463   1.893   3.296   6.664
 1522SOL     OW 5464   5.610   1.880   6.525
 1522SOL    HW1 5465   5.544   1.808   6.503
 1522SOL    HW2 5466   5.589   1.917   6.616
 1523SOL     OW 5467   6.148   2.685   1.161
 1523SOL    HW1 5468   6.203   2.729   1.232
 1523SOL    HW2 5469   6.054   2.672   1.195
 1524SOL     OW 5470   0.592   1.091   1.471
 1524SOL    HW1 5471   0.600   1.172   1.413
 1524SOL    HW2 5472   0.496   1.076   1.494
 1525SOL     OW 5473   3.799   1.917   6.106
 1525SOL    HW1 5474   3.749   1.956   6.029
 1525SOL    HW2 5475   3.880   1.972   6.126
 1526SOL     OW 5476   0.333   2.074   1.464
 1526SOL    HW1 5477   0.306   2.062   1.559
 1526SOL    HW2 5478   0.426   2.038   1.451
 1527SOL     OW 5479   3.543   2.095   5.160
 1527SOL    HW1 5480   3.489   2.166   5.205
 1527SOL    HW2 5481   3.516   2.089   5.064
 1528SOL     OW 5482   4.480   6.965   3.443
 1528SOL    HW1 5483   4.493   0.039   3.474
 1528SOL    HW2 5484   4.405   6.963   3.377
 1529SOL     OW 5485   3.866   0.323   6.405
 1529SOL    HW1 5486   3.859   0.302   6.307
 1529SOL    HW2 5487   3.902   0.416   6.416
 1530SOL     OW 5488   2.871   6.538   2.155
 1530SOL    HW1 5489   2.935   6.497   2.220
 1530SOL    HW2 5490   2.921   6.572   2.076
 1531SOL     OW 5491   6.818   0.044   4.198
 1531SOL    HW1 5492   6.753   0.083   4.262
 1531SOL    HW2 5493   6.830   6.966   4.217
 1532SOL     OW 5494   3.400   2.284   5.314
 1532SOL    HW1 5495   3.312   2.316   5.278
 1532SOL    HW2 5496   3.454   2.363   5.343
 1533SOL     OW 5497   6.173   3.514   6.940
 1533SOL    HW1 5498   6.102   3.501   6.871
 1533SOL    HW2 5499   6.174   3.435   7.001
 1534SOL     OW 5500   0.947   6.024   0.805
 1534SOL    HW1 5501   1.009   5.959   0.763
 1534SOL    HW2 5502   0.870   6.041   0.743
 1535SOL     OW 5503   5.079   4.405   4.112
 1535SOL    HW1 5504   5.177   4.410   4.129
 1535SOL    HW2 5505   5.035   4.351   4.184
 1536SOL     OW 5506   2.354   5.824   4.568
 1536SOL    HW1 5507   2.322   5.835   4.662
 1536SOL    HW2 5508   2.397   5.735   4.557
 1537SOL     OW 5509   1.893   5.290   4.930
 1537SOL    HW1 5510   1.845   5.358   4.874
 1537SOL    HW2 5511   1.882   5.313   5.027
 1538SOL     OW 5512   2.671   4.800   0.230
 1538SOL    HW1 5513   2.679   4.766   0.137
 1538SOL    HW2 5514   2.746   4.763   0.286
 1539SOL     OW 5515   3.516   4.790   1.499
 1539SOL    HW1 5516   3.560   4.718   1.554
 1539SOL    HW2 5517   3.424   4.807   1.534
 1540SOL     OW 5518   0.941   0.341   5.339
 1540SOL    HW1 5519   0.931   0.286   5.256
 1540SOL    HW2 5520   0.874   0.415   5.339
 1541SOL     OW 5521   4.605   2.915   1.053
 1541SOL    HW1 5522   4.560   2.989   1.103
 1541SOL    HW2 5523   4.650   2.853   1.117
 1542SOL     OW 5524   0.418   6.305   1.513
 1542SOL    HW1 5525   0.480   6.269   1.583
 1542SOL    HW2 5526   0.399   6.401   1.532
 1543SOL     OW 5527   3.633   3.737   3.987
 1543SOL    HW1 5528   3.589   3.817   3.945
 1543SOL    HW2 5529   3.662   3.674   3.915
 1544SOL     OW 5530   3.500   4.147   2.555
 1544SOL    HW1 5531   3.566   4.116   2.486
 1544SOL    HW2 5532   3.535   4.127   2.646
 1545SOL     OW 5533   6.439   0.618   4.626
 1545SOL    HW1 5534   6.531   0.580   4.615
 1545SOL    HW2 5535   6.378   0.549   4.664
 1546SOL     OW 5536   6.524   5.907   5.860
 1546SOL    HW1 5537   6.592   5.959   5.807
 1546SOL    HW2 5538   6.569   5.866   5.939
 1547SOL     OW 5539   2.876   5.109   3.094
 1547SOL    HW1 5540   2.919   5.112   3.184
 1547SOL    HW2 5541   2.947   5.102   3.024
 1548SOL     OW 5542   4.768   4.426   4.983
 1548SOL    HW1 5543   4.708   4.490   4.935
 1548SOL    HW2 5544   4.768   4.338   4.935
 1549SOL     OW 5545   6.329   2.842   1.303
 1549SOL    HW1 5546   6.399   2.813   1.368
 1549SOL    HW2 5547   6.372   2.884   1.223
 1550SOL     OW 5548   1.888   6.281   4.858
 1550SOL    HW1 5549   1.921   6.199   4.905
 1550SOL    HW2 5550   1.806   6.258   4.806
 1551SOL     OW 5551   1.560   3.177   0.682
 1551SOL    HW1 5552   1.653   3.210   0.666
 1551SOL    HW2 5553   1.534   3.198   0.777
 1552SOL     OW 5554   1.200   0.870   1.332
 1552SOL    HW1 5555   1.210   0.969   1.320
 1552SOL    HW2 5556   1.170   0.829   1.246
 1553SOL     OW 5557   5.634   1.833   6.951
 1553SOL    HW1 5558   5.610   1.762   6.885
 1553SOL    HW2 5559   5.733   1.836   6.962
 1554SOL     OW 5560   4.624   1.783   2.396
 1554SOL    HW1 5561   4.676   1.860   2.358
 1554SOL    HW2 5562   4.617   1.793   2.495
 1555SOL     OW 5563   4.174   1.457   5.089
 1555SOL    HW1 5564   4.270   1.441   5.110
 1555SOL    HW2 5565   4.157   1.556   5.083
 1556SOL     OW 5566   3.777   0.444   0.893
 1556SOL    HW1 5567   3.754   0.520   0.832
 1556SOL    HW2 5568   3.760   0.471   0.988
 1557SOL     OW 5569   1.851   1.974   1.236
 1557SOL    HW1 5570   1.891   1.998   1.147
 1557SOL    HW2 5571   1.814   2.056   1.279
 1558SOL     OW 5572   6.199   3.357   5.323
 1558SOL    HW1 5573   6.256   3.286   5.281
 1558SOL    HW2 5574   6.147   3.405   5.252
 1559SOL     OW 5575   1.256   4.185   2.960
 1559SOL    HW1 5576   1.217   4.095   2.979
 1559SOL    HW2 5577   1.329   4.176   2.892
 1560SOL     OW 5578   3.962   1.433   1.113
 1560SOL    HW1 5579   4.053   1.401   1.086
 1560SOL    HW2 5580   3.950   1.423   1.211
 1561SOL     OW 5581   5.238   6.236   2.181
 1561SOL    HW1 5582   5.326   6.282   2.187
 1561SOL    HW2 5583   5.240   6.151   2.234
 1562SOL     OW 5584   2.995   0.144   2.024
 1562SOL    HW1 5585   2.938   0.189   1.955
 1562SOL    HW2 5586   2.939   0.083   2.080
 1563SOL     OW 5587   3.333   2.028   4.672
 1563SOL    HW1 5588   3.422   2.043   4.629
 1563SOL    HW2 5589   3.261   2.049   4.605
 1564SOL     OW 5590   0.815   2.062   2.219
 1564SOL    HW1 5591   0.867   2.137   2.178
 1564SOL    HW2 5592   0.739   2.037   2.159
 1565SOL     OW 5593   3.625   0.002   3.821
 1565SOL    HW1 5594   3.688   0.025   3.746
 1565SOL    HW2 5595   3.590   0.086   3.862
 1566SOL     OW 5596   4.688   4.406   3.326
 1566SOL    HW1 5597   4.779   4.435   3.357
 1566SOL    HW2 5598   4.679   4.426   3.228
 1567SOL     OW 5599   5.180   5.516   5.386
 1567SOL    HW1 5600   5.087   5.488   5.412
 1567SOL    HW2 5601   5.189   5.511   5.287
 1568SOL     OW 5602   2.088   6.581   2.629
 1568SOL    HW1 5603   2.185   6.557   2.640
 1568SOL    HW2 5604   2.076   6.679   2.644
 1569SOL     OW 5605   2.607   0.074   2.904
 1569SOL    HW1 5606   2.531   0.119   2.950
 1569SOL    HW2 5607   2.677   0.050   2.972
 1570SOL     OW 5608   3.245   0.218   0.113
 1570SOL    HW1 5609   3.343   0.206   0.127
 1570SOL    HW2 5610   3.229   0.300   0.059
 1571SOL     OW 5611   1.281   2.730   3.884
 1571SOL    HW1 5612   1.298   2.725   3.982
 1571SOL    HW2 5613   1.347   2.673   3.835
 1572SOL     OW 5614   1.873   5.153   1.483
 1572SOL    HW1 5615   1.844   5.236   1.531
 1572SOL    HW2 5616   1.813   5.077   1.508
 1573SOL     OW 5617   4.380   4.963   1.403
 1573SOL    HW1 5618   4.333   4.897   1.344
 1573SOL    HW2 5619   4.470   4.984   1.363
 1574SOL     OW 5620   6.499   3.496   2.047
 1574SOL    HW1 5621   6.467   3.581   2.089
 1574SOL    HW2 5622   6.571   3.456   2.102
 1575SOL     OW 5623   0.570   1.089   0.470
 1575SOL    HW1 5624   0.616   1.052   0.551
 1575SOL    HW2 5625   0.578   1.024   0.394
 1576SOL     OW 5626   0.626   6.192   1.732
 1576SOL    HW1 5627   0.685   6.148   1.664
 1576SOL    HW2 5628   0.607   6.128   1.807
 1577SOL     OW 5629   3.951   0.066   6.302
 1577SOL    HW1 5630   3.904   7.008   6.261
 1577SOL    HW2 5631   3.886   0.121   6.354
 1578SOL     OW 5632   4.652   1.021   0.268
 1578SOL    HW1 5633   4.680   0.975   0.184
 1578SOL    HW2 5634   4.591   0.961   0.321
 1579SOL     OW 5635   2.301   2.334   1.750
 1579SOL    HW1 5636   2.341   2.305   1.663
 1579SOL    HW2 5637   2.246   2.259   1.787
 1580SOL     OW 5638   3.377   4.161   2.930
 1580SOL    HW1 5639   3.361   4.260   2.933
 1580SOL    HW2 5640   3.405   4.129   3.020
 1581SOL     OW 5641   0.443   4.267   6.139
 1581SOL    HW1 5642   0.386   4.264   6.221
 1581SOL    HW2 5643   0.392   4.227   6.062
 1582SOL     OW 5644   4.709   6.505   5.944
 1582SOL    HW1 5645   4.724   6.586   6.000
 1582SOL    HW2 5646   4.787   6.443   5.953
 1583SOL     OW 5647   1.020   5.962   5.318
 1583SOL    HW1 5648   0.972   6.023   5.381
 1583SOL    HW2 5649   1.004   5.992   5.224
 1584SOL     OW 5650   0.797   5.292   6.453
 1584SOL    HW1 5651   0.773   5.222   6.520
 1584SOL    HW2 5652   0.714   5.338   6.421
 1585SOL     OW 5653   3.888   0.193   2.895
 1585SOL    HW1 5654   3.877   0.282   2.939
 1585SOL    HW2 5655   3.800   0.145   2.894
 1586SOL     OW 5656   2.920   5.677   4.631
 1586SOL    HW1 5657   2.971   5.643   4.552
 1586SOL    HW2 5658   2.854   5.607   4.660
 1587SOL     OW 5659   1.705   5.987   6.137
 1587SOL    HW1 5660   1.612   6.022   6.143
 1587SOL    HW2 5661   1.744   5.980   6.229
 1588SOL     OW 5662   6.088   0.190   1.866
 1588SOL    HW1 5663   6.120   0.213   1.958
 1588SOL    HW2 5664   5.996   0.227   1.853
 1589SOL     OW 5665   6.541   3.933   2.792
 1589SOL    HW1 5666   6.458   3.882   2.769
 1589SOL    HW2 5667   6.523   3.989   2.874
 1590SOL     OW 5668   6.442   2.207   3.460
 1590SOL    HW1 5669   6.399   2.162   3.538
 1590SOL    HW2 5670   6.457   2.304   3.481
 1591SOL     OW 5671   0.443   5.819   1.177
 1591SOL    HW1 5672   0.368   5.868   1.223
 1591SOL    HW2 5673   0.450   5.727   1.215
 1592SOL     OW 5674   1.450   4.433   6.998
 1592SOL    HW1 5675   1.414   4.401   0.065
 1592SOL    HW2 5676   1.473   4.530   7.004
 1593SOL     OW 5677   0.759   0.148   6.666
 1593SOL    HW1 5678   0.853   0.115   6.659
 1593SOL    HW2 5679   0.736   0.162   6.762
 1594SOL     OW 5680   6.830   0.400   1.769
 1594SOL    HW1 5681   6.826   0.356   1.679
 1594SOL    HW2 5682   6.847   0.331   1.839
 1595SOL     OW 5683   1.661   4.027   6.781
 1595SOL    HW1 5684   1.612   3.980   6.854
 1595SOL    HW2 5685   1.672   4.123   6.805
 1596SOL     OW 5686   5.615   4.320   2.294
 1596SOL    HW1 5687   5.692   4.304   2.231
 1596SOL    HW2 5688   5.650   4.345   2.384
 1597SOL     OW 5689   3.411   5.917   1.084
 1597SOL    HW1 5690   3.376   5.983   1.017
 1597SOL    HW2 5691   3.511   5.918   1.083
 1598SOL     OW 5692   1.656   5.931   0.125
 1598SOL    HW1 5693   1.714   5.998   0.171
 1598SOL    HW2 5694   1.675   5.932   0.027
 1599SOL     OW 5695   3.700   5.547   4.153
 1599SOL    HW1 5696   3.689   5.467   4.211
 1599SOL    HW2 5697   3.753   5.617   4.202
 1600SOL     OW 5698   2.944   0.410   2.858
 1600SOL    HW1 5699   3.028   0.429   2.808
 1600SOL    HW2 5700   2.896   0.333   2.815
 1601SOL     OW 5701   6.498   6.684   4.137
 1601SOL    HW1 5702   6.560   6.752   4.175
 1601SOL    HW2 5703   6.549   6.625   4.074
 1602SOL     OW 5704   4.459   5.150   3.923
 1602SOL    HW1 5705   4.513   5.138   4.006
 1602SOL    HW2 5706   4.486   5.083   3.855
 1603SOL     OW 5707   3.223   6.096   4.161
 1603SOL    HW1 5708   3.144   6.035   4.164
 1603SOL    HW2 5709   3.209   6.172   4.224
 1604SOL     OW 5710   3.816   4.893   2.025
 1604SOL    HW1 5711   3.782   4.910   1.932
 1604SOL    HW2 5712   3.898   4.836   2.020
 1605SOL     OW 5713   4.598   5.080   2.123
 1605SOL    HW1 5714   4.687   5.118   2.150
 1605SOL    HW2 5715   4.525   5.129   2.171
 1606SOL     OW 5716   4.666   6.370   4.124
 1606SOL    HW1 5717   4.648   6.428   4.204
 1606SOL    HW2 5718   4.753   6.396   4.082
 1607SOL     OW 5719   4.547   6.970   2.812
 1607SOL    HW1 5720   4.481   6.913   2.762
 1607SOL    HW2 5721   4.511   6.990   2.903
 1608SOL     OW 5722   6.678   0.717   2.789
 1608SOL    HW1 5723   6.704   0.797   2.734
 1608SOL    HW2 5724   6.760   0.680   2.833
 1609SOL     OW 5725   3.378   6.643   0.749
 1609SOL    HW1 5726   3.293   6.592   0.739
 1609SOL    HW2 5727   3.370   6.731   0.701
 1610SOL     OW 5728   3.922   6.611   6.797
 1610SOL    HW1 5729   3.833   6.590   6.757
 1610SOL    HW2 5730   3.987   6.630   6.723
 1611SOL     OW 5731   1.005   4.133   1.512
 1611SOL    HW1 5732   0.947   4.178   1.443
 1611SOL    HW2 5733   1.088   4.098   1.468
 1612SOL     OW 5734   2.821   5.796   0.887
 1612SOL    HW1 5735   2.909   5.772   0.846
 1612SOL    HW2 5736   2.836   5.842   0.974
 1613SOL     OW 5737   0.680   5.732   2.300
 1613SOL    HW1 5738   0.690   5.744   2.399
 1613SOL    HW2 5739   0.729   5.805   2.252
 1614SOL     OW 5740   5.517   2.782   6.720
 1614SOL    HW1 5741   5.485   2.811   6.810
 1614SOL    HW2 5742   5.561   2.693   6.727
 1615SOL     OW 5743   0.275   5.482   6.526
 1615SOL    HW1 5744   0.237   5.390   6.538
 1615SOL    HW2 5745   0.367   5.476   6.488
 1616SOL     OW 5746   3.187   1.070   5.541
 1616SOL    HW1 5747   3.272   1.113   5.572
 1616SOL    HW2 5748   3.172   0.985   5.592
 1617SOL     OW 5749   4.621   6.543   3.676
 1617SOL    HW1 5750   4.714   6.508   3.689
 1617SOL    HW2 5751   4.582   6.570   3.764
 1618SOL     OW 5752   2.204   6.233   2.824
 1618SOL    HW1 5753   2.203   6.184   2.911
 1618SOL    HW2 5754   2.254   6.319   2.835
 1619SOL     OW 5755   1.049   5.104   6.792
 1619SOL    HW1 5756   0.995   5.069   6.868
 1619SOL    HW2 5757   1.017   5.062   6.707
 1620SOL     OW 5758   2.977   5.118   0.774
 1620SOL    HW1 5759   2.977   5.026   0.811
 1620SOL    HW2 5760   2.962   5.184   0.848
 1621SOL     OW 5761   5.660   6.467   1.108
 1621SOL    HW1 5762   5.720   6.512   1.042
 1621SOL    HW2 5763   5.641   6.374   1.077
 1622SOL     OW 5764   0.854   3.942   5.335
 1622SOL    HW1 5765   0.893   3.912   5.422
 1622SOL    HW2 5766   0.846   4.042   5.335
 1623SOL     OW 5767   0.607   2.377   5.078
 1623SOL    HW1 5768   0.635   2.464   5.036
 1623SOL    HW2 5769   0.642   2.301   5.023
 1624SOL     OW 5770   3.671   1.412   0.410
 1624SOL    HW1 5771   3.696   1.502   0.447
 1624SOL    HW2 5772   3.677   1.344   0.483
 1625SOL     OW 5773   1.921   4.789   0.810
 1625SOL    HW1 5774   1.852   4.716   0.804
 1625SOL    HW2 5775   1.964   4.801   0.721
 1626SOL     OW 5776   3.158   1.949   1.528
 1626SOL    HW1 5777   3.164   1.932   1.626
 1626SOL    HW2 5778   3.240   1.915   1.483
 1627SOL     OW 5779   4.954   2.172   4.324
 1627SOL    HW1 5780   4.915   2.142   4.411
 1627SOL    HW2 5781   4.880   2.186   4.258
 1628SOL     OW 5782   4.909   5.470   6.509
 1628SOL    HW1 5783   4.926   5.474   6.607
 1628SOL    HW2 5784   4.920   5.561   6.469
 1629SOL     OW 5785   2.921   2.248   3.044
 1629SOL    HW1 5786   2.884   2.193   2.969
 1629SOL    HW2 5787   2.854   2.318   3.070
 1630SOL     OW 5788   0.149   4.130   0.156
 1630SOL    HW1 5789   0.063   4.180   0.145
 1630SOL    HW2 5790   0.224   4.195   0.166
 1631SOL     OW 5791   6.897   3.392   1.147
 1631SOL    HW1 5792   6.802   3.422   1.147
 1631SOL    HW2 5793   6.924   3.368   1.053
 1632SOL     OW 5794   5.560   4.729   2.406
 1632SOL    HW1 5795   5.505   4.716   2.488
 1632SOL    HW2 5796   5.584   4.825   2.396
 1633SOL     OW 5797   4.909   3.750   4.025
 1633SOL    HW1 5798   4.873   3.710   4.110
 1633SOL    HW2 5799   4.908   3.680   3.953
 1634SOL     OW 5800   4.403   0.582   4.592
 1634SOL    HW1 5801   4.458   0.665   4.604
 1634SOL    HW2 5802   4.338   0.596   4.517
 1635SOL     OW 5803   3.913   4.512   5.560
 1635SOL    HW1 5804   3.858   4.479   5.636
 1635SOL    HW2 5805   3.910   4.445   5.485
 1636SOL     OW 5806   4.126   5.688   1.372
 1636SOL    HW1 5807   4.173   5.641   1.447
 1636SOL    HW2 5808   4.193   5.737   1.316
 1637SOL     OW 5809   0.170   6.696   2.475
 1637SOL    HW1 5810   0.156   6.647   2.561
 1637SOL    HW2 5811   0.235   6.772   2.491
 1638SOL     OW 5812   6.738   3.336   1.861
 1638SOL    HW1 5813   6.822   3.385   1.884
 1638SOL    HW2 5814   6.684   3.391   1.797
 1639SOL     OW 5815   6.114   3.798   2.390
 1639SOL    HW1 5816   6.095   3.857   2.468
 1639SOL    HW2 5817   6.036   3.800   2.327
 1640SOL     OW 5818   5.881   0.492   1.140
 1640SOL    HW1 5819   5.853   0.490   1.236
 1640SOL    HW2 5820   5.918   0.582   1.118
 1641SOL     OW 5821   0.007   2.537   3.599
 1641SOL    HW1 5822   0.078   2.563   3.664
 1641SOL    HW2 5823   0.045   2.538   3.506
 1642SOL     OW 5824   5.550   2.601   5.940
 1642SOL    HW1 5825   5.576   2.684   5.890
 1642SOL    HW2 5826   5.633   2.558   5.976
 1643SOL     OW 5827   3.379   5.118   4.910
 1643SOL    HW1 5828   3.340   5.072   4.830
 1643SOL    HW2 5829   3.350   5.070   4.993
 1644SOL     OW 5830   5.824   3.226   0.766
 1644SOL    HW1 5831   5.844   3.227   0.864
 1644SOL    HW2 5832   5.886   3.162   0.720
 1645SOL     OW 5833   3.198   0.666   6.056
 1645SOL    HW1 5834   3.107   0.708   6.057
 1645SOL    HW2 5835   3.252   0.706   5.982
 1646SOL     OW 5836   1.145   5.597   0.001
 1646SOL    HW1 5837   1.243   5.616   0.008
 1646SOL    HW2 5838   1.114   5.552   0.085
 1647SOL     OW 5839   6.588   2.809   4.062
 1647SOL    HW1 5840   6.523   2.875   4.024
 1647SOL    HW2 5841   6.540   2.746   4.124
 1648SOL     OW 5842   4.970   6.238   0.729
 1648SOL    HW1 5843   4.978   6.261   0.632
 1648SOL    HW2 5844   4.878   6.260   0.761
 1649SOL     OW 5845   3.013   0.398   3.367
 1649SOL    HW1 5846   3.007   0.472   3.434
 1649SOL    HW2 5847   2.961   0.424   3.285
 1650SOL     OW 5848   2.156   4.849   6.367
 1650SOL    HW1 5849   2.057   4.843   6.353
 1650SOL    HW2 5850   2.184   4.783   6.437
 1651SOL     OW 5851   0.527   2.711   3.621
 1651SOL    HW1 5852   0.515   2.791   3.680
 1651SOL    HW2 5853   0.455   2.709   3.553
 1652SOL     OW 5854   1.449   2.536   1.517
 1652SOL    HW1 5855   1.468   2.628   1.553
 1652SOL    HW2 5856   1.351   2.518   1.523
 1653SOL     OW 5857   0.261   5.552   2.182
 1653SOL    HW1 5858   0.297   5.484   2.119
 1653SOL    HW2 5859   0.187   5.604   2.137
 1654SOL     OW 5860   0.578   2.781   1.534
 1654SOL    HW1 5861   0.617   2.857   1.482
 1654SOL    HW2 5862   0.631   2.698   1.517
 1655SOL     OW 5863   6.633   1.268   4.303
 1655SOL    HW1 5864   6.652   1.199   4.374
 1655SOL    HW2 5865   6.661   1.358   4.336
 1656SOL     OW 5866   2.221   5.444   4.708
 1656SOL    HW1 5867   2.199   5.360   4.758
 1656SOL    HW2 5868   2.320   5.453   4.700
 1657SOL     OW 5869   6.927   0.803   5.328
 1657SOL    HW1 5870   6.910   0.828   5.423
 1657SOL    HW2 5871   0.005   0.798   5.312
 1658SOL     OW 5872   6.808   6.875   0.303
 1658SOL    HW1 5873   6.728   6.890   0.361
 1658SOL    HW2 5874   6.781   6.822   0.223
 1659SOL     OW 5875   4.347   0.104   6.809
 1659SOL    HW1 5876   4.436   0.090   6.766
 1659SOL    HW2 5877   4.305   0.187   6.771
 1660SOL     OW 5878   1.666   6.313   1.816
 1660SOL    HW1 5879   1.642   6.263   1.733
 1660SOL    HW2 5880   1.636   6.408   1.808
 1661SOL     OW 5881   2.885   4.760   2.260
 1661SOL    HW1 5882   2.808   4.821   2.243
 1661SOL    HW2 5883   2.898   4.700   2.181
 1662SOL     OW 5884   6.644   1.831   5.639
 1662SOL    HW1 5885   6.682   1.809   5.729
 1662SOL    HW2 5886   6.716   1.868   5.581
 1663SOL     OW 5887   4.682   4.962   1.749
 1663SOL    HW1 5888   4.692   4.878   1.802
 1663SOL    HW2 5889   4.771   4.987   1.709
 1664SOL     OW 5890   0.788   0.093   5.423
 1664SOL    HW1 5891   0.849   0.172   5.424
 1664SOL    HW2 5892   0.703   0.117   5.376
 1665SOL     OW 5893   1.882   3.622   0.902
 1665SOL    HW1 5894   1.886   3.525   0.880
 1665SOL    HW2 5895   1.927   3.638   0.990
 1666SOL     OW 5896   5.379   0.149   6.623
 1666SOL    HW1 5897   5.337   0.060   6.640
 1666SOL    HW2 5898   5.476   0.146   6.648
 1667SOL     OW 5899   0.534   6.403   0.611
 1667SOL    HW1 5900   0.542   6.495   0.573
 1667SOL    HW2 5901   0.604   6.390   0.681
 1668SOL     OW 5902   5.203   4.923   3.995
 1668SOL    HW1 5903   5.105   4.927   3.979
 1668SOL    HW2 5904   5.251   4.974   3.924
 1669SOL     OW 5905   0.308   4.162   5.921
 1669SOL    HW1 5906   0.389   4.131   5.871
 1669SOL    HW2 5907   0.230   4.105   5.896
 1670SOL     OW 5908   1.635   4.570   5.959
 1670SOL    HW1 5909   1.557   4.615   5.914
 1670SOL    HW2 5910   1.719   4.620   5.937
 1671SOL     OW 5911   4.944   1.732   2.731
 1671SOL    HW1 5912   4.881   1.807   2.751
 1671SOL    HW2 5913   4.983   1.697   2.817
 1672SOL     OW 5914   0.905   3.103   0.065
 1672SOL    HW1 5915   0.955   3.158   7.017
 1672SOL    HW2 5916   0.865   3.023   0.020
 1673SOL     OW 5917   2.144   1.928   4.371
 1673SOL    HW1 5918   2.211   1.890   4.435
 1673SOL    HW2 5919   2.181   1.925   4.278
 1674SOL     OW 5920   5.136   2.929   2.422
 1674SOL    HW1 5921   5.139   2.968   2.330
 1674SOL    HW2 5922   5.091   2.839   2.418
 1675SOL     OW 5923   5.529   0.701   1.261
 1675SOL    HW1 5924   5.592   0.688   1.185
 1675SOL    HW2 5925   5.437   0.677   1.232
 1676SOL     OW 5926   1.656   2.262   2.891
 1676SOL    HW1 5927   1.616   2.276   2.801
 1676SOL    HW2 5928   1.751   2.229   2.881
 1677SOL     OW 5929   3.553   3.795   3.038
 1677SOL    HW1 5930   3.580   3.786   2.942
 1677SOL    HW2 5931   3.606   3.731   3.094
 1678SOL     OW 5932   0.427   6.317   0.358
 1678SOL    HW1 5933   0.438   6.343   0.454
 1678SOL    HW2 5934   0.475   6.383   0.300
 1679SOL     OW 5935   1.562   1.214   5.484
 1679SOL    HW1 5936   1.507   1.297   5.490
 1679SOL    HW2 5937   1.656   1.237   5.460
 1680SOL     OW 5938   5.452   2.825   4.422
 1680SOL    HW1 5939   5.477   2.750   4.484
 1680SOL    HW2 5940   5.526   2.892   4.420
 1681SOL     OW 5941   1.843   5.748   3.734
 1681SOL    HW1 5942   1.830   5.825   3.672
 1681SOL    HW2 5943   1.783   5.672   3.708
 1682SOL     OW 5944   3.062   0.287   5.721
 1682SOL    HW1 5945   3.125   0.215   5.690
 1682SOL    HW2 5946   2.973   0.247   5.741
 1683SOL     OW 5947   5.718   4.915   2.672
 1683SOL    HW1 5948   5.718   4.987   2.602
 1683SOL    HW2 5949   5.761   4.950   2.755
 1684SOL     OW 5950   1.383   4.603   1.839
 1684SOL    HW1 5951   1.381   4.504   1.829
 1684SOL    HW2 5952   1.465   4.640   1.795
 1685SOL     OW 5953   1.327   1.322   5.813
 1685SOL    HW1 5954   1.418   1.297   5.843
 1685SOL    HW2 5955   1.333   1.397   5.746
 1686SOL     OW 5956   4.948   5.992   3.939
 1686SOL    HW1 5957   5.011   5.977   4.015
 1686SOL    HW2 5958   4.987   5.954   3.856
 1687SOL     OW 5959   0.161   3.747   2.296
 1687SOL    HW1 5960   0.259   3.724   2.290
 1687SOL    HW2 5961   0.146   3.838   2.260
 1688SOL     OW 5962   1.953   2.275   3.459
 1688SOL    HW1 5963   1.881   2.305   3.396
 1688SOL    HW2 5964   1.915   2.266   3.551
 1689SOL     OW 5965   6.487   1.239   1.997
 1689SOL    HW1 5966   6.557   1.308   2.017
 1689SOL    HW2 5967   6.510   1.191   1.912
 1690SOL     OW 5968   0.715   3.837   4.280
 1690SOL    HW1 5969   0.720   3.738   4.268
 1690SOL    HW2 5970   0.689   3.880   4.193
 1691SOL     OW 5971   5.055   3.272   4.109
 1691SOL    HW1 5972   5.134   3.327   4.137
 1691SOL    HW2 5973   4.985   3.332   4.070
 1692SOL     OW 5974   5.766   4.997   2.056
 1692SOL    HW1 5975   5.852   5.039   2.086
 1692SOL    HW2 5976   5.770   4.898   2.070
 1693SOL     OW 5977   6.804   1.203   5.258
 1693SOL    HW1 5978   6.783   1.124   5.201
 1693SOL    HW2 5979   6.719   1.252   5.278
 1694SOL     OW 5980   6.066   1.199   4.693
 1694SOL    HW1 5981   6.011   1.281   4.676
 1694SOL    HW2 5982   6.019   1.119   4.655
 1695SOL     OW 5983   3.679   0.729   6.844
 1695SOL    HW1 5984   3.603   0.685   6.891
 1695SOL    HW2 5985   3.673   0.711   6.746
 1696SOL     OW 5986   4.119   5.695   0.340
 1696SOL    HW1 5987   4.145   5.649   0.255
 1696SOL    HW2 5988   4.173   5.659   0.416
 1697SOL     OW 5989   6.108   2.398   1.004
 1697SOL    HW1 5990   6.103   2.497   1.016
 1697SOL    HW2 5991   6.018   2.364   0.974
 1698SOL     OW 5992   3.716   1.034   1.780
 1698SOL    HW1 5993   3.799   1.035   1.835
 1698SOL    HW2 5994   3.661   0.953   1.804
 1699SOL     OW 5995   2.884   1.354   6.218
 1699SOL    HW1 5996   2.945   1.342   6.296
 1699SOL    HW2 5997   2.936   1.386   6.140
 1700SOL     OW 5998   5.800   3.309   3.641
 1700SOL    HW1 5999   5.841   3.252   3.569
 1700SOL    HW2 6000   5.723   3.360   3.603
 1701SOL     OW 6001   6.499   4.682   4.797
 1701SOL    HW1 6002   6.421   4.744   4.800
 1701SOL    HW2 6003   6.472   4.596   4.753
 1702SOL     OW 6004   2.113   1.256   6.361
 1702SOL    HW1 6005   2.136   1.212   6.449
 1702SOL    HW2 6006   2.168   1.338   6.350
 1703SOL     OW 6007   3.218   1.453   6.341
 1703SOL    HW1 6008   3.154   1.522   6.308
 1703SOL    HW2 6009   3.193   1.364   6.304
 1704SOL     OW 6010   2.369   1.461   0.350
 1704SOL    HW1 6011   2.380   1.368   0.315
 1704SOL    HW2 6012   2.273   1.489   0.340
 1705SOL     OW 6013   3.948   1.693   1.842
 1705SOL    HW1 6014   3.953   1.789   1.871
 1705SOL    HW2 6015   3.859   1.656   1.867
 1706SOL     OW 6016   4.308   1.671   0.458
 1706SOL    HW1 6017   4.338   1.583   0.496
 1706SOL    HW2 6018   4.247   1.716   0.524
 1707SOL     OW 6019   4.668   1.896   3.031
 1707SOL    HW1 6020   4.679   1.797   3.043
 1707SOL    HW2 6021   4.571   1.917   3.013
 1708SOL     OW 6022   3.568   5.199   2.235
 1708SOL    HW1 6023   3.532   5.108   2.253
 1708SOL    HW2 6024   3.577   5.213   2.136
 1709SOL     OW 6025   4.977   5.669   0.825
 1709SOL    HW1 6026   4.945   5.657   0.919
 1709SOL    HW2 6027   5.067   5.626   0.816
 1710SOL     OW 6028   4.431   5.377   3.527
 1710SOL    HW1 6029   4.334   5.378   3.554
 1710SOL    HW2 6030   4.488   5.373   3.609
 1711SOL     OW 6031   3.575   6.106   5.830
 1711SOL    HW1 6032   3.623   6.175   5.884
 1711SOL    HW2 6033   3.523   6.046   5.892
 1712SOL     OW 6034   0.306   2.045   4.470
 1712SOL    HW1 6035   0.293   2.141   4.496
 1712SOL    HW2 6036   0.223   1.993   4.492
 1713SOL     OW 6037   3.717   0.631   3.157
 1713SOL    HW1 6038   3.773   0.635   3.240
 1713SOL    HW2 6039   3.726   0.717   3.107
 1714SOL     OW 6040   3.916   2.573   6.911
 1714SOL    HW1 6041   3.937   2.511   6.987
 1714SOL    HW2 6042   3.825   2.552   6.876
 1715SOL     OW 6043   1.595   6.055   1.996
 1715SOL    HW1 6044   1.587   5.959   2.025
 1715SOL    HW2 6045   1.528   6.074   1.925
 1716SOL     OW 6046   4.990   0.630   4.364
 1716SOL    HW1 6047   4.988   0.530   4.361
 1716SOL    HW2 6048   5.035   0.660   4.448
 1717SOL     OW 6049   4.287   6.282   5.312
 1717SOL    HW1 6050   4.341   6.366   5.307
 1717SOL    HW2 6051   4.313   6.231   5.395
 1718SOL     OW 6052   2.301   2.284   2.265
 1718SOL    HW1 6053   2.373   2.262   2.331
 1718SOL    HW2 6054   2.237   2.207   2.259
 1719SOL     OW 6055   0.997   4.546   0.919
 1719SOL    HW1 6056   0.934   4.622   0.936
 1719SOL    HW2 6057   1.062   4.539   0.995
 1720SOL     OW 6058   0.011   2.527   5.727
 1720SOL    HW1 6059   6.935   2.554   5.716
 1720SOL    HW2 6060   0.066   2.608   5.745
 1721SOL     OW 6061   1.312   0.457   2.248
 1721SOL    HW1 6062   1.316   0.514   2.330
 1721SOL    HW2 6063   1.216   0.444   2.222
 1722SOL     OW 6064   3.337   1.998   2.880
 1722SOL    HW1 6065   3.377   2.024   2.968
 1722SOL    HW2 6066   3.405   1.951   2.825
 1723SOL     OW 6067   4.687   2.211   0.004
 1723SOL    HW1 6068   4.635   2.294   7.003
 1723SOL    HW2 6069   4.761   2.199   6.958
 1724SOL     OW 6070   6.263   2.481   1.361
 1724SOL    HW1 6071   6.222   2.426   1.288
 1724SOL    HW2 6072   6.354   2.512   1.332
 1725SOL     OW 6073   2.052   4.434   6.720
 1725SOL    HW1 6074   2.083   4.473   6.806
 1725SOL    HW2 6075   2.125   4.378   6.679
 1726SOL     OW 6076   5.544   4.751   3.620
 1726SOL    HW1 6077   5.558   4.723   3.714
 1726SOL    HW2 6078   5.626   4.797   3.586
 1727SOL     OW 6079   3.014   3.637   3.461
 1727SOL    HW1 6080   3.000   3.710   3.395
 1727SOL    HW2 6081   3.102   3.649   3.507
 1728SOL     OW 6082   4.912   4.013   5.392
 1728SOL    HW1 6083   4.881   4.000   5.297
 1728SOL    HW2 6084   4.885   3.934   5.447
 1729SOL     OW 6085   1.813   3.645   1.661
 1729SOL    HW1 6086   1.860   3.557   1.659
 1729SOL    HW2 6087   1.875   3.716   1.696
 1730SOL     OW 6088   2.616   5.550   5.342
 1730SOL    HW1 6089   2.705   5.597   5.344
 1730SOL    HW2 6090   2.592   5.519   5.434
 1731SOL     OW 6091   5.218   4.767   4.223
 1731SOL    HW1 6092   5.132   4.724   4.251
 1731SOL    HW2 6093   5.200   4.836   4.153
 1732SOL     OW 6094   1.903   3.969   6.489
 1732SOL    HW1 6095   1.999   3.942   6.480
 1732SOL    HW2 6096   1.875   3.959   6.585
 1733SOL     OW 6097   2.772   3.763   0.253
 1733SOL    HW1 6098   2.865   3.728   0.242
 1733SOL    HW2 6099   2.738   3.740   0.344
 1734SOL     OW 6100   6.533   3.180   1.638
 1734SOL    HW1 6101   6.630   3.197   1.621
 1734SOL    HW2 6102   6.488   3.154   1.553
 1735SOL     OW 6103   4.512   4.931   6.766
 1735SOL    HW1 6104   4.549   4.921   6.674
 1735SOL    HW2 6105   4.412   4.923   6.763
 1736SOL     OW 6106   4.718   3.506   1.747
 1736SOL    HW1 6107   4.750   3.580   1.687
 1736SOL    HW2 6108   4.771   3.423   1.728
 1737SOL     OW 6109   4.947   1.150   4.558
 1737SOL    HW1 6110   4.978   1.240   4.527
 1737SOL    HW2 6111   4.849   1.143   4.546
 1738SOL     OW 6112   1.510   3.901   4.079
 1738SOL    HW1 6113   1.564   3.928   4.000
 1738SOL    HW2 6114   1.569   3.857   4.147
 1739SOL     OW 6115   5.505   0.325   3.999
 1739SOL    HW1 6116   5.441   0.319   4.075
 1739SOL    HW2 6117   5.455   0.344   3.914
 1740SOL     OW 6118   6.915   2.036   4.698
 1740SOL    HW1 6119   7.002   2.027   4.650
 1740SOL    HW2 6120   6.922   1.994   4.789
 1741SOL     OW 6121   1.644   1.800   4.656
 1741SOL    HW1 6122   1.578   1.782   4.583
 1741SOL    HW2 6123   1.630   1.736   4.731
 1742SOL     OW 6124   6.084   6.407   5.932
 1742SOL    HW1 6125   6.136   6.324   5.955
 1742SOL    HW2 6126   6.025   6.388   5.854
 1743SOL     OW 6127   1.159   1.386   3.573
 1743SOL    HW1 6128   1.236   1.444   3.597
 1743SOL    HW2 6129   1.075   1.441   3.568
 1744SOL     OW 6130   5.273   2.407   3.314
 1744SOL    HW1 6131   5.248   2.310   3.323
 1744SOL    HW2 6132   5.192   2.460   3.288
 1745SOL     OW 6133   6.206   6.049   0.949
 1745SOL    HW1 6134   6.189   6.146   0.966
 1745SOL    HW2 6135   6.253   6.038   0.862
 1746SOL     OW 6136   1.872   3.484   3.510
 1746SOL    HW1 6137   1.848   3.400   3.463
 1746SOL    HW2 6138   1.789   3.534   3.534
 1747SOL     OW 6139   3.517   1.391   2.096
 1747SOL    HW1 6140   3.489   1.441   2.177
 1747SOL    HW2 6141   3.471   1.427   2.015
 1748SOL     OW 6142   6.855   1.487   4.658
 1748SOL    HW1 6143   6.773   1.529   4.696
 1748SOL    HW2 6144   6.890   1.418   4.722
 1749SOL     OW 6145   2.580   5.895   0.825
 1749SOL    HW1 6146   2.558   5.924   0.918
 1749SOL    HW2 6147   2.667   5.846   0.825
 1750SOL     OW 6148   4.458   1.099   5.205
 1750SOL    HW1 6149   4.403   1.015   5.202
 1750SOL    HW2 6150   4.544   1.084   5.156
 1751SOL     OW 6151   6.309   2.864   5.104
 1751SOL    HW1 6152   6.355   2.918   5.174
 1751SOL    HW2 6153   6.372   2.846   5.029
 1752SOL     OW 6154   6.343   1.287   1.156
 1752SOL    HW1 6155   6.250   1.323   1.147
 1752SOL    HW2 6156   6.343   1.207   1.216
 1753SOL     OW 6157   6.935   1.575   1.599
 1753SOL    HW1 6158   0.011   1.575   1.629
 1753SOL    HW2 6159   6.879   1.622   1.666
 1754SOL     OW 6160   2.954   6.258   5.854
 1754SOL    HW1 6161   2.930   6.331   5.791
 1754SOL    HW2 6162   2.971   6.174   5.803
 1755SOL     OW 6163   6.005   0.230   5.247
 1755SOL    HW1 6164   6.028   0.189   5.158
 1755SOL    HW2 6165   5.924   0.184   5.284
 1756SOL     OW 6166   5.651   0.441   6.050
 1756SOL    HW1 6167   5.692   0.368   6.104
 1756SOL    HW2 6168   5.638   0.522   6.108
 1757SOL     OW 6169   2.512   5.367   4.709
 1757SOL    HW1 6170   2.598   5.414   4.728
 1757SOL    HW2 6171   2.519   5.271   4.734
 1758SOL     OW 6172   1.873   0.214   5.189
 1758SOL    HW1 6173   1.957   0.224   5.135
 1758SOL    HW2 6174   1.896   0.177   5.279
 1759SOL     OW 6175   1.418   6.431   0.188
 1759SOL    HW1 6176   1.377   6.350   0.146
 1759SOL    HW2 6177   1.353   6.471   0.252
 1760SOL     OW 6178   6.151   0.835   5.101
 1760SOL    HW1 6179   6.181   0.908   5.040
 1760SOL    HW2 6180   6.056   0.811   5.081
 1761SOL     OW 6181   7.003   2.105   1.091
 1761SOL    HW1 6182   0.002   2.025   1.034
 1761SOL    HW2 6183   0.016   2.089   1.184
 1762SOL     OW 6184   0.227   1.258   5.543
 1762SOL    HW1 6185   0.212   1.170   5.587
 1762SOL    HW2 6186   0.242   1.328   5.613
 1763SOL     OW 6187   1.333   3.546   4.565
 1763SOL    HW1 6188   1.299   3.489   4.491
 1763SOL    HW2 6189   1.377   3.488   4.634
 1764SOL     OW 6190   1.763   4.283   1.921
 1764SOL    HW1 6191   1.801   4.191   1.912
 1764SOL    HW2 6192   1.825   4.349   1.879
 1765SOL     OW 6193   5.395   3.022   2.093
 1765SOL    HW1 6194   5.417   2.982   2.004
 1765SOL    HW2 6195   5.461   2.990   2.161
 1766SOL     OW 6196   4.170   4.762   4.274
 1766SOL    HW1 6197   4.164   4.782   4.176
 1766SOL    HW2 6198   4.088   4.796   4.320
 1767SOL     OW 6199   6.922   5.329   2.145
 1767SOL    HW1 6200   6.846   5.287   2.094
 1767SOL    HW2 6201   6.893   5.348   2.238
 1768SOL     OW 6202   4.647   6.517   1.947
 1768SOL    HW1 6203   4.592   6.548   2.024
 1768SOL    HW2 6204   4.649   6.587   1.876
 1769SOL     OW 6205   5.732   0.260   6.237
 1769SOL    HW1 6206   5.818   0.217   6.264
 1769SOL    HW2 6207   5.693   0.310   6.315
 1770SOL     OW 6208   1.388   4.504   5.670
 1770SOL    HW1 6209   1.401   4.579   5.735
 1770SOL    HW2 6210   1.476   4.463   5.648
 1771SOL     OW 6211   0.723   3.351   6.757
 1771SOL    HW1 6212   0.718   3.266   6.809
 1771SOL    HW2 6213   0.813   3.392   6.770
 1772SOL     OW 6214   2.739   4.793   3.900
 1772SOL    HW1 6215   2.715   4.718   3.962
 1772SOL    HW2 6216   2.838   4.793   3.885
 1773SOL     OW 6217   0.638   0.044   4.986
 1773SOL    HW1 6218   0.598   6.990   4.932
 1773SOL    HW2 6219   0.623   0.131   4.939
 1774SOL     OW 6220   5.785   5.872   1.489
 1774SOL    HW1 6221   5.831   5.936   1.428
 1774SOL    HW2 6222   5.852   5.834   1.554
 1775SOL     OW 6223   1.627   5.483   6.864
 1775SOL    HW1 6224   1.694   5.444   6.927
 1775SOL    HW2 6225   1.672   5.550   6.805
 1776SOL     OW 6226   4.303   1.232   5.424
 1776SOL    HW1 6227   4.365   1.169   5.378
 1776SOL    HW2 6228   4.355   1.308   5.463
 1777SOL     OW 6229   4.263   6.312   6.822
 1777SOL    HW1 6230   4.192   6.355   6.877
 1777SOL    HW2 6231   4.298   6.378   6.755
 1778SOL     OW 6232   5.964   0.885   3.874
 1778SOL    HW1 6233   6.048   0.839   3.848
 1778SOL    HW2 6234   5.896   0.874   3.801
 1779SOL     OW 6235   5.629   6.754   4.059
 1779SOL    HW1 6236   5.589   6.846   4.060
 1779SOL    HW2 6237   5.617   6.712   4.149
 1780SOL     OW 6238   1.774   5.613   5.008
 1780SOL    HW1 6239   1.732   5.607   4.917
 1780SOL    HW2 6240   1.705   5.637   5.075
 1781SOL     OW 6241   4.437   0.372   3.870
 1781SOL    HW1 6242   4.412   0.456   3.917
 1781SOL    HW2 6243   4.484   0.310   3.933
 1782SOL     OW 6244   1.626   1.849   2.978
 1782SOL    HW1 6245   1.615   1.753   3.002
 1782SOL    HW2 6246   1.640   1.857   2.879
 1783SOL     OW 6247   2.165   3.943   5.727
 1783SOL    HW1 6248   2.215   4.029   5.732
 1783SOL    HW2 6249   2.229   3.868   5.710
 1784SOL     OW 6250   2.762   0.632   0.903
 1784SOL    HW1 6251   2.772   0.554   0.842
 1784SOL    HW2 6252   2.761   0.601   0.998
 1785SOL     OW 6253   0.970   6.741   4.370
 1785SOL    HW1 6254   0.979   6.644   4.393
 1785SOL    HW2 6255   1.038   6.793   4.422
 1786SOL     OW 6256   1.644   5.951   0.481
 1786SOL    HW1 6257   1.687   6.012   0.413
 1786SOL    HW2 6258   1.592   5.881   0.433
 1787SOL     OW 6259   1.902   3.298   5.765
 1787SOL    HW1 6260   1.961   3.222   5.737
 1787SOL    HW2 6261   1.934   3.382   5.721
 1788SOL     OW 6262   4.947   3.875   0.706
 1788SOL    HW1 6263   4.850   3.888   0.687
 1788SOL    HW2 6264   4.984   3.804   0.645
 1789SOL     OW 6265   6.692   3.803   1.655
 1789SOL    HW1 6266   6.627   3.726   1.650
 1789SOL    HW2 6267   6.651   3.878   1.707
 1790SOL     OW 6268   2.699   2.294   4.245
 1790SOL    HW1 6269   2.695   2.230   4.168
 1790SOL    HW2 6270   2.629   2.364   4.232
 1791SOL     OW 6271   6.007   0.139   3.539
 1791SOL    HW1 6272   6.033   0.064   3.599
 1791SOL    HW2 6273   5.990   0.104   3.447
 1792SOL     OW 6274   6.483   1.755   5.380
 1792SOL    HW1 6275   6.469   1.658   5.401
 1792SOL    HW2 6276   6.422   1.810   5.437
 1793SOL     OW 6277   0.127   0.954   5.549
 1793SOL    HW1 6278   0.053   0.909   5.599
 1793SOL    HW2 6279   0.178   0.887   5.495
 1794SOL     OW 6280   0.082   0.200   6.242
 1794SOL    HW1 6281   0.179   0.222   6.251
 1794SOL    HW2 6282   0.031   0.245   6.315
 1795SOL     OW 6283   6.121   4.474   0.295
 1795SOL    HW1 6284   6.158   4.381   0.300
 1795SOL    HW2 6285   6.029   4.471   0.255
 1796SOL     OW 6286   0.730   7.000   5.659
 1796SOL    HW1 6287   0.732   0.053   5.727
 1796SOL    HW2 6288   0.758   0.015   5.570
 1797SOL     OW 6289   2.417   6.162   4.617
 1797SOL    HW1 6290   2.324   6.133   4.595
 1797SOL    HW2 6291   2.482   6.097   4.577
 1798SOL     OW 6292   3.382   3.983   4.744
 1798SOL    HW1 6293   3.406   3.954   4.836
 1798SOL    HW2 6294   3.287   4.016   4.742
 1799SOL     OW 6295   3.215   1.116   0.315
 1799SOL    HW1 6296   3.132   1.068   0.347
 1799SOL    HW2 6297   3.189   1.197   0.263
 1800SOL     OW 6298   5.206   3.220   4.472
 1800SOL    HW1 6299   5.196   3.286   4.398
 1800SOL    HW2 6300   5.238   3.267   4.554
 1801SOL     OW 6301   1.029   1.690   2.132
 1801SOL    HW1 6302   1.079   1.765   2.089
 1801SOL    HW2 6303   0.931   1.712   2.136
 1802SOL     OW 6304   6.394   4.665   3.721
 1802SOL    HW1 6305   6.470   4.602   3.705
 1802SOL    HW2 6306   6.385   4.727   3.643
 1803SOL     OW 6307   0.819   6.412   2.504
 1803SOL    HW1 6308   0.771   6.415   2.416
 1803SOL    HW2 6309   0.901   6.470   2.498
 1804SOL     OW 6310   2.445   3.365   6.051
 1804SOL    HW1 6311   2.510   3.364   5.975
 1804SOL    HW2 6312   2.404   3.455   6.059
 1805SOL     OW 6313   0.179   6.363   5.690
 1805SOL    HW1 6314   0.262   6.401   5.649
 1805SOL    HW2 6315   0.169   6.267   5.662
 1806SOL     OW 6316   6.988   2.239   1.914
 1806SOL    HW1 6317   6.978   2.314   1.979
 1806SOL    HW2 6318   0.063   2.236   1.882
 1807SOL     OW 6319   6.556   4.043   1.776
 1807SOL    HW1 6320   6.520   4.060   1.868
 1807SOL    HW2 6321   6.512   4.105   1.711
 1808SOL     OW 6322   5.609   2.113   5.684
 1808SOL    HW1 6323   5.572   2.129   5.775
 1808SOL    HW2 6324   5.656   2.196   5.652
 1809SOL     OW 6325   3.804   2.140   5.123
 1809SOL    HW1 6326   3.850   2.098   5.201
 1809SOL    HW2 6327   3.706   2.123   5.128
 1810SOL     OW 6328   0.578   6.789   4.093
 1810SOL    HW1 6329   0.495   6.814   4.044
 1810SOL    HW2 6330   0.649   6.858   4.078
 1811SOL     OW 6331   3.764   5.298   2.776
 1811SOL    HW1 6332   3.765   5.271   2.680
 1811SOL    HW2 6333   3.831   5.244   2.827
 1812SOL     OW 6334   4.572   0.047   6.083
 1812SOL    HW1 6335   4.640   0.096   6.137
 1812SOL    HW2 6336   4.481   0.084   6.102
 1813SOL     OW 6337   4.491   4.773   2.549
 1813SOL    HW1 6338   4.463   4.764   2.644
 1813SOL    HW2 6339   4.424   4.728   2.490
 1814SOL     OW 6340   0.577   6.542   0.267
 1814SOL    HW1 6341   0.575   6.526   0.168
 1814SOL    HW2 6342   0.632   6.623   0.286
 1815SOL     OW 6343   5.525   5.933   2.068
 1815SOL    HW1 6344   5.517   6.025   2.106
 1815SOL    HW2 6345   5.588   5.879   2.123
 1816SOL     OW 6346   3.910   5.821   5.551
 1816SOL    HW1 6347   3.959   5.804   5.636
 1816SOL    HW2 6348   3.936   5.753   5.483
 1817SOL     OW 6349   1.687   1.523   3.719
 1817SOL    HW1 6350   1.607   1.494   3.667
 1817SOL    HW2 6351   1.770   1.487   3.677
 1818SOL     OW 6352   2.593   6.385   0.173
 1818SOL    HW1 6353   2.665   6.451   0.195
 1818SOL    HW2 6354   2.511   6.434   0.144
 1819SOL     OW 6355   2.098   4.798   2.988
 1819SOL    HW1 6356   2.032   4.739   2.942
 1819SOL    HW2 6357   2.190   4.780   2.952
 1820SOL     OW 6358   3.561   0.671   3.861
 1820SOL    HW1 6359   3.464   0.684   3.842
 1820SOL    HW2 6360   3.612   0.750   3.826
 1821SOL     OW 6361   4.714   1.234   2.532
 1821SOL    HW1 6362   4.660   1.256   2.451
 1821SOL    HW2 6363   4.756   1.143   2.521
 1822SOL     OW 6364   0.745   3.233   2.052
 1822SOL    HW1 6365   0.776   3.193   2.138
 1822SOL    HW2 6366   0.677   3.173   2.010
 1823SOL     OW 6367   3.804   6.326   2.460
 1823SOL    HW1 6368   3.830   6.290   2.550
 1823SOL    HW2 6369   3.705   6.320   2.450
 1824SOL     OW 6370   4.149   3.413   1.120
 1824SOL    HW1 6371   4.129   3.433   1.216
 1824SOL    HW2 6372   4.248   3.403   1.108
 1825SOL     OW 6373   1.927   1.724   5.239
 1825SOL    HW1 6374   1.947   1.822   5.237
 1825SOL    HW2 6375   1.846   1.708   5.295
 1826SOL     OW 6376   3.533   2.328   1.589
 1826SOL    HW1 6377   3.595   2.334   1.667
 1826SOL    HW2 6378   3.466   2.402   1.594
 1827SOL     OW 6379   5.947   4.819   0.384
 1827SOL    HW1 6380   5.990   4.729   0.372
 1827SOL    HW2 6381   5.994   4.869   0.456
 1828SOL     OW 6382   1.486   3.564   5.610
 1828SOL    HW1 6383   1.515   3.468   5.613
 1828SOL    HW2 6384   1.541   3.618   5.674
 1829SOL     OW 6385   3.158   1.320   3.811
 1829SOL    HW1 6386   3.201   1.248   3.866
 1829SOL    HW2 6387   3.085   1.280   3.756
 1830SOL     OW 6388   5.966   6.558   4.604
 1830SOL    HW1 6389   6.062   6.536   4.588
 1830SOL    HW2 6390   5.909   6.502   4.543
 1831SOL     OW 6391   4.672   5.671   2.696
 1831SOL    HW1 6392   4.634   5.620   2.618
 1831SOL    HW2 6393   4.621   5.756   2.707
 1832SOL     OW 6394   2.185   3.112   0.818
 1832SOL    HW1 6395   2.159   3.199   0.776
 1832SOL    HW2 6396   2.119   3.088   0.889
 1833SOL     OW 6397   4.855   0.428   1.388
 1833SOL    HW1 6398   4.774   0.402   1.335
 1833SOL    HW2 6399   4.851   0.384   1.478
 1834SOL     OW 6400   2.297   2.666   6.853
 1834SOL    HW1 6401   2.351   2.622   6.924
 1834SOL    HW2 6402   2.268   2.598   6.786
 1835SOL     OW 6403   0.469   5.061   1.481
 1835SOL    HW1 6404   0.523   5.128   1.431
 1835SOL    HW2 6405   0.487   5.068   1.578
 1836SOL     OW 6406   5.492   2.075   1.419
 1836SOL    HW1 6407   5.470   2.068   1.322
 1836SOL    HW2 6408   5.410   2.101   1.470
 1837SOL     OW 6409   2.859   1.612   6.536
 1837SOL    HW1 6410   2.829   1.547   6.606
 1837SOL    HW2 6411   2.789   1.683   6.525
 1838SOL     OW 6412   5.926   0.668   0.882
 1838SOL    HW1 6413   5.914   0.577   0.842
 1838SOL    HW2 6414   5.918   0.737   0.810
 1839SOL     OW 6415   5.358   1.441   6.831
 1839SOL    HW1 6416   5.289   1.394   6.886
 1839SOL    HW2 6417   5.368   1.394   6.743
 1840SOL     OW 6418   4.065   0.042   3.057
 1840SOL    HW1 6419   4.025   0.089   2.978
 1840SOL    HW2 6420   4.061   6.963   3.043
 1841SOL     OW 6421   2.172   1.260   2.099
 1841SOL    HW1 6422   2.131   1.197   2.165
 1841SOL    HW2 6423   2.271   1.261   2.111
 1842SOL     OW 6424   1.774   5.145   0.490
 1842SOL    HW1 6425   1.705   5.159   0.419
 1842SOL    HW2 6426   1.861   5.120   0.448
 1843SOL     OW 6427   3.014   1.217   4.616
 1843SOL    HW1 6428   2.961   1.141   4.578
 1843SOL    HW2 6429   3.110   1.188   4.627
 1844SOL     OW 6430   4.856   1.526   6.466
 1844SOL    HW1 6431   4.824   1.537   6.372
 1844SOL    HW2 6432   4.810   1.592   6.525
 1845SOL     OW 6433   2.192   1.416   3.035
 1845SOL    HW1 6434   2.252   1.495   3.035
 1845SOL    HW2 6435   2.205   1.363   3.119
 1846SOL     OW 6436   4.208   1.281   2.454
 1846SOL    HW1 6437   4.253   1.280   2.364
 1846SOL    HW2 6438   4.242   1.205   2.509
 1847SOL     OW 6439   2.156   0.039   4.736
 1847SOL    HW1 6440   2.246   0.015   4.699
 1847SOL    HW2 6441   2.108   0.098   4.672
 1848SOL     OW 6442   2.240   5.468   4.362
 1848SOL    HW1 6443   2.231   5.484   4.461
 1848SOL    HW2 6444   2.336   5.456   4.339
 1849SOL     OW 6445   4.614   2.566   2.157
 1849SOL    HW1 6446   4.525   2.538   2.121
 1849SOL    HW2 6447   4.660   2.623   2.089
 1850SOL     OW 6448   5.197   1.939   2.000
 1850SOL    HW1 6449   5.196   2.010   2.071
 1850SOL    HW2 6450   5.187   1.850   2.043
 1851SOL     OW 6451   6.701   3.486   5.667
 1851SOL    HW1 6452   6.756   3.568   5.649
 1851SOL    HW2 6453   6.649   3.499   5.751
 1852SOL     OW 6454   1.679   5.244   2.102
 1852SOL    HW1 6455   1.624   5.162   2.117
 1852SOL    HW2 6456   1.755   5.223   2.041
 1853SOL     OW 6457   0.712   2.654   4.913
 1853SOL    HW1 6458   0.726   2.690   4.821
 1853SOL    HW2 6459   0.674   2.725   4.972
 1854SOL     OW 6460   0.564   6.243   3.708
 1854SOL    HW1 6461   0.588   6.148   3.689
 1854SOL    HW2 6462   0.570   6.296   3.624
 1855SOL     OW 6463   4.890   3.342   5.189
 1855SOL    HW1 6464   4.827   3.408   5.149
 1855SOL    HW2 6465   4.844   3.254   5.202
 1856SOL     OW 6466   3.386   2.983   0.163
 1856SOL    HW1 6467   3.410   2.909   0.226
 1856SOL    HW2 6468   3.450   2.985   0.086
 1857SOL     OW 6469   4.978   0.597   0.287
 1857SOL    HW1 6470   5.056   0.577   0.347
 1857SOL    HW2 6471   5.012   0.619   0.196
 1858SOL     OW 6472   4.140   2.230   4.393
 1858SOL    HW1 6473   4.164   2.143   4.349
 1858SOL    HW2 6474   4.041   2.245   4.384
 1859SOL     OW 6475   5.076   2.325   4.126
 1859SOL    HW1 6476   5.027   2.314   4.213
 1859SOL    HW2 6477   5.034   2.398   4.073
 1860SOL     OW 6478   1.407   1.198   4.766
 1860SOL    HW1 6479   1.460   1.189   4.682
 1860SOL    HW2 6480   1.310   1.181   4.746
 1861SOL     OW 6481   6.413   0.433   3.056
 1861SOL    HW1 6482   6.455   0.389   2.977
 1861SOL    HW2 6483   6.402   0.367   3.129
 1862SOL     OW 6484   2.551   5.974   6.415
 1862SOL    HW1 6485   2.536   6.050   6.352
 1862SOL    HW2 6486   2.643   5.981   6.454
 1863SOL     OW 6487   0.046   2.969   1.404
 1863SOL    HW1 6488   0.062   2.906   1.327
 1863SOL    HW2 6489   0.046   3.063   1.370
 1864SOL     OW 6490   3.390   5.823   3.066
 1864SOL    HW1 6491   3.329   5.885   3.116
 1864SOL    HW2 6492   3.428   5.755   3.129
 1865SOL     OW 6493   5.327   1.433   6.027
 1865SOL    HW1 6494   5.351   1.530   6.017
 1865SOL    HW2 6495   5.253   1.423   6.093
 1866SOL     OW 6496   0.386   4.601   3.394
 1866SOL    HW1 6497   0.374   4.632   3.299
 1866SOL    HW2 6498   0.385   4.501   3.396
 1867SOL     OW 6499   2.204   2.597   0.983
 1867SOL    HW1 6500   2.289   2.576   1.032
 1867SOL    HW2 6501   2.211   2.688   0.941
 1868SOL     OW 6502   5.975   4.685   5.588
 1868SOL    HW1 6503   6.042   4.668   5.660
 1868SOL    HW2 6504   5.933   4.775   5.602
 1869SOL     OW 6505   4.308   2.070   4.220
 1869SOL    HW1 6506   4.308   1.970   4.223
 1869SOL    HW2 6507   4.367   2.101   4.145
 1870SOL     OW 6508   0.578   4.972   4.016
 1870SOL    HW1 6509   0.669   4.996   4.053
 1870SOL    HW2 6510   0.585   4.958   3.918
 1871SOL     OW 6511   1.214   6.580   0.321
 1871SOL    HW1 6512   1.184   6.633   0.242
 1871SOL    HW2 6513   1.142   6.580   0.391
 1872SOL     OW 6514   2.631   2.398   0.833
 1872SOL    HW1 6515   2.666   2.350   0.914
 1872SOL    HW2 6516   2.695   2.469   0.806
 1873SOL     OW 6517   6.613   0.782   6.907
 1873SOL    HW1 6518   6.654   0.858   6.857
 1873SOL    HW2 6519   6.514   0.783   6.892
 1874SOL     OW 6520   1.256   6.216   0.090
 1874SOL    HW1 6521   1.301   6.139   0.135
 1874SOL    HW2 6522   1.247   6.198   7.012
 1875SOL     OW 6523   6.098   5.015   6.999
 1875SOL    HW1 6524   6.146   5.102   7.008
 1875SOL    HW2 6525   6.163   4.944   6.974
 1876SOL     OW 6526   6.625   6.155   6.188
 1876SOL    HW1 6527   6.626   6.168   6.089
 1876SOL    HW2 6528   6.548   6.096   6.213
 1877SOL     OW 6529   0.557   1.228   2.285
 1877SOL    HW1 6530   0.566   1.288   2.206
 1877SOL    HW2 6531   0.491   1.268   2.349
 1878SOL     OW 6532   0.125   4.694   3.314
 1878SOL    HW1 6533   0.129   4.751   3.233
 1878SOL    HW2 6534   0.184   4.732   3.386
 1879SOL     OW 6535   3.721   5.559   4.917
 1879SOL    HW1 6536   3.653   5.506   4.967
 1879SOL    HW2 6537   3.722   5.530   4.821
 1880SOL     OW 6538   0.404   1.729   3.701
 1880SOL    HW1 6539   0.316   1.722   3.749
 1880SOL    HW2 6540   0.475   1.684   3.754
 1881SOL     OW 6541   1.392   1.536   3.910
 1881SOL    HW1 6542   1.299   1.512   3.938
 1881SOL    HW2 6543   1.456   1.472   3.952
 1882SOL     OW 6544   1.358   5.455   0.255
 1882SOL    HW1 6545   1.258   5.452   0.254
 1882SOL    HW2 6546   1.390   5.451   0.350
 1883SOL     OW 6547   1.454   3.152   3.182
 1883SOL    HW1 6548   1.491   3.158   3.274
 1883SOL    HW2 6549   1.528   3.159   3.116
 1884SOL     OW 6550   2.984   0.971   0.392
 1884SOL    HW1 6551   2.923   1.050   0.400
 1884SOL    HW2 6552   2.932   0.887   0.411
 1885SOL     OW 6553   0.092   2.364   0.986
 1885SOL    HW1 6554   0.074   2.285   1.044
 1885SOL    HW2 6555   0.049   2.351   0.896
 1886SOL     OW 6556   2.518   2.587   0.014
 1886SOL    HW1 6557   2.612   2.582   0.047
 1886SOL    HW2 6558   2.473   2.498   0.027
 1887SOL     OW 6559   1.492   6.270   5.522
 1887SOL    HW1 6560   1.400   6.231   5.527
 1887SOL    HW2 6561   1.498   6.350   5.582
 1888SOL     OW 6562   1.701   2.255   6.571
 1888SOL    HW1 6563   1.713   2.219   6.478
 1888SOL    HW2 6564   1.662   2.184   6.629
 1889SOL     OW 6565   4.731   3.016   0.238
 1889SOL    HW1 6566   4.660   3.048   0.300
 1889SOL    HW2 6567   4.694   3.015   0.144
 1890SOL     OW 6568   0.244   6.107   6.086
 1890SOL    HW1 6569   0.335   6.147   6.074
 1890SOL    HW2 6570   0.248   6.010   6.062
 1891SOL     OW 6571   6.211   3.474   5.567
 1891SOL    HW1 6572   6.195   3.406   5.496
 1891SOL    HW2 6573   6.283   3.537   5.538
 1892SOL     OW 6574   4.027   5.174   2.013
 1892SOL    HW1 6575   3.975   5.146   2.093
 1892SOL    HW2 6576   3.982   5.141   1.930
 1893SOL     OW 6577   4.033   1.924   4.273
 1893SOL    HW1 6578   3.995   1.834   4.251
 1893SOL    HW2 6579   4.040   1.979   4.190
 1894SOL     OW 6580   4.696   3.715   1.089
 1894SOL    HW1 6581   4.790   3.688   1.112
 1894SOL    HW2 6582   4.688   3.814   1.090
 1895SOL     OW 6583   6.174   0.961   3.244
 1895SOL    HW1 6584   6.132   0.942   3.333
 1895SOL    HW2 6585   6.261   0.912   3.238
 1896SOL     OW 6586   6.916   1.331   4.882
 1896SOL    HW1 6587   6.860   1.351   4.963
 1896SOL    HW2 6588   7.006   1.372   4.893
 1897SOL     OW 6589   5.420   4.657   3.113
 1897SOL    HW1 6590   5.453   4.647   3.020
 1897SOL    HW2 6591   5.361   4.738   3.120
 1898SOL     OW 6592   5.352   4.937   1.114
 1898SOL    HW1 6593   5.297   5.014   1.082
 1898SOL    HW2 6594   5.389   4.957   1.205
 1899SOL     OW 6595   0.883   2.786   3.123
 1899SOL    HW1 6596   0.801   2.766   3.177
 1899SOL    HW2 6597   0.860   2.790   3.026
 1900SOL     OW 6598   1.550   5.573   6.279
 1900SOL    HW1 6599   1.552   5.596   6.182
 1900SOL    HW2 6600   1.486   5.633   6.327
 1901SOL     OW 6601   1.828   0.731   6.927
 1901SOL    HW1 6602   1.812   0.666   7.002
 1901SOL    HW2 6603   1.923   0.762   6.929
 1902SOL     OW 6604   0.917   2.982   4.727
 1902SOL    HW1 6605   0.948   2.890   4.705
 1902SOL    HW2 6606   0.876   3.023   4.646
 1903SOL     OW 6607   6.316   3.593   3.169
 1903SOL    HW1 6608   6.294   3.615   3.264
 1903SOL    HW2 6609   6.362   3.504   3.166
 1904SOL     OW 6610   6.372   6.886   3.981
 1904SOL    HW1 6611   6.415   6.904   3.892
 1904SOL    HW2 6612   6.404   6.799   4.016
 1905SOL     OW 6613   0.481   2.207   3.569
 1905SOL    HW1 6614   0.485   2.135   3.638
 1905SOL    HW2 6615   0.537   2.181   3.490
 1906SOL     OW 6616   2.498   0.272   6.545
 1906SOL    HW1 6617   2.558   0.339   6.500
 1906SOL    HW2 6618   2.408   0.312   6.559
 1907SOL     OW 6619   3.461   6.228   3.494
 1907SOL    HW1 6620   3.421   6.256   3.581
 1907SOL    HW2 6621   3.533   6.160   3.510
 1908SOL     OW 6622   4.031   1.505   5.903
 1908SOL    HW1 6623   4.085   1.552   5.972
 1908SOL    HW2 6624   3.995   1.420   5.942
 1909SOL     OW 6625   2.365   4.960   4.652
 1909SOL    HW1 6626   2.421   5.035   4.686
 1909SOL    HW2 6627   2.421   4.899   4.596
 1910SOL     OW 6628   5.456   2.199   5.902
 1910SOL    HW1 6629   5.448   2.187   6.001
 1910SOL    HW2 6630   5.426   2.291   5.877
 1911SOL     OW 6631   6.416   2.750   4.889
 1911SOL    HW1 6632   6.428   2.820   4.819
 1911SOL    HW2 6633   6.441   2.661   4.852
 1912SOL     OW 6634   3.838   0.220   2.463
 1912SOL    HW1 6635   3.742   0.245   2.444
 1912SOL    HW2 6636   3.853   0.125   2.436
 1913SOL     OW 6637   1.286   5.606   5.573
 1913SOL    HW1 6638   1.259   5.520   5.616
 1913SOL    HW2 6639   1.266   5.603   5.475
 1914SOL     OW 6640   3.263   2.403   6.072
 1914SOL    HW1 6641   3.260   2.317   6.020
 1914SOL    HW2 6642   3.173   2.445   6.074
 1915SOL     OW 6643   3.755   0.287   6.147
 1915SOL    HW1 6644   3.715   0.213   6.092
 1915SOL    HW2 6645   3.809   0.347   6.088
 1916SOL     OW 6646   3.077   5.882   2.188
 1916SOL    HW1 6647   2.986   5.897   2.226
 1916SOL    HW2 6648   3.070   5.859   2.091
 1917SOL     OW 6649   2.992   3.653   4.213
 1917SOL    HW1 6650   2.999   3.702   4.126
 1917SOL    HW2 6651   2.960   3.716   4.284
 1918SOL     OW 6652   5.413   5.868   5.706
 1918SOL    HW1 6653   5.320   5.849   5.674
 1918SOL    HW2 6654   5.479   5.827   5.642
 1919SOL     OW 6655   0.553   5.984   1.897
 1919SOL    HW1 6656   0.457   5.989   1.925
 1919SOL    HW2 6657   0.576   5.890   1.872
 1920SOL     OW 6658   0.413   5.522   3.817
 1920SOL    HW1 6659   0.373   5.607   3.852
 1920SOL    HW2 6660   0.434   5.461   3.893
 1921SOL     OW 6661   1.270   6.221   6.811
 1921SOL    HW1 6662   1.213   6.301   6.792
 1921SOL    HW2 6663   1.367   6.245   6.802
 1922SOL     OW 6664   3.937   3.971   1.114
 1922SOL    HW1 6665   3.953   3.887   1.062
 1922SOL    HW2 6666   3.958   4.050   1.057
 1923SOL     OW 6667   2.202   1.364   0.888
 1923SOL    HW1 6668   2.106   1.337   0.884
 1923SOL    HW2 6669   2.236   1.379   0.795
 1924SOL     OW 6670   0.030   4.042   2.003
 1924SOL    HW1 6671   0.078   3.967   1.957
 1924SOL    HW2 6672   0.097   4.110   2.034
 1925SOL     OW 6673   3.494   3.854   1.774
 1925SOL    HW1 6674   3.536   3.945   1.769
 1925SOL    HW2 6675   3.418   3.855   1.839
 1926SOL     OW 6676   1.259   0.101   4.421
 1926SOL    HW1 6677   1.170   0.077   4.383
 1926SOL    HW2 6678   1.307   0.163   4.359
 1927SOL     OW 6679   3.881   4.063   6.957
 1927SOL    HW1 6680   3.808   4.052   6.889
 1927SOL    HW2 6681   3.968   4.079   6.911
 1928SOL     OW 6682   6.129   4.193   5.720
 1928SOL    HW1 6683   6.182   4.109   5.713
 1928SOL    HW2 6684   6.135   4.244   5.634
 1929SOL     OW 6685   0.994   6.193   1.059
 1929SOL    HW1 6686   1.067   6.260   1.073
 1929SOL    HW2 6687   1.000   6.156   0.967
 1930SOL     OW 6688   5.875   4.800   6.251
 1930SOL    HW1 6689   5.825   4.883   6.277
 1930SOL    HW2 6690   5.827   4.720   6.285
 1931SOL     OW 6691   0.889   3.596   4.087
 1931SOL    HW1 6692   0.794   3.598   4.119
 1931SOL    HW2 6693   0.898   3.655   4.007
 1932SOL     OW 6694   5.058   4.170   2.051
 1932SOL    HW1 6695   5.076   4.152   2.148
 1932SOL    HW2 6696   4.973   4.223   2.043
 1933SOL     OW 6697   2.360   4.567   0.675
 1933SOL    HW1 6698   2.363   4.595   0.579
 1933SOL    HW2 6699   2.264   4.557   0.703
 1934SOL     OW 6700   1.106   0.032   5.806
 1934SOL    HW1 6701   1.057   6.981   5.756
 1934SOL    HW2 6702   1.165   0.083   5.743
 1935SOL     OW 6703   2.429   6.979   3.856
 1935SOL    HW1 6704   2.513   6.952   3.904
 1935SOL    HW2 6705   2.388   6.898   3.814
 1936SOL     OW 6706   5.749   6.202   4.686
 1936SOL    HW1 6707   5.778   6.263   4.760
 1936SOL    HW2 6708   5.823   6.194   4.619
 1937SOL     OW 6709   3.854   6.370   2.022
 1937SOL    HW1 6710   3.762   6.409   2.013
 1937SOL    HW2 6711   3.904   6.384   1.936
 1938SOL     OW 6712   4.126   1.155   3.590
 1938SOL    HW1 6713   4.100   1.128   3.683
 1938SOL    HW2 6714   4.052   1.210   3.550
 1939SOL     OW 6715   1.535   0.990   3.585
 1939SOL    HW1 6716   1.599   0.921   3.619
 1939SOL    HW2 6717   1.448   0.982   3.634
 1940SOL     OW 6718   6.862   5.152   0.130
 1940SOL    HW1 6719   6.928   5.227   0.132
 1940SOL    HW2 6720   6.810   5.151   0.215
 1941SOL     OW 6721   5.920   3.639   2.519
 1941SOL    HW1 6722   5.995   3.643   2.452
 1941SOL    HW2 6723   5.937   3.707   2.591
 1942SOL     OW 6724   6.787   5.301   2.394
 1942SOL    HW1 6725   6.758   5.335   2.483
 1942SOL    HW2 6726   6.858   5.231   2.406
 1943SOL     OW 6727   2.225   4.107   3.312
 1943SOL    HW1 6728   2.237   4.095   3.213
 1943SOL    HW2 6729   2.265   4.193   3.341
 1944SOL     OW 6730   5.433   1.390   6.567
 1944SOL    HW1 6731   5.441   1.304   6.517
 1944SOL    HW2 6732   5.523   1.417   6.601
 1945SOL     OW 6733   4.240   5.587   3.770
 1945SOL    HW1 6734   4.142   5.577   3.787
 1945SOL    HW2 6735   4.264   5.684   3.773
 1946SOL     OW 6736   1.604   0.303   0.457
 1946SOL    HW1 6737   1.654   0.388   0.473
 1946SOL    HW2 6738   1.631   0.264   0.369
 1947SOL     OW 6739   5.452   6.689   3.817
 1947SOL    HW1 6740   5.435   6.618   3.749
 1947SOL    HW2 6741   5.536   6.668   3.867
 1948SOL     OW 6742   6.700   5.668   3.979
 1948SOL    HW1 6743   6.642   5.744   4.007
 1948SOL    HW2 6744   6.687   5.591   4.042
 1949SOL     OW 6745   4.532   4.275   6.359
 1949SOL    HW1 6746   4.546   4.182   6.391
 1949SOL    HW2 6747   4.596   4.336   6.405
 1950SOL     OW 6748   3.399   3.856   6.687
 1950SOL    HW1 6749   3.373   3.941   6.733
 1950SOL    HW2 6750   3.345   3.844   6.604
 1951SOL     OW 6751   5.536   1.716   0.143
 1951SOL    HW1 6752   5.509   1.783   0.212
 1951SOL    HW2 6753   5.572   1.763   0.062
 1952SOL     OW 6754   3.936   2.009   0.947
 1952SOL    HW1 6755   3.936   2.097   0.995
 1952SOL    HW2 6756   3.875   2.014   0.868
 1953SOL     OW 6757   0.066   2.290   6.631
 1953SOL    HW1 6758   7.019   2.340   6.685
 1953SOL    HW2 6759   0.155   2.336   6.637
 1954SOL     OW 6760   4.307   1.851   3.707
 1954SOL    HW1 6761   4.254   1.775   3.670
 1954SOL    HW2 6762   4.359   1.819   3.786
 1955SOL     OW 6763   0.669   6.730   1.993
 1955SOL    HW1 6764   0.628   6.803   2.048
 1955SOL    HW2 6765   0.755   6.763   1.954
 1956SOL     OW 6766   5.420   5.765   2.402
 1956SOL    HW1 6767   5.328   5.727   2.412
 1956SOL    HW2 6768   5.466   5.764   2.491
 1957SOL     OW 6769   0.523   5.568   4.771
 1957SOL    HW1 6770   0.497   5.489   4.827
 1957SOL    HW2 6771   0.622   5.567   4.756
 1958SOL     OW 6772   5.198   3.333   5.337
 1958SOL    HW1 6773   5.130   3.313   5.267
 1958SOL    HW2 6774   5.189   3.428   5.366
 1959SOL     OW 6775   1.296   2.022   5.839
 1959SOL    HW1 6776   1.282   2.014   5.937
 1959SOL    HW2 6777   1.207   2.024   5.793
 1960SOL     OW 6778   6.286   5.040   0.362
 1960SOL    HW1 6779   6.206   5.083   0.319
 1960SOL    HW2 6780   6.319   4.966   0.304
 1961SOL     OW 6781   5.835   4.628   3.622
 1961SOL    HW1 6782   5.803   4.566   3.550
 1961SOL    HW2 6783   5.788   4.607   3.707
 1962SOL     OW 6784   1.342   6.326   3.469
 1962SOL    HW1 6785   1.353   6.368   3.379
 1962SOL    HW2 6786   1.396   6.242   3.473
 1963SOL     OW 6787   0.613   0.132   2.623
 1963SOL    HW1 6788   0.637   0.182   2.706
 1963SOL    HW2 6789   0.529   0.170   2.584
 1964SOL     OW 6790   4.550   2.380   1.786
 1964SOL    HW1 6791   4.490   2.343   1.857
 1964SOL    HW2 6792   4.503   2.455   1.738
 1965SOL     OW 6793   0.526   3.461   2.056
 1965SOL    HW1 6794   0.581   3.542   2.078
 1965SOL    HW2 6795   0.579   3.378   2.076
 1966SOL     OW 6796   6.808   5.255   4.335
 1966SOL    HW1 6797   6.832   5.352   4.330
 1966SOL    HW2 6798   6.709   5.246   4.342
 1967SOL     OW 6799   5.120   3.147   5.995
 1967SOL    HW1 6800   5.056   3.224   6.003
 1967SOL    HW2 6801   5.140   3.130   5.899
 1968SOL     OW 6802   2.831   5.887   6.911
 1968SOL    HW1 6803   2.738   5.853   6.899
 1968SOL    HW2 6804   2.847   5.965   6.850
 1969SOL     OW 6805   6.750   2.636   1.679
 1969SOL    HW1 6806   6.671   2.599   1.727
 1969SOL    HW2 6807   6.791   2.709   1.733
 1970SOL     OW 6808   1.542   0.395   5.676
 1970SOL    HW1 6809   1.618   0.459   5.688
 1970SOL    HW2 6810   1.518   0.390   5.579
 1971SOL     OW 6811   0.323   6.835   6.102
 1971SOL    HW1 6812   0.318   6.736   6.112
 1971SOL    HW2 6813   0.255   6.879   6.160
 1972SOL     OW 6814   0.637   4.247   4.044
 1972SOL    HW1 6815   0.599   4.265   4.135
 1972SOL    HW2 6816   0.575   4.283   3.974
 1973SOL     OW 6817   3.535   2.888   1.461
 1973SOL    HW1 6818   3.602   2.890   1.535
 1973SOL    HW2 6819   3.581   2.902   1.374
 1974SOL     OW 6820   5.544   6.314   4.920
 1974SOL    HW1 6821   5.629   6.262   4.932
 1974SOL    HW2 6822   5.467   6.251   4.910
 1975SOL     OW 6823   2.241   0.677   4.528
 1975SOL    HW1 6824   2.333   0.660   4.562
 1975SOL    HW2 6825   2.179   0.606   4.562
 1976SOL     OW 6826   0.656   5.899   0.585
 1976SOL    HW1 6827   0.730   5.838   0.614
 1976SOL    HW2 6828   0.693   5.992   0.571
 1977SOL     OW 6829   0.806   2.318   4.345
 1977SOL    HW1 6830   0.876   2.335   4.276
 1977SOL    HW2 6831   0.725   2.372   4.325
 1978SOL     OW 6832   0.316   0.895   4.739
 1978SOL    HW1 6833   0.394   0.854   4.787
 1978SOL    HW2 6834   0.275   0.965   4.796
 1979SOL     OW 6835   0.061   4.359   4.773
 1979SOL    HW1 6836   0.118   4.370   4.854
 1979SOL    HW2 6837   7.011   4.430   4.772
 1980SOL     OW 6838   3.213   0.314   0.750
 1980SOL    HW1 6839   3.142   0.331   0.818
 1980SOL    HW2 6840   3.302   0.343   0.786
 1981SOL     OW 6841   5.324   2.729   2.511
 1981SOL    HW1 6842   5.340   2.747   2.608
 1981SOL    HW2 6843   5.271   2.804   2.472
 1982SOL     OW 6844   6.291   4.934   4.851
 1982SOL    HW1 6845   6.308   4.993   4.772
 1982SOL    HW2 6846   6.369   4.938   4.914
 1983SOL     OW 6847   1.340   2.430   3.206
 1983SOL    HW1 6848   1.396   2.512   3.216
 1983SOL    HW2 6849   1.398   2.353   3.178
 1984SOL     OW 6850   4.446   1.450   6.300
 1984SOL    HW1 6851   4.462   1.367   6.353
 1984SOL    HW2 6852   4.355   1.486   6.320
 1985SOL     OW 6853   1.042   0.817   2.335
 1985SOL    HW1 6854   0.980   0.775   2.269
 1985SOL    HW2 6855   0.992   0.886   2.388
 1986SOL     OW 6856   1.389   2.127   6.991
 1986SOL    HW1 6857   1.392   2.188   6.912
 1986SOL    HW2 6858   1.475   2.136   0.023
 1987SOL     OW 6859   2.716   3.141   1.768
 1987SOL    HW1 6860   2.741   3.045   1.751
 1987SOL    HW2 6861   2.798   3.198   1.761
 1988SOL     OW 6862   4.629   4.306   6.973
 1988SOL    HW1 6863   4.627   4.226   0.012
 1988SOL    HW2 6864   4.590   4.384   0.001
 1989SOL     OW 6865   2.407   7.008   4.686
 1989SOL    HW1 6866   2.445   6.919   4.710
 1989SOL    HW2 6867   2.469   0.060   4.717
 1990SOL     OW 6868   3.205   1.194   1.221
 1990SOL    HW1 6869   3.221   1.229   1.129
 1990SOL    HW2 6870   3.251   1.254   1.287
 1991SOL     OW 6871   3.475   5.754   5.636
 1991SOL    HW1 6872   3.436   5.666   5.609
 1991SOL    HW2 6873   3.539   5.785   5.566
 1992SOL     OW 6874   2.249   6.740   5.241
 1992SOL    HW1 6875   2.347   6.751   5.228
 1992SOL    HW2 6876   2.219   6.798   5.317
 1993SOL     OW 6877   3.875   3.550   5.136
 1993SOL    HW1 6878   3.840   3.464   5.173
 1993SOL    HW2 6879   3.933   3.531   5.057
 1994SOL     OW 6880   0.466   2.109   1.809
 1994SOL    HW1 6881   0.556   2.134   1.774
 1994SOL    HW2 6882   0.462   2.010   1.825
 1995SOL     OW 6883   6.413   2.281   1.741
 1995SOL    HW1 6884   6.335   2.219   1.734
 1995SOL    HW2 6885   6.466   2.280   1.656
 1996SOL     OW 6886   3.700   3.379   0.391
 1996SOL    HW1 6887   3.615   3.382   0.338
 1996SOL    HW2 6888   3.681   3.346   0.483
 1997SOL     OW 6889   5.761   1.013   4.993
 1997SOL    HW1 6890   5.799   0.921   5.005
 1997SOL    HW2 6891   5.677   1.008   4.940
 1998SOL     OW 6892   2.501   3.515   6.408
 1998SOL    HW1 6893   2.481   3.577   6.332
 1998SOL    HW2 6894   2.553   3.437   6.375
 1999SOL     OW 6895   2.387   0.115   2.277
 1999SOL    HW1 6896   2.428   0.198   2.315
 1999SOL    HW2 6897   2.294   0.106   2.312
 2000SOL     OW 6898   4.503   1.666   4.684
 2000SOL    HW1 6899   4.403   1.662   4.691
 2000SOL    HW2 6900   4.535   1.751   4.727
 2001SOL     OW 6901   3.913   1.845   1.250
 2001SOL    HW1 6902   3.932   1.768   1.311
 2001SOL    HW2 6903   3.966   1.925   1.278
 2002SOL     OW 6904   1.995   6.326   6.242
 2002SOL    HW1 6905   1.972   6.419   6.212
 2002SOL    HW2 6906   1.997   6.265   6.163
 2003SOL     OW 6907   5.246   0.141   3.637
 2003SOL    HW1 6908   5.232   0.209   3.709
 2003SOL    HW2 6909   5.305   0.068   3.671
 2004SOL     OW 6910   4.485   1.157   4.670
 2004SOL    HW1 6911   4.426   1.237   4.678
 2004SOL    HW2 6912   4.545   1.168   4.591
 2005SOL     OW 6913   2.016   6.016   6.598
 2005SOL    HW1 6914   1.983   6.107   6.623
 2005SOL    HW2 6915   2.109   6.023   6.561
 2006SOL     OW 6916   4.777   4.110   3.686
 2006SOL    HW1 6917   4.756   4.206   3.665
 2006SOL    HW2 6918   4.697   4.053   3.667
 2007SOL     OW 6919   5.190   4.874   6.838
 2007SOL    HW1 6920   5.170   4.812   6.913
 2007SOL    HW2 6921   5.160   4.834   6.752
 2008SOL     OW 6922   6.670   6.120   3.426
 2008SOL    HW1 6923   6.739   6.083   3.489
 2008SOL    HW2 6924   6.611   6.184   3.476
 2009SOL     OW 6925   6.405   0.300   1.972
 2009SOL    HW1 6926   6.464   0.226   1.940
 2009SOL    HW2 6927   6.321   0.261   2.011
 2010SOL     OW 6928   1.752   0.947   1.290
 2010SOL    HW1 6929   1.663   0.908   1.267
 2010SOL    HW2 6930   1.748   1.047   1.284
 2011SOL     OW 6931   6.941   2.391   4.922
 2011SOL    HW1 6932   0.008   2.435   4.945
 2011SOL    HW2 6933   6.937   2.374   4.823
 2012SOL     OW 6934   1.370   4.209   1.332
 2012SOL    HW1 6935   1.306   4.251   1.397
 2012SOL    HW2 6936   1.407   4.125   1.372
 2013SOL     OW 6937   5.227   1.712   3.119
 2013SOL    HW1 6938   5.203   1.691   3.214
 2013SOL    HW2 6939   5.239   1.811   3.110
 2014SOL     OW 6940   1.187   5.980   3.452
 2014SOL    HW1 6941   1.236   6.000   3.368
 2014SOL    HW2 6942   1.203   5.884   3.478
 2015SOL     OW 6943   3.769   0.651   0.248
 2015SOL    HW1 6944   3.862   0.682   0.232
 2015SOL    HW2 6945   3.746   0.580   0.181
 2016SOL     OW 6946   1.069   5.741   4.208
 2016SOL    HW1 6947   1.109   5.813   4.264
 2016SOL    HW2 6948   1.143   5.689   4.163
 2017SOL     OW 6949   2.739   6.594   3.398
 2017SOL    HW1 6950   2.698   6.548   3.477
 2017SOL    HW2 6951   2.752   6.529   3.324
 2018SOL     OW 6952   6.835   5.514   5.000
 2018SOL    HW1 6953   6.813   5.575   5.076
 2018SOL    HW2 6954   6.809   5.557   4.913
 2019SOL     OW 6955   5.407   2.546   0.985
 2019SOL    HW1 6956   5.339   2.588   0.925
 2019SOL    HW2 6957   5.442   2.613   1.050
 2020SOL     OW 6958   1.553   5.317   4.234
 2020SOL    HW1 6959   1.645   5.289   4.208
 2020SOL    HW2 6960   1.553   5.415   4.255
 2021SOL     OW 6961   1.788   0.654   2.272
 2021SOL    HW1 6962   1.829   0.682   2.359
 2021SOL    HW2 6963   1.749   0.733   2.226
 2022SOL     OW 6964   2.075   3.495   1.733
 2022SOL    HW1 6965   2.098   3.590   1.709
 2022SOL    HW2 6966   2.115   3.472   1.821
 2023SOL     OW 6967   6.859   1.196   6.944
 2023SOL    HW1 6968   6.930   1.167   7.007
 2023SOL    HW2 6969   6.829   1.119   6.888
 2024SOL     OW 6970   6.190   0.578   3.534
 2024SOL    HW1 6971   6.166   0.604   3.440
 2024SOL    HW2 6972   6.278   0.530   3.534
 2025SOL     OW 6973   0.905   1.970   1.375
 2025SOL    HW1 6974   0.962   2.026   1.315
 2025SOL    HW2 6975   0.817   1.953   1.331
 2026SOL     OW 6976   2.103   2.293   6.428
 2026SOL    HW1 6977   2.118   2.280   6.330
 2026SOL    HW2 6978   2.188   2.326   6.471
 2027SOL     OW 6979   0.420   0.926   2.243
 2027SOL    HW1 6980   0.495   0.866   2.212
 2027SOL    HW2 6981   0.456   1.018   2.260
 2028SOL     OW 6982   3.860   1.278   0.671
 2028SOL    HW1 6983   3.836   1.285   0.768
 2028SOL    HW2 6984   3.944   1.224   0.661
 2029SOL     OW 6985   1.360   0.622   6.870
 2029SOL    HW1 6986   1.278   0.656   6.823
 2029SOL    HW2 6987   1.425   0.698   6.882
 2030SOL     OW 6988   2.168   2.577   3.519
 2030SOL    HW1 6989   2.176   2.497   3.459
 2030SOL    HW2 6990   2.105   2.557   3.594
 2031SOL     OW 6991   5.228   5.854   2.044
 2031SOL    HW1 6992   5.174   5.770   2.048
 2031SOL    HW2 6993   5.216   5.905   2.130
 2032SOL     OW 6994   5.007   6.076   1.331
 2032SOL    HW1 6995   4.925   6.022   1.310
 2032SOL    HW2 6996   5.088   6.025   1.302
 2033SOL     OW 6997   4.309   4.809   6.457
 2033SOL    HW1 6998   4.389   4.777   6.509
 2033SOL    HW2 6999   4.228   4.805   6.515
 2034SOL     OW 7000   2.107   6.292   3.163
 2034SOL    HW1 7001   2.053   6.209   3.151
 2034SOL    HW2 7002   2.056   6.370   3.125
 2035SOL     OW 7003   6.570   1.767   2.649
 2035SOL    HW1 7004   6.574   1.669   2.631
 2035SOL    HW2 7005   6.478   1.801   2.627
 2036SOL     OW 7006   0.547   5.578   1.025
 2036SOL    HW1 7007   0.539   5.480   1.042
 2036SOL    HW2 7008   0.457   5.621   1.037
 2037SOL     OW 7009   7.008   2.284   5.600
 2037SOL    HW1 7010   0.001   2.367   5.654
 2037SOL    HW2 7011   6.929   2.296   5.539
 2038SOL     OW 7012   1.069   1.523   5.761
 2038SOL    HW1 7013   1.032   1.439   5.723
 2038SOL    HW2 7014   1.000   1.595   5.756
 2039SOL     OW 7015   0.090   6.007   3.942
 2039SOL    HW1 7016   0.163   6.051   3.889
 2039SOL    HW2 7017   0.084   6.051   4.032
 2040SOL     OW 7018   3.502   3.175   4.146
 2040SOL    HW1 7019   3.432   3.246   4.146
 2040SOL    HW2 7020   3.458   3.085   4.153
 2041SOL     OW 7021   5.860   5.098   5.985
 2041SOL    HW1 7022   5.792   5.096   5.911
 2041SOL    HW2 7023   5.863   5.009   6.030
 2042SOL     OW 7024   5.579   5.398   0.621
 2042SOL    HW1 7025   5.608   5.303   0.621
 2042SOL    HW2 7026   5.630   5.449   0.691
 2043SOL     OW 7027   6.315   5.316   2.350
 2043SOL    HW1 7028   6.394   5.363   2.309
 2043SOL    HW2 7029   6.245   5.383   2.373
 2044SOL     OW 7030   5.976   0.002   2.055
 2044SOL    HW1 7031   6.019   0.003   1.965
 2044SOL    HW2 7032   6.022   0.069   2.114
 2045SOL     OW 7033   2.298   5.040   5.711
 2045SOL    HW1 7034   2.271   4.946   5.694
 2045SOL    HW2 7035   2.292   5.093   5.626
 2046SOL     OW 7036   0.036   0.094   4.468
 2046SOL    HW1 7037   0.016   0.053   4.557
 2046SOL    HW2 7038   0.017   0.192   4.471
 2047SOL     OW 7039   4.597   1.913   1.234
 2047SOL    HW1 7040   4.578   1.857   1.153
 2047SOL    HW2 7041   4.540   1.883   1.310
 2048SOL     OW 7042   3.730   6.941   0.109
 2048SOL    HW1 7043   3.812   6.922   0.162
 2048SOL    HW2 7044   3.694   6.856   0.071
 2049SOL     OW 7045   4.633   1.863   6.786
 2049SOL    HW1 7046   4.575   1.859   6.868
 2049SOL    HW2 7047   4.584   1.910   6.713
 2050SOL     OW 7048   6.195   2.970   3.595
 2050SOL    HW1 7049   6.153   2.892   3.641
 2050SOL    HW2 7050   6.285   2.987   3.635
 2051SOL     OW 7051   0.335   5.184   6.552
 2051SOL    HW1 7052   0.388   5.099   6.549
 2051SOL    HW2 7053   0.237   5.162   6.551
 2052SOL     OW 7054   0.451   3.287   0.026
 2052SOL    HW1 7055   0.535   3.339   0.011
 2052SOL    HW2 7056   0.434   3.228   6.967
 2053SOL     OW 7057   6.157   6.941   0.475
 2053SOL    HW1 7058   6.112   6.914   0.560
 2053SOL    HW2 7059   6.181   0.018   0.480
 2054SOL     OW 7060   6.115   2.692   0.863
 2054SOL    HW1 7061   6.103   2.745   0.947
 2054SOL    HW2 7062   6.192   2.628   0.875
 2055SOL     OW 7063   5.485   2.609   3.233
 2055SOL    HW1 7064   5.468   2.537   3.165
 2055SOL    HW2 7065   5.528   2.568   3.314
 2056SOL     OW 7066   1.941   1.378   2.886
 2056SOL    HW1 7067   2.032   1.387   2.924
 2056SOL    HW2 7068   1.894   1.466   2.889
 2057SOL     OW 7069   5.601   2.232   4.048
 2057SOL    HW1 7070   5.675   2.214   4.113
 2057SOL    HW2 7071   5.550   2.148   4.030
 2058SOL     OW 7072   0.616   1.790   3.111
 2058SOL    HW1 7073   0.523   1.823   3.099
 2058SOL    HW2 7074   0.678   1.842   3.053
 2059SOL     OW 7075   2.007   0.052   0.054
 2059SOL    HW1 7076   2.039   0.108   6.999
 2059SOL    HW2 7077   2.075   7.003   0.077
 2060SOL     OW 7078   6.825   4.219   1.518
 2060SOL    HW1 7079   6.887   4.220   1.596
 2060SOL    HW2 7080   6.865   4.166   1.444
 2061SOL     OW 7081   0.173   1.103   2.134
 2061SOL    HW1 7082   0.190   1.039   2.209
 2061SOL    HW2 7083   0.160   1.195   2.170
 2062SOL     OW 7084   5.065   6.878   3.091
 2062SOL    HW1 7085   4.983   6.852   3.040
 2062SOL    HW2 7086   5.040   6.918   3.179
 2063SOL     OW 7087   0.966   1.439   6.434
 2063SOL    HW1 7088   0.965   1.432   6.534
 2063SOL    HW2 7089   1.060   1.435   6.401
 2064SOL     OW 7090   1.192   2.514   5.790
 2064SOL    HW1 7091   1.232   2.525   5.699
 2064SOL    HW2 7092   1.206   2.597   5.844
 2065SOL     OW 7093   5.794   3.548   2.144
 2065SOL    HW1 7094   5.702   3.553   2.104
 2065SOL    HW2 7095   5.852   3.491   2.086
 2066SOL     OW 7096   0.453   5.242   4.310
 2066SOL    HW1 7097   0.378   5.304   4.289
 2066SOL    HW2 7098   0.478   5.252   4.407
 2067SOL     OW 7099   6.926   6.695   0.519
 2067SOL    HW1 7100   6.905   6.758   0.444
 2067SOL    HW2 7101   6.966   6.611   0.482
 2068SOL     OW 7102   1.992   1.281   5.799
 2068SOL    HW1 7103   1.974   1.363   5.854
 2068SOL    HW2 7104   1.951   1.202   5.845
 2069SOL     OW 7105   0.745   2.956   2.797
 2069SOL    HW1 7106   0.713   2.958   2.702
 2069SOL    HW2 7107   0.809   3.031   2.813
 2070SOL     OW 7108   1.303   0.303   2.490
 2070SOL    HW1 7109   1.224   0.246   2.511
 2070SOL    HW2 7110   1.288   0.351   2.403
 2071SOL     OW 7111   0.829   6.474   4.087
 2071SOL    HW1 7112   0.770   6.422   4.025
 2071SOL    HW2 7113   0.812   6.572   4.074
 2072SOL     OW 7114   4.508   5.847   2.009
 2072SOL    HW1 7115   4.581   5.793   1.965
 2072SOL    HW2 7116   4.445   5.786   2.056
 2073SOL     OW 7117   3.885   0.175   4.386
 2073SOL    HW1 7118   3.847   0.267   4.380
 2073SOL    HW2 7119   3.824   0.117   4.441
 2074SOL     OW 7120   0.381   2.216   6.863
 2074SOL    HW1 7121   0.304   2.163   6.829
 2074SOL    HW2 7122   0.467   2.166   6.849
 2075SOL     OW 7123   4.707   3.213   1.499
 2075SOL    HW1 7124   4.747   3.130   1.461
 2075SOL    HW2 7125   4.647   3.190   1.575
 2076SOL     OW 7126   5.753   5.936   0.144
 2076SOL    HW1 7127   5.687   5.893   0.083
 2076SOL    HW2 7128   5.845   5.928   0.106
 2077SOL     OW 7129   5.466   2.570   2.117
 2077SOL    HW1 7130   5.501   2.493   2.171
 2077SOL    HW2 7131   5.454   2.649   2.177
 2078SOL     OW 7132   2.857   5.812   6.205
 2078SOL    HW1 7133   2.843   5.850   6.114
 2078SOL    HW2 7134   2.776   5.760   6.232
 2079SOL     OW 7135   5.719   0.852   3.705
 2079SOL    HW1 7136   5.663   0.777   3.740
 2079SOL    HW2 7137   5.761   0.825   3.618
 2080SOL     OW 7138   2.344   1.729   5.040
 2080SOL    HW1 7139   2.397   1.695   4.962
 2080SOL    HW2 7140   2.407   1.754   5.114
 2081SOL     OW 7141   1.315   6.235   5.232
 2081SOL    HW1 7142   1.244   6.227   5.301
 2081SOL    HW2 7143   1.381   6.305   5.260
 2082SOL     OW 7144   5.636   0.276   1.575
 2082SOL    HW1 7145   5.692   0.248   1.654
 2082SOL    HW2 7146   5.539   0.271   1.601
 2083SOL     OW 7147   3.987   4.828   6.810
 2083SOL    HW1 7148   4.067   4.837   6.870
 2083SOL    HW2 7149   4.008   4.867   6.721
 2084SOL     OW 7150   6.781   2.853   3.717
 2084SOL    HW1 7151   6.807   2.840   3.622
 2084SOL    HW2 7152   6.694   2.807   3.735
 2085SOL     OW 7153   5.167   1.061   6.710
 2085SOL    HW1 7154   5.117   1.124   6.769
 2085SOL    HW2 7155   5.200   0.984   6.764
 2086SOL     OW 7156   2.890   5.395   6.405
 2086SOL    HW1 7157   2.860   5.448   6.484
 2086SOL    HW2 7158   2.858   5.438   6.321
 2087SOL     OW 7159   4.548   6.321   2.139
 2087SOL    HW1 7160   4.604   6.362   2.066
 2087SOL    HW2 7161   4.529   6.390   2.208
 2088SOL     OW 7162   3.293   6.215   0.783
 2088SOL    HW1 7163   3.250   6.214   0.692
 2088SOL    HW2 7164   3.235   6.267   0.846
 2089SOL     OW 7165   4.439   1.454   0.089
 2089SOL    HW1 7166   4.387   1.433   0.006
 2089SOL    HW2 7167   4.521   1.396   0.092
 2090SOL     OW 7168   4.054   3.437   4.071
 2090SOL    HW1 7169   4.071   3.397   4.160
 2090SOL    HW2 7170   3.961   3.476   4.069
 2091SOL     OW 7171   0.500   5.940   0.355
 2091SOL    HW1 7172   0.577   5.937   0.419
 2091SOL    HW2 7173   0.534   5.935   0.261
 2092SOL     OW 7174   5.478   6.147   0.551
 2092SOL    HW1 7175   5.496   6.229   0.496
 2092SOL    HW2 7176   5.495   6.066   0.495
 2093SOL     OW 7177   1.396   1.774   1.728
 2093SOL    HW1 7178   1.306   1.804   1.697
 2093SOL    HW2 7179   1.403   1.674   1.723
 2094SOL     OW 7180   6.193   0.909   1.753
 2094SOL    HW1 7181   6.099   0.940   1.766
 2094SOL    HW2 7182   6.196   0.809   1.751
 2095SOL     OW 7183   5.381   6.943   3.757
 2095SOL    HW1 7184   5.460   7.002   3.768
 2095SOL    HW2 7185   5.406   6.849   3.782
 2096SOL     OW 7186   4.755   4.081   3.197
 2096SOL    HW1 7187   4.791   4.090   3.289
 2096SOL    HW2 7188   4.772   3.988   3.163
 2097SOL     OW 7189   1.056   2.843   6.414
 2097SOL    HW1 7190   1.144   2.862   6.371
 2097SOL    HW2 7191   0.987   2.828   6.343
 2098SOL     OW 7192   4.002   6.470   3.915
 2098SOL    HW1 7193   4.032   6.375   3.906
 2098SOL    HW2 7194   4.034   6.523   3.836
 2099SOL     OW 7195   2.384   1.195   4.843
 2099SOL    HW1 7196   2.374   1.096   4.832
 2099SOL    HW2 7197   2.350   1.242   4.761
 2100SOL     OW 7198   3.778   3.611   6.566
 2100SOL    HW1 7199   3.803   3.519   6.596
 2100SOL    HW2 7200   3.807   3.623   6.471
 2101SOL     OW 7201   1.291   6.551   1.974
 2101SOL    HW1 7202   1.259   6.457   1.988
 2101SOL    HW2 7203   1.256   6.586   1.888
 2102SOL     OW 7204   0.197   5.087   2.040
 2102SOL    HW1 7205   0.295   5.069   2.045
 2102SOL    HW2 7206   0.168   5.135   2.122
 2103SOL     OW 7207   2.561   3.703   0.046
 2103SOL    HW1 7208   2.634   3.741   0.103
 2103SOL    HW2 7209   2.523   3.622   0.090
 2104SOL     OW 7210   1.671   3.499   6.704
 2104SOL    HW1 7211   1.735   3.481   6.779
 2104SOL    HW2 7212   1.705   3.575   6.649
 2105SOL     OW 7213   5.160   5.256   3.226
 2105SOL    HW1 7214   5.102   5.181   3.259
 2105SOL    HW2 7215   5.242   5.262   3.283
 2106SOL     OW 7216   4.028   5.329   0.245
 2106SOL    HW1 7217   3.938   5.353   0.281
 2106SOL    HW2 7218   4.048   5.384   0.165
 2107SOL     OW 7219   4.275   3.436   5.703
 2107SOL    HW1 7220   4.209   3.457   5.631
 2107SOL    HW2 7221   4.364   3.417   5.662
 2108SOL     OW 7222   6.207   6.040   5.715
 2108SOL    HW1 7223   6.239   6.025   5.809
 2108SOL    HW2 7224   6.225   5.958   5.660
 2109SOL     OW 7225   5.130   6.987   3.891
 2109SOL    HW1 7226   5.044   6.977   3.841
 2109SOL    HW2 7227   5.207   6.966   3.830
 2110SOL     OW 7228   2.909   4.142   6.344
 2110SOL    HW1 7229   2.950   4.127   6.434
 2110SOL    HW2 7230   2.811   4.126   6.349
 2111SOL     OW 7231   0.696   2.170   6.218
 2111SOL    HW1 7232   0.746   2.133   6.296
 2111SOL    HW2 7233   0.606   2.127   6.213
 2112SOL     OW 7234   4.629   1.784   1.664
 2112SOL    HW1 7235   4.553   1.784   1.730
 2112SOL    HW2 7236   4.592   1.785   1.571
 2113SOL     OW 7237   0.900   0.167   3.941
 2113SOL    HW1 7238   0.891   0.251   3.888
 2113SOL    HW2 7239   0.983   0.173   3.998
 2114SOL     OW 7240   1.443   3.327   0.433
 2114SOL    HW1 7241   1.425   3.420   0.466
 2114SOL    HW2 7242   1.524   3.291   0.479
 2115SOL     OW 7243   1.913   3.919   3.253
 2115SOL    HW1 7244   1.988   3.906   3.317
 2115SOL    HW2 7245   1.828   3.886   3.294
 2116SOL     OW 7246   6.683   4.046   3.404
 2116SOL    HW1 7247   6.669   4.003   3.314
 2116SOL    HW2 7248   6.594   4.074   3.441
 2117SOL     OW 7249   0.027   4.636   1.874
 2117SOL    HW1 7250   0.045   4.548   1.917
 2117SOL    HW2 7251   6.958   4.634   1.828
 2118SOL     OW 7252   0.389   3.301   2.706
 2118SOL    HW1 7253   0.483   3.267   2.704
 2118SOL    HW2 7254   0.370   3.342   2.795
 2119SOL     OW 7255   2.527   5.926   1.085
 2119SOL    HW1 7256   2.515   5.832   1.116
 2119SOL    HW2 7257   2.595   5.972   1.143
 2120SOL     OW 7258   6.534   4.934   3.172
 2120SOL    HW1 7259   6.447   4.884   3.169
 2120SOL    HW2 7260   6.529   5.013   3.110
 2121SOL     OW 7261   0.928   4.629   5.438
 2121SOL    HW1 7262   0.926   4.566   5.361
 2121SOL    HW2 7263   0.952   4.721   5.405
 2122SOL     OW 7264   6.346   4.124   5.254
 2122SOL    HW1 7265   6.402   4.088   5.329
 2122SOL    HW2 7266   6.264   4.168   5.292
 2123SOL     OW 7267   0.651   4.260   2.649
 2123SOL    HW1 7268   0.559   4.271   2.612
 2123SOL    HW2 7269   0.651   4.284   2.746
 2124SOL     OW 7270   2.225   1.556   1.293
 2124SOL    HW1 7271   2.246   1.571   1.196
 2124SOL    HW2 7272   2.157   1.483   1.302
 2125SOL     OW 7273   1.556   0.806   0.661
 2125SOL    HW1 7274   1.485   0.736   0.670
 2125SOL    HW2 7275   1.516   0.888   0.620
 2126SOL     OW 7276   3.107   0.634   0.804
 2126SOL    HW1 7277   3.204   0.614   0.792
 2126SOL    HW2 7278   3.065   0.649   0.715
 2127SOL     OW 7279   5.938   2.824   4.502
 2127SOL    HW1 7280   5.973   2.864   4.587
 2127SOL    HW2 7281   5.840   2.807   4.511
 2128SOL     OW 7282   0.173   4.353   4.533
 2128SOL    HW1 7283   0.155   4.340   4.630
 2128SOL    HW2 7284   0.121   4.432   4.500
 2129SOL     OW 7285   4.448   3.004   5.693
 2129SOL    HW1 7286   4.440   3.103   5.703
 2129SOL    HW2 7287   4.545   2.978   5.692
 2130SOL     OW 7288   4.769   6.840   2.718
 2130SOL    HW1 7289   4.683   6.862   2.763
 2130SOL    HW2 7290   4.782   6.899   2.638
 2131SOL     OW 7291   0.073   0.867   0.784
 2131SOL    HW1 7292   0.168   0.858   0.814
 2131SOL    HW2 7293   0.070   0.867   0.684
 2132SOL     OW 7294   3.822   2.968   0.873
 2132SOL    HW1 7295   3.864   3.041   0.926
 2132SOL    HW2 7296   3.812   2.996   0.777
 2133SOL     OW 7297   3.041   2.442   5.403
 2133SOL    HW1 7298   3.107   2.432   5.328
 2133SOL    HW2 7299   2.948   2.445   5.365
 2134SOL     OW 7300   0.130   1.910   0.680
 2134SOL    HW1 7301   0.082   1.854   0.747
 2134SOL    HW2 7302   0.205   1.958   0.725
 2135SOL     OW 7303   0.430   4.461   4.459
 2135SOL    HW1 7304   0.332   4.444   4.469
 2135SOL    HW2 7305   0.463   4.518   4.534
 2136SOL     OW 7306   3.049   5.167   2.212
 2136SOL    HW1 7307   3.038   5.212   2.300
 2136SOL    HW2 7308   3.088   5.076   2.227
 2137SOL     OW 7309   3.173   5.181   5.371
 2137SOL    HW1 7310   3.076   5.155   5.374
 2137SOL    HW2 7311   3.182   5.277   5.399
 2138SOL     OW 7312   6.043   1.086   3.062
 2138SOL    HW1 7313   6.096   1.048   3.138
 2138SOL    HW2 7314   6.084   1.173   3.034
 2139SOL     OW 7315   4.009   0.609   4.653
 2139SOL    HW1 7316   4.068   0.683   4.685
 2139SOL    HW2 7317   3.941   0.645   4.589
 2140SOL     OW 7318   3.856   0.368   4.622
 2140SOL    HW1 7319   3.817   0.358   4.713
 2140SOL    HW2 7320   3.907   0.454   4.617
 2141SOL     OW 7321   6.486   4.045   2.525
 2141SOL    HW1 7322   6.497   3.989   2.607
 2141SOL    HW2 7323   6.574   4.051   2.477
 2142SOL     OW 7324   1.126   2.103   3.655
 2142SOL    HW1 7325   1.205   2.051   3.685
 2142SOL    HW2 7326   1.154   2.196   3.629
 2143SOL     OW 7327   1.953   5.768   1.187
 2143SOL    HW1 7328   1.940   5.692   1.250
 2143SOL    HW2 7329   1.877   5.771   1.123
 2144SOL     OW 7330   0.481   4.703   4.053
 2144SOL    HW1 7331   0.503   4.701   4.150
 2144SOL    HW2 7332   0.518   4.786   4.012
 2145SOL     OW 7333   4.184   6.856   3.922
 2145SOL    HW1 7334   4.259   6.793   3.903
 2145SOL    HW2 7335   4.101   6.805   3.942
 2146SOL     OW 7336   2.053   2.052   0.762
 2146SOL    HW1 7337   2.073   1.954   0.754
 2146SOL    HW2 7338   2.138   2.104   0.758
 2147SOL     OW 7339   6.803   1.797   5.907
 2147SOL    HW1 7340   6.837   1.703   5.901
 2147SOL    HW2 7341   6.755   1.810   5.994
 2148SOL     OW 7342   0.165   3.249   6.109
 2148SOL    HW1 7343   0.122   3.158   6.107
 2148SOL    HW2 7344   0.094   3.319   6.106
 2149SOL     OW 7345   1.112   1.138   0.873
 2149SOL    HW1 7346   1.144   1.045   0.853
 2149SOL    HW2 7347   1.133   1.198   0.796
 2150SOL     OW 7348   2.784   2.617   1.711
 2150SOL    HW1 7349   2.825   2.536   1.752
 2150SOL    HW2 7350   2.838   2.644   1.631
 2151SOL     OW 7351   0.895   6.089   0.026
 2151SOL    HW1 7352   0.959   6.021   7.010
 2151SOL    HW2 7353   0.946   6.162   0.071
 2152SOL     OW 7354   3.659   5.256   2.508
 2152SOL    HW1 7355   3.620   5.248   2.416
 2152SOL    HW2 7356   3.677   5.353   2.528
 2153SOL     OW 7357   4.806   1.468   2.698
 2153SOL    HW1 7358   4.843   1.561   2.704
 2153SOL    HW2 7359   4.801   1.440   2.602
 2154SOL     OW 7360   2.994   6.700   3.757
 2154SOL    HW1 7361   2.966   6.777   3.699
 2154SOL    HW2 7362   3.053   6.733   3.830
 2155SOL     OW 7363   4.171   6.837   0.935
 2155SOL    HW1 7364   4.167   6.774   0.857
 2155SOL    HW2 7365   4.229   6.915   0.912
 2156SOL     OW 7366   6.658   0.327   4.275
 2156SOL    HW1 7367   6.746   0.308   4.230
 2156SOL    HW2 7368   6.603   0.387   4.217
 2157SOL     OW 7369   4.519   6.193   3.953
 2157SOL    HW1 7370   4.541   6.095   3.951
 2157SOL    HW2 7371   4.583   6.240   4.014
 2158SOL     OW 7372   4.136   6.635   0.753
 2158SOL    HW1 7373   4.116   6.540   0.726
 2158SOL    HW2 7374   4.150   6.691   0.671
 2159SOL     OW 7375   1.976   0.763   5.021
 2159SOL    HW1 7376   1.900   0.754   4.957
 2159SOL    HW2 7377   1.943   0.745   5.114
 2160SOL     OW 7378   5.133   5.133   6.929
 2160SOL    HW1 7379   5.164   5.038   6.933
 2160SOL    HW2 7380   5.097   5.153   6.838
 2161SOL     OW 7381   0.247   4.046   2.551
 2161SOL    HW1 7382   0.275   3.957   2.586
 2161SOL    HW2 7383   0.161   4.073   2.592
 2162SOL     OW 7384   2.511   6.993   3.241
 2162SOL    HW1 7385   2.454   0.053   3.256
 2162SOL    HW2 7386   2.458   6.923   3.192
 2163SOL     OW 7387   1.697   3.553   0.359
 2163SOL    HW1 7388   1.696   3.537   0.458
 2163SOL    HW2 7389   1.755   3.632   0.338
 2164SOL     OW 7390   2.715   2.731   6.696
 2164SOL    HW1 7391   2.622   2.726   6.661
 2164SOL    HW2 7392   2.766   2.802   6.647
 2165SOL     OW 7393   0.839   1.602   4.214
 2165SOL    HW1 7394   0.886   1.689   4.226
 2165SOL    HW2 7395   0.740   1.615   4.225
 2166SOL     OW 7396   0.070   4.399   3.951
 2166SOL    HW1 7397   0.044   4.320   4.008
 2166SOL    HW2 7398   0.116   4.467   4.008
 2167SOL     OW 7399   0.744   2.954   3.524
 2167SOL    HW1 7400   0.753   2.854   3.527
 2167SOL    HW2 7401   0.830   2.994   3.493
 2168SOL     OW 7402   0.716   1.960   2.920
 2168SOL    HW1 7403   0.769   1.999   2.845
 2168SOL    HW2 7404   0.648   1.896   2.883
 2169SOL     OW 7405   0.139   0.086   0.977
 2169SOL    HW1 7406   0.132   0.111   0.881
 2169SOL    HW2 7407   0.222   0.126   1.016
 2170SOL     OW 7408   0.162   4.075   4.526
 2170SOL    HW1 7409   0.246   4.053   4.477
 2170SOL    HW2 7410   0.155   4.174   4.538
 2171SOL     OW 7411   0.668   5.915   1.061
 2171SOL    HW1 7412   0.634   5.919   0.967
 2171SOL    HW2 7413   0.595   5.881   1.121
 2172SOL     OW 7414   1.748   2.009   5.770
 2172SOL    HW1 7415   1.824   2.071   5.790
 2172SOL    HW2 7416   1.707   1.978   5.856
 2173SOL     OW 7417   5.199   7.017   5.899
 2173SOL    HW1 7418   5.270   6.946   5.892
 2173SOL    HW2 7419   5.161   0.015   5.808
 2174SOL     OW 7420   0.051   6.439   4.795
 2174SOL    HW1 7421   0.148   6.421   4.813
 2174SOL    HW2 7422   0.007   6.354   4.766
 2175SOL     OW 7423   1.910   2.903   5.079
 2175SOL    HW1 7424   1.997   2.869   5.113
 2175SOL    HW2 7425   1.909   3.003   5.084
 2176SOL     OW 7426   4.896   2.522   1.105
 2176SOL    HW1 7427   4.940   2.553   1.189
 2176SOL    HW2 7428   4.809   2.479   1.127
 2177SOL     OW 7429   6.433   0.772   2.546
 2177SOL    HW1 7430   6.369   0.814   2.482
 2177SOL    HW2 7431   6.382   0.718   2.613
 2178SOL     OW 7432   1.182   0.844   2.101
 2178SOL    HW1 7433   1.154   0.836   2.197
 2178SOL    HW2 7434   1.107   0.815   2.042
 2179SOL     OW 7435   1.932   3.198   6.040
 2179SOL    HW1 7436   1.926   3.253   5.957
 2179SOL    HW2 7437   2.026   3.164   6.051
 2180SOL     OW 7438   1.760   3.657   2.009
 2180SOL    HW1 7439   1.805   3.622   2.091
 2180SOL    HW2 7440   1.823   3.650   1.931
 2181SOL     OW 7441   4.977   5.000   4.236
 2181SOL    HW1 7442   4.939   5.033   4.150
 2181SOL    HW2 7443   4.940   5.054   4.312
 2182SOL     OW 7444   0.616   4.580   3.599
 2182SOL    HW1 7445   0.536   4.592   3.540
 2182SOL    HW2 7446   0.588   4.577   3.694
 2183SOL     OW 7447   2.543   3.885   0.774
 2183SOL    HW1 7448   2.615   3.942   0.735
 2183SOL    HW2 7449   2.479   3.857   0.702
 2184SOL     OW 7450   4.614   0.081   6.705
 2184SOL    HW1 7451   4.696   0.029   6.730
 2184SOL    HW2 7452   4.614   0.096   6.606
 2185SOL     OW 7453   1.063   1.247   6.856
 2185SOL    HW1 7454   1.086   1.155   6.887
 2185SOL    HW2 7455   1.084   1.256   6.758
 2186SOL     OW 7456   5.851   5.516   5.750
 2186SOL    HW1 7457   5.770   5.489   5.803
 2186SOL    HW2 7458   5.893   5.596   5.793
 2187SOL     OW 7459   0.202   6.014   2.493
 2187SOL    HW1 7460   0.233   6.040   2.584
 2187SOL    HW2 7461   0.268   5.951   2.452
 2188SOL     OW 7462   2.100   5.155   5.863
 2188SOL    HW1 7463   2.035   5.183   5.792
 2188SOL    HW2 7464   2.156   5.079   5.828
 2189SOL     OW 7465   1.507   1.080   2.439
 2189SOL    HW1 7466   1.434   1.065   2.505
 2189SOL    HW2 7467   1.515   1.000   2.378
 2190SOL     OW 7468   6.693   3.750   2.298
 2190SOL    HW1 7469   6.708   3.798   2.211
 2190SOL    HW2 7470   6.773   3.763   2.357
 2191SOL     OW 7471   2.696   1.282   5.170
 2191SOL    HW1 7472   2.706   1.310   5.075
 2191SOL    HW2 7473   2.772   1.222   5.195
 2192SOL     OW 7474   5.408   6.983   2.746
 2192SOL    HW1 7475   5.478   0.025   2.711
 2192SOL    HW2 7476   5.319   7.009   2.710
 2193SOL     OW 7477   6.198   0.088   5.722
 2193SOL    HW1 7478   6.179   0.143   5.641
 2193SOL    HW2 7479   6.257   0.140   5.784
 2194SOL     OW 7480   0.916   4.094   5.652
 2194SOL    HW1 7481   0.995   4.136   5.609
 2194SOL    HW2 7482   0.943   4.009   5.697
 2195SOL     OW 7483   6.916   6.445   5.268
 2195SOL    HW1 7484   6.904   6.462   5.171
 2195SOL    HW2 7485   7.012   6.455   5.293
 2196SOL     OW 7486   3.107   6.601   5.054
 2196SOL    HW1 7487   3.144   6.688   5.085
 2196SOL    HW2 7488   3.132   6.529   5.119
 2197SOL     OW 7489   2.772   3.392   6.470
 2197SOL    HW1 7490   2.761   3.389   6.370
 2197SOL    HW2 7491   2.855   3.442   6.493
 2198SOL     OW 7492   6.228   6.883   0.900
 2198SOL    HW1 7493   6.173   6.846   0.826
 2198SOL    HW2 7494   6.262   6.809   0.958
 2199SOL     OW 7495   5.207   0.086   5.216
 2199SOL    HW1 7496   5.296   0.069   5.175
 2199SOL    HW2 7497   5.210   0.171   5.269
 2200SOL     OW 7498   2.681   1.258   3.882
 2200SOL    HW1 7499   2.607   1.309   3.925
 2200SOL    HW2 7500   2.651   1.164   3.865
 2201SOL     OW 7501   6.276   3.046   2.867
 2201SOL    HW1 7502   6.229   3.131   2.893
 2201SOL    HW2 7503   6.217   2.993   2.807
 2202SOL     OW 7504   3.212   5.752   2.517
 2202SOL    HW1 7505   3.206   5.710   2.427
 2202SOL    HW2 7506   3.128   5.735   2.569
 2203SOL     OW 7507   2.527   3.502   1.459
 2203SOL    HW1 7508   2.536   3.403   1.451
 2203SOL    HW2 7509   2.471   3.524   1.538
 2204SOL     OW 7510   4.439   2.712   0.929
 2204SOL    HW1 7511   4.480   2.640   0.872
 2204SOL    HW2 7512   4.506   2.784   0.944
 2205SOL     OW 7513   1.286   0.395   0.013
 2205SOL    HW1 7514   1.352   0.321   7.018
 2205SOL    HW2 7515   1.319   0.479   6.991
 2206SOL     OW 7516   2.203   4.361   6.097
 2206SOL    HW1 7517   2.121   4.398   6.055
 2206SOL    HW2 7518   2.265   4.327   6.026
 2207SOL     OW 7519   3.318   5.006   0.133
 2207SOL    HW1 7520   3.394   4.962   0.180
 2207SOL    HW2 7521   3.298   5.094   0.176
 2208SOL     OW 7522   0.592   5.438   3.001
 2208SOL    HW1 7523   0.584   5.497   3.081
 2208SOL    HW2 7524   0.685   5.401   2.995
 2209SOL     OW 7525   2.736   6.067   4.820
 2209SOL    HW1 7526   2.749   6.001   4.746
 2209SOL    HW2 7527   2.707   6.155   4.782
 2210SOL     OW 7528   6.634   5.662   2.883
 2210SOL    HW1 7529   6.691   5.622   2.955
 2210SOL    HW2 7530   6.688   5.726   2.828
 2211SOL     OW 7531   6.267   0.723   0.579
 2211SOL    HW1 7532   6.342   0.699   0.640
 2211SOL    HW2 7533   6.267   0.663   0.499
 2212SOL     OW 7534   1.761   5.681   6.719
 2212SOL    HW1 7535   1.848   5.708   6.758
 2212SOL    HW2 7536   1.770   5.672   6.620
 2213SOL     OW 7537   4.428   2.762   5.564
 2213SOL    HW1 7538   4.382   2.842   5.601
 2213SOL    HW2 7539   4.524   2.762   5.592
 2214SOL     OW 7540   3.003   3.183   4.707
 2214SOL    HW1 7541   3.056   3.121   4.649
 2214SOL    HW2 7542   2.998   3.147   4.800
 2215SOL     OW 7543   5.423   1.685   6.480
 2215SOL    HW1 7544   5.418   1.586   6.470
 2215SOL    HW2 7545   5.331   1.721   6.497
 2216SOL     OW 7546   6.804   0.329   5.844
 2216SOL    HW1 7547   6.889   0.360   5.887
 2216SOL    HW2 7548   6.738   0.404   5.844
 2217SOL     OW 7549   4.300   0.159   3.076
 2217SOL    HW1 7550   4.328   0.150   2.981
 2217SOL    HW2 7551   4.201   0.145   3.084
 2218SOL     OW 7552   6.901   5.415   6.689
 2218SOL    HW1 7553   6.993   5.392   6.721
 2218SOL    HW2 7554   6.849   5.457   6.763
 2219SOL     OW 7555   6.351   2.258   1.052
 2219SOL    HW1 7556   6.279   2.297   0.995
 2219SOL    HW2 7557   6.360   2.160   1.033
 2220SOL     OW 7558   1.510   5.717   5.699
 2220SOL    HW1 7559   1.514   5.813   5.671
 2220SOL    HW2 7560   1.424   5.677   5.667
 2221SOL     OW 7561   6.749   1.892   4.959
 2221SOL    HW1 7562   6.672   1.840   4.995
 2221SOL    HW2 7563   6.763   1.974   5.015
 2222SOL     OW 7564   6.041   6.842   0.709
 2222SOL    HW1 7565   6.049   6.918   0.773
 2222SOL    HW2 7566   5.946   6.814   0.700
 2223SOL     OW 7567   6.266   1.453   6.595
 2223SOL    HW1 7568   6.216   1.429   6.678
 2223SOL    HW2 7569   6.364   1.440   6.610
 2224SOL     OW 7570   5.935   3.283   2.247
 2224SOL    HW1 7571   5.837   3.264   2.242
 2224SOL    HW2 7572   5.972   3.289   2.154
 2225SOL     OW 7573   0.168   6.640   3.017
 2225SOL    HW1 7574   0.133   6.551   3.047
 2225SOL    HW2 7575   0.127   6.713   3.071
 2226SOL     OW 7576   3.899   5.806   0.587
 2226SOL    HW1 7577   3.964   5.780   0.515
 2226SOL    HW2 7578   3.894   5.733   0.655
 2227SOL     OW 7579   4.860   2.542   1.759
 2227SOL    HW1 7580   4.899   2.528   1.850
 2227SOL    HW2 7581   4.845   2.454   1.715
 2228SOL     OW 7582   4.322   5.639   0.018
 2228SOL    HW1 7583   4.373   5.716   6.999
 2228SOL    HW2 7584   4.383   5.584   0.075
 2229SOL     OW 7585   4.099   3.490   4.903
 2229SOL    HW1 7586   4.129   3.405   4.859
 2229SOL    HW2 7587   4.159   3.510   4.981
 2230SOL     OW 7588   5.194   6.322   0.877
 2230SOL    HW1 7589   5.117   6.318   0.813
 2230SOL    HW2 7590   5.162   6.294   0.968
 2231SOL     OW 7591   0.723   0.491   6.809
 2231SOL    HW1 7592   0.694   0.480   6.904
 2231SOL    HW2 7593   0.812   0.448   6.795
 2232SOL     OW 7594   0.956   1.611   4.900
 2232SOL    HW1 7595   0.898   1.580   4.826
 2232SOL    HW2 7596   0.907   1.604   4.987
 2233SOL     OW 7597   2.606   3.049   1.206
 2233SOL    HW1 7598   2.520   2.998   1.195
 2233SOL    HW2 7599   2.673   2.991   1.253
 2234SOL     OW 7600   3.621   1.515   0.733
 2234SOL    HW1 7601   3.652   1.430   0.777
 2234SOL    HW2 7602   3.537   1.497   0.683
 2235SOL     OW 7603   2.699   0.219   2.039
 2235SOL    HW1 7604   2.605   0.250   2.034
 2235SOL    HW2 7605   2.748   0.248   1.956
 2236SOL     OW 7606   1.735   3.492   5.881
 2236SOL    HW1 7607   1.781   3.414   5.837
 2236SOL    HW2 7608   1.700   3.463   5.970
 2237SOL     OW 7609   5.834   4.460   4.907
 2237SOL    HW1 7610   5.793   4.519   4.838
 2237SOL    HW2 7611   5.802   4.487   4.998
 2238SOL     OW 7612   4.433   5.082   2.541
 2238SOL    HW1 7613   4.518   5.132   2.523
 2238SOL    HW2 7614   4.439   4.991   2.501
 2239SOL     OW 7615   4.651   5.931   4.019
 2239SOL    HW1 7616   4.642   5.970   4.111
 2239SOL    HW2 7617   4.747   5.930   3.993
 2240SOL     OW 7618   3.443   5.219   2.803
 2240SOL    HW1 7619   3.392   5.133   2.806
 2240SOL    HW2 7620   3.532   5.203   2.760
 2241SOL     OW 7621   6.936   6.470   1.810
 2241SOL    HW1 7622   6.986   6.421   1.739
 2241SOL    HW2 7623   6.976   6.448   1.900
 2242SOL     OW 7624   5.147   3.867   3.094
 2242SOL    HW1 7625   5.165   3.814   3.176
 2242SOL    HW2 7626   5.048   3.872   3.079
 2243SOL     OW 7627   2.040   6.748   6.959
 2243SOL    HW1 7628   2.122   6.801   6.983
 2243SOL    HW2 7629   2.033   6.669   7.019
 2244SOL     OW 7630   3.080   6.918   1.854
 2244SOL    HW1 7631   3.048   6.956   1.941
 2244SOL    HW2 7632   3.026   6.956   1.779
 2245SOL     OW 7633   0.211   1.348   1.379
 2245SOL    HW1 7634   0.209   1.379   1.284
 2245SOL    HW2 7635   0.223   1.427   1.439
 2246SOL     OW 7636   1.854   0.822   4.253
 2246SOL    HW1 7637   1.884   0.878   4.331
 2246SOL    HW2 7638   1.923   0.827   4.180
 2247SOL     OW 7639   3.158   3.482   3.086
 2247SOL    HW1 7640   3.219   3.509   3.011
 2247SOL    HW2 7641   3.076   3.540   3.085
 2248SOL     OW 7642   6.410   3.659   4.639
 2248SOL    HW1 7643   6.456   3.726   4.698
 2248SOL    HW2 7644   6.475   3.619   4.575
 2249SOL     OW 7645   4.899   6.909   3.750
 2249SOL    HW1 7646   4.807   6.880   3.779
 2249SOL    HW2 7647   4.892   6.958   3.663
 2250SOL     OW 7648   3.209   3.696   5.229
 2250SOL    HW1 7649   3.188   3.641   5.310
 2250SOL    HW2 7650   3.281   3.653   5.176
 2251SOL     OW 7651   4.932   0.246   6.025
 2251SOL    HW1 7652   4.934   0.211   5.932
 2251SOL    HW2 7653   5.022   0.235   6.067
 2252SOL     OW 7654   4.682   1.623   3.065
 2252SOL    HW1 7655   4.767   1.644   3.114
 2252SOL    HW2 7656   4.689   1.531   3.025
 2253SOL     OW 7657   6.798   3.688   0.287
 2253SOL    HW1 7658   6.886   3.735   0.286
 2253SOL    HW2 7659   6.814   3.589   0.287
 2254SOL     OW 7660   3.203   3.036   4.122
 2254SOL    HW1 7661   3.117   3.061   4.167
 2254SOL    HW2 7662   3.197   3.061   4.025
 2255SOL     OW 7663   3.066   3.772   5.678
 2255SOL    HW1 7664   3.142   3.760   5.614
 2255SOL    HW2 7665   3.001   3.838   5.641
 2256SOL     OW 7666   5.141   0.061   2.338
 2256SOL    HW1 7667   5.098   0.056   2.429
 2256SOL    HW2 7668   5.115   7.001   2.285
 2257SOL     OW 7669   0.225   0.901   4.496
 2257SOL    HW1 7670   0.274   0.826   4.452
 2257SOL    HW2 7671   0.257   0.910   4.591
 2258SOL     OW 7672   1.532   5.569   4.644
 2258SOL    HW1 7673   1.555   5.663   4.618
 2258SOL    HW2 7674   1.617   5.516   4.657
 2259SOL     OW 7675   5.309   2.915   5.282
 2259SOL    HW1 7676   5.389   2.902   5.339
 2259SOL    HW2 7677   5.285   2.829   5.237
 2260SOL     OW 7678   0.243   3.677   1.467
 2260SOL    HW1 7679   0.196   3.615   1.404
 2260SOL    HW2 7680   0.240   3.770   1.432
 2261SOL     OW 7681   6.518   5.303   0.034
 2261SOL    HW1 7682   6.595   5.345   0.082
 2261SOL    HW2 7683   6.551   5.224   7.002
 2262SOL     OW 7684   6.160   6.994   2.934
 2262SOL    HW1 7685   6.111   0.044   2.987
 2262SOL    HW2 7686   6.167   6.910   2.987
 2263SOL     OW 7687   2.499   6.091   0.062
 2263SOL    HW1 7688   2.542   6.122   6.997
 2263SOL    HW2 7689   2.481   6.170   0.121
 2264SOL     OW 7690   2.968   6.245   6.407
 2264SOL    HW1 7691   2.927   6.336   6.418
 2264SOL    HW2 7692   3.063   6.248   6.439
 2265SOL     OW 7693   1.831   0.580   4.373
 2265SOL    HW1 7694   1.840   0.666   4.323
 2265SOL    HW2 7695   1.760   0.524   4.330
 2266SOL     OW 7696   5.176   2.068   6.298
 2266SOL    HW1 7697   5.131   2.134   6.238
 2266SOL    HW2 7698   5.110   1.998   6.326
 2267SOL     OW 7699   4.762   3.101   5.226
 2267SOL    HW1 7700   4.668   3.070   5.239
 2267SOL    HW2 7701   4.825   3.030   5.259
 2268SOL     OW 7702   6.237   4.273   6.305
 2268SOL    HW1 7703   6.153   4.283   6.357
 2268SOL    HW2 7704   6.219   4.288   6.208
 2269SOL     OW 7705   0.785   3.692   5.215
 2269SOL    HW1 7706   0.815   3.779   5.254
 2269SOL    HW2 7707   0.724   3.646   5.279
 2270SOL     OW 7708   4.078   2.809   6.314
 2270SOL    HW1 7709   4.030   2.846   6.234
 2270SOL    HW2 7710   4.137   2.880   6.353
 2271SOL     OW 7711   5.861   4.595   0.238
 2271SOL    HW1 7712   5.794   4.525   0.266
 2271SOL    HW2 7713   5.839   4.681   0.283
 2272SOL     OW 7714   5.888   1.067   6.968
 2272SOL    HW1 7715   5.988   1.071   6.971
 2272SOL    HW2 7716   5.858   1.017   6.887
 2273SOL     OW 7717   1.270   2.101   1.821
 2273SOL    HW1 7718   1.253   2.039   1.744
 2273SOL    HW2 7719   1.356   2.149   1.806
 2274SOL     OW 7720   0.347   1.787   6.570
 2274SOL    HW1 7721   0.329   1.717   6.501
 2274SOL    HW2 7722   0.386   1.744   6.651
 2275SOL     OW 7723   6.136   6.803   3.146
 2275SOL    HW1 7724   6.215   6.750   3.177
 2275SOL    HW2 7725   6.052   6.754   3.170
 2276SOL     OW 7726   2.360   5.523   1.946
 2276SOL    HW1 7727   2.291   5.550   2.013
 2276SOL    HW2 7728   2.424   5.598   1.932
 2277SOL     OW 7729   3.743   4.034   4.705
 2277SOL    HW1 7730   3.805   4.070   4.636
 2277SOL    HW2 7731   3.697   3.952   4.671
 2278SOL     OW 7732   5.916   2.857   3.888
 2278SOL    HW1 7733   5.890   2.783   3.950
 2278SOL    HW2 7734   5.969   2.819   3.812
 2279SOL     OW 7735   5.785   0.059   5.247
 2279SOL    HW1 7736   5.791   0.050   5.148
 2279SOL    HW2 7737   5.741   6.998   5.285
 2280SOL     OW 7738   6.637   6.826   4.348
 2280SOL    HW1 7739   6.670   6.800   4.439
 2280SOL    HW2 7740   6.603   6.920   4.351
 2281SOL     OW 7741   3.362   0.775   1.854
 2281SOL    HW1 7742   3.335   0.733   1.767
 2281SOL    HW2 7743   3.306   0.737   1.928
 2282SOL     OW 7744   5.297   6.228   5.955
 2282SOL    HW1 7745   5.296   6.260   5.860
 2282SOL    HW2 7746   5.224   6.161   5.968
 2283SOL     OW 7747   2.128   0.109   1.753
 2283SOL    HW1 7748   2.204   0.088   1.814
 2283SOL    HW2 7749   2.042   0.106   1.804
 2284SOL     OW 7750   1.209   3.370   6.586
 2284SOL    HW1 7751   1.282   3.402   6.526
 2284SOL    HW2 7752   1.183   3.277   6.562
 2285SOL     OW 7753   1.041   2.869   0.413
 2285SOL    HW1 7754   0.973   2.936   0.444
 2285SOL    HW2 7755   1.104   2.913   0.348
 2286SOL     OW 7756   5.506   0.449   3.607
 2286SOL    HW1 7757   5.416   0.407   3.597
 2286SOL    HW2 7758   5.572   0.402   3.547
 2287SOL     OW 7759   2.034   0.442   3.659
 2287SOL    HW1 7760   1.947   0.392   3.669
 2287SOL    HW2 7761   2.076   0.453   3.749
 2288SOL     OW 7762   6.445   4.933   3.923
 2288SOL    HW1 7763   6.345   4.934   3.917
 2288SOL    HW2 7764   6.481   4.848   3.885
 2289SOL     OW 7765   0.136   4.895   0.700
 2289SOL    HW1 7766   0.073   4.959   0.744
 2289SOL    HW2 7767   0.158   4.821   0.764
 2290SOL     OW 7768   0.664   3.504   1.227
 2290SOL    HW1 7769   0.666   3.604   1.225
 2290SOL    HW2 7770   0.727   3.468   1.158
 2291SOL     OW 7771   2.488   2.545   5.758
 2291SOL    HW1 7772   2.435   2.521   5.677
 2291SOL    HW2 7773   2.444   2.622   5.805
 2292SOL     OW 7774   1.162   1.802   4.444
 2292SOL    HW1 7775   1.161   1.879   4.509
 2292SOL    HW2 7776   1.251   1.757   4.448
 2293SOL     OW 7777   4.891   6.462   1.968
 2293SOL    HW1 7778   4.795   6.479   1.948
 2293SOL    HW2 7779   4.900   6.384   2.030
 2294SOL     OW 7780   3.072   0.616   0.240
 2294SOL    HW1 7781   3.129   0.608   0.322
 2294SOL    HW2 7782   3.108   0.688   0.181
 2295SOL     OW 7783   0.578   1.841   2.385
 2295SOL    HW1 7784   0.549   1.831   2.480
 2295SOL    HW2 7785   0.522   1.910   2.339
 2296SOL     OW 7786   3.611   6.106   0.560
 2296SOL    HW1 7787   3.542   6.153   0.504
 2296SOL    HW2 7788   3.566   6.054   0.632
 2297SOL     OW 7789   3.626   3.872   5.088
 2297SOL    HW1 7790   3.682   3.846   5.009
 2297SOL    HW2 7791   3.683   3.874   5.170
 2298SOL     OW 7792   4.194   2.708   1.633
 2298SOL    HW1 7793   4.293   2.694   1.627
 2298SOL    HW2 7794   4.174   2.806   1.630
 2299SOL     OW 7795   5.231   0.367   6.665
 2299SOL    HW1 7796   5.286   0.285   6.667
 2299SOL    HW2 7797   5.142   0.350   6.708
 2300SOL     OW 7798   2.613   4.765   1.487
 2300SOL    HW1 7799   2.681   4.736   1.554
 2300SOL    HW2 7800   2.537   4.810   1.534
 2301SOL     OW 7801   2.997   3.221   3.216
 2301SOL    HW1 7802   2.916   3.202   3.272
 2301SOL    HW2 7803   3.001   3.319   3.197
 2302SOL     OW 7804   3.353   0.002   1.866
 2302SOL    HW1 7805   3.265   6.976   1.875
 2302SOL    HW2 7806   3.352   0.061   1.784
 2303SOL     OW 7807   1.581   3.472   6.157
 2303SOL    HW1 7808   1.501   3.530   6.147
 2303SOL    HW2 7809   1.611   3.472   6.253
 2304SOL     OW 7810   3.256   0.329   3.180
 2304SOL    HW1 7811   3.209   0.244   3.204
 2304SOL    HW2 7812   3.199   0.407   3.204
 2305SOL     OW 7813   3.119   6.214   3.185
 2305SOL    HW1 7814   3.121   6.300   3.235
 2305SOL    HW2 7815   3.134   6.231   3.087
 2306SOL     OW 7816   2.025   5.203   2.225
 2306SOL    HW1 7817   1.973   5.152   2.294
 2306SOL    HW2 7818   2.107   5.242   2.267
 2307SOL     OW 7819   1.791   4.244   2.729
 2307SOL    HW1 7820   1.801   4.183   2.808
 2307SOL    HW2 7821   1.700   4.230   2.689
 2308SOL     OW 7822   1.415   6.671   6.788
 2308SOL    HW1 7823   1.354   6.747   6.768
 2308SOL    HW2 7824   1.486   6.666   6.718
 2309SOL     OW 7825   2.933   6.994   0.192
 2309SOL    HW1 7826   3.025   6.976   0.226
 2309SOL    HW2 7827   2.938   0.010   0.099
 2310SOL     OW 7828   5.961   6.251   1.580
 2310SOL    HW1 7829   5.933   6.192   1.505
 2310SOL    HW2 7830   6.061   6.247   1.590
 2311SOL     OW 7831   2.727   6.473   2.744
 2311SOL    HW1 7832   2.655   6.434   2.687
 2311SOL    HW2 7833   2.754   6.408   2.815
 2312SOL     OW 7834   3.602   6.776   3.986
 2312SOL    HW1 7835   3.616   6.686   3.945
 2312SOL    HW2 7836   3.639   6.846   3.925
 2313SOL     OW 7837   4.831   5.211   2.210
 2313SOL    HW1 7838   4.796   5.298   2.244
 2313SOL    HW2 7839   4.866   5.157   2.286
 2314SOL     OW 7840   5.590   1.044   4.371
 2314SOL    HW1 7841   5.674   1.088   4.339
 2314SOL    HW2 7842   5.526   1.114   4.402
 2315SOL     OW 7843   5.128   3.575   4.980
 2315SOL    HW1 7844   5.029   3.563   4.979
 2315SOL    HW2 7845   5.172   3.490   4.952
 2316SOL     OW 7846   2.916   0.638   4.858
 2316SOL    HW1 7847   2.930   0.662   4.954
 2316SOL    HW2 7848   2.977   0.692   4.801
 2317SOL     OW 7849   6.366   6.228   3.254
 2317SOL    HW1 7850   6.307   6.303   3.283
 2317SOL    HW2 7851   6.462   6.258   3.257
 2318SOL     OW 7852   2.073   3.329   4.400
 2318SOL    HW1 7853   2.113   3.388   4.330
 2318SOL    HW2 7854   2.061   3.237   4.364
 2319SOL     OW 7855   3.247   5.451   5.323
 2319SOL    HW1 7856   3.321   5.511   5.291
 2319SOL    HW2 7857   3.168   5.506   5.348
 2320SOL     OW 7858   1.579   2.514   5.266
 2320SOL    HW1 7859   1.547   2.599   5.223
 2320SOL    HW2 7860   1.532   2.436   5.224
 2321SOL     OW 7861   1.802   5.282   0.037
 2321SOL    HW1 7862   1.721   5.326   0.074
 2321SOL    HW2 7863   1.823   5.200   0.090
 2322SOL     OW 7864   2.050   4.297   2.661
 2322SOL    HW1 7865   2.056   4.294   2.561
 2322SOL    HW2 7866   1.961   4.262   2.690
 2323SOL     OW 7867   3.346   4.783   1.722
 2323SOL    HW1 7868   3.421   4.733   1.764
 2323SOL    HW2 7869   3.266   4.780   1.782
 2324SOL     OW 7870   6.695   5.981   0.630
 2324SOL    HW1 7871   6.793   5.962   0.629
 2324SOL    HW2 7872   6.670   6.025   0.716
 2325SOL     OW 7873   0.834   4.244   1.317
 2325SOL    HW1 7874   0.924   4.256   1.276
 2325SOL    HW2 7875   0.788   4.333   1.323
 2326SOL     OW 7876   1.853   6.856   6.780
 2326SOL    HW1 7877   1.912   6.826   6.855
 2326SOL    HW2 7878   1.903   6.854   6.694
 2327SOL     OW 7879   6.845   1.258   3.411
 2327SOL    HW1 7880   6.929   1.313   3.406
 2327SOL    HW2 7881   6.779   1.303   3.471
 2328SOL     OW 7882   1.599   1.536   3.032
 2328SOL    HW1 7883   1.505   1.552   3.059
 2328SOL    HW2 7884   1.638   1.463   3.088
 2329SOL     OW 7885   1.361   4.425   4.859
 2329SOL    HW1 7886   1.442   4.420   4.800
 2329SOL    HW2 7887   1.319   4.334   4.864
 2330SOL     OW 7888   0.390   2.650   1.358
 2330SOL    HW1 7889   0.415   2.730   1.412
 2330SOL    HW2 7890   0.350   2.680   1.271
 2331SOL     OW 7891   3.885   4.965   0.285
 2331SOL    HW1 7892   3.965   4.907   0.266
 2331SOL    HW2 7893   3.902   5.018   0.368
 2332SOL     OW 7894   6.756   0.113   5.289
 2332SOL    HW1 7895   6.811   0.058   5.352
 2332SOL    HW2 7896   6.697   0.052   5.235
 2333SOL     OW 7897   0.117   4.156   3.146
 2333SOL    HW1 7898   0.150   4.131   3.055
 2333SOL    HW2 7899   0.195   4.179   3.204
 2334SOL     OW 7900   2.154   0.679   6.465
 2334SOL    HW1 7901   2.218   0.607   6.438
 2334SOL    HW2 7902   2.117   0.658   6.556
 2335SOL     OW 7903   5.826   0.989   4.156
 2335SOL    HW1 7904   5.797   0.895   4.135
 2335SOL    HW2 7905   5.837   1.040   4.071
 2336SOL     OW 7906   3.934   1.340   4.602
 2336SOL    HW1 7907   3.935   1.388   4.515
 2336SOL    HW2 7908   3.962   1.402   4.675
 2337SOL     OW 7909   3.912   0.497   1.520
 2337SOL    HW1 7910   3.943   0.485   1.614
 2337SOL    HW2 7911   3.991   0.494   1.458
 2338SOL     OW 7912   0.261   3.098   5.044
 2338SOL    HW1 7913   0.197   3.089   4.968
 2338SOL    HW2 7914   0.246   3.024   5.109
 2339SOL     OW 7915   3.163   4.109   3.289
 2339SOL    HW1 7916   3.137   4.044   3.218
 2339SOL    HW2 7917   3.081   4.137   3.340
 2340SOL     OW 7918   6.670   4.178   6.425
 2340SOL    HW1 7919   6.656   4.228   6.339
 2340SOL    HW2 7920   6.619   4.223   6.498
 2341SOL     OW 7921   3.098   4.783   1.870
 2341SOL    HW1 7922   3.060   4.875   1.870
 2341SOL    HW2 7923   3.044   4.725   1.931
 2342SOL     OW 7924   0.993   6.611   5.576
 2342SOL    HW1 7925   0.988   6.583   5.671
 2342SOL    HW2 7926   1.007   6.530   5.518
 2343SOL     OW 7927   1.536   5.005   2.564
 2343SOL    HW1 7928   1.589   5.089   2.547
 2343SOL    HW2 7929   1.596   4.926   2.555
 2344SOL     OW 7930   0.889   5.753   6.805
 2344SOL    HW1 7931   0.829   5.688   6.851
 2344SOL    HW2 7932   0.934   5.708   6.728
 2345SOL     OW 7933   2.844   5.752   5.362
 2345SOL    HW1 7934   2.909   5.798   5.302
 2345SOL    HW2 7935   2.753   5.791   5.349
 2346SOL     OW 7936   3.495   3.573   5.357
 2346SOL    HW1 7937   3.547   3.653   5.327
 2346SOL    HW2 7938   3.455   3.527   5.277
 2347SOL     OW 7939   3.417   2.144   1.335
 2347SOL    HW1 7940   3.354   2.164   1.260
 2347SOL    HW2 7941   3.500   2.102   1.299
 2348SOL     OW 7942   2.622   6.561   3.874
 2348SOL    HW1 7943   2.525   6.576   3.853
 2348SOL    HW2 7944   2.667   6.518   3.796
 2349SOL     OW 7945   0.885   5.147   5.817
 2349SOL    HW1 7946   0.962   5.144   5.880
 2349SOL    HW2 7947   0.831   5.230   5.834
 2350SOL     OW 7948   6.245   6.184   6.009
 2350SOL    HW1 7949   6.282   6.260   6.062
 2350SOL    HW2 7950   6.296   6.100   6.030
 2351SOL     OW 7951   2.606   5.094   4.748
 2351SOL    HW1 7952   2.584   5.028   4.820
 2351SOL    HW2 7953   2.704   5.088   4.727
 2352SOL     OW 7954   0.651   4.008   2.555
 2352SOL    HW1 7955   0.655   3.950   2.636
 2352SOL    HW2 7956   0.651   4.104   2.582
 2353SOL     OW 7957   3.494   5.572   5.288
 2353SOL    HW1 7958   3.565   5.628   5.329
 2353SOL    HW2 7959   3.534   5.487   5.253
 2354SOL     OW 7960   2.879   1.734   5.388
 2354SOL    HW1 7961   2.801   1.777   5.344
 2354SOL    HW2 7962   2.930   1.680   5.321
 2355SOL     OW 7963   1.969   6.854   6.538
 2355SOL    HW1 7964   2.065   6.826   6.530
 2355SOL    HW2 7965   1.912   6.791   6.486
 2356SOL     OW 7966   1.041   3.561   6.480
 2356SOL    HW1 7967   1.104   3.487   6.505
 2356SOL    HW2 7968   1.050   3.581   6.383
 2357SOL     OW 7969   4.437   0.180   2.525
 2357SOL    HW1 7970   4.524   0.146   2.561
 2357SOL    HW2 7971   4.434   0.165   2.427
 2358SOL     OW 7972   3.828   5.242   4.821
 2358SOL    HW1 7973   3.855   5.265   4.914
 2358SOL    HW2 7974   3.809   5.145   4.815
 2359SOL     OW 7975   6.407   1.067   5.472
 2359SOL    HW1 7976   6.457   1.086   5.557
 2359SOL    HW2 7977   6.416   0.971   5.448
 2360SOL     OW 7978   5.701   3.635   7.006
 2360SOL    HW1 7979   5.671   3.541   7.015
 2360SOL    HW2 7980   5.677   3.669   6.915
 2361SOL     OW 7981   2.713   0.854   5.267
 2361SOL    HW1 7982   2.677   0.802   5.345
 2361SOL    HW2 7983   2.748   0.942   5.298
 2362SOL     OW 7984   2.445   6.259   4.099
 2362SOL    HW1 7985   2.396   6.297   4.020
 2362SOL    HW2 7986   2.387   6.268   4.181
 2363SOL     OW 7987   4.533   2.142   4.945
 2363SOL    HW1 7988   4.495   2.228   4.911
 2363SOL    HW2 7989   4.610   2.162   5.007
 2364SOL     OW 7990   0.679   2.253   2.379
 2364SOL    HW1 7991   0.713   2.203   2.299
 2364SOL    HW2 7992   0.639   2.340   2.349
 2365SOL     OW 7993   5.940   2.471   6.386
 2365SOL    HW1 7994   6.008   2.499   6.318
 2365SOL    HW2 7995   5.951   2.373   6.405
 2366SOL     OW 7996   2.581   5.388   6.301
 2366SOL    HW1 7997   2.489   5.368   6.334
 2366SOL    HW2 7998   2.647   5.333   6.351
 2367SOL     OW 7999   2.615   3.671   0.911
 2367SOL    HW1 8000   2.569   3.752   0.877
 2367SOL    HW2 8001   2.713   3.689   0.920
 2368SOL     OW 8002   4.152   0.483   4.186
 2368SOL    HW1 8003   4.053   0.477   4.178
 2368SOL    HW2 8004   4.187   0.402   4.233
 2369SOL     OW 8005   1.481   0.864   5.267
 2369SOL    HW1 8006   1.443   0.897   5.354
 2369SOL    HW2 8007   1.412   0.871   5.195
 2370SOL     OW 8008   4.545   3.246   0.063
 2370SOL    HW1 8009   4.634   3.290   0.075
 2370SOL    HW2 8010   4.517   3.254   6.987
 2371SOL     OW 8011   0.342   6.895   1.950
 2371SOL    HW1 8012   0.287   6.811   1.945
 2371SOL    HW2 8013   0.412   6.885   2.020
 2372SOL     OW 8014   0.422   2.782   2.554
 2372SOL    HW1 8015   0.398   2.753   2.647
 2372SOL    HW2 8016   0.388   2.874   2.538
 2373SOL     OW 8017   0.601   1.982   6.465
 2373SOL    HW1 8018   0.700   1.969   6.457
 2373SOL    HW2 8019   0.577   1.992   6.561
 2374SOL     OW 8020   6.064   1.637   3.739
 2374SOL    HW1 8021   6.120   1.637   3.656
 2374SOL    HW2 8022   5.995   1.708   3.732
 2375SOL     OW 8023   2.860   6.570   4.893
 2375SOL    HW1 8024   2.800   6.638   4.935
 2375SOL    HW2 8025   2.949   6.572   4.938
 2376SOL     OW 8026   7.005   2.408   4.599
 2376SOL    HW1 8027   6.921   2.353   4.595
 2376SOL    HW2 8028   0.063   2.351   4.575
 2377SOL     OW 8029   3.890   3.937   3.161
 2377SOL    HW1 8030   3.822   3.864   3.160
 2377SOL    HW2 8031   3.942   3.933   3.246
 2378SOL     OW 8032   5.144   1.480   0.431
 2378SOL    HW1 8033   5.234   1.497   0.392
 2378SOL    HW2 8034   5.097   1.409   0.377
 2379SOL     OW 8035   5.895   1.771   0.025
 2379SOL    HW1 8036   5.851   1.693   0.069
 2379SOL    HW2 8037   5.915   1.841   0.093
 2380SOL     OW 8038   0.813   1.257   6.931
 2380SOL    HW1 8039   0.900   1.267   6.882
 2380SOL    HW2 8040   0.813   1.316   7.012
 2381SOL     OW 8041   2.191   4.523   4.664
 2381SOL    HW1 8042   2.277   4.528   4.715
 2381SOL    HW2 8043   2.191   4.594   4.593
 2382SOL     OW 8044   1.968   4.332   4.228
 2382SOL    HW1 8045   2.015   4.331   4.316
 2382SOL    HW2 8046   2.034   4.353   4.155
 2383SOL     OW 8047   5.109   6.482   1.785
 2383SOL    HW1 8048   5.184   6.427   1.822
 2383SOL    HW2 8049   5.035   6.487   1.851
 2384SOL     OW 8050   5.724   0.958   3.020
 2384SOL    HW1 8051   5.792   0.978   2.950
 2384SOL    HW2 8052   5.684   1.044   3.054
 2385SOL     OW 8053   1.081   0.324   0.437
 2385SOL    HW1 8054   1.131   0.242   0.409
 2385SOL    HW2 8055   1.100   0.344   0.533
 2386SOL     OW 8056   6.067   5.784   4.211
 2386SOL    HW1 8057   6.092   5.778   4.308
 2386SOL    HW2 8058   6.141   5.747   4.156
 2387SOL     OW 8059   1.545   2.256   3.871
 2387SOL    HW1 8060   1.603   2.180   3.898
 2387SOL    HW2 8061   1.505   2.237   3.781
 2388SOL     OW 8062   0.715   2.110   4.790
 2388SOL    HW1 8063   0.786   2.176   4.813
 2388SOL    HW2 8064   0.731   2.075   4.697
 2389SOL     OW 8065   4.976   4.431   3.196
 2389SOL    HW1 8066   5.011   4.391   3.112
 2389SOL    HW2 8067   5.029   4.398   3.274
 2390SOL     OW 8068   3.817   2.932   2.956
 2390SOL    HW1 8069   3.804   2.945   3.054
 2390SOL    HW2 8070   3.842   2.837   2.938
 2391SOL     OW 8071   4.809   3.898   5.964
 2391SOL    HW1 8072   4.903   3.926   5.943
 2391SOL    HW2 8073   4.747   3.975   5.950
 2392SOL     OW 8074   4.650   6.675   5.337
 2392SOL    HW1 8075   4.706   6.593   5.348
 2392SOL    HW2 8076   4.630   6.689   5.240
 2393SOL     OW 8077   5.561   4.032   5.977
 2393SOL    HW1 8078   5.614   4.006   6.058
 2393SOL    HW2 8079   5.546   4.131   5.978
 2394SOL     OW 8080   1.238   3.699   4.959
 2394SOL    HW1 8081   1.270   3.651   5.041
 2394SOL    HW2 8082   1.316   3.720   4.900
 2395SOL     OW 8083   5.116   2.580   6.417
 2395SOL    HW1 8084   5.191   2.641   6.392
 2395SOL    HW2 8085   5.066   2.619   6.494
 2396SOL     OW 8086   3.223   5.415   1.455
 2396SOL    HW1 8087   3.270   5.384   1.372
 2396SOL    HW2 8088   3.126   5.390   1.449
 2397SOL     OW 8089   6.859   4.003   5.894
 2397SOL    HW1 8090   6.835   3.911   5.927
 2397SOL    HW2 8091   6.878   4.062   5.973
 2398SOL     OW 8092   2.802   3.442   0.150
 2398SOL    HW1 8093   2.703   3.430   0.152
 2398SOL    HW2 8094   2.827   3.519   0.209
 2399SOL     OW 8095   4.884   1.465   2.420
 2399SOL    HW1 8096   4.940   1.383   2.429
 2399SOL    HW2 8097   4.845   1.469   2.328
 2400SOL     OW 8098   3.329   3.893   0.714
 2400SOL    HW1 8099   3.319   3.958   0.639
 2400SOL    HW2 8100   3.424   3.894   0.747
 2401SOL     OW 8101   4.354   6.441   6.228
 2401SOL    HW1 8102   4.325   6.512   6.293
 2401SOL    HW2 8103   4.451   6.451   6.208
 2402SOL     OW 8104   6.858   0.340   3.701
 2402SOL    HW1 8105   6.919   0.275   3.654
 2402SOL    HW2 8106   6.911   0.418   3.733
 2403SOL     OW 8107   2.339   2.903   6.696
 2403SOL    HW1 8108   2.316   2.829   6.760
 2403SOL    HW2 8109   2.419   2.877   6.642
 2404SOL     OW 8110   3.555   1.324   1.267
 2404SOL    HW1 8111   3.471   1.301   1.317
 2404SOL    HW2 8112   3.623   1.361   1.331
 2405SOL     OW 8113   3.478   3.500   2.422
 2405SOL    HW1 8114   3.401   3.549   2.382
 2405SOL    HW2 8115   3.489   3.412   2.375
 2406SOL     OW 8116   2.794   6.593   2.483
 2406SOL    HW1 8117   2.806   6.541   2.568
 2406SOL    HW2 8118   2.883   6.606   2.439
 2407SOL     OW 8119   5.662   1.931   2.466
 2407SOL    HW1 8120   5.673   1.984   2.382
 2407SOL    HW2 8121   5.620   1.843   2.445
 2408SOL     OW 8122   4.092   4.829   3.168
 2408SOL    HW1 8123   4.138   4.780   3.242
 2408SOL    HW2 8124   3.993   4.814   3.174
 2409SOL     OW 8125   1.719   4.831   2.316
 2409SOL    HW1 8126   1.729   4.746   2.264
 2409SOL    HW2 8127   1.713   4.810   2.413
 2410SOL     OW 8128   4.289   3.042   5.361
 2410SOL    HW1 8129   4.228   3.101   5.414
 2410SOL    HW2 8130   4.258   2.947   5.368
 2411SOL     OW 8131   4.309   5.355   5.095
 2411SOL    HW1 8132   4.402   5.319   5.088
 2411SOL    HW2 8133   4.259   5.336   5.011
 2412SOL     OW 8134   4.907   5.036   0.900
 2412SOL    HW1 8135   4.955   4.956   0.935
 2412SOL    HW2 8136   4.921   5.043   0.801
 2413SOL     OW 8137   6.302   1.734   1.139
 2413SOL    HW1 8138   6.257   1.669   1.200
 2413SOL    HW2 8139   6.234   1.795   1.099
 2414SOL     OW 8140   4.718   4.788   2.871
 2414SOL    HW1 8141   4.783   4.859   2.844
 2414SOL    HW2 8142   4.627   4.812   2.839
 2415SOL     OW 8143   6.412   0.863   2.848
 2415SOL    HW1 8144   6.387   0.808   2.928
 2415SOL    HW2 8145   6.493   0.824   2.805
 2416SOL     OW 8146   4.813   2.369   5.607
 2416SOL    HW1 8147   4.890   2.316   5.572
 2416SOL    HW2 8148   4.731   2.312   5.611
 2417SOL     OW 8149   3.584   3.408   5.710
 2417SOL    HW1 8150   3.508   3.397   5.646
 2417SOL    HW2 8151   3.598   3.322   5.760
 2418SOL     OW 8152   3.004   3.173   4.236
 2418SOL    HW1 8153   2.989   3.249   4.173
 2418SOL    HW2 8154   2.953   3.189   4.320
 2419SOL     OW 8155   6.952   0.061   4.704
 2419SOL    HW1 8156   6.902   0.016   4.778
 2419SOL    HW2 8157   6.944   0.160   4.714
 2420SOL     OW 8158   3.113   0.796   2.407
 2420SOL    HW1 8159   3.080   0.887   2.383
 2420SOL    HW2 8160   3.206   0.803   2.442
 2421SOL     OW 8161   2.348   2.181   4.895
 2421SOL    HW1 8162   2.431   2.224   4.932
 2421SOL    HW2 8163   2.304   2.127   4.966
 2422SOL     OW 8164   5.647   1.362   0.843
 2422SOL    HW1 8165   5.615   1.436   0.783
 2422SOL    HW2 8166   5.707   1.301   0.791
 2423SOL     OW 8167   1.411   5.347   2.105
 2423SOL    HW1 8168   1.401   5.427   2.045
 2423SOL    HW2 8169   1.504   5.344   2.140
 2424SOL     OW 8170   6.087   0.018   5.961
 2424SOL    HW1 8171   6.006   6.982   5.977
 2424SOL    HW2 8172   6.088   0.048   5.865
 2425SOL     OW 8173   5.575   0.655   3.847
 2425SOL    HW1 8174   5.576   0.582   3.779
 2425SOL    HW2 8175   5.510   0.633   3.919
 2426SOL     OW 8176   1.171   6.187   4.997
 2426SOL    HW1 8177   1.110   6.107   5.001
 2426SOL    HW2 8178   1.213   6.202   5.086
 2427SOL     OW 8179   5.599   6.077   5.825
 2427SOL    HW1 8180   5.571   6.035   5.739
 2427SOL    HW2 8181   5.556   6.029   5.902
 2428SOL     OW 8182   6.507   0.300   2.358
 2428SOL    HW1 8183   6.471   0.367   2.293
 2428SOL    HW2 8184   6.552   0.227   2.308
 2429SOL     OW 8185   5.364   5.760   3.123
 2429SOL    HW1 8186   5.288   5.731   3.065
 2429SOL    HW2 8187   5.420   5.827   3.074
 2430SOL     OW 8188   5.758   0.874   1.446
 2430SOL    HW1 8189   5.800   0.795   1.491
 2430SOL    HW2 8190   5.670   0.847   1.407
 2431SOL     OW 8191   4.367   1.043   1.983
 2431SOL    HW1 8192   4.391   0.951   1.951
 2431SOL    HW2 8193   4.387   1.109   1.910
 2432SOL     OW 8194   3.188   5.995   2.790
 2432SOL    HW1 8195   3.126   6.009   2.712
 2432SOL    HW2 8196   3.204   6.083   2.834
 2433SOL     OW 8197   3.667   1.660   0.508
 2433SOL    HW1 8198   3.668   1.630   0.603
 2433SOL    HW2 8199   3.637   1.756   0.504
 2434SOL     OW 8200   3.697   1.287   5.765
 2434SOL    HW1 8201   3.649   1.371   5.791
 2434SOL    HW2 8202   3.771   1.310   5.701
 2435SOL     OW 8203   4.326   5.179   5.801
 2435SOL    HW1 8204   4.292   5.177   5.707
 2435SOL    HW2 8205   4.252   5.206   5.863
 2436SOL     OW 8206   1.518   4.889   0.436
 2436SOL    HW1 8207   1.543   4.835   0.355
 2436SOL    HW2 8208   1.558   4.980   0.429
 2437SOL     OW 8209   5.166   6.557   6.623
 2437SOL    HW1 8210   5.231   6.483   6.641
 2437SOL    HW2 8211   5.143   6.558   6.526
 2438SOL     OW 8212   3.401   1.328   6.824
 2438SOL    HW1 8213   3.428   1.334   6.728
 2438SOL    HW2 8214   3.434   1.409   6.872
 2439SOL     OW 8215   0.975   4.292   6.550
 2439SOL    HW1 8216   0.977   4.363   6.620
 2439SOL    HW2 8217   0.995   4.203   6.591
 2440SOL     OW 8218   4.538   6.298   5.908
 2440SOL    HW1 8219   4.597   6.219   5.886
 2440SOL    HW2 8220   4.595   6.378   5.926
 2441SOL     OW 8221   0.441   1.552   6.927
 2441SOL    HW1 8222   0.456   1.595   7.016
 2441SOL    HW2 8223   0.418   1.455   6.940
 2442SOL     OW 8224   0.775   3.327   5.711
 2442SOL    HW1 8225   0.852   3.321   5.648
 2442SOL    HW2 8226   0.700   3.270   5.678
 2443SOL     OW 8227   3.750   5.193   5.996
 2443SOL    HW1 8228   3.656   5.225   5.987
 2443SOL    HW2 8229   3.770   5.126   5.925
 2444SOL     OW 8230   2.819   3.987   6.671
 2444SOL    HW1 8231   2.781   3.991   6.578
 2444SOL    HW2 8232   2.748   3.954   6.734
 2445SOL     OW 8233   6.938   1.400   1.168
 2445SOL    HW1 8234   6.865   1.358   1.114
 2445SOL    HW2 8235   0.005   1.392   1.119
 2446SOL     OW 8236   6.259   4.450   3.842
 2446SOL    HW1 8237   6.305   4.526   3.796
 2446SOL    HW2 8238   6.269   4.460   3.941
 2447SOL     OW 8239   2.325   3.011   0.310
 2447SOL    HW1 8240   2.350   3.032   0.404
 2447SOL    HW2 8241   2.372   2.927   0.282
 2448SOL     OW 8242   0.336   0.714   4.347
 2448SOL    HW1 8243   0.254   0.694   4.294
 2448SOL    HW2 8244   0.386   0.629   4.365
 2449SOL     OW 8245   6.782   4.425   0.219
 2449SOL    HW1 8246   6.789   4.525   0.218
 2449SOL    HW2 8247   6.700   4.398   0.269
 2450SOL     OW 8248   2.264   4.138   2.723
 2450SOL    HW1 8249   2.188   4.202   2.706
 2450SOL    HW2 8250   2.347   4.173   2.680
 2451SOL     OW 8251   1.609   0.219   4.116
 2451SOL    HW1 8252   1.581   0.154   4.046
 2451SOL    HW2 8253   1.703   0.201   4.143
 2452SOL     OW 8254   1.705   3.296   3.189
 2452SOL    HW1 8255   1.677   3.300   3.285
 2452SOL    HW2 8256   1.805   3.307   3.183
 2453SOL     OW 8257   6.789   4.725   1.167
 2453SOL    HW1 8258   6.849   4.674   1.229
 2453SOL    HW2 8259   6.776   4.673   1.083
 2454SOL     OW 8260   4.008   0.991   1.936
 2454SOL    HW1 8261   3.991   0.966   2.031
 2454SOL    HW2 8262   4.048   1.082   1.932
 2455SOL     OW 8263   5.130   6.208   0.474
 2455SOL    HW1 8264   5.218   6.255   0.465
 2455SOL    HW2 8265   5.135   6.142   0.548
 2456SOL     OW 8266   5.047   6.837   2.248
 2456SOL    HW1 8267   5.013   6.789   2.167
 2456SOL    HW2 8268   5.015   6.790   2.330
 2457SOL     OW 8269   5.384   6.577   0.431
 2457SOL    HW1 8270   5.466   6.633   0.420
 2457SOL    HW2 8271   5.395   6.518   0.512
 2458SOL     OW 8272   2.429   5.379   3.483
 2458SOL    HW1 8273   2.381   5.292   3.475
 2458SOL    HW2 8274   2.524   5.362   3.509
 2459SOL     OW 8275   1.536   6.941   0.810
 2459SOL    HW1 8276   1.569   7.019   0.757
 2459SOL    HW2 8277   1.456   6.902   0.764
 2460SOL     OW 8278   2.240   6.726   2.164
 2460SOL    HW1 8279   2.197   6.651   2.115
 2460SOL    HW2 8280   2.175   6.800   2.177
 2461SOL     OW 8281   5.766   0.883   2.292
 2461SOL    HW1 8282   5.683   0.939   2.300
 2461SOL    HW2 8283   5.741   0.791   2.261
 2462SOL     OW 8284   2.174   5.190   0.525
 2462SOL    HW1 8285   2.208   5.250   0.452
 2462SOL    HW2 8286   2.205   5.097   0.509
 2463SOL     OW 8287   0.108   1.837   3.765
 2463SOL    HW1 8288   0.077   1.760   3.709
 2463SOL    HW2 8289   0.117   1.919   3.707
 2464SOL     OW 8290   0.597   4.506   0.726
 2464SOL    HW1 8291   0.573   4.507   0.629
 2464SOL    HW2 8292   0.650   4.423   0.746
 2465SOL     OW 8293   0.159   5.580   1.510
 2465SOL    HW1 8294   0.241   5.593   1.565
 2465SOL    HW2 8295   0.150   5.484   1.486
 2466SOL     OW 8296   4.548   1.536   2.752
 2466SOL    HW1 8297   4.488   1.458   2.767
 2466SOL    HW2 8298   4.643   1.507   2.757
 2467SOL     OW 8299   6.525   1.330   5.922
 2467SOL    HW1 8300   6.585   1.365   5.994
 2467SOL    HW2 8301   6.578   1.316   5.839
 2468SOL     OW 8302   6.865   6.382   2.176
 2468SOL    HW1 8303   6.909   6.373   2.266
 2468SOL    HW2 8304   6.886   6.302   2.120
 2469SOL     OW 8305   2.902   3.980   5.594
 2469SOL    HW1 8306   2.831   4.022   5.651
 2469SOL    HW2 8307   2.869   3.976   5.499
 2470SOL     OW 8308   2.770   3.776   5.806
 2470SOL    HW1 8309   2.866   3.799   5.794
 2470SOL    HW2 8310   2.714   3.857   5.793
 2471SOL     OW 8311   0.960   6.229   1.869
 2471SOL    HW1 8312   0.991   6.298   1.804
 2471SOL    HW2 8313   0.869   6.254   1.902
 2472SOL     OW 8314   5.397   2.162   4.400
 2472SOL    HW1 8315   5.464   2.234   4.382
 2472SOL    HW2 8316   5.391   2.147   4.499
 2473SOL     OW 8317   0.993   5.500   4.316
 2473SOL    HW1 8318   1.081   5.461   4.341
 2473SOL    HW2 8319   1.007   5.590   4.275
 2474SOL     OW 8320   6.921   5.362   5.320
 2474SOL    HW1 8321   6.876   5.430   5.378
 2474SOL    HW2 8322   6.880   5.273   5.336
 2475SOL     OW 8323   4.348   2.343   0.508
 2475SOL    HW1 8324   4.270   2.289   0.540
 2475SOL    HW2 8325   4.394   2.296   0.433
 2476SOL     OW 8326   0.898   1.448   3.988
 2476SOL    HW1 8327   0.935   1.508   3.917
 2476SOL    HW2 8328   0.863   1.502   4.063
 2477SOL     OW 8329   5.424   6.422   1.514
 2477SOL    HW1 8330   5.478   6.437   1.431
 2477SOL    HW2 8331   5.367   6.341   1.502
 2478SOL     OW 8332   6.301   6.762   2.642
 2478SOL    HW1 8333   6.348   6.833   2.696
 2478SOL    HW2 8334   6.210   6.794   2.616
 2479SOL     OW 8335   6.944   2.569   1.288
 2479SOL    HW1 8336   6.911   2.632   1.218
 2479SOL    HW2 8337   6.870   2.547   1.351
 2480SOL     OW 8338   6.642   3.476   1.441
 2480SOL    HW1 8339   6.702   3.525   1.377
 2480SOL    HW2 8340   6.555   3.456   1.396
 2481SOL     OW 8341   3.868   5.642   1.319
 2481SOL    HW1 8342   3.960   5.671   1.347
 2481SOL    HW2 8343   3.820   5.720   1.279
 2482SOL     OW 8344   4.863   3.433   5.437
 2482SOL    HW1 8345   4.874   3.532   5.430
 2482SOL    HW2 8346   4.875   3.391   5.347
 2483SOL     OW 8347   1.137   1.200   0.592
 2483SOL    HW1 8348   1.082   1.123   0.625
 2483SOL    HW2 8349   1.076   1.272   0.559
 2484SOL     OW 8350   2.755   0.955   0.610
 2484SOL    HW1 8351   2.737   1.047   0.574
 2484SOL    HW2 8352   2.716   0.947   0.702
 2485SOL     OW 8353   0.123   5.226   2.312
 2485SOL    HW1 8354   0.065   5.290   2.262
 2485SOL    HW2 8355   0.066   5.163   2.365
 2486SOL     OW 8356   1.893   5.235   3.147
 2486SOL    HW1 8357   1.929   5.321   3.182
 2486SOL    HW2 8358   1.926   5.159   3.204
 2487SOL     OW 8359   3.938   6.927   0.458
 2487SOL    HW1 8360   3.840   6.908   0.460
 2487SOL    HW2 8361   3.959   6.998   0.524
 2488SOL     OW 8362   2.842   4.255   1.074
 2488SOL    HW1 8363   2.782   4.249   1.154
 2488SOL    HW2 8364   2.921   4.195   1.087
 2489SOL     OW 8365   1.479   5.194   5.478
 2489SOL    HW1 8366   1.467   5.141   5.394
 2489SOL    HW2 8367   1.576   5.194   5.503
 2490SOL     OW 8368   6.277   3.966   0.762
 2490SOL    HW1 8369   6.291   3.944   0.859
 2490SOL    HW2 8370   6.340   3.912   0.707
 2491SOL     OW 8371   2.817   5.534   3.436
 2491SOL    HW1 8372   2.912   5.564   3.449
 2491SOL    HW2 8373   2.780   5.573   3.352
 2492SOL     OW 8374   4.723   3.212   6.533
 2492SOL    HW1 8375   4.771   3.278   6.475
 2492SOL    HW2 8376   4.775   3.198   6.618
 2493SOL     OW 8377   5.560   1.762   2.732
 2493SOL    HW1 8378   5.593   1.728   2.820
 2493SOL    HW2 8379   5.574   1.861   2.726
 2494SOL     OW 8380   4.688   2.730   2.378
 2494SOL    HW1 8381   4.686   2.820   2.335
 2494SOL    HW2 8382   4.643   2.663   2.318
 2495SOL     OW 8383   5.353   1.157   5.223
 2495SOL    HW1 8384   5.448   1.183   5.241
 2495SOL    HW2 8385   5.294   1.237   5.230
 2496SOL     OW 8386   0.863   5.343   0.029
 2496SOL    HW1 8387   0.764   5.349   0.044
 2496SOL    HW2 8388   0.884   5.368   6.955
 2497SOL     OW 8389   6.842   1.844   0.092
 2497SOL    HW1 8390   6.899   1.834   0.174
 2497SOL    HW2 8391   6.793   1.931   0.095
 2498SOL     OW 8392   1.809   2.873   3.820
 2498SOL    HW1 8393   1.900   2.910   3.796
 2498SOL    HW2 8394   1.810   2.840   3.914
 2499SOL     OW 8395   5.116   0.693   4.582
 2499SOL    HW1 8396   5.072   0.759   4.643
 2499SOL    HW2 8397   5.203   0.730   4.550
 2500SOL     OW 8398   4.917   3.099   6.224
 2500SOL    HW1 8399   4.885   3.183   6.180
 2500SOL    HW2 8400   4.957   3.122   6.313
 2501SOL     OW 8401   6.209   4.575   0.063
 2501SOL    HW1 8402   6.180   4.533   0.149
 2501SOL    HW2 8403   6.273   4.514   0.016
 2502SOL     OW 8404   1.782   0.030   2.982
 2502SOL    HW1 8405   1.705   0.089   3.006
 2502SOL    HW2 8406   1.775   0.004   2.886
 2503SOL     OW 8407   4.012   5.136   6.197
 2503SOL    HW1 8408   3.931   5.191   6.216
 2503SOL    HW2 8409   4.074   5.141   6.275
 2504SOL     OW 8410   1.922   4.948   4.837
 2504SOL    HW1 8411   1.999   4.886   4.819
 2504SOL    HW2 8412   1.902   5.000   4.754
 2505SOL     OW 8413   4.328   5.509   4.067
 2505SOL    HW1 8414   4.260   5.579   4.048
 2505SOL    HW2 8415   4.420   5.548   4.057
 2506SOL     OW 8416   6.635   3.043   6.093
 2506SOL    HW1 8417   6.545   3.002   6.074
 2506SOL    HW2 8418   6.684   2.985   6.158
 2507SOL     OW 8419   6.360   6.019   0.739
 2507SOL    HW1 8420   6.435   6.064   0.789
 2507SOL    HW2 8421   6.381   6.019   0.641
 2508SOL     OW 8422   2.283   1.961   2.050
 2508SOL    HW1 8423   2.375   1.989   2.076
 2508SOL    HW2 8424   2.287   1.907   1.966
 2509SOL     OW 8425   5.738   2.470   3.344
 2509SOL    HW1 8426   5.690   2.382   3.333
 2509SOL    HW2 8427   5.836   2.454   3.350
 2510SOL     OW 8428   3.288   5.236   0.301
 2510SOL    HW1 8429   3.310   5.334   0.297
 2510SOL    HW2 8430   3.252   5.214   0.391
 2511SOL     OW 8431   0.867   0.578   5.218
 2511SOL    HW1 8432   0.966   0.586   5.228
 2511SOL    HW2 8433   0.846   0.522   5.138
 2512SOL     OW 8434   4.840   4.134   4.862
 2512SOL    HW1 8435   4.815   4.150   4.766
 2512SOL    HW2 8436   4.940   4.126   4.869
 2513SOL     OW 8437   1.046   2.484   6.368
 2513SOL    HW1 8438   0.953   2.511   6.343
 2513SOL    HW2 8439   1.046   2.442   6.458
 2514SOL     OW 8440   1.379   0.917   4.563
 2514SOL    HW1 8441   1.327   0.918   4.477
 2514SOL    HW2 8442   1.453   0.984   4.558
 2515SOL     OW 8443   1.156   5.834   0.743
 2515SOL    HW1 8444   1.239   5.880   0.713
 2515SOL    HW2 8445   1.179   5.751   0.793
 2516SOL     OW 8446   6.206   6.672   3.493
 2516SOL    HW1 8447   6.144   6.695   3.569
 2516SOL    HW2 8448   6.271   6.746   3.480
 2517SOL     OW 8449   2.469   4.644   0.438
 2517SOL    HW1 8450   2.531   4.718   0.411
 2517SOL    HW2 8451   2.500   4.558   0.397
 2518SOL     OW 8452   2.257   3.182   6.780
 2518SOL    HW1 8453   2.267   3.243   6.702
 2518SOL    HW2 8454   2.304   3.096   6.760
 2519SOL     OW 8455   4.780   4.696   4.736
 2519SOL    HW1 8456   4.741   4.640   4.809
 2519SOL    HW2 8457   4.724   4.778   4.723
 2520SOL     OW 8458   2.140   3.602   1.042
 2520SOL    HW1 8459   2.158   3.509   1.074
 2520SOL    HW2 8460   2.203   3.625   0.968
 2521SOL     OW 8461   6.464   0.338   5.517
 2521SOL    HW1 8462   6.492   0.260   5.573
 2521SOL    HW2 8463   6.433   0.305   5.428
 2522SOL     OW 8464   1.283   3.088   4.612
 2522SOL    HW1 8465   1.258   3.127   4.700
 2522SOL    HW2 8466   1.373   3.120   4.585
 2523SOL     OW 8467   0.011   3.971   0.768
 2523SOL    HW1 8468   0.086   4.023   0.809
 2523SOL    HW2 8469   0.047   3.915   0.694
 2524SOL     OW 8470   1.727   6.630   3.831
 2524SOL    HW1 8471   1.685   6.549   3.873
 2524SOL    HW2 8472   1.661   6.674   3.770
 2525SOL     OW 8473   1.281   4.128   3.963
 2525SOL    HW1 8474   1.333   4.103   3.881
 2525SOL    HW2 8475   1.221   4.052   3.988
 2526SOL     OW 8476   6.938   1.591   4.249
 2526SOL    HW1 8477   6.947   1.691   4.251
 2526SOL    HW2 8478   6.933   1.560   4.155
 2527SOL     OW 8479   5.563   6.109   4.503
 2527SOL    HW1 8480   5.613   6.171   4.564
 2527SOL    HW2 8481   5.598   6.118   4.410
 2528SOL     OW 8482   6.036   5.466   0.768
 2528SOL    HW1 8483   6.032   5.509   0.678
 2528SOL    HW2 8484   6.128   5.430   0.783
 2529SOL     OW 8485   5.302   5.056   4.591
 2529SOL    HW1 8486   5.316   5.058   4.492
 2529SOL    HW2 8487   5.214   5.097   4.613
 2530SOL     OW 8488   1.160   6.992   3.290
 2530SOL    HW1 8489   1.081   0.029   3.309
 2530SOL    HW2 8490   1.137   6.896   3.307
 2531SOL     OW 8491   4.522   0.911   5.431
 2531SOL    HW1 8492   4.466   0.873   5.358
 2531SOL    HW2 8493   4.496   0.868   5.518
 2532SOL     OW 8494   1.411   5.263   6.717
 2532SOL    HW1 8495   1.458   5.220   6.793
 2532SOL    HW2 8496   1.380   5.194   6.653
 2533SOL     OW 8497   5.480   6.699   5.442
 2533SOL    HW1 8498   5.539   6.638   5.495
 2533SOL    HW2 8499   5.402   6.728   5.499
 2534SOL     OW 8500   2.034   0.796   4.024
 2534SOL    HW1 8501   2.121   0.822   3.983
 2534SOL    HW2 8502   1.985   0.736   3.961
 2535SOL     OW 8503   1.578   1.067   3.920
 2535SOL    HW1 8504   1.580   1.106   3.828
 2535SOL    HW2 8505   1.520   0.985   3.921
 2536SOL     OW 8506   5.842   1.675   4.511
 2536SOL    HW1 8507   5.929   1.711   4.547
 2536SOL    HW2 8508   5.850   1.661   4.412
 2537SOL     OW 8509   4.955   5.637   1.412
 2537SOL    HW1 8510   4.978   5.636   1.509
 2537SOL    HW2 8511   4.862   5.671   1.400
 2538SOL     OW 8512   1.907   5.014   4.551
 2538SOL    HW1 8513   1.890   4.937   4.489
 2538SOL    HW2 8514   2.002   5.044   4.540
 2539SOL     OW 8515   4.477   0.521   5.272
 2539SOL    HW1 8516   4.425   0.469   5.340
 2539SOL    HW2 8517   4.441   0.613   5.265
 2540SOL     OW 8518   5.400   1.297   1.968
 2540SOL    HW1 8519   5.438   1.300   2.060
 2540SOL    HW2 8520   5.351   1.382   1.949
 2541SOL     OW 8521   1.381   6.547   5.878
 2541SOL    HW1 8522   1.336   6.576   5.962
 2541SOL    HW2 8523   1.459   6.607   5.860
 2542SOL     OW 8524   3.245   1.652   4.480
 2542SOL    HW1 8525   3.244   1.729   4.544
 2542SOL    HW2 8526   3.160   1.600   4.488
 2543SOL     OW 8527   0.889   1.376   2.743
 2543SOL    HW1 8528   0.877   1.475   2.745
 2543SOL    HW2 8529   0.905   1.343   2.836
 2544SOL     OW 8530   6.715   4.963   1.038
 2544SOL    HW1 8531   6.716   4.883   1.097
 2544SOL    HW2 8532   6.788   4.955   0.970
 2545SOL     OW 8533   0.635   1.582   1.717
 2545SOL    HW1 8534   0.570   1.506   1.726
 2545SOL    HW2 8535   0.661   1.592   1.621
 2546SOL     OW 8536   6.404   3.692   1.844
 2546SOL    HW1 8537   6.339   3.719   1.915
 2546SOL    HW2 8538   6.495   3.682   1.884
 2547SOL     OW 8539   5.399   4.322   0.691
 2547SOL    HW1 8540   5.357   4.335   0.781
 2547SOL    HW2 8541   5.445   4.406   0.663
 2548SOL     OW 8542   0.444   6.996   5.442
 2548SOL    HW1 8543   0.422   6.929   5.513
 2548SOL    HW2 8544   0.391   6.976   5.360
 2549SOL     OW 8545   2.322   1.774   1.444
 2549SOL    HW1 8546   2.272   1.859   1.426
 2549SOL    HW2 8547   2.269   1.696   1.410
 2550SOL     OW 8548   4.606   0.155   6.436
 2550SOL    HW1 8549   4.668   0.161   6.357
 2550SOL    HW2 8550   4.528   0.217   6.421
 2551SOL     OW 8551   2.850   5.132   6.908
 2551SOL    HW1 8552   2.911   5.187   6.966
 2551SOL    HW2 8553   2.859   5.162   6.813
 2552SOL     OW 8554   2.001   5.863   0.176
 2552SOL    HW1 8555   2.052   5.858   0.262
 2552SOL    HW2 8556   2.054   5.820   0.103
 2553SOL     OW 8557   3.866   2.182   6.731
 2553SOL    HW1 8558   3.882   2.104   6.791
 2553SOL    HW2 8559   3.939   2.249   6.743
 2554SOL     OW 8560   1.883   5.962   1.357
 2554SOL    HW1 8561   1.912   5.885   1.300
 2554SOL    HW2 8562   1.917   5.949   1.451
 2555SOL     OW 8563   5.818   6.131   6.046
 2555SOL    HW1 8564   5.794   6.120   5.949
 2555SOL    HW2 8565   5.859   6.046   6.080
 2556SOL     OW 8566   3.500   0.066   1.449
 2556SOL    HW1 8567   3.513   0.113   1.362
 2556SOL    HW2 8568   3.431   7.015   1.438
 2557SOL     OW 8569   3.501   0.739   0.639
 2557SOL    HW1 8570   3.460   0.794   0.567
 2557SOL    HW2 8571   3.475   0.776   0.728
 2558SOL     OW 8572   5.416   4.539   7.006
 2558SOL    HW1 8573   5.348   4.485   0.035
 2558SOL    HW2 8574   5.506   4.526   0.027
 2559SOL     OW 8575   0.867   3.800   3.919
 2559SOL    HW1 8576   0.918   3.855   3.852
 2559SOL    HW2 8577   0.775   3.838   3.931
 2560SOL     OW 8578   4.991   2.769   3.007
 2560SOL    HW1 8579   5.012   2.799   2.914
 2560SOL    HW2 8580   4.892   2.776   3.023
 2561SOL     OW 8581   3.182   0.714   4.098
 2561SOL    HW1 8582   3.099   0.759   4.129
 2561SOL    HW2 8583   3.251   0.715   4.170
 2562SOL     OW 8584   3.027   6.442   3.585
 2562SOL    HW1 8585   3.054   6.537   3.599
 2562SOL    HW2 8586   3.022   6.422   3.487
 2563SOL     OW 8587   2.930   1.167   6.919
 2563SOL    HW1 8588   2.919   1.141   7.015
 2563SOL    HW2 8589   2.992   1.246   6.913
 2564SOL     OW 8590   1.704   1.048   0.736
 2564SOL    HW1 8591   1.704   0.974   0.669
 2564SOL    HW2 8592   1.667   1.131   0.693
 2565SOL     OW 8593   1.177   1.695   6.467
 2565SOL    HW1 8594   1.209   1.684   6.561
 2565SOL    HW2 8595   1.187   1.609   6.418
 2566SOL     OW 8596   3.100   0.796   1.512
 2566SOL    HW1 8597   3.002   0.781   1.522
 2566SOL    HW2 8598   3.150   0.726   1.563
 2567SOL     OW 8599   1.458   0.126   6.939
 2567SOL    HW1 8600   1.470   0.147   0.016
 2567SOL    HW2 8601   1.536   0.072   6.906
 2568SOL     OW 8602   2.706   6.013   1.285
 2568SOL    HW1 8603   2.789   6.060   1.255
 2568SOL    HW2 8604   2.657   6.071   1.350
 2569SOL     OW 8605   1.660   1.263   1.349
 2569SOL    HW1 8606   1.660   1.362   1.339
 2569SOL    HW2 8607   1.580   1.235   1.403
 2570SOL     OW 8608   5.082   6.066   6.926
 2570SOL    HW1 8609   5.104   6.156   6.887
 2570SOL    HW2 8610   5.100   6.068   0.004
 2571SOL     OW 8611   3.886   3.131   4.266
 2571SOL    HW1 8612   3.832   3.215   4.274
 2571SOL    HW2 8613   3.825   3.055   4.242
 2572SOL     OW 8614   2.462   5.540   1.487
 2572SOL    HW1 8615   2.475   5.488   1.402
 2572SOL    HW2 8616   2.527   5.616   1.489
 2573SOL     OW 8617   6.883   2.104   4.100
 2573SOL    HW1 8618   6.862   2.117   4.003
 2573SOL    HW2 8619   6.973   2.144   4.121
 2574SOL     OW 8620   6.865   3.621   1.353
 2574SOL    HW1 8621   6.955   3.588   1.325
 2574SOL    HW2 8622   6.859   3.619   1.453
 2575SOL     OW 8623   5.601   4.077   0.295
 2575SOL    HW1 8624   5.574   4.014   0.222
 2575SOL    HW2 8625   5.541   4.064   0.374
 2576SOL     OW 8626   2.182   0.069   2.862
 2576SOL    HW1 8627   2.116   0.074   2.787
 2576SOL    HW2 8628   2.141   0.020   2.939
 2577SOL     OW 8629   3.156   6.819   3.208
 2577SOL    HW1 8630   3.163   6.733   3.157
 2577SOL    HW2 8631   3.071   6.819   3.261
 2578SOL     OW 8632   4.551   2.508   4.542
 2578SOL    HW1 8633   4.573   2.572   4.615
 2578SOL    HW2 8634   4.481   2.444   4.574
 2579SOL     OW 8635   0.304   2.416   6.702
 2579SOL    HW1 8636   0.308   2.497   6.760
 2579SOL    HW2 8637   0.330   2.335   6.756
 2580SOL     OW 8638   1.768   2.524   6.626
 2580SOL    HW1 8639   1.720   2.436   6.625
 2580SOL    HW2 8640   1.797   2.547   6.533
 2581SOL     OW 8641   5.247   5.575   2.145
 2581SOL    HW1 8642   5.329   5.612   2.102
 2581SOL    HW2 8643   5.273   5.506   2.213
 2582SOL     OW 8644   0.977   5.522   2.488
 2582SOL    HW1 8645   0.901   5.567   2.535
 2582SOL    HW2 8646   1.020   5.585   2.424
 2583SOL     OW 8647   0.798   0.144   0.565
 2583SOL    HW1 8648   0.875   0.095   0.607
 2583SOL    HW2 8649   0.728   0.079   0.536
 2584SOL     OW 8650   3.287   6.405   1.180
 2584SOL    HW1 8651   3.298   6.416   1.081
 2584SOL    HW2 8652   3.222   6.331   1.198
 2585SOL     OW 8653   3.121   0.075   0.614
 2585SOL    HW1 8654   3.168   0.146   0.667
 2585SOL    HW2 8655   3.022   0.088   0.620
 2586SOL     OW 8656   6.128   1.731   4.480
 2586SOL    HW1 8657   6.182   1.649   4.497
 2586SOL    HW2 8658   6.097   1.732   4.385
 2587SOL     OW 8659   5.962   6.829   4.660
 2587SOL    HW1 8660   5.946   6.864   4.752
 2587SOL    HW2 8661   5.958   6.729   4.661
 2588SOL     OW 8662   5.877   0.678   1.603
 2588SOL    HW1 8663   5.831   0.624   1.674
 2588SOL    HW2 8664   5.938   0.618   1.551
 2589SOL     OW 8665   6.526   0.033   5.588
 2589SOL    HW1 8666   6.473   0.031   5.503
 2589SOL    HW2 8667   6.532   6.962   5.627
 2590SOL     OW 8668   3.928   6.846   2.683
 2590SOL    HW1 8669   3.911   6.749   2.667
 2590SOL    HW2 8670   3.969   6.887   2.602
 2591SOL     OW 8671   5.037   5.911   1.620
 2591SOL    HW1 8672   4.999   5.959   1.541
 2591SOL    HW2 8673   4.964   5.891   1.685
 2592SOL     OW 8674   3.046   5.467   1.081
 2592SOL    HW1 8675   2.971   5.530   1.101
 2592SOL    HW2 8676   3.129   5.519   1.064
 2593SOL     OW 8677   3.436   6.181   3.061
 2593SOL    HW1 8678   3.361   6.198   3.124
 2593SOL    HW2 8679   3.470   6.269   3.025
 2594SOL     OW 8680   0.060   0.410   6.489
 2594SOL    HW1 8681   0.154   0.442   6.493
 2594SOL    HW2 8682   0.054   0.319   6.529
 2595SOL     OW 8683   6.743   3.236   4.723
 2595SOL    HW1 8684   6.684   3.202   4.796
 2595SOL    HW2 8685   6.775   3.328   4.746
 2596SOL     OW 8686   4.066   2.128   2.179
 2596SOL    HW1 8687   3.977   2.102   2.215
 2596SOL    HW2 8688   4.137   2.105   2.245
 2597SOL     OW 8689   2.477   3.216   1.376
 2597SOL    HW1 8690   2.484   3.230   1.475
 2597SOL    HW2 8691   2.557   3.165   1.345
 2598SOL     OW 8692   0.046   2.586   4.001
 2598SOL    HW1 8693   0.121   2.633   3.955
 2598SOL    HW2 8694   6.987   2.647   4.008
 2599SOL     OW 8695   4.208   5.850   6.611
 2599SOL    HW1 8696   4.202   5.927   6.673
 2599SOL    HW2 8697   4.244   5.881   6.523
 2600SOL     OW 8698   5.816   3.950   3.785
 2600SOL    HW1 8699   5.861   3.907   3.864
 2600SOL    HW2 8700   5.845   3.904   3.701
 2601SOL     OW 8701   3.644   3.201   6.157
 2601SOL    HW1 8702   3.644   3.298   6.181
 2601SOL    HW2 8703   3.582   3.152   6.218
 2602SOL     OW 8704   0.046   4.600   4.450
 2602SOL    HW1 8705   0.089   4.688   4.472
 2602SOL    HW2 8706   6.993   4.615   4.382
 2603SOL     OW 8707   2.348   2.243   1.185
 2603SOL    HW1 8708   2.293   2.174   1.139
 2603SOL    HW2 8709   2.350   2.224   1.283
 2604SOL     OW 8710   5.108   0.356   1.225
 2604SOL    HW1 8711   5.050   0.306   1.290
 2604SOL    HW2 8712   5.165   0.291   1.175
 2605SOL     OW 8713   4.002   4.833   4.071
 2605SOL    HW1 8714   4.078   4.898   4.068
 2605SOL    HW2 8715   3.991   4.790   3.981
 2606SOL     OW 8716   6.016   4.464   1.397
 2606SOL    HW1 8717   5.959   4.468   1.315
 2606SOL    HW2 8718   6.088   4.534   1.391
 2607SOL     OW 8719   1.232   1.113   3.383
 2607SOL    HW1 8720   1.193   1.187   3.438
 2607SOL    HW2 8721   1.233   1.028   3.436
 2608SOL     OW 8722   5.677   0.271   2.042
 2608SOL    HW1 8723   5.733   0.297   1.963
 2608SOL    HW2 8724   5.601   0.215   2.010
 2609SOL     OW 8725   0.590   2.075   2.567
 2609SOL    HW1 8726   0.628   2.146   2.508
 2609SOL    HW2 8727   0.499   2.103   2.598
 2610SOL     OW 8728   6.557   5.616   4.859
 2610SOL    HW1 8729   6.579   5.525   4.824
 2610SOL    HW2 8730   6.516   5.670   4.785
 2611SOL     OW 8731   5.230   6.766   0.732
 2611SOL    HW1 8732   5.191   6.858   0.738
 2611SOL    HW2 8733   5.310   6.767   0.672
 2612SOL     OW 8734   5.175   6.566   4.163
 2612SOL    HW1 8735   5.124   6.585   4.247
 2612SOL    HW2 8736   5.205   6.652   4.122
 2613SOL     OW 8737   3.406   6.820   2.241
 2613SOL    HW1 8738   3.459   6.799   2.323
 2613SOL    HW2 8739   3.313   6.786   2.251
 2614SOL     OW 8740   6.590   6.817   5.686
 2614SOL    HW1 8741   6.561   6.735   5.735
 2614SOL    HW2 8742   6.685   6.839   5.711
 2615SOL     OW 8743   5.132   5.771   3.299
 2615SOL    HW1 8744   5.224   5.730   3.299
 2615SOL    HW2 8745   5.140   5.869   3.319
 2616SOL     OW 8746   4.062   3.186   3.129
 2616SOL    HW1 8747   4.067   3.246   3.209
 2616SOL    HW2 8748   4.032   3.095   3.158
 2617SOL     OW 8749   3.615   5.464   0.744
 2617SOL    HW1 8750   3.679   5.484   0.669
 2617SOL    HW2 8751   3.568   5.378   0.726
 2618SOL     OW 8752   0.191   0.102   2.002
 2618SOL    HW1 8753   0.140   0.078   2.084
 2618SOL    HW2 8754   0.243   0.022   1.970
 2619SOL     OW 8755   4.695   1.855   2.056
 2619SOL    HW1 8756   4.780   1.887   2.097
 2619SOL    HW2 8757   4.693   1.880   1.959
 2620SOL     OW 8758   1.094   5.127   3.192
 2620SOL    HW1 8759   1.129   5.102   3.102
 2620SOL    HW2 8760   1.146   5.080   3.263
 2621SOL     OW 8761   0.396   5.288   3.987
 2621SOL    HW1 8762   0.314   5.249   4.029
 2621SOL    HW2 8763   0.472   5.282   4.052
 2622SOL     OW 8764   2.164   3.056   6.109
 2622SOL    HW1 8765   2.220   3.093   6.036
 2622SOL    HW2 8766   2.196   3.091   6.197
 2623SOL     OW 8767   3.461   1.457   3.995
 2623SOL    HW1 8768   3.366   1.436   3.972
 2623SOL    HW2 8769   3.474   1.449   4.094
 2624SOL     OW 8770   6.034   2.713   3.275
 2624SOL    HW1 8771   5.959   2.703   3.340
 2624SOL    HW2 8772   5.998   2.708   3.182
 2625SOL     OW 8773   2.213   2.948   5.516
 2625SOL    HW1 8774   2.120   2.976   5.490
 2625SOL    HW2 8775   2.220   2.944   5.615
 2626SOL     OW 8776   1.612   6.396   3.892
 2626SOL    HW1 8777   1.582   6.320   3.835
 2626SOL    HW2 8778   1.586   6.379   3.987
 2627SOL     OW 8779   0.571   0.829   4.862
 2627SOL    HW1 8780   0.569   0.731   4.880
 2627SOL    HW2 8781   0.617   0.846   4.775
 2628SOL     OW 8782   3.334   6.559   6.216
 2628SOL    HW1 8783   3.274   6.549   6.296
 2628SOL    HW2 8784   3.286   6.612   6.145
 2629SOL     OW 8785   3.694   4.107   1.721
 2629SOL    HW1 8786   3.702   4.203   1.694
 2629SOL    HW2 8787   3.709   4.049   1.641
 2630SOL     OW 8788   3.721   1.652   2.147
 2630SOL    HW1 8789   3.716   1.645   2.047
 2630SOL    HW2 8790   3.633   1.684   2.183
 2631SOL     OW 8791   4.812   0.010   4.476
 2631SOL    HW1 8792   4.861   6.964   4.534
 2631SOL    HW2 8793   4.808   0.098   4.523
 2632SOL     OW 8794   3.486   2.231   0.038
 2632SOL    HW1 8795   3.436   2.172   0.103
 2632SOL    HW2 8796   3.584   2.218   0.051
 2633SOL     OW 8797   5.981   2.438   6.693
 2633SOL    HW1 8798   5.969   2.532   6.723
 2633SOL    HW2 8799   5.901   2.408   6.642
 2634SOL     OW 8800   1.990   4.206   2.106
 2634SOL    HW1 8801   1.958   4.288   2.153
 2634SOL    HW2 8802   1.913   4.157   2.066
 2635SOL     OW 8803   5.618   5.851   4.560
 2635SOL    HW1 8804   5.621   5.948   4.535
 2635SOL    HW2 8805   5.662   5.797   4.488
 2636SOL     OW 8806   5.841   6.879   5.926
 2636SOL    HW1 8807   5.788   6.960   5.953
 2636SOL    HW2 8808   5.816   6.802   5.985
 2637SOL     OW 8809   5.857   0.427   3.198
 2637SOL    HW1 8810   5.878   0.443   3.102
 2637SOL    HW2 8811   5.809   0.340   3.209
 2638SOL     OW 8812   5.041   6.361   1.540
 2638SOL    HW1 8813   5.048   6.439   1.478
 2638SOL    HW2 8814   5.066   6.390   1.633
 2639SOL     OW 8815   5.920   6.582   2.046
 2639SOL    HW1 8816   6.011   6.552   2.076
 2639SOL    HW2 8817   5.874   6.628   2.121
 2640SOL     OW 8818   0.313   6.321   4.829
 2640SOL    HW1 8819   0.321   6.290   4.735
 2640SOL    HW2 8820   0.402   6.316   4.874
 2641SOL     OW 8821   5.428   3.647   0.124
 2641SOL    HW1 8822   5.467   3.650   0.215
 2641SOL    HW2 8823   5.391   3.556   0.106
 2642SOL     OW 8824   5.468   0.321   4.497
 2642SOL    HW1 8825   5.403   0.381   4.543
 2642SOL    HW2 8826   5.484   0.354   4.404
 2643SOL     OW 8827   6.833   5.796   2.752
 2643SOL    HW1 8828   6.829   5.714   2.695
 2643SOL    HW2 8829   6.861   5.874   2.697
 2644SOL     OW 8830   1.106   4.916   5.658
 2644SOL    HW1 8831   1.104   4.855   5.737
 2644SOL    HW2 8832   1.014   4.946   5.636
 2645SOL     OW 8833   5.076   6.563   6.018
 2645SOL    HW1 8834   5.034   6.473   6.008
 2645SOL    HW2 8835   5.170   6.552   6.050
 2646SOL     OW 8836   6.619   0.645   6.092
 2646SOL    HW1 8837   6.531   0.654   6.138
 2646SOL    HW2 8838   6.691   0.684   6.149
 2647SOL     OW 8839   5.132   0.677   0.926
 2647SOL    HW1 8840   5.213   0.618   0.918
 2647SOL    HW2 8841   5.161   0.769   0.949
 2648SOL     OW 8842   6.652   6.644   2.392
 2648SOL    HW1 8843   6.602   6.581   2.451
 2648SOL    HW2 8844   6.725   6.595   2.344
 2649SOL     OW 8845   3.692   1.411   6.082
 2649SOL    HW1 8846   3.606   1.372   6.116
 2649SOL    HW2 8847   3.699   1.506   6.113
 2650SOL     OW 8848   0.494   4.911   3.338
 2650SOL    HW1 8849   0.482   4.839   3.270
 2650SOL    HW2 8850   0.570   4.887   3.399
 2651SOL     OW 8851   0.542   1.499   1.456
 2651SOL    HW1 8852   0.567   1.421   1.398
 2651SOL    HW2 8853   0.489   1.468   1.534
 2652SOL     OW 8854   3.183   3.016   3.385
 2652SOL    HW1 8855   3.111   3.057   3.329
 2652SOL    HW2 8856   3.259   3.080   3.392
 2653SOL     OW 8857   5.467   0.149   6.214
 2653SOL    HW1 8858   5.559   0.189   6.213
 2653SOL    HW2 8859   5.405   0.209   6.265
 2654SOL     OW 8860   5.538   2.915   6.074
 2654SOL    HW1 8861   5.503   3.005   6.100
 2654SOL    HW2 8862   5.552   2.911   5.975
 2655SOL     OW 8863   4.443   5.751   4.534
 2655SOL    HW1 8864   4.379   5.790   4.468
 2655SOL    HW2 8865   4.537   5.768   4.503
 2656SOL     OW 8866   5.348   4.571   3.882
 2656SOL    HW1 8867   5.405   4.652   3.865
 2656SOL    HW2 8868   5.341   4.555   3.980
 2657SOL     OW 8869   2.295   3.979   6.351
 2657SOL    HW1 8870   2.211   3.939   6.316
 2657SOL    HW2 8871   2.284   4.078   6.361
 2658SOL     OW 8872   6.286   4.614   6.237
 2658SOL    HW1 8873   6.346   4.629   6.315
 2658SOL    HW2 8874   6.234   4.698   6.219
 2659SOL     OW 8875   6.613   2.858   4.470
 2659SOL    HW1 8876   6.685   2.800   4.432
 2659SOL    HW2 8877   6.527   2.807   4.473
 2660SOL     OW 8878   6.884   2.224   2.200
 2660SOL    HW1 8879   6.837   2.287   2.138
 2660SOL    HW2 8880   6.883   2.132   2.161
 2661SOL     OW 8881   3.267   5.683   1.016
 2661SOL    HW1 8882   3.327   5.745   1.067
 2661SOL    HW2 8883   3.323   5.619   0.963
 2662SOL     OW 8884   4.874   6.830   4.696
 2662SOL    HW1 8885   4.926   6.907   4.734
 2662SOL    HW2 8886   4.795   6.811   4.754
 2663SOL     OW 8887   1.872   4.692   1.524
 2663SOL    HW1 8888   1.935   4.658   1.593
 2663SOL    HW2 8889   1.923   4.725   1.445
 2664SOL     OW 8890   3.693   4.060   3.350
 2664SOL    HW1 8891   3.714   4.040   3.445
 2664SOL    HW2 8892   3.775   4.049   3.294
 2665SOL     OW 8893   3.016   1.501   4.550
 2665SOL    HW1 8894   3.003   1.407   4.581
 2665SOL    HW2 8895   2.934   1.533   4.503
 2666SOL     OW 8896   5.010   4.757   0.932
 2666SOL    HW1 8897   4.946   4.682   0.949
 2666SOL    HW2 8898   5.008   4.781   0.835
 2667SOL     OW 8899   1.737   6.144   5.527
 2667SOL    HW1 8900   1.814   6.207   5.519
 2667SOL    HW2 8901   1.652   6.197   5.528
 2668SOL     OW 8902   6.665   3.593   4.461
 2668SOL    HW1 8903   6.742   3.627   4.515
 2668SOL    HW2 8904   6.672   3.494   4.450
 2669SOL     OW 8905   3.820   4.730   5.742
 2669SOL    HW1 8906   3.814   4.719   5.643
 2669SOL    HW2 8907   3.779   4.651   5.788
 2670SOL     OW 8908   6.869   0.768   6.763
 2670SOL    HW1 8909   6.856   0.669   6.763
 2670SOL    HW2 8910   6.910   0.796   6.850
 2671SOL     OW 8911   2.123   3.821   6.617
 2671SOL    HW1 8912   2.031   3.836   6.654
 2671SOL    HW2 8913   2.142   3.723   6.613
 2672SOL     OW 8914   1.935   5.112   0.221
 2672SOL    HW1 8915   1.975   5.029   0.182
 2672SOL    HW2 8916   2.006   5.182   0.231
 2673SOL     OW 8917   4.706   2.657   3.142
 2673SOL    HW1 8918   4.625   2.625   3.192
 2673SOL    HW2 8919   4.692   2.752   3.113
 2674SOL     OW 8920   1.546   4.757   4.176
 2674SOL    HW1 8921   1.491   4.679   4.147
 2674SOL    HW2 8922   1.545   4.828   4.105
 2675SOL     OW 8923   0.807   4.247   5.859
 2675SOL    HW1 8924   0.882   4.311   5.878
 2675SOL    HW2 8925   0.831   4.190   5.780
 2676SOL     OW 8926   5.184   1.841   2.600
 2676SOL    HW1 8927   5.252   1.768   2.598
 2676SOL    HW2 8928   5.103   1.810   2.651
 2677SOL     OW 8929   2.079   4.614   1.689
 2677SOL    HW1 8930   2.147   4.617   1.762
 2677SOL    HW2 8931   2.125   4.618   1.600
 2678SOL     OW 8932   1.296   5.043   6.578
 2678SOL    HW1 8933   1.263   4.996   6.661
 2678SOL    HW2 8934   1.250   5.004   6.498
 2679SOL     OW 8935   3.780   5.186   0.873
 2679SOL    HW1 8936   3.763   5.282   0.897
 2679SOL    HW2 8937   3.759   5.129   0.952
 2680SOL     OW 8938   2.266   1.448   0.626
 2680SOL    HW1 8939   2.315   1.364   0.604
 2680SOL    HW2 8940   2.187   1.457   0.564
 2681SOL     OW 8941   1.594   3.419   4.027
 2681SOL    HW1 8942   1.611   3.518   4.022
 2681SOL    HW2 8943   1.596   3.390   4.123
 2682SOL     OW 8944   5.552   2.937   2.280
 2682SOL    HW1 8945   5.532   2.851   2.327
 2682SOL    HW2 8946   5.650   2.955   2.285
 2683SOL     OW 8947   0.767   4.840   1.146
 2683SOL    HW1 8948   0.684   4.861   1.198
 2683SOL    HW2 8949   0.745   4.778   1.071
 2684SOL     OW 8950   4.296   6.473   2.529
 2684SOL    HW1 8951   4.234   6.519   2.465
 2684SOL    HW2 8952   4.243   6.410   2.586
 2685SOL     OW 8953   5.844   6.362   4.031
 2685SOL    HW1 8954   5.884   6.270   4.025
 2685SOL    HW2 8955   5.905   6.422   4.082
 2686SOL     OW 8956   1.814   2.407   4.543
 2686SOL    HW1 8957   1.885   2.344   4.512
 2686SOL    HW2 8958   1.751   2.426   4.469
 2687SOL     OW 8959   3.988   4.772   2.391
 2687SOL    HW1 8960   3.918   4.821   2.444
 2687SOL    HW2 8961   4.066   4.751   2.451
 2688SOL     OW 8962   3.901   5.461   5.895
 2688SOL    HW1 8963   3.996   5.438   5.915
 2688SOL    HW2 8964   3.841   5.402   5.949
 2689SOL     OW 8965   1.355   1.963   3.720
 2689SOL    HW1 8966   1.390   1.912   3.798
 2689SOL    HW2 8967   1.424   2.029   3.690
 2690SOL     OW 8968   3.712   2.943   3.784
 2690SOL    HW1 8969   3.789   2.957   3.847
 2690SOL    HW2 8970   3.692   3.029   3.737
 2691SOL     OW 8971   2.007   5.698   1.781
 2691SOL    HW1 8972   1.986   5.768   1.851
 2691SOL    HW2 8973   2.021   5.743   1.693
 2692SOL     OW 8974   6.545   5.191   4.028
 2692SOL    HW1 8975   6.535   5.108   3.974
 2692SOL    HW2 8976   6.463   5.248   4.017
 2693SOL     OW 8977   2.126   3.860   3.406
 2693SOL    HW1 8978   2.114   3.853   3.505
 2693SOL    HW2 8979   2.181   3.941   3.385
 2694SOL     OW 8980   2.883   0.420   3.123
 2694SOL    HW1 8981   2.784   0.410   3.117
 2694SOL    HW2 8982   2.921   0.439   3.032
 2695SOL     OW 8983   5.008   2.233   2.368
 2695SOL    HW1 8984   4.915   2.268   2.357
 2695SOL    HW2 8985   5.012   2.173   2.448
 2696SOL     OW 8986   4.041   3.535   5.599
 2696SOL    HW1 8987   4.025   3.551   5.502
 2696SOL    HW2 8988   3.953   3.527   5.646
 2697SOL     OW 8989   3.674   2.117   4.095
 2697SOL    HW1 8990   3.639   2.199   4.050
 2697SOL    HW2 8991   3.749   2.142   4.156
 2698SOL     OW 8992   1.192   4.693   0.596
 2698SOL    HW1 8993   1.214   4.786   0.565
 2698SOL    HW2 8994   1.180   4.693   0.695
 2699SOL     OW 8995   3.384   5.762   0.621
 2699SOL    HW1 8996   3.478   5.748   0.590
 2699SOL    HW2 8997   3.337   5.674   0.625
 2700SOL     OW 8998   2.045   3.186   2.964
 2700SOL    HW1 8999   2.109   3.125   3.011
 2700SOL    HW2 9000   2.047   3.276   3.009
 2701SOL     OW 9001   3.710   0.583   6.612
 2701SOL    HW1 9002   3.645   0.526   6.562
 2701SOL    HW2 9003   3.803   0.562   6.582
 2702SOL     OW 9004   6.788   1.984   3.532
 2702SOL    HW1 9005   6.718   1.987   3.461
 2702SOL    HW2 9006   6.805   2.076   3.567
 2703SOL     OW 9007   2.781   1.613   2.785
 2703SOL    HW1 9008   2.842   1.547   2.828
 2703SOL    HW2 9009   2.711   1.565   2.732
 2704SOL     OW 9010   2.110   5.604   2.072
 2704SOL    HW1 9011   2.146   5.684   2.120
 2704SOL    HW2 9012   2.018   5.623   2.040
 2705SOL     OW 9013   0.010   5.438   3.894
 2705SOL    HW1 9014   0.065   5.463   3.815
 2705SOL    HW2 9015   6.945   5.395   3.864
 2706SOL     OW 9016   6.625   1.428   1.768
 2706SOL    HW1 9017   6.691   1.358   1.741
 2706SOL    HW2 9018   6.558   1.441   1.694
 2707SOL     OW 9019   2.245   1.260   6.754
 2707SOL    HW1 9020   2.283   1.324   6.820
 2707SOL    HW2 9021   2.145   1.257   6.765
 2708SOL     OW 9022   2.364   2.717   2.055
 2708SOL    HW1 9023   2.407   2.643   2.107
 2708SOL    HW2 9024   2.290   2.756   2.109
 2709SOL     OW 9025   4.648   5.935   1.638
 2709SOL    HW1 9026   4.688   6.022   1.610
 2709SOL    HW2 9027   4.717   5.880   1.685
 2710SOL     OW 9028   6.896   3.347   2.863
 2710SOL    HW1 9029   6.853   3.409   2.928
 2710SOL    HW2 9030   6.889   3.253   2.896
 2711SOL     OW 9031   1.772   0.210   2.535
 2711SOL    HW1 9032   1.847   0.255   2.487
 2711SOL    HW2 9033   1.702   0.182   2.470
 2712SOL     OW 9034   3.015   4.945   0.434
 2712SOL    HW1 9035   3.068   5.026   0.458
 2712SOL    HW2 9036   2.968   4.911   0.515
 2713SOL     OW 9037   2.210   2.898   4.808
 2713SOL    HW1 9038   2.277   2.922   4.878
 2713SOL    HW2 9039   2.202   2.799   4.803
 2714SOL     OW 9040   5.763   1.487   6.014
 2714SOL    HW1 9041   5.724   1.443   6.095
 2714SOL    HW2 9042   5.709   1.567   5.990
 2715SOL     OW 9043   5.769   0.470   7.012
 2715SOL    HW1 9044   5.820   0.556   7.015
 2715SOL    HW2 9045   5.763   0.437   6.918
 2716SOL     OW 9046   0.122   5.176   1.266
 2716SOL    HW1 9047   0.066   5.094   1.255
 2716SOL    HW2 9048   0.070   5.256   1.238
 2717SOL     OW 9049   1.081   6.010   1.849
 2717SOL    HW1 9050   1.126   6.010   1.760
 2717SOL    HW2 9051   1.025   6.092   1.858
 2718SOL     OW 9052   1.914   3.935   4.361
 2718SOL    HW1 9053   1.838   3.871   4.348
 2718SOL    HW2 9054   1.897   3.993   4.440
 2719SOL     OW 9055   4.411   4.878   2.282
 2719SOL    HW1 9056   4.496   4.905   2.238
 2719SOL    HW2 9057   4.422   4.788   2.324
 2720SOL     OW 9058   1.848   5.924   3.504
 2720SOL    HW1 9059   1.808   6.015   3.513
 2720SOL    HW2 9060   1.948   5.932   3.501
 2721SOL     OW 9061   2.592   0.175   4.740
 2721SOL    HW1 9062   2.684   0.137   4.748
 2721SOL    HW2 9063   2.595   0.272   4.766
 2722SOL     OW 9064   0.296   5.783   2.859
 2722SOL    HW1 9065   0.337   5.795   2.950
 2722SOL    HW2 9066   0.221   5.717   2.865
 2723SOL     OW 9067   2.422   1.092   5.923
 2723SOL    HW1 9068   2.389   1.185   5.905
 2723SOL    HW2 9069   2.401   1.067   6.018
 2724SOL     OW 9070   3.364   4.879   6.071
 2724SOL    HW1 9071   3.367   4.934   5.987
 2724SOL    HW2 9072   3.436   4.910   6.133
 2725SOL     OW 9073   4.895   4.689   3.310
 2725SOL    HW1 9074   4.988   4.715   3.338
 2725SOL    HW2 9075   4.900   4.607   3.253
 2726SOL     OW 9076   4.842   4.889   2.042
 2726SOL    HW1 9077   4.808   4.805   2.000
 2726SOL    HW2 9078   4.779   4.964   2.023
 2727SOL     OW 9079   0.780   5.224   2.705
 2727SOL    HW1 9080   0.748   5.274   2.625
 2727SOL    HW2 9081   0.771   5.126   2.689
 2728SOL     OW 9082   3.072   0.420   5.167
 2728SOL    HW1 9083   3.096   0.379   5.255
 2728SOL    HW2 9084   3.123   0.374   5.094
 2729SOL     OW 9085   6.465   5.449   2.789
 2729SOL    HW1 9086   6.526   5.529   2.794
 2729SOL    HW2 9087   6.375   5.478   2.758
 2730SOL     OW 9088   2.179   6.946   0.250
 2730SOL    HW1 9089   2.181   6.846   0.252
 2730SOL    HW2 9090   2.124   6.979   0.326
 2731SOL     OW 9091   2.788   3.695   1.546
 2731SOL    HW1 9092   2.800   3.766   1.616
 2731SOL    HW2 9093   2.707   3.641   1.567
 2732SOL     OW 9094   5.914   3.239   2.598
 2732SOL    HW1 9095   5.913   3.291   2.683
 2732SOL    HW2 9096   5.829   3.255   2.549
 2733SOL     OW 9097   0.801   0.210   5.875
 2733SOL    HW1 9098   0.825   0.265   5.796
 2733SOL    HW2 9099   0.885   0.177   5.920
 2734SOL     OW 9100   1.791   6.177   3.549
 2734SOL    HW1 9101   1.843   6.169   3.634
 2734SOL    HW2 9102   1.837   6.241   3.487
 2735SOL     OW 9103   1.055   4.002   2.786
 2735SOL    HW1 9104   1.070   4.101   2.782
 2735SOL    HW2 9105   0.972   3.982   2.838
 2736SOL     OW 9106   5.105   0.869   5.776
 2736SOL    HW1 9107   5.026   0.810   5.795
 2736SOL    HW2 9108   5.152   0.889   5.862
 2737SOL     OW 9109   3.452   3.516   6.236
 2737SOL    HW1 9110   3.458   3.585   6.163
 2737SOL    HW2 9111   3.511   3.543   6.312
 2738SOL     OW 9112   5.024   5.637   3.892
 2738SOL    HW1 9113   5.028   5.719   3.836
 2738SOL    HW2 9114   4.939   5.588   3.875
 2739SOL     OW 9115   5.840   4.482   1.211
 2739SOL    HW1 9116   5.815   4.499   1.116
 2739SOL    HW2 9117   5.775   4.419   1.253
 2740SOL     OW 9118   6.244   2.052   2.619
 2740SOL    HW1 9119   6.283   2.101   2.541
 2740SOL    HW2 9120   6.194   2.116   2.677
 2741SOL     OW 9121   0.152   1.911   5.724
 2741SOL    HW1 9122   0.203   1.883   5.643
 2741SOL    HW2 9123   0.135   1.830   5.782
 2742SOL     OW 9124   1.164   5.586   6.446
 2742SOL    HW1 9125   1.108   5.531   6.508
 2742SOL    HW2 9126   1.260   5.560   6.455
 2743SOL     OW 9127   5.556   5.438   1.164
 2743SOL    HW1 9128   5.554   5.342   1.191
 2743SOL    HW2 9129   5.511   5.493   1.235
 2744SOL     OW 9130   4.050   2.416   6.735
 2744SOL    HW1 9131   4.020   2.458   6.820
 2744SOL    HW2 9132   4.107   2.481   6.684
 2745SOL     OW 9133   2.013   6.454   0.675
 2745SOL    HW1 9134   2.007   6.529   0.741
 2745SOL    HW2 9135   2.088   6.393   0.700
 2746SOL     OW 9136   1.855   2.729   4.880
 2746SOL    HW1 9137   1.828   2.646   4.931
 2746SOL    HW2 9138   1.890   2.797   4.944
 2747SOL     OW 9139   6.090   5.167   4.988
 2747SOL    HW1 9140   6.140   5.169   5.074
 2747SOL    HW2 9141   5.998   5.204   5.002
 2748SOL     OW 9142   3.748   1.430   3.302
 2748SOL    HW1 9143   3.794   1.348   3.268
 2748SOL    HW2 9144   3.802   1.471   3.376
 2749SOL     OW 9145   5.406   4.582   4.148
 2749SOL    HW1 9146   5.416   4.502   4.206
 2749SOL    HW2 9147   5.339   4.644   4.188
 2750SOL     OW 9148   0.665   5.622   1.555
 2750SOL    HW1 9149   0.689   5.695   1.619
 2750SOL    HW2 9150   0.724   5.627   1.475
 2751SOL     OW 9151   1.801   0.076   0.639
 2751SOL    HW1 9152   1.815   0.108   0.732
 2751SOL    HW2 9153   1.719   0.119   0.601
 2752SOL     OW 9154   4.945   6.641   5.162
 2752SOL    HW1 9155   4.931   6.739   5.177
 2752SOL    HW2 9156   4.922   6.591   5.246
 2753SOL     OW 9157   3.743   5.893   6.049
 2753SOL    HW1 9158   3.714   5.989   6.050
 2753SOL    HW2 9159   3.706   5.849   5.967
 2754SOL     OW 9160   0.227   0.267   4.217
 2754SOL    HW1 9161   0.177   0.304   4.139
 2754SOL    HW2 9162   0.225   0.333   4.292
 2755SOL     OW 9163   2.476   6.180   2.795
 2755SOL    HW1 9164   2.376   6.188   2.803
 2755SOL    HW2 9165   2.499   6.140   2.706
 2756SOL     OW 9166   5.678   3.754   4.619
 2756SOL    HW1 9167   5.693   3.655   4.610
 2756SOL    HW2 9168   5.654   3.792   4.529
 2757SOL     OW 9169   4.267   1.963   6.815
 2757SOL    HW1 9170   4.194   1.984   6.880
 2757SOL    HW2 9171   4.335   1.904   6.860
 2758SOL     OW 9172   4.968   5.119   3.355
 2758SOL    HW1 9173   4.962   5.048   3.285
 2758SOL    HW2 9174   4.989   5.076   3.443
 2759SOL     OW 9175   3.458   4.507   6.381
 2759SOL    HW1 9176   3.442   4.526   6.284
 2759SOL    HW2 9177   3.377   4.532   6.434
 2760SOL     OW 9178   5.804   6.336   3.346
 2760SOL    HW1 9179   5.831   6.243   3.372
 2760SOL    HW2 9180   5.747   6.376   3.417
 2761SOL     OW 9181   1.867   3.993   2.959
 2761SOL    HW1 9182   1.843   3.969   3.053
 2761SOL    HW2 9183   1.927   3.922   2.921
 2762SOL     OW 9184   1.600   2.244   0.107
 2762SOL    HW1 9185   1.647   2.195   0.033
 2762SOL    HW2 9186   1.665   2.265   0.179
 2763SOL     OW 9187   4.867   1.606   5.678
 2763SOL    HW1 9188   4.916   1.648   5.754
 2763SOL    HW2 9189   4.924   1.536   5.636
 2764SOL     OW 9190   0.800   4.364   2.238
 2764SOL    HW1 9191   0.707   4.328   2.240
 2764SOL    HW2 9192   0.801   4.458   2.272
 2765SOL     OW 9193   6.412   6.913   6.753
 2765SOL    HW1 9194   6.477   6.927   6.828
 2765SOL    HW2 9195   6.319   6.928   6.787
 2766SOL     OW 9196   4.688   1.364   6.905
 2766SOL    HW1 9197   4.647   1.402   6.822
 2766SOL    HW2 9198   4.714   1.269   6.888
 2767SOL     OW 9199   5.942   5.454   6.215
 2767SOL    HW1 9200   5.897   5.517   6.278
 2767SOL    HW2 9201   6.040   5.449   6.237
 2768SOL     OW 9202   4.419   0.540   0.907
 2768SOL    HW1 9203   4.355   0.587   0.967
 2768SOL    HW2 9204   4.512   0.549   0.944
 2769SOL     OW 9205   1.643   4.430   5.618
 2769SOL    HW1 9206   1.676   4.482   5.539
 2769SOL    HW2 9207   1.651   4.332   5.598
 2770SOL     OW 9208   3.054   6.683   6.184
 2770SOL    HW1 9209   2.955   6.675   6.192
 2770SOL    HW2 9210   3.084   6.638   6.100
 2771SOL     OW 9211   4.458   0.232   4.826
 2771SOL    HW1 9212   4.427   0.251   4.919
 2771SOL    HW2 9213   4.394   0.272   4.761
 2772SOL     OW 9214   3.682   0.871   3.024
 2772SOL    HW1 9215   3.776   0.895   2.999
 2772SOL    HW2 9216   3.618   0.922   2.967
 2773SOL     OW 9217   0.423   3.060   4.341
 2773SOL    HW1 9218   0.495   3.129   4.346
 2773SOL    HW2 9219   0.362   3.070   4.419
 2774SOL     OW 9220   4.733   1.917   3.466
 2774SOL    HW1 9221   4.749   1.913   3.367
 2774SOL    HW2 9222   4.761   2.007   3.500
 2775SOL     OW 9223   7.011   3.918   4.382
 2775SOL    HW1 9224   6.940   3.973   4.339
 2775SOL    HW2 9225   0.042   3.974   4.448
 2776SOL     OW 9226   4.852   4.918   6.135
 2776SOL    HW1 9227   4.772   4.889   6.083
 2776SOL    HW2 9228   4.931   4.925   6.074
 2777SOL     OW 9229   3.338   2.229   5.856
 2777SOL    HW1 9230   3.426   2.276   5.851
 2777SOL    HW2 9231   3.301   2.216   5.764
 2778SOL     OW 9232   2.242   5.715   6.623
 2778SOL    HW1 9233   2.342   5.721   6.625
 2778SOL    HW2 9234   2.207   5.778   6.554
 2779SOL     OW 9235   5.752   6.221   1.952
 2779SOL    HW1 9236   5.723   6.314   1.928
 2779SOL    HW2 9237   5.728   6.159   1.877
 2780SOL     OW 9238   0.374   1.196   6.512
 2780SOL    HW1 9239   0.294   1.151   6.553
 2780SOL    HW2 9240   0.447   1.129   6.499
 2781SOL     OW 9241   6.594   0.707   2.303
 2781SOL    HW1 9242   6.512   0.650   2.294
 2781SOL    HW2 9243   6.587   0.763   2.385
 2782SOL     OW 9244   4.283   1.171   6.668
 2782SOL    HW1 9245   4.188   1.185   6.639
 2782SOL    HW2 9246   4.285   1.110   6.747
 2783SOL     OW 9247   5.850   3.786   2.264
 2783SOL    HW1 9248   5.847   3.829   2.174
 2783SOL    HW2 9249   5.818   3.691   2.256
 2784SOL     OW 9250   1.906   1.735   1.340
 2784SOL    HW1 9251   1.905   1.829   1.306
 2784SOL    HW2 9252   1.903   1.672   1.263
 2785SOL     OW 9253   4.901   2.752   1.584
 2785SOL    HW1 9254   4.886   2.683   1.654
 2785SOL    HW2 9255   4.845   2.833   1.605
 2786SOL     OW 9256   6.988   5.332   0.475
 2786SOL    HW1 9257   6.924   5.369   0.408
 2786SOL    HW2 9258   6.944   5.324   0.564
 2787SOL     OW 9259   5.877   5.821   5.807
 2787SOL    HW1 9260   5.820   5.827   5.889
 2787SOL    HW2 9261   5.895   5.913   5.772
 2788SOL     OW 9262   3.436   6.319   5.479
 2788SOL    HW1 9263   3.511   6.378   5.507
 2788SOL    HW2 9264   3.360   6.330   5.543
 2789SOL     OW 9265   0.820   2.662   4.356
 2789SOL    HW1 9266   0.743   2.600   4.346
 2789SOL    HW2 9267   0.786   2.754   4.379
 2790SOL     OW 9268   2.181   5.759   0.726
 2790SOL    HW1 9269   2.256   5.821   0.702
 2790SOL    HW2 9270   2.120   5.804   0.791
 2791SOL     OW 9271   0.087   3.611   2.740
 2791SOL    HW1 9272   0.004   3.662   2.760
 2791SOL    HW2 9273   0.066   3.513   2.736
 2792SOL     OW 9274   3.324   1.063   5.103
 2792SOL    HW1 9275   3.346   1.148   5.055
 2792SOL    HW2 9276   3.233   1.032   5.076
 2793SOL     OW 9277   3.769   4.435   1.268
 2793SOL    HW1 9278   3.733   4.481   1.187
 2793SOL    HW2 9279   3.867   4.419   1.258
 2794SOL     OW 9280   6.870   1.563   6.303
 2794SOL    HW1 9281   6.865   1.587   6.400
 2794SOL    HW2 9282   6.942   1.617   6.259
 2795SOL     OW 9283   0.753   4.592   1.647
 2795SOL    HW1 9284   0.815   4.516   1.629
 2795SOL    HW2 9285   0.744   4.649   1.566
 2796SOL     OW 9286   0.547   6.175   5.807
 2796SOL    HW1 9287   0.590   6.250   5.755
 2796SOL    HW2 9288   0.543   6.200   5.904
 2797SOL     OW 9289   5.501   6.452   4.205
 2797SOL    HW1 9290   5.411   6.455   4.249
 2797SOL    HW2 9291   5.553   6.534   4.230
 2798SOL     OW 9292   6.368   6.632   1.795
 2798SOL    HW1 9293   6.374   6.665   1.889
 2798SOL    HW2 9294   6.279   6.589   1.781
 2799SOL     OW 9295   4.259   6.199   4.736
 2799SOL    HW1 9296   4.204   6.123   4.772
 2799SOL    HW2 9297   4.211   6.241   4.659
 2800SOL     OW 9298   6.328   0.558   0.125
 2800SOL    HW1 9299   6.244   0.571   0.071
 2800SOL    HW2 9300   6.369   0.647   0.143
 2801SOL     OW 9301   0.491   5.074   6.053
 2801SOL    HW1 9302   0.405   5.100   6.008
 2801SOL    HW2 9303   0.517   4.982   6.024
 2802SOL     OW 9304   6.559   6.355   5.231
 2802SOL    HW1 9305   6.475   6.303   5.241
 2802SOL    HW2 9306   6.575   6.410   5.312
 2803SOL     OW 9307   3.444   3.043   6.285
 2803SOL    HW1 9308   3.365   3.027   6.226
 2803SOL    HW2 9309   3.413   3.065   6.378
 2804SOL     OW 9310   0.957   2.609   4.122
 2804SOL    HW1 9311   1.007   2.523   4.113
 2804SOL    HW2 9312   0.930   2.622   4.217
 2805SOL     OW 9313   4.635   3.843   1.627
 2805SOL    HW1 9314   4.543   3.807   1.621
 2805SOL    HW2 9315   4.643   3.901   1.709
 2806SOL     OW 9316   1.012   4.406   5.895
 2806SOL    HW1 9317   1.081   4.338   5.916
 2806SOL    HW2 9318   1.033   4.451   5.809
 2807SOL     OW 9319   2.631   0.365   3.096
 2807SOL    HW1 9320   2.641   0.443   3.034
 2807SOL    HW2 9321   2.554   0.308   3.067
 2808SOL     OW 9322   6.246   5.748   0.434
 2808SOL    HW1 9323   6.298   5.707   0.359
 2808SOL    HW2 9324   6.302   5.819   0.478
 2809SOL     OW 9325   6.869   5.054   2.446
 2809SOL    HW1 9326   6.805   5.017   2.513
 2809SOL    HW2 9327   6.866   4.998   2.363
 2810SOL     OW 9328   2.509   5.808   3.663
 2810SOL    HW1 9329   2.554   5.878   3.607
 2810SOL    HW2 9330   2.460   5.744   3.603
 2811SOL     OW 9331   0.816   0.109   2.389
 2811SOL    HW1 9332   0.790   0.157   2.473
 2811SOL    HW2 9333   0.819   0.173   2.313
 2812SOL     OW 9334   0.602   3.239   1.216
 2812SOL    HW1 9335   0.635   3.333   1.217
 2812SOL    HW2 9336   0.522   3.233   1.156
 2813SOL     OW 9337   0.285   1.951   1.116
 2813SOL    HW1 9338   0.204   1.895   1.130
 2813SOL    HW2 9339   0.271   2.040   1.159
 2814SOL     OW 9340   2.365   3.976   0.307
 2814SOL    HW1 9341   2.270   3.986   0.275
 2814SOL    HW2 9342   2.427   3.996   0.231
 2815SOL     OW 9343   0.303   5.810   4.839
 2815SOL    HW1 9344   0.386   5.811   4.894
 2815SOL    HW2 9345   0.279   5.715   4.817
 2816SOL     OW 9346   0.095   6.261   5.427
 2816SOL    HW1 9347   0.009   6.312   5.436
 2816SOL    HW2 9348   0.096   6.185   5.491
 2817SOL     OW 9349   4.095   0.752   2.232
 2817SOL    HW1 9350   4.172   0.727   2.175
 2817SOL    HW2 9351   4.061   0.671   2.280
 2818SOL     OW 9352   1.588   0.673   1.623
 2818SOL    HW1 9353   1.683   0.642   1.619
 2818SOL    HW2 9354   1.534   0.621   1.556
 2819SOL     OW 9355   0.551   0.173   0.911
 2819SOL    HW1 9356   0.514   0.173   0.818
 2819SOL    HW2 9357   0.556   0.079   0.945
 2820SOL     OW 9358   1.138   2.294   1.949
 2820SOL    HW1 9359   1.206   2.368   1.952
 2820SOL    HW2 9360   1.178   2.214   1.906
 2821SOL     OW 9361   3.356   4.426   6.814
 2821SOL    HW1 9362   3.297   4.477   6.752
 2821SOL    HW2 9363   3.440   4.399   6.766
 2822SOL     OW 9364   4.016   2.468   0.524
 2822SOL    HW1 9365   3.991   2.545   0.465
 2822SOL    HW2 9366   3.970   2.477   0.613
 2823SOL     OW 9367   4.941   1.309   0.503
 2823SOL    HW1 9368   4.894   1.222   0.489
 2823SOL    HW2 9369   4.932   1.336   0.599
 2824SOL     OW 9370   1.049   3.623   5.596
 2824SOL    HW1 9371   1.072   3.714   5.562
 2824SOL    HW2 9372   1.106   3.554   5.551
 2825SOL     OW 9373   5.183   1.705   5.840
 2825SOL    HW1 9374   5.262   1.697   5.901
 2825SOL    HW2 9375   5.185   1.794   5.794
 2826SOL     OW 9376   1.045   3.683   6.194
 2826SOL    HW1 9377   1.067   3.685   6.097
 2826SOL    HW2 9378   1.130   3.679   6.247
 2827SOL     OW 9379   6.966   1.076   6.544
 2827SOL    HW1 9380   6.870   1.078   6.518
 2827SOL    HW2 9381   7.016   1.015   6.483
 2828SOL     OW 9382   1.316   3.835   0.703
 2828SOL    HW1 9383   1.332   3.864   0.608
 2828SOL    HW2 9384   1.404   3.812   0.746
 2829SOL     OW 9385   3.770   3.991   3.616
 2829SOL    HW1 9386   3.858   3.963   3.578
 2829SOL    HW2 9387   3.756   3.946   3.705
 2830SOL     OW 9388   3.802   5.302   6.257
 2830SOL    HW1 9389   3.784   5.318   6.354
 2830SOL    HW2 9390   3.725   5.338   6.203
 2831SOL     OW 9391   6.835   2.295   1.700
 2831SOL    HW1 9392   6.859   2.392   1.694
 2831SOL    HW2 9393   6.890   2.252   1.771
 2832SOL     OW 9394   0.940   3.174   1.370
 2832SOL    HW1 9395   0.930   3.228   1.286
 2832SOL    HW2 9396   0.959   3.236   1.446
 2833SOL     OW 9397   2.120   1.688   2.055
 2833SOL    HW1 9398   2.219   1.682   2.070
 2833SOL    HW2 9399   2.093   1.625   1.983
 2834SOL     OW 9400   4.658   5.917   5.149
 2834SOL    HW1 9401   4.747   5.959   5.169
 2834SOL    HW2 9402   4.657   5.824   5.184
 2835SOL     OW 9403   1.015   6.515   0.522
 2835SOL    HW1 9404   0.920   6.501   0.495
 2835SOL    HW2 9405   1.045   6.439   0.579
 2836SOL     OW 9406   3.368   6.392   3.283
 2836SOL    HW1 9407   3.399   6.315   3.338
 2836SOL    HW2 9408   3.288   6.434   3.326
 2837SOL     OW 9409   5.726   3.874   2.495
 2837SOL    HW1 9410   5.758   3.877   2.400
 2837SOL    HW2 9411   5.626   3.864   2.497
 2838SOL     OW 9412   4.887   3.761   6.188
 2838SOL    HW1 9413   4.956   3.832   6.206
 2838SOL    HW2 9414   4.823   3.793   6.118
 2839SOL     OW 9415   6.197   3.404   4.741
 2839SOL    HW1 9416   6.232   3.464   4.812
 2839SOL    HW2 9417   6.274   3.365   4.690
 2840SOL     OW 9418   0.492   5.952   2.563
 2840SOL    HW1 9419   0.469   6.000   2.649
 2840SOL    HW2 9420   0.434   5.870   2.555
 2841SOL     OW 9421   5.971   2.380   1.392
 2841SOL    HW1 9422   5.949   2.326   1.473
 2841SOL    HW2 9423   5.954   2.477   1.410
 2842SOL     OW 9424   1.846   6.236   3.963
 2842SOL    HW1 9425   1.751   6.264   3.945
 2842SOL    HW2 9426   1.905   6.316   3.960
 2843SOL     OW 9427   2.267   2.954   3.317
 2843SOL    HW1 9428   2.333   2.878   3.321
 2843SOL    HW2 9429   2.177   2.921   3.345
 2844SOL     OW 9430   4.822   4.508   0.939
 2844SOL    HW1 9431   4.797   4.423   0.984
 2844SOL    HW2 9432   4.905   4.495   0.886
 2845SOL     OW 9433   3.882   2.198   2.795
 2845SOL    HW1 9434   3.981   2.208   2.782
 2845SOL    HW2 9435   3.839   2.172   2.709
 2846SOL     OW 9436   4.736   0.744   0.301
 2846SOL    HW1 9437   4.658   0.707   0.353
 2846SOL    HW2 9438   4.811   0.678   0.302
 2847SOL     OW 9439   4.744   4.151   2.295
 2847SOL    HW1 9440   4.688   4.163   2.213
 2847SOL    HW2 9441   4.689   4.174   2.376
 2848SOL     OW 9442   0.727   3.274   4.971
 2848SOL    HW1 9443   0.766   3.186   5.000
 2848SOL    HW2 9444   0.791   3.348   4.993
 2849SOL     OW 9445   3.750   0.494   2.477
 2849SOL    HW1 9446   3.811   0.425   2.516
 2849SOL    HW2 9447   3.664   0.450   2.449
 2850SOL     OW 9448   2.423   0.234   3.015
 2850SOL    HW1 9449   2.397   0.206   3.107
 2850SOL    HW2 9450   2.341   0.251   2.961
 2851SOL     OW 9451   4.500   3.158   1.192
 2851SOL    HW1 9452   4.457   3.245   1.169
 2851SOL    HW2 9453   4.490   3.140   1.290
 2852SOL     OW 9454   6.952   4.496   6.036
 2852SOL    HW1 9455   6.986   4.510   6.129
 2852SOL    HW2 9456   0.009   4.486   5.973
 2853SOL     OW 9457   0.545   3.702   0.183
 2853SOL    HW1 9458   0.498   3.783   0.149
 2853SOL    HW2 9459   0.602   3.727   0.262
 2854SOL     OW 9460   3.204   1.572   5.792
 2854SOL    HW1 9461   3.255   1.583   5.877
 2854SOL    HW2 9462   3.194   1.661   5.747
 2855SOL     OW 9463   1.665   1.586   4.099
 2855SOL    HW1 9464   1.566   1.569   4.101
 2855SOL    HW2 9465   1.712   1.505   4.133
 2856SOL     OW 9466   1.294   4.420   3.090
 2856SOL    HW1 9467   1.302   4.392   3.185
 2856SOL    HW2 9468   1.284   4.339   3.032
 2857SOL     OW 9469   0.365   2.873   1.142
 2857SOL    HW1 9470   0.393   2.802   1.077
 2857SOL    HW2 9471   0.268   2.891   1.133
 2858SOL     OW 9472   4.449   4.750   2.798
 2858SOL    HW1 9473   4.359   4.781   2.829
 2858SOL    HW2 9474   4.487   4.686   2.864
 2859SOL     OW 9475   5.556   5.408   1.559
 2859SOL    HW1 9476   5.656   5.406   1.559
 2859SOL    HW2 9477   5.522   5.350   1.633
 2860SOL     OW 9478   1.510   5.991   1.462
 2860SOL    HW1 9479   1.543   6.055   1.532
 2860SOL    HW2 9480   1.575   5.988   1.386
 2861SOL     OW 9481   4.451   4.654   6.660
 2861SOL    HW1 9482   4.549   4.639   6.658
 2861SOL    HW2 9483   4.424   4.692   6.749
 2862SOL     OW 9484   4.438   3.064   1.462
 2862SOL    HW1 9485   4.432   3.110   1.551
 2862SOL    HW2 9486   4.351   3.021   1.440
 2863SOL     OW 9487   5.876   6.689   5.724
 2863SOL    HW1 9488   5.838   6.727   5.809
 2863SOL    HW2 9489   5.963   6.732   5.704
 2864SOL     OW 9490   3.732   3.448   0.805
 2864SOL    HW1 9491   3.803   3.380   0.824
 2864SOL    HW2 9492   3.665   3.447   0.880
 2865SOL     OW 9493   5.332   5.935   4.480
 2865SOL    HW1 9494   5.384   6.017   4.506
 2865SOL    HW2 9495   5.256   5.922   4.545
 2866SOL     OW 9496   4.959   4.245   6.563
 2866SOL    HW1 9497   5.051   4.280   6.547
 2866SOL    HW2 9498   4.910   4.239   6.476
 2867SOL     OW 9499   6.140   6.528   1.800
 2867SOL    HW1 9500   6.124   6.501   1.705
 2867SOL    HW2 9501   6.111   6.454   1.861
 2868SOL     OW 9502   1.713   0.814   5.876
 2868SOL    HW1 9503   1.783   0.784   5.940
 2868SOL    HW2 9504   1.739   0.902   5.837
 2869SOL     OW 9505   5.271   5.785   3.785
 2869SOL    HW1 9506   5.325   5.845   3.844
 2869SOL    HW2 9507   5.303   5.691   3.794
 2870SOL     OW 9508   1.114   1.461   1.345
 2870SOL    HW1 9509   1.079   1.551   1.317
 2870SOL    HW2 9510   1.108   1.453   1.445
 2871SOL     OW 9511   6.518   2.313   1.475
 2871SOL    HW1 9512   6.542   2.236   1.415
 2871SOL    HW2 9513   6.444   2.365   1.434
 2872SOL     OW 9514   2.681   1.785   2.263
 2872SOL    HW1 9515   2.681   1.718   2.188
 2872SOL    HW2 9516   2.592   1.783   2.308
 2873SOL     OW 9517   0.759   6.408   1.291
 2873SOL    HW1 9518   0.753   6.327   1.233
 2873SOL    HW2 9519   0.728   6.386   1.383
 2874SOL     OW 9520   2.241   0.910   3.239
 2874SOL    HW1 9521   2.250   0.816   3.206
 2874SOL    HW2 9522   2.235   0.973   3.161
 2875SOL     OW 9523   3.225   6.777   2.550
 2875SOL    HW1 9524   3.285   6.817   2.619
 2875SOL    HW2 9525   3.187   6.691   2.585
 2876SOL     OW 9526   1.780   5.976   1.719
 2876SOL    HW1 9527   1.767   5.952   1.815
 2876SOL    HW2 9528   1.875   5.957   1.692
 2877SOL     OW 9529   1.938   1.000   5.888
 2877SOL    HW1 9530   1.943   0.992   5.988
 2877SOL    HW2 9531   2.001   0.934   5.847
 2878SOL     OW 9532   4.038   3.290   4.667
 2878SOL    HW1 9533   3.963   3.301   4.732
 2878SOL    HW2 9534   4.016   3.214   4.605
 2879SOL     OW 9535   3.795   4.348   6.216
 2879SOL    HW1 9536   3.760   4.257   6.195
 2879SOL    HW2 9537   3.892   4.353   6.194
 2880SOL     OW 9538   1.350   1.390   4.486
 2880SOL    HW1 9539   1.348   1.294   4.458
 2880SOL    HW2 9540   1.291   1.403   4.565
 2881SOL     OW 9541   3.197   6.548   6.445
 2881SOL    HW1 9542   3.177   6.644   6.428
 2881SOL    HW2 9543   3.182   6.527   6.542
 2882SOL     OW 9544   4.327   6.037   0.273
 2882SOL    HW1 9545   4.356   6.072   0.184
 2882SOL    HW2 9546   4.241   5.988   0.263
 2883SOL     OW 9547   6.220   6.446   3.339
 2883SOL    HW1 9548   6.134   6.456   3.289
 2883SOL    HW2 9549   6.227   6.519   3.407
 2884SOL     OW 9550   0.303   5.759   2.548
 2884SOL    HW1 9551   0.295   5.670   2.504
 2884SOL    HW2 9552   0.244   5.762   2.629
 2885SOL     OW 9553   1.166   3.497   2.925
 2885SOL    HW1 9554   1.266   3.493   2.923
 2885SOL    HW2 9555   1.133   3.475   3.017
 2886SOL     OW 9556   2.721   4.435   6.506
 2886SOL    HW1 9557   2.644   4.400   6.455
 2886SOL    HW2 9558   2.780   4.360   6.535
 2887SOL     OW 9559   1.108   6.501   4.024
 2887SOL    HW1 9560   1.091   6.417   3.972
 2887SOL    HW2 9561   1.029   6.521   4.082
 2888SOL     OW 9562   6.608   6.602   0.330
 2888SOL    HW1 9563   6.532   6.653   0.369
 2888SOL    HW2 9564   6.638   6.647   0.245
 2889SOL     OW 9565   3.042   6.457   3.303
 2889SOL    HW1 9566   3.090   6.543   3.322
 2889SOL    HW2 9567   2.962   6.475   3.246
 2890SOL     OW 9568   1.882   0.210   0.877
 2890SOL    HW1 9569   1.948   0.192   0.949
 2890SOL    HW2 9570   1.791   0.222   0.917
 2891SOL     OW 9571   0.044   3.385   3.331
 2891SOL    HW1 9572   6.970   3.353   3.318
 2891SOL    HW2 9573   0.103   3.309   3.357
 2892SOL     OW 9574   6.176   3.881   1.009
 2892SOL    HW1 9575   6.096   3.868   1.067
 2892SOL    HW2 9576   6.185   3.804   0.946
 2893SOL     OW 9577   7.010   5.250   4.497
 2893SOL    HW1 9578   6.924   5.242   4.446
 2893SOL    HW2 9579   0.015   5.346   4.505
 2894SOL     OW 9580   1.284   4.996   2.159
 2894SOL    HW1 9581   1.269   4.902   2.130
 2894SOL    HW2 9582   1.372   5.028   2.124
 2895SOL     OW 9583   3.868   6.870   6.142
 2895SOL    HW1 9584   3.789   6.886   6.082
 2895SOL    HW2 9585   3.917   6.789   6.109
 2896SOL     OW 9586   5.320   6.153   4.935
 2896SOL    HW1 9587   5.318   6.091   5.013
 2896SOL    HW2 9588   5.233   6.201   4.928
 2897SOL     OW 9589   3.201   4.903   3.380
 2897SOL    HW1 9590   3.212   4.804   3.373
 2897SOL    HW2 9591   3.288   4.945   3.405
 2898SOL     OW 9592   5.508   4.169   2.588
 2898SOL    HW1 9593   5.592   4.223   2.579
 2898SOL    HW2 9594   5.469   4.182   2.679
 2899SOL     OW 9595   6.630   2.638   0.809
 2899SOL    HW1 9596   6.628   2.575   0.887
 2899SOL    HW2 9597   6.553   2.701   0.815
 2900SOL     OW 9598   3.031   3.676   0.210
 2900SOL    HW1 9599   3.078   3.595   0.175
 2900SOL    HW2 9600   3.065   3.757   0.164
 2901SOL     OW 9601   1.568   3.888   3.533
 2901SOL    HW1 9602   1.602   3.800   3.501
 2901SOL    HW2 9603   1.635   3.959   3.513
 2902SOL     OW 9604   0.505   5.783   4.169
 2902SOL    HW1 9605   0.544   5.697   4.137
 2902SOL    HW2 9606   0.464   5.832   4.093
 2903SOL     OW 9607   4.228   5.774   0.750
 2903SOL    HW1 9608   4.240   5.799   0.846
 2903SOL    HW2 9609   4.172   5.842   0.704
 2904SOL     OW 9610   2.751   4.485   5.401
 2904SOL    HW1 9611   2.766   4.394   5.440
 2904SOL    HW2 9612   2.823   4.505   5.334
 2905SOL     OW 9613   0.906   4.220   1.946
 2905SOL    HW1 9614   0.900   4.216   2.046
 2905SOL    HW2 9615   0.872   4.308   1.914
 2906SOL     OW 9616   5.750   5.739   3.047
 2906SOL    HW1 9617   5.743   5.641   3.066
 2906SOL    HW2 9618   5.709   5.790   3.122
 2907SOL     OW 9619   0.949   0.137   3.329
 2907SOL    HW1 9620   0.862   0.108   3.367
 2907SOL    HW2 9621   0.934   0.183   3.242
 2908SOL     OW 9622   4.846   6.786   2.973
 2908SOL    HW1 9623   4.825   6.802   2.876
 2908SOL    HW2 9624   4.762   6.791   3.027
 2909SOL     OW 9625   1.536   5.776   2.024
 2909SOL    HW1 9626   1.607   5.714   1.991
 2909SOL    HW2 9627   1.472   5.796   1.950
 2910SOL     OW 9628   0.239   0.824   3.402
 2910SOL    HW1 9629   0.319   0.883   3.389
 2910SOL    HW2 9630   0.158   0.880   3.419
 2911SOL     OW 9631   6.501   4.125   3.998
 2911SOL    HW1 9632   6.439   4.047   4.012
 2911SOL    HW2 9633   6.593   4.100   4.027
 2912SOL     OW 9634   6.720   6.422   0.741
 2912SOL    HW1 9635   6.814   6.452   0.756
 2912SOL    HW2 9636   6.658   6.483   0.791
 2913SOL     OW 9637   2.222   5.749   1.477
 2913SOL    HW1 9638   2.295   5.702   1.527
 2913SOL    HW2 9639   2.198   5.695   1.396
 2914SOL     OW 9640   5.350   5.255   0.366
 2914SOL    HW1 9641   5.332   5.302   0.452
 2914SOL    HW2 9642   5.445   5.225   0.362
 2915SOL     OW 9643   3.288   1.617   3.175
 2915SOL    HW1 9644   3.384   1.592   3.164
 2915SOL    HW2 9645   3.230   1.536   3.160
 2916SOL     OW 9646   1.767   6.119   0.300
 2916SOL    HW1 9647   1.825   6.185   0.348
 2916SOL    HW2 9648   1.706   6.167   0.238
 2917SOL     OW 9649   2.354   0.208   3.260
 2917SOL    HW1 9650   2.394   0.299   3.270
 2917SOL    HW2 9651   2.262   0.209   3.299
 2918SOL     OW 9652   6.127   3.640   0.862
 2918SOL    HW1 9653   6.098   3.580   0.787
 2918SOL    HW2 9654   6.224   3.624   0.882
 2919SOL     OW 9655   0.925   6.254   4.721
 2919SOL    HW1 9656   0.996   6.318   4.750
 2919SOL    HW2 9657   0.904   6.270   4.624
 2920SOL     OW 9658   1.523   0.744   1.891
 2920SOL    HW1 9659   1.544   0.695   1.807
 2920SOL    HW2 9660   1.448   0.698   1.939
 2921SOL     OW 9661   0.377   0.217   5.583
 2921SOL    HW1 9662   0.410   0.122   5.580
 2921SOL    HW2 9663   0.297   0.226   5.525
 2922SOL     OW 9664   4.056   0.840   3.518
 2922SOL    HW1 9665   4.154   0.857   3.508
 2922SOL    HW2 9666   4.036   0.812   3.612
 2923SOL     OW 9667   6.396   4.988   5.383
 2923SOL    HW1 9668   6.340   5.064   5.350
 2923SOL    HW2 9669   6.427   4.934   5.305
 2924SOL     OW 9670   6.743   2.531   5.649
 2924SOL    HW1 9671   6.724   2.440   5.612
 2924SOL    HW2 9672   6.728   2.600   5.578
 2925SOL     OW 9673   5.589   0.855   5.765
 2925SOL    HW1 9674   5.596   0.920   5.841
 2925SOL    HW2 9675   5.494   0.825   5.755
 2926SOL     OW 9676   0.349   1.299   4.890
 2926SOL    HW1 9677   0.425   1.308   4.954
 2926SOL    HW2 9678   0.288   1.226   4.922
 2927SOL     OW 9679   2.050   2.659   1.721
 2927SOL    HW1 9680   2.125   2.613   1.769
 2927SOL    HW2 9681   1.993   2.708   1.787
 2928SOL     OW 9682   6.341   2.273   6.847
 2928SOL    HW1 9683   6.355   2.182   6.808
 2928SOL    HW2 9684   6.417   2.297   6.907
 2929SOL     OW 9685   1.966   2.225   4.811
 2929SOL    HW1 9686   2.000   2.307   4.858
 2929SOL    HW2 9687   1.868   2.235   4.795
 2930SOL     OW 9688   0.084   5.483   4.574
 2930SOL    HW1 9689   0.164   5.529   4.612
 2930SOL    HW2 9690   0.001   5.529   4.604
 2931SOL     OW 9691   3.692   4.063   6.154
 2931SOL    HW1 9692   3.759   3.995   6.124
 2931SOL    HW2 9693   3.605   4.018   6.174
 2932SOL     OW 9694   6.621   5.358   0.716
 2932SOL    HW1 9695   6.564   5.420   0.771
 2932SOL    HW2 9696   6.580   5.347   0.626
 2933SOL     OW 9697   0.916   0.057   1.052
 2933SOL    HW1 9698   0.904   0.135   0.990
 2933SOL    HW2 9699   0.843   7.011   1.036
 2934SOL     OW 9700   4.193   3.568   0.649
 2934SOL    HW1 9701   4.095   3.586   0.651
 2934SOL    HW2 9702   4.218   3.506   0.724
 2935SOL     OW 9703   0.384   2.628   6.222
 2935SOL    HW1 9704   0.418   2.719   6.196
 2935SOL    HW2 9705   0.388   2.567   6.144
 2936SOL     OW 9706   4.751   0.261   0.769
 2936SOL    HW1 9707   4.721   0.258   0.674
 2936SOL    HW2 9708   4.844   0.299   0.773
 2937SOL     OW 9709   3.930   5.918   2.004
 2937SOL    HW1 9710   3.902   5.968   2.086
 2937SOL    HW2 9711   3.894   5.825   2.007
 2938SOL     OW 9712   6.644   5.813   6.115
 2938SOL    HW1 9713   6.603   5.753   6.183
 2938SOL    HW2 9714   6.729   5.852   6.151
 2939SOL     OW 9715   0.296   5.341   1.440
 2939SOL    HW1 9716   0.393   5.334   1.463
 2939SOL    HW2 9717   0.274   5.274   1.369
 2940SOL     OW 9718   5.661   5.620   3.394
 2940SOL    HW1 9719   5.660   5.591   3.490
 2940SOL    HW2 9720   5.595   5.565   3.342
 2941SOL     OW 9721   2.006   3.260   3.918
 2941SOL    HW1 9722   1.944   3.299   3.850
 2941SOL    HW2 9723   2.061   3.333   3.958
 2942SOL     OW 9724   3.032   1.770   0.433
 2942SOL    HW1 9725   2.998   1.695   0.376
 2942SOL    HW2 9726   2.959   1.799   0.496
 2943SOL     OW 9727   6.006   4.189   3.456
 2943SOL    HW1 9728   5.988   4.237   3.542
 2943SOL    HW2 9729   6.103   4.168   3.449
 2944SOL     OW 9730   2.458   5.937   3.895
 2944SOL    HW1 9731   2.505   6.021   3.868
 2944SOL    HW2 9732   2.467   5.869   3.823
 2945SOL     OW 9733   5.329   4.432   1.503
 2945SOL    HW1 9734   5.274   4.352   1.527
 2945SOL    HW2 9735   5.307   4.461   1.410
 2946SOL     OW 9736   2.979   4.122   6.070
 2946SOL    HW1 9737   3.025   4.044   6.026
 2946SOL    HW2 9738   2.948   4.095   6.161
 2947SOL     OW 9739   5.910   6.420   0.594
 2947SOL    HW1 9740   5.962   6.476   0.529
 2947SOL    HW2 9741   5.919   6.323   0.568
 2948SOL     OW 9742   5.714   4.380   2.577
 2948SOL    HW1 9743   5.791   4.366   2.514
 2948SOL    HW2 9744   5.708   4.477   2.600
 2949SOL     OW 9745   1.519   0.198   1.269
 2949SOL    HW1 9746   1.588   0.126   1.261
 2949SOL    HW2 9747   1.564   0.285   1.292
 2950SOL     OW 9748   4.945   4.565   2.493
 2950SOL    HW1 9749   4.874   4.515   2.543
 2950SOL    HW2 9750   4.945   4.661   2.523
 2951SOL     OW 9751   5.961   0.991   1.268
 2951SOL    HW1 9752   5.890   0.961   1.332
 2951SOL    HW2 9753   6.050   0.955   1.297
 2952SOL     OW 9754   5.288   1.098   4.174
 2952SOL    HW1 9755   5.369   1.150   4.202
 2952SOL    HW2 9756   5.306   1.053   4.087
 2953SOL     OW 9757   1.023   6.112   3.199
 2953SOL    HW1 9758   1.008   6.211   3.191
 2953SOL    HW2 9759   1.018   6.084   3.295
 2954SOL     OW 9760   0.578   4.485   6.501
 2954SOL    HW1 9761   0.603   4.388   6.502
 2954SOL    HW2 9762   0.482   4.495   6.479
 2955SOL     OW 9763   1.885   3.853   6.750
 2955SOL    HW1 9764   1.946   3.824   6.823
 2955SOL    HW2 9765   1.810   3.907   6.789
 2956SOL     OW 9766   6.218   4.436   3.483
 2956SOL    HW1 9767   6.175   4.377   3.552
 2956SOL    HW2 9768   6.296   4.388   3.443
 2957SOL     OW 9769   2.872   5.120   1.604
 2957SOL    HW1 9770   2.800   5.161   1.661
 2957SOL    HW2 9771   2.844   5.124   1.508
 2958SOL     OW 9772   2.343   4.718   3.228
 2958SOL    HW1 9773   2.321   4.629   3.188
 2958SOL    HW2 9774   2.259   4.768   3.247
 2959SOL     OW 9775   6.478   1.894   2.891
 2959SOL    HW1 9776   6.459   1.991   2.886
 2959SOL    HW2 9777   6.508   1.861   2.801
 2960SOL     OW 9778   4.480   0.462   0.634
 2960SOL    HW1 9779   4.412   0.393   0.608
 2960SOL    HW2 9780   4.456   0.501   0.723
 2961SOL     OW 9781   5.158   4.354   2.592
 2961SOL    HW1 9782   5.090   4.302   2.644
 2961SOL    HW2 9783   5.221   4.290   2.547
 2962SOL     OW 9784   6.571   6.309   2.179
 2962SOL    HW1 9785   6.561   6.254   2.262
 2962SOL    HW2 9786   6.667   6.333   2.166
 2963SOL     OW 9787   1.608   1.088   5.139
 2963SOL    HW1 9788   1.587   0.992   5.156
 2963SOL    HW2 9789   1.524   1.137   5.117
 2964SOL     OW 9790   0.980   2.746   6.671
 2964SOL    HW1 9791   1.057   2.688   6.698
 2964SOL    HW2 9792   0.997   2.781   6.579
 2965SOL     OW 9793   0.432   0.642   5.335
 2965SOL    HW1 9794   0.430   0.740   5.357
 2965SOL    HW2 9795   0.340   0.610   5.315
 2966SOL     OW 9796   4.281   5.861   3.811
 2966SOL    HW1 9797   4.257   5.916   3.891
 2966SOL    HW2 9798   4.346   5.912   3.755
 2967SOL     OW 9799   6.431   1.066   5.773
 2967SOL    HW1 9800   6.497   1.139   5.788
 2967SOL    HW2 9801   6.466   0.981   5.812
 2968SOL     OW 9802   1.464   1.793   0.958
 2968SOL    HW1 9803   1.482   1.695   0.948
 2968SOL    HW2 9804   1.540   1.837   1.005
 2969SOL     OW 9805   5.495   3.526   4.353
 2969SOL    HW1 9806   5.530   3.557   4.442
 2969SOL    HW2 9807   5.498   3.601   4.288
 2970SOL     OW 9808   2.299   2.888   4.314
 2970SOL    HW1 9809   2.238   2.902   4.392
 2970SOL    HW2 9810   2.361   2.812   4.332
 2971SOL     OW 9811   5.871   3.928   6.708
 2971SOL    HW1 9812   5.781   3.894   6.736
 2971SOL    HW2 9813   5.937   3.911   6.781
 2972SOL     OW 9814   5.726   4.969   6.395
 2972SOL    HW1 9815   5.759   4.927   6.479
 2972SOL    HW2 9816   5.775   5.055   6.379
 2973SOL     OW 9817   4.951   0.162   2.149
 2973SOL    HW1 9818   5.021   0.171   2.220
 2973SOL    HW2 9819   4.872   0.114   2.187
 2974SOL     OW 9820   5.257   5.257   3.647
 2974SOL    HW1 9821   5.296   5.286   3.559
 2974SOL    HW2 9822   5.212   5.335   3.690
 2975SOL     OW 9823   4.483   4.877   4.388
 2975SOL    HW1 9824   4.467   4.787   4.347
 2975SOL    HW2 9825   4.581   4.899   4.382
 2976SOL     OW 9826   4.703   2.056   2.381
 2976SOL    HW1 9827   4.788   2.024   2.339
 2976SOL    HW2 9828   4.697   2.156   2.374
 2977SOL     OW 9829   0.520   0.382   1.376
 2977SOL    HW1 9830   0.420   0.387   1.365
 2977SOL    HW2 9831   0.545   0.419   1.466
 2978SOL     OW 9832   3.981   4.739   6.085
 2978SOL    HW1 9833   4.054   4.724   6.152
 2978SOL    HW2 9834   3.897   4.766   6.133
 2979SOL     OW 9835   2.371   1.786   4.519
 2979SOL    HW1 9836   2.397   1.863   4.578
 2979SOL    HW2 9837   2.404   1.701   4.560
 2980SOL     OW 9838   3.917   3.877   6.128
 2980SOL    HW1 9839   4.015   3.874   6.148
 2980SOL    HW2 9840   3.903   3.887   6.030
 2981SOL     OW 9841   1.879   1.203   0.489
 2981SOL    HW1 9842   1.962   1.165   0.531
 2981SOL    HW2 9843   1.804   1.201   0.555
 2982SOL     OW 9844   1.330   0.177   2.079
 2982SOL    HW1 9845   1.248   0.147   2.128
 2982SOL    HW2 9846   1.357   0.267   2.110
 2983SOL     OW 9847   6.143   3.218   6.915
 2983SOL    HW1 9848   6.141   3.119   6.922
 2983SOL    HW2 9849   6.220   3.246   6.858
 2984SOL     OW 9850   6.607   4.946   0.045
 2984SOL    HW1 9851   6.579   4.976   6.975
 2984SOL    HW2 9852   6.648   4.855   0.039
 2985SOL     OW 9853   0.113   0.519   4.842
 2985SOL    HW1 9854   0.034   0.573   4.869
 2985SOL    HW2 9855   0.120   0.438   4.900
 2986SOL     OW 9856   3.844   3.983   2.909
 2986SOL    HW1 9857   3.867   3.888   2.933
 2986SOL    HW2 9858   3.861   4.042   2.988
 2987SOL     OW 9859   0.982   1.338   4.330
 2987SOL    HW1 9860   1.030   1.391   4.399
 2987SOL    HW2 9861   0.893   1.380   4.312
 2988SOL     OW 9862   0.672   1.620   0.470
 2988SOL    HW1 9863   0.596   1.576   0.518
 2988SOL    HW2 9864   0.727   1.671   0.536
 2989SOL     OW 9865   5.240   2.981   4.839
 2989SOL    HW1 9866   5.248   2.993   4.740
 2989SOL    HW2 9867   5.325   2.943   4.875
 2990SOL     OW 9868   5.048   1.819   4.532
 2990SOL    HW1 9869   5.098   1.893   4.488
 2990SOL    HW2 9870   5.068   1.820   4.630
 2991SOL     OW 9871   5.336   2.999   0.936
 2991SOL    HW1 9872   5.252   3.053   0.929
 2991SOL    HW2 9873   5.324   2.912   0.888
 2992SOL     OW 9874   0.631   3.871   5.708
 2992SOL    HW1 9875   0.684   3.786   5.715
 2992SOL    HW2 9876   0.600   3.882   5.613
 2993SOL     OW 9877   0.879   4.574   6.981
 2993SOL    HW1 9878   0.848   4.654   6.931
 2993SOL    HW2 9879   0.804   4.537   0.016
 2994SOL     OW 9880   4.429   6.130   0.040
 2994SOL    HW1 9881   4.529   6.125   0.046
 2994SOL    HW2 9882   4.402   6.220   0.009
 2995SOL     OW 9883   5.014   0.048   0.544
 2995SOL    HW1 9884   4.980   0.026   0.635
 2995SOL    HW2 9885   4.966   7.013   0.476
 2996SOL     OW 9886   1.360   1.957   4.882
 2996SOL    HW1 9887   1.308   1.878   4.915
 2996SOL    HW2 9888   1.432   1.979   4.947
 2997SOL     OW 9889   5.047   0.486   4.083
 2997SOL    HW1 9890   5.027   0.583   4.096
 2997SOL    HW2 9891   4.962   0.434   4.079
 2998SOL     OW 9892   2.737   1.039   2.906
 2998SOL    HW1 9893   2.750   1.116   2.843
 2998SOL    HW2 9894   2.697   0.962   2.856
 2999SOL     OW 9895   2.673   4.365   0.390
 2999SOL    HW1 9896   2.627   4.284   0.355
 2999SOL    HW2 9897   2.646   4.380   0.485
 3000SOL     OW 9898   2.728   3.767   5.218
 3000SOL    HW1 9899   2.654   3.753   5.152
 3000SOL    HW2 9900   2.807   3.711   5.192
 3001SOL     OW 9901   6.221   1.781   6.250
 3001SOL    HW1 9902   6.174   1.807   6.334
 3001SOL    HW2 9903   6.178   1.700   6.210
 3002SOL     OW 9904   2.790   0.876   1.752
 3002SOL    HW1 9905   2.849   0.928   1.690
 3002SOL    HW2 9906   2.695   0.883   1.721
 3003SOL     OW 9907   1.301   6.025   0.388
 3003SOL    HW1 9908   1.307   5.953   0.318
 3003SOL    HW2 9909   1.345   5.993   0.472
 3004SOL     OW 9910   2.532   5.452   4.283
 3004SOL    HW1 9911   2.492   5.416   4.199
 3004SOL    HW2 9912   2.631   5.440   4.281
 3005SOL     OW 9913   1.326   2.777   5.824
 3005SOL    HW1 9914   1.232   2.805   5.802
 3005SOL    HW2 9915   1.370   2.741   5.742
 3006SOL     OW 9916   5.014   2.032   5.149
 3006SOL    HW1 9917   5.028   1.989   5.238
 3006SOL    HW2 9918   5.081   2.104   5.136
 3007SOL     OW 9919   5.691   5.243   0.024
 3007SOL    HW1 9920   5.732   5.172   6.987
 3007SOL    HW2 9921   5.600   5.265   7.009
 3008SOL     OW 9922   4.200   2.455   6.075
 3008SOL    HW1 9923   4.228   2.367   6.040
 3008SOL    HW2 9924   4.114   2.483   6.031
 3009SOL     OW 9925   0.613   2.765   2.914
 3009SOL    HW1 9926   0.663   2.829   2.856
 3009SOL    HW2 9927   0.528   2.739   2.868
 3010SOL     OW 9928   4.011   5.967   5.957
 3010SOL    HW1 9929   4.025   6.036   5.886
 3010SOL    HW2 9930   3.918   5.931   5.950
 3011SOL     OW 9931   5.640   7.009   1.170
 3011SOL    HW1 9932   5.630   0.039   1.084
 3011SOL    HW2 9933   5.681   0.049   1.239
 3012SOL     OW 9934   2.957   3.048   5.923
 3012SOL    HW1 9935   2.963   3.117   5.851
 3012SOL    HW2 9936   2.960   3.093   6.013
 3013SOL     OW 9937   0.767   6.076   4.039
 3013SOL    HW1 9938   0.740   6.076   4.135
 3013SOL    HW2 9939   0.836   6.005   4.024
 3014SOL     OW 9940   4.711   1.011   5.123
 3014SOL    HW1 9941   4.747   1.101   5.148
 3014SOL    HW2 9942   4.752   0.941   5.181
 3015SOL     OW 9943   1.406   1.265   0.514
 3015SOL    HW1 9944   1.322   1.247   0.565
 3015SOL    HW2 9945   1.391   1.343   0.452
 3016SOL     OW 9946   2.762   6.354   4.764
 3016SOL    HW1 9947   2.711   6.380   4.682
 3016SOL    HW2 9948   2.815   6.432   4.797
 3017SOL     OW 9949   6.578   5.717   1.642
 3017SOL    HW1 9950   6.508   5.743   1.708
 3017SOL    HW2 9951   6.607   5.798   1.591
 3018SOL     OW 9952   3.453   0.274   0.336
 3018SOL    HW1 9953   3.386   0.306   0.404
 3018SOL    HW2 9954   3.528   0.228   0.383
 3019SOL     OW 9955   1.363   0.073   6.112
 3019SOL    HW1 9956   1.404   0.113   6.030
 3019SOL    HW2 9957   1.327   0.146   6.170
 3020SOL     OW 9958   5.075   3.428   0.234
 3020SOL    HW1 9959   5.006   3.488   0.275
 3020SOL    HW2 9960   5.072   3.436   0.135
 3021SOL     OW 9961   3.823   6.532   4.639
 3021SOL    HW1 9962   3.901   6.542   4.701
 3021SOL    HW2 9963   3.851   6.476   4.560
 3022SOL     OW 9964   4.265   6.208   3.510
 3022SOL    HW1 9965   4.344   6.262   3.483
 3022SOL    HW2 9966   4.181   6.261   3.498
 3023SOL     OW 9967   4.024   6.816   2.941
 3023SOL    HW1 9968   3.986   6.827   2.849
 3023SOL    HW2 9969   4.075   6.730   2.946
 3024SOL     OW 9970   0.328   6.553   6.112
 3024SOL    HW1 9971   0.402   6.542   6.046
 3024SOL    HW2 9972   0.254   6.489   6.089
 3025SOL     OW 9973   3.701   5.994   0.957
 3025SOL    HW1 9974   3.651   5.963   0.876
 3025SOL    HW2 9975   3.732   6.088   0.943
 3026SOL     OW 9976   5.742   1.536   0.106
 3026SOL    HW1 9977   5.651   1.575   0.115
 3026SOL    HW2 9978   5.765   1.487   0.191
 3027SOL     OW 9979   5.318   1.234   1.520
 3027SOL    HW1 9980   5.228   1.254   1.559
 3027SOL    HW2 9981   5.317   1.252   1.422
 3028SOL     OW 9982   2.596   4.387   6.097
 3028SOL    HW1 9983   2.529   4.332   6.047
 3028SOL    HW2 9984   2.683   4.387   6.048
 3029SOL     OW 9985   0.966   1.850   4.275
 3029SOL    HW1 9986   0.951   1.945   4.247
 3029SOL    HW2 9987   1.047   1.845   4.334
 3030SOL     OW 9988   1.367   3.657   1.613
 3030SOL    HW1 9989   1.357   3.574   1.668
 3030SOL    HW2 9990   1.346   3.737   1.669
 3031SOL     OW 9991   1.574   5.597   0.981
 3031SOL    HW1 9992   1.511   5.538   0.931
 3031SOL    HW2 9993   1.522   5.669   1.028
 3032SOL     OW 9994   1.322   0.439   2.777
 3032SOL    HW1 9995   1.391   0.415   2.708
 3032SOL    HW2 9996   1.319   0.538   2.788
 3033SOL     OW 9997   6.761   2.293   4.318
 3033SOL    HW1 9998   6.773   2.283   4.416
 3033SOL    HW2 9999   6.727   2.208   4.279
 3034SOL     OW10000   0.665   5.990   3.696
 3034SOL    HW110001   0.755   5.975   3.654
 3034SOL    HW210002   0.672   5.973   3.795
 3035SOL     OW10003   1.388   2.385   6.453
 3035SOL    HW110004   1.334   2.461   6.417
 3035SOL    HW210005   1.481   2.389   6.417
 3036SOL     OW10006   2.335   2.019   6.545
 3036SOL    HW110007   2.295   2.029   6.636
 3036SOL    HW210008   2.432   2.043   6.548
 3037SOL     OW10009   0.600   5.463   6.368
 3037SOL    HW110010   0.543   5.524   6.314
 3037SOL    HW210011   0.659   5.517   6.428
 3038SOL     OW10012   5.193   4.936   6.211
 3038SOL    HW110013   5.287   4.939   6.242
 3038SOL    HW210014   5.151   4.850   6.241
 3039SOL     OW10015   6.382   4.038   6.924
 3039SOL    HW110016   6.395   3.949   6.881
 3039SOL    HW210017   6.439   4.106   6.878
 3040SOL     OW10018   3.660   4.394   5.802
 3040SOL    HW110019   3.621   4.469   5.748
 3040SOL    HW210020   3.662   4.421   5.898
 3041SOL     OW10021   2.233   4.320   4.930
 3041SOL    HW110022   2.142   4.302   4.891
 3041SOL    HW210023   2.282   4.234   4.942
 3042SOL     OW10024   0.268   5.190   2.983
 3042SOL    HW110025   0.339   5.211   3.050
 3042SOL    HW210026   0.199   5.262   2.984
 3043SOL     OW10027   3.104   4.181   0.782
 3043SOL    HW110028   3.136   4.208   0.872
 3043SOL    HW210029   3.072   4.261   0.731
 3044SOL     OW10030   3.448   3.678   5.097
 3044SOL    HW110031   3.505   3.758   5.116
 3044SOL    HW210032   3.459   3.651   5.001
 3045SOL     OW10033   5.015   1.657   2.975
 3045SOL    HW110034   5.095   1.699   3.019
 3045SOL    HW210035   5.000   1.566   3.013
 3046SOL     OW10036   5.553   5.643   0.410
 3046SOL    HW110037   5.575   5.556   0.454
 3046SOL    HW210038   5.462   5.673   0.439
 3047SOL     OW10039   5.932   0.855   6.783
 3047SOL    HW110040   5.975   0.799   6.712
 3047SOL    HW210041   5.925   0.802   6.867
 3048SOL     OW10042   4.102   3.496   1.367
 3048SOL    HW110043   4.103   3.582   1.420
 3048SOL    HW210044   4.055   3.425   1.420
 3049SOL     OW10045   0.957   0.363   4.459
 3049SOL    HW110046   0.943   0.415   4.375
 3049SOL    HW210047   1.049   0.380   4.494
 3050SOL     OW10048   3.193   2.436   1.278
 3050SOL    HW110049   3.254   2.451   1.356
 3050SOL    HW210050   3.112   2.386   1.309
 3051SOL     OW10051   2.598   6.690   4.416
 3051SOL    HW110052   2.600   6.591   4.431
 3051SOL    HW210053   2.610   6.709   4.319
 3052SOL     OW10054   5.816   6.054   2.424
 3052SOL    HW110055   5.726   6.021   2.452
 3052SOL    HW210056   5.812   6.085   2.329
 3053SOL     OW10057   1.527   4.063   0.590
 3053SOL    HW110058   1.514   4.110   0.677
 3053SOL    HW210059   1.597   3.992   0.600
 3054SOL     OW10060   5.667   1.689   2.996
 3054SOL    HW110061   5.730   1.612   3.000
 3054SOL    HW210062   5.699   1.761   3.058
 3055SOL     OW10063   6.306   5.950   6.421
 3055SOL    HW110064   6.275   5.884   6.489
 3055SOL    HW210065   6.227   5.998   6.383
 3056SOL     OW10066   4.934   1.639   5.948
 3056SOL    HW110067   4.937   1.550   5.994
 3056SOL    HW210068   5.024   1.662   5.912
 3057SOL     OW10069   6.001   5.838   3.088
 3057SOL    HW110070   6.019   5.913   3.152
 3057SOL    HW210071   5.903   5.819   3.084
 3058SOL     OW10072   6.228   4.248   0.216
 3058SOL    HW110073   6.172   4.166   0.230
 3058SOL    HW210074   6.318   4.235   0.258
 3059SOL     OW10075   2.505   2.633   4.536
 3059SOL    HW110076   2.528   2.725   4.569
 3059SOL    HW210077   2.430   2.639   4.470
 3060SOL     OW10078   4.153   5.250   5.580
 3060SOL    HW110079   4.131   5.154   5.601
 3060SOL    HW210080   4.187   5.256   5.486
 3061SOL     OW10081   4.900   4.724   5.504
 3061SOL    HW110082   4.877   4.674   5.420
 3061SOL    HW210083   4.873   4.820   5.493
 3062SOL     OW10084   4.631   4.361   1.688
 3062SOL    HW110085   4.651   4.297   1.613
 3062SOL    HW210086   4.570   4.316   1.754
 3063SOL     OW10087   6.913   4.126   1.272
 3063SOL    HW110088   6.932   4.041   1.321
 3063SOL    HW210089   6.992   4.151   1.216
 3064SOL     OW10090   3.901   2.040   6.966
 3064SOL    HW110091   3.863   2.124   7.005
 3064SOL    HW210092   3.986   2.017   7.012
 3065SOL     OW10093   0.967   0.798   0.242
 3065SOL    HW110094   0.964   0.887   0.197
 3065SOL    HW210095   1.028   0.737   0.192
 3066SOL     OW10096   4.974   6.144   6.316
 3066SOL    HW110097   5.071   6.156   6.337
 3066SOL    HW210098   4.929   6.098   6.393
 3067SOL     OW10099   2.933   2.267   6.991
 3067SOL    HW110100   2.876   2.228   0.043
 3067SOL    HW210101   2.991   2.340   0.008
 3068SOL     OW10102   0.595   0.925   0.721
 3068SOL    HW110103   0.613   0.951   0.816
 3068SOL    HW210104   0.657   0.851   0.695
 3069SOL     OW10105   4.989   6.982   2.564
 3069SOL    HW110106   5.020   6.888   2.570
 3069SOL    HW210107   5.023   0.014   2.642
 3070SOL     OW10108   2.887   1.556   0.915
 3070SOL    HW110109   2.954   1.598   0.854
 3070SOL    HW210110   2.820   1.624   0.945
 3071SOL     OW10111   0.198   3.152   3.371
 3071SOL    HW110112   0.145   3.069   3.388
 3071SOL    HW210113   0.295   3.131   3.371
 3072SOL     OW10114   2.194   6.716   6.598
 3072SOL    HW110115   2.190   6.683   6.693
 3072SOL    HW210116   2.266   6.666   6.549
 3073SOL     OW10117   5.932   4.745   0.754
 3073SOL    HW110118   5.885   4.814   0.808
 3073SOL    HW210119   6.027   4.737   0.785
 3074SOL     OW10120   1.334   3.570   1.146
 3074SOL    HW110121   1.278   3.524   1.214
 3074SOL    HW210122   1.398   3.505   1.105
 3075SOL     OW10123   2.108   5.093   3.276
 3075SOL    HW110124   2.073   5.125   3.364
 3075SOL    HW210125   2.205   5.116   3.267
 3076SOL     OW10126   6.885   0.824   4.541
 3076SOL    HW110127   6.939   0.898   4.582
 3076SOL    HW210128   6.799   0.860   4.506
 3077SOL     OW10129   6.643   3.979   1.413
 3077SOL    HW110130   6.574   4.050   1.428
 3077SOL    HW210131   6.630   3.905   1.479
 3078SOL     OW10132   6.530   2.808   1.505
 3078SOL    HW110133   6.621   2.846   1.489
 3078SOL    HW210134   6.536   2.736   1.575
 3079SOL     OW10135   2.166   2.887   5.169
 3079SOL    HW110136   2.184   2.933   5.256
 3079SOL    HW210137   2.247   2.893   5.111
 3080SOL     OW10138   4.447   4.896   1.003
 3080SOL    HW110139   4.504   4.816   0.983
 3080SOL    HW210140   4.404   4.883   1.093
 3081SOL     OW10141   1.474   4.141   0.842
 3081SOL    HW110142   1.491   4.119   0.938
 3081SOL    HW210143   1.379   4.119   0.819
 3082SOL     OW10144   3.769   5.004   4.685
 3082SOL    HW110145   3.834   4.932   4.711
 3082SOL    HW210146   3.795   5.041   4.596
 3083SOL     OW10147   2.107   5.722   2.752
 3083SOL    HW110148   2.096   5.773   2.667
 3083SOL    HW210149   2.195   5.744   2.794
 3084SOL     OW10150   1.037   3.755   3.546
 3084SOL    HW110151   1.027   3.807   3.631
 3084SOL    HW210152   1.129   3.770   3.508
 3085SOL     OW10153   4.626   4.692   0.933
 3085SOL    HW110154   4.570   4.653   0.859
 3085SOL    HW210155   4.710   4.640   0.942
 3086SOL     OW10156   6.757   1.124   6.384
 3086SOL    HW110157   6.664   1.158   6.371
 3086SOL    HW210158   6.802   1.114   6.296
 3087SOL     OW10159   3.299   6.614   1.932
 3087SOL    HW110160   3.201   6.605   1.912
 3087SOL    HW210161   3.342   6.674   1.864
 3088SOL     OW10162   0.417   3.186   5.392
 3088SOL    HW110163   0.410   3.088   5.411
 3088SOL    HW210164   0.404   3.202   5.294
 3089SOL     OW10165   5.017   6.961   5.325
 3089SOL    HW110166   5.075   0.014   5.289
 3089SOL    HW210167   4.952   7.000   5.390
 3090SOL     OW10168   0.968   1.713   1.577
 3090SOL    HW110169   1.024   1.771   1.518
 3090SOL    HW210170   0.880   1.693   1.533
 3091SOL     OW10171   1.257   1.576   0.770
 3091SOL    HW110172   1.262   1.676   0.760
 3091SOL    HW210173   1.240   1.554   0.867
 3092SOL     OW10174   6.196   6.968   2.312
 3092SOL    HW110175   6.216   0.016   2.382
 3092SOL    HW210176   6.276   6.910   2.299
 3093SOL     OW10177   5.450   5.200   6.145
 3093SOL    HW110178   5.464   5.109   6.185
 3093SOL    HW210179   5.533   5.254   6.156
 3094SOL     OW10180   2.688   1.128   5.897
 3094SOL    HW110181   2.589   1.116   5.894
 3094SOL    HW210182   2.732   1.061   5.837
 3095SOL     OW10183   1.946   3.184   5.092
 3095SOL    HW110184   2.030   3.179   5.147
 3095SOL    HW210185   1.969   3.217   5.001
 3096SOL     OW10186   1.147   3.227   4.832
 3096SOL    HW110187   1.120   3.324   4.826
 3096SOL    HW210188   1.065   3.170   4.831
 3097SOL     OW10189   5.549   2.629   6.368
 3097SOL    HW110190   5.478   2.676   6.315
 3097SOL    HW210191   5.518   2.537   6.390
 3098SOL     OW10192   1.747   1.669   2.106
 3098SOL    HW110193   1.679   1.685   2.034
 3098SOL    HW210194   1.839   1.673   2.067
 3099SOL     OW10195   0.705   6.628   3.870
 3099SOL    HW110196   0.690   6.717   3.914
 3099SOL    HW210197   0.799   6.623   3.837
 3100SOL     OW10198   6.065   5.985   2.454
 3100SOL    HW110199   5.968   6.009   2.460
 3100SOL    HW210200   6.111   6.047   2.391
 3101SOL     OW10201   4.044   6.649   6.026
 3101SOL    HW110202   4.117   6.714   6.006
 3101SOL    HW210203   4.041   6.579   5.955
 3102SOL     OW10204   0.348   4.818   0.524
 3102SOL    HW110205   0.276   4.835   0.591
 3102SOL    HW210206   0.335   4.879   0.445
 3103SOL     OW10207   3.239   0.397   1.270
 3103SOL    HW110208   3.173   0.441   1.210
 3103SOL    HW210209   3.202   0.393   1.363
 3104SOL     OW10210   4.916   0.707   5.853
 3104SOL    HW110211   4.883   0.615   5.835
 3104SOL    HW210212   4.850   0.756   5.910
 3105SOL     OW10213   5.191   3.199   0.262
 3105SOL    HW110214   5.174   3.153   0.175
 3105SOL    HW210215   5.130   3.278   0.271
 3106SOL     OW10216   5.816   1.020   4.655
 3106SOL    HW110217   5.730   0.982   4.688
 3106SOL    HW210218   5.822   1.009   4.555
 3107SOL     OW10219   4.203   1.184   4.983
 3107SOL    HW110220   4.284   1.204   4.928
 3107SOL    HW210221   4.179   1.265   5.037
 3108SOL     OW10222   2.044   4.363   4.492
 3108SOL    HW110223   2.015   4.446   4.445
 3108SOL    HW210224   2.123   4.383   4.551
 3109SOL     OW10225   6.633   6.575   3.920
 3109SOL    HW110226   6.670   6.484   3.936
 3109SOL    HW210227   6.693   6.624   3.856
 3110SOL     OW10228   1.988   4.749   3.815
 3110SOL    HW110229   1.922   4.772   3.887
 3110SOL    HW210230   1.949   4.769   3.726
 3111SOL     OW10231   6.539   4.173   4.834
 3111SOL    HW110232   6.553   4.203   4.928
 3111SOL    HW210233   6.591   4.231   4.772
 3112SOL     OW10234   3.781   2.277   0.021
 3112SOL    HW110235   3.712   2.335   6.998
 3112SOL    HW210236   3.840   2.332   0.080
 3113SOL     OW10237   1.903   5.530   3.181
 3113SOL    HW110238   1.972   5.602   3.174
 3113SOL    HW210239   1.830   5.548   3.115
 3114SOL     OW10240   4.025   1.529   0.338
 3114SOL    HW110241   3.989   1.467   0.269
 3114SOL    HW210242   4.115   1.496   0.368
 3115SOL     OW10243   4.097   4.762   5.819
 3115SOL    HW110244   4.033   4.765   5.895
 3115SOL    HW210245   4.082   4.679   5.765
 3116SOL     OW10246   0.287   2.517   0.901
 3116SOL    HW110247   0.231   2.475   0.972
 3116SOL    HW210248   0.276   2.465   0.816
 3117SOL     OW10249   5.004   2.189   5.496
 3117SOL    HW110250   5.029   2.096   5.469
 3117SOL    HW210251   5.025   2.252   5.422
 3118SOL     OW10252   1.759   1.204   2.782
 3118SOL    HW110253   1.761   1.132   2.852
 3118SOL    HW210254   1.824   1.276   2.806
 3119SOL     OW10255   4.277   3.613   5.927
 3119SOL    HW110256   4.336   3.575   5.998
 3119SOL    HW210257   4.283   3.557   5.845
 3120SOL     OW10258   2.652   6.518   5.474
 3120SOL    HW110259   2.656   6.580   5.553
 3120SOL    HW210260   2.728   6.538   5.412
 3121SOL     OW10261   4.889   1.645   4.402
 3121SOL    HW110262   4.959   1.709   4.435
 3121SOL    HW210263   4.853   1.677   4.315
 3122SOL     OW10264   4.142   5.091   4.320
 3122SOL    HW110265   4.166   5.131   4.232
 3122SOL    HW210266   4.202   5.014   4.340
 3123SOL     OW10267   2.563   2.074   3.226
 3123SOL    HW110268   2.658   2.056   3.202
 3123SOL    HW210269   2.514   2.106   3.145
 3124SOL     OW10270   5.058   6.596   4.383
 3124SOL    HW110271   4.960   6.576   4.384
 3124SOL    HW210272   5.085   6.632   4.473
 3125SOL     OW10273   1.454   2.699   5.103
 3125SOL    HW110274   1.400   2.650   5.034
 3125SOL    HW210275   1.505   2.772   5.058
 3126SOL     OW10276   5.680   5.280   4.178
 3126SOL    HW110277   5.658   5.184   4.159
 3126SOL    HW210278   5.681   5.331   4.092
 3127SOL     OW10279   0.588   1.952   4.613
 3127SOL    HW110280   0.506   1.994   4.651
 3127SOL    HW210281   0.592   1.856   4.641
 3128SOL     OW10282   4.277   0.044   0.284
 3128SOL    HW110283   4.362   0.024   0.236
 3128SOL    HW210284   4.205   7.001   0.253
 3129SOL     OW10285   4.869   3.426   1.194
 3129SOL    HW110286   4.833   3.334   1.177
 3129SOL    HW210287   4.818   3.467   1.271
 3130SOL     OW10288   1.768   4.172   1.074
 3130SOL    HW110289   1.819   4.161   1.159
 3130SOL    HW210290   1.673   4.141   1.088
 3131SOL     OW10291   6.716   3.934   2.067
 3131SOL    HW110292   6.629   3.983   2.067
 3131SOL    HW210293   6.786   3.991   2.024
 3132SOL     OW10294   4.001   3.996   0.317
 3132SOL    HW110295   3.961   4.085   0.297
 3132SOL    HW210296   4.090   4.009   0.362
 3133SOL     OW10297   4.364   0.396   3.261
 3133SOL    HW110298   4.394   0.480   3.216
 3133SOL    HW210299   4.353   0.323   3.194
 3134SOL     OW10300   3.336   4.907   2.448
 3134SOL    HW110301   3.415   4.922   2.389
 3134SOL    HW210302   3.253   4.904   2.392
 3135SOL     OW10303   5.542   6.542   6.060
 3135SOL    HW110304   5.540   6.489   6.145
 3135SOL    HW210305   5.462   6.601   6.055
 3136SOL     OW10306   6.388   1.480   2.769
 3136SOL    HW110307   6.297   1.458   2.733
 3136SOL    HW210308   6.401   1.433   2.857
 3137SOL     OW10309   6.586   6.962   0.436
 3137SOL    HW110310   6.582   0.005   0.514
 3137SOL    HW210311   6.505   6.903   0.437
 3138SOL     OW10312   5.465   5.016   4.084
 3138SOL    HW110313   5.373   5.029   4.122
 3138SOL    HW210314   5.463   5.036   3.986
 3139SOL     OW10315   2.455   5.692   1.186
 3139SOL    HW110316   2.487   5.730   1.272
 3139SOL    HW210317   2.360   5.663   1.196
 3140SOL     OW10318   6.771   6.427   5.676
 3140SOL    HW110319   6.777   6.520   5.641
 3140SOL    HW210320   6.781   6.362   5.601
 3141SOL     OW10321   6.878   2.824   6.543
 3141SOL    HW110322   6.786   2.793   6.566
 3141SOL    HW210323   6.909   2.891   6.610
 3142SOL     OW10324   5.356   0.835   2.276
 3142SOL    HW110325   5.288   0.903   2.303
 3142SOL    HW210326   5.313   0.767   2.216
 3143SOL     OW10327   5.813   1.419   6.875
 3143SOL    HW110328   5.781   1.458   6.961
 3143SOL    HW210329   5.787   1.481   6.800
 3144SOL     OW10330   4.403   3.884   6.377
 3144SOL    HW110331   4.318   3.856   6.333
 3144SOL    HW210332   4.382   3.941   6.456
 3145SOL     OW10333   2.396   6.028   1.912
 3145SOL    HW110334   2.425   5.946   1.961
 3145SOL    HW210335   2.476   6.084   1.889
 3146SOL     OW10336   0.417   0.935   5.332
 3146SOL    HW110337   0.455   0.982   5.411
 3146SOL    HW210338   0.466   0.964   5.249
 3147SOL     OW10339   3.728   4.559   6.417
 3147SOL    HW110340   3.629   4.567   6.416
 3147SOL    HW210341   3.757   4.491   6.349
 3148SOL     OW10342   0.903   5.786   2.794
 3148SOL    HW110343   0.993   5.749   2.816
 3148SOL    HW210344   0.859   5.819   2.877
 3149SOL     OW10345   3.124   1.413   1.046
 3149SOL    HW110346   3.120   1.457   1.135
 3149SOL    HW210347   3.054   1.452   0.986
 3150SOL     OW10348   6.500   6.707   4.981
 3150SOL    HW110349   6.570   6.639   5.005
 3150SOL    HW210350   6.518   6.792   5.030
 3151SOL     OW10351   5.845   1.972   6.040
 3151SOL    HW110352   5.878   1.878   6.027
 3151SOL    HW210353   5.805   2.006   5.955
 3152SOL     OW10354   1.784   3.672   6.541
 3152SOL    HW110355   1.758   3.707   6.451
 3152SOL    HW210356   1.806   3.748   6.602
 3153SOL     OW10357   6.913   5.319   0.729
 3153SOL    HW110358   6.817   5.314   0.758
 3153SOL    HW210359   6.972   5.298   0.807
 3154SOL     OW10360   5.680   1.638   1.383
 3154SOL    HW110361   5.710   1.729   1.410
 3154SOL    HW210362   5.754   1.572   1.400
 3155SOL     OW10363   6.817   4.695   0.289
 3155SOL    HW110364   6.906   4.668   0.325
 3155SOL    HW210365   6.773   4.758   0.353
 3156SOL     OW10366   3.614   4.142   1.993
 3156SOL    HW110367   3.671   4.083   2.050
 3156SOL    HW210368   3.655   4.152   1.902
 3157SOL     OW10369   0.883   2.065   5.446
 3157SOL    HW110370   0.891   2.150   5.498
 3157SOL    HW210371   0.974   2.035   5.417
 3158SOL     OW10372   2.993   1.489   5.569
 3158SOL    HW110373   2.954   1.549   5.638
 3158SOL    HW210374   2.986   1.533   5.479
 3159SOL     OW10375   4.891   6.943   0.339
 3159SOL    HW110376   4.885   6.844   0.354
 3159SOL    HW210377   4.884   6.963   0.241
 3160SOL     OW10378   2.575   6.767   6.164
 3160SOL    HW110379   2.641   6.821   6.111
 3160SOL    HW210380   2.583   6.791   6.261
 3161SOL     OW10381   1.557   2.605   3.154
 3161SOL    HW110382   1.523   2.694   3.126
 3161SOL    HW210383   1.616   2.568   3.081
 3162SOL     OW10384   1.928   5.642   0.572
 3162SOL    HW110385   1.976   5.633   0.485
 3162SOL    HW210386   1.947   5.562   0.628
 3163SOL     OW10387   4.282   3.745   0.449
 3163SOL    HW110388   4.381   3.745   0.462
 3163SOL    HW210389   4.241   3.680   0.513
 3164SOL     OW10390   3.144   5.661   3.528
 3164SOL    HW110391   3.120   5.633   3.621
 3164SOL    HW210392   3.201   5.590   3.486
 3165SOL     OW10393   0.899   5.086   0.019
 3165SOL    HW110394   0.856   5.030   0.090
 3165SOL    HW210395   0.875   5.182   0.033
 3166SOL     OW10396   4.116   0.925   5.136
 3166SOL    HW110397   4.140   1.004   5.080
 3166SOL    HW210398   4.095   0.955   5.230
 3167SOL     OW10399   4.675   4.233   0.950
 3167SOL    HW110400   4.622   4.291   1.012
 3167SOL    HW210401   4.623   4.149   0.931
 3168SOL     OW10402   4.593   2.368   0.734
 3168SOL    HW110403   4.506   2.329   0.764
 3168SOL    HW210404   4.636   2.417   0.810
 3169SOL     OW10405   1.451   4.669   2.325
 3169SOL    HW110406   1.406   4.585   2.355
 3169SOL    HW210407   1.396   4.713   2.254
 3170SOL     OW10408   3.631   5.497   3.132
 3170SOL    HW110409   3.541   5.454   3.139
 3170SOL    HW210410   3.650   5.549   3.214
 3171SOL     OW10411   5.662   2.605   3.038
 3171SOL    HW110412   5.604   2.615   3.119
 3171SOL    HW210413   5.605   2.588   2.958
 3172SOL     OW10414   7.003   5.046   0.461
 3172SOL    HW110415   7.015   5.142   0.438
 3172SOL    HW210416   0.044   5.021   0.536
 3173SOL     OW10417   3.222   1.519   0.084
 3173SOL    HW110418   3.264   1.606   0.055
 3173SOL    HW210419   3.274   1.481   0.160
 3174SOL     OW10420   2.267   3.437   5.791
 3174SOL    HW110421   2.343   3.502   5.800
 3174SOL    HW210422   2.184   3.478   5.829
 3175SOL     OW10423   6.302   1.267   3.615
 3175SOL    HW110424   6.374   1.328   3.649
 3175SOL    HW210425   6.242   1.317   3.553
 3176SOL     OW10426   0.389   4.317   4.806
 3176SOL    HW110427   0.482   4.325   4.842
 3176SOL    HW210428   0.388   4.253   4.730
 3177SOL     OW10429   5.701   3.930   3.336
 3177SOL    HW110430   5.618   3.945   3.283
 3177SOL    HW210431   5.765   3.875   3.282
 3178SOL     OW10432   5.827   1.326   0.286
 3178SOL    HW110433   5.762   1.263   0.245
 3178SOL    HW210434   5.919   1.308   0.250
 3179SOL     OW10435   0.681   1.974   1.988
 3179SOL    HW110436   0.638   2.064   1.984
 3179SOL    HW210437   0.614   1.906   2.020
 3180SOL     OW10438   6.393   5.983   6.172
 3180SOL    HW110439   6.346   5.930   6.101
 3180SOL    HW210440   6.357   5.957   6.261
 3181SOL     OW10441   0.689   1.419   4.509
 3181SOL    HW110442   0.739   1.470   4.578
 3181SOL    HW210443   0.597   1.400   4.542
 3182SOL     OW10444   3.222   0.385   0.484
 3182SOL    HW110445   3.157   0.336   0.426
 3182SOL    HW210446   3.218   0.350   0.577
 3183SOL     OW10447   4.502   4.435   2.310
 3183SOL    HW110448   4.539   4.373   2.379
 3183SOL    HW210449   4.498   4.389   2.222
 3184SOL     OW10450   0.768   2.332   3.994
 3184SOL    HW110451   0.694   2.275   3.956
 3184SOL    HW210452   0.856   2.296   3.964
 3185SOL     OW10453   6.960   6.904   5.676
 3185SOL    HW110454   6.909   6.913   5.762
 3185SOL    HW210455   7.011   6.818   5.677
 3186SOL     OW10456   1.577   1.204   6.890
 3186SOL    HW110457   1.635   1.125   6.909
 3186SOL    HW210458   1.500   1.175   6.833
 3187SOL     OW10459   3.816   5.858   2.535
 3187SOL    HW110460   3.874   5.938   2.554
 3187SOL    HW210461   3.794   5.812   2.620
 3188SOL     OW10462   2.368   4.809   5.436
 3188SOL    HW110463   2.466   4.828   5.434
 3188SOL    HW210464   2.350   4.734   5.500
 3189SOL     OW10465   2.428   1.229   0.207
 3189SOL    HW110466   2.354   1.236   0.141
 3189SOL    HW210467   2.511   1.271   0.170
 3190SOL     OW10468   6.384   6.032   4.817
 3190SOL    HW110469   6.293   6.074   4.808
 3190SOL    HW210470   6.450   6.102   4.843
 3191SOL     OW10471   4.353   5.574   2.095
 3191SOL    HW110472   4.302   5.499   2.052
 3191SOL    HW210473   4.451   5.556   2.089
 3192SOL     OW10474   6.509   2.496   1.266
 3192SOL    HW110475   6.524   2.508   1.168
 3192SOL    HW210476   6.587   2.530   1.317
 3193SOL     OW10477   4.501   1.369   4.916
 3193SOL    HW110478   4.434   1.361   4.842
 3193SOL    HW210479   4.593   1.362   4.879
 3194SOL     OW10480   1.218   1.134   5.532
 3194SOL    HW110481   1.283   1.059   5.549
 3194SOL    HW210482   1.266   1.221   5.535
 3195SOL     OW10483   0.131   1.041   1.740
 3195SOL    HW110484   0.072   1.095   1.800
 3195SOL    HW210485   0.186   0.978   1.794
 3196SOL     OW10486   6.597   0.502   5.041
 3196SOL    HW110487   6.662   0.524   5.114
 3196SOL    HW210488   6.568   0.586   4.996
 3197SOL     OW10489   2.250   0.045   6.376
 3197SOL    HW110490   2.333   0.036   6.432
 3197SOL    HW210491   2.175   0.077   6.432
 3198SOL     OW10492   6.600   2.508   3.902
 3198SOL    HW110493   6.504   2.532   3.914
 3198SOL    HW210494   6.648   2.520   3.989
 3199SOL     OW10495   5.475   4.814   2.677
 3199SOL    HW110496   5.428   4.893   2.638
 3199SOL    HW210497   5.572   4.836   2.688
 3200SOL     OW10498   6.091   3.071   3.900
 3200SOL    HW110499   6.005   3.023   3.883
 3200SOL    HW210500   6.084   3.165   3.866
 3201SOL     OW10501   6.113   4.464   2.624
 3201SOL    HW110502   6.054   4.542   2.644
 3201SOL    HW210503   6.173   4.486   2.547
 3202SOL     OW10504   1.283   5.163   0.360
 3202SOL    HW110505   1.380   5.186   0.349
 3202SOL    HW210506   1.245   5.134   0.273
 3203SOL     OW10507   4.352   6.977   1.372
 3203SOL    HW110508   4.332   7.004   1.466
 3203SOL    HW210509   4.356   0.039   1.314
 3204SOL     OW10510   2.856   1.233   3.682
 3204SOL    HW110511   2.791   1.255   3.755
 3204SOL    HW210512   2.815   1.167   3.620
 3205SOL     OW10513   5.833   3.738   5.941
 3205SOL    HW110514   5.921   3.713   5.902
 3205SOL    HW210515   5.803   3.667   6.005
 3206SOL     OW10516   2.622   2.868   1.753
 3206SOL    HW110517   2.679   2.786   1.755
 3206SOL    HW210518   2.528   2.843   1.778
 3207SOL     OW10519   0.802   0.772   5.868
 3207SOL    HW110520   0.829   0.687   5.912
 3207SOL    HW210521   0.776   0.754   5.773
 3208SOL     OW10522   6.091   5.684   5.308
 3208SOL    HW110523   6.176   5.635   5.287
 3208SOL    HW210524   6.032   5.682   5.227
 3209SOL     OW10525   4.585   5.121   5.738
 3209SOL    HW110526   4.497   5.154   5.772
 3209SOL    HW210527   4.640   5.086   5.814
 3210SOL     OW10528   0.460   5.289   1.696
 3210SOL    HW110529   0.418   5.375   1.666
 3210SOL    HW210530   0.389   5.231   1.736
 3211SOL     OW10531   1.625   5.276   0.678
 3211SOL    HW110532   1.660   5.319   0.761
 3211SOL    HW210533   1.702   5.251   0.619
 3212SOL     OW10534   3.299   0.154   2.589
 3212SOL    HW110535   3.286   0.220   2.515
 3212SOL    HW210536   3.239   0.178   2.666
 3213SOL     OW10537   2.323   0.467   6.404
 3213SOL    HW110538   2.274   0.484   6.318
 3213SOL    HW210539   2.401   0.408   6.386
 3214SOL     OW10540   3.710   0.246   3.238
 3214SOL    HW110541   3.616   0.223   3.212
 3214SOL    HW210542   3.749   0.308   3.170
 3215SOL     OW10543   1.173   3.403   0.334
 3215SOL    HW110544   1.168   3.308   0.305
 3215SOL    HW210545   1.255   3.418   0.389
 3216SOL     OW10546   5.206   4.509   1.275
 3216SOL    HW110547   5.126   4.451   1.284
 3216SOL    HW210548   5.190   4.578   1.205
 3217SOL     OW10549   0.405   5.155   2.694
 3217SOL    HW110550   0.351   5.172   2.776
 3217SOL    HW210551   0.406   5.237   2.636
 3218SOL     OW10552   6.294   2.163   3.227
 3218SOL    HW110553   6.344   2.190   3.309
 3218SOL    HW210554   6.276   2.064   3.230
 3219SOL     OW10555   6.656   0.791   4.854
 3219SOL    HW110556   6.557   0.772   4.849
 3219SOL    HW210557   6.677   0.872   4.799
 3220SOL     OW10558   0.300   6.076   6.361
 3220SOL    HW110559   0.263   6.080   6.268
 3220SOL    HW210560   0.399   6.089   6.357
 3221SOL     OW10561   4.018   0.747   2.615
 3221SOL    HW110562   4.009   0.653   2.648
 3221SOL    HW210563   3.941   0.768   2.555
 3222SOL     OW10564   2.975   1.616   3.284
 3222SOL    HW110565   3.071   1.642   3.292
 3222SOL    HW210566   2.958   1.534   3.340
 3223SOL     OW10567   1.774   6.551   0.567
 3223SOL    HW110568   1.866   6.523   0.596
 3223SOL    HW210569   1.780   6.635   0.515
 3224SOL     OW10570   4.814   2.969   4.896
 3224SOL    HW110571   4.826   3.039   4.825
 3224SOL    HW210572   4.902   2.948   4.938
 3225SOL     OW10573   4.271   1.164   3.901
 3225SOL    HW110574   4.180   1.123   3.900
 3225SOL    HW210575   4.263   1.264   3.906
 3226SOL     OW10576   1.450   6.964   1.973
 3226SOL    HW110577   1.434   0.037   2.008
 3226SOL    HW210578   1.465   6.968   1.874
 3227SOL     OW10579   3.826   2.529   6.590
 3227SOL    HW110580   3.882   2.459   6.634
 3227SOL    HW210581   3.848   2.533   6.493
 3228SOL     OW10582   0.623   4.016   0.757
 3228SOL    HW110583   0.630   3.927   0.713
 3228SOL    HW210584   0.712   4.062   0.755
 3229SOL     OW10585   2.938   0.710   5.739
 3229SOL    HW110586   2.911   0.779   5.671
 3229SOL    HW210587   3.015   0.657   5.704
 3230SOL     OW10588   2.638   5.458   5.829
 3230SOL    HW110589   2.576   5.436   5.904
 3230SOL    HW210590   2.655   5.557   5.827
 3231SOL     OW10591   3.156   1.244   2.683
 3231SOL    HW110592   3.230   1.311   2.693
 3231SOL    HW210593   3.176   1.164   2.739
 3232SOL     OW10594   3.906   6.107   4.181
 3232SOL    HW110595   3.987   6.106   4.240
 3232SOL    HW210596   3.835   6.163   4.223
 3233SOL     OW10597   6.958   2.458   0.063
 3233SOL    HW110598   6.979   2.472   0.159
 3233SOL    HW210599   6.916   2.541   0.026
 3234SOL     OW10600   1.590   3.064   0.312
 3234SOL    HW110601   1.597   3.014   0.399
 3234SOL    HW210602   1.657   3.138   0.311
 3235SOL     OW10603   6.074   5.570   2.207
 3235SOL    HW110604   6.012   5.640   2.243
 3235SOL    HW210605   6.140   5.544   2.277
 3236SOL     OW10606   2.706   3.731   0.516
 3236SOL    HW110607   2.724   3.819   0.559
 3236SOL    HW210608   2.690   3.662   0.587
 3237SOL     OW10609   6.488   1.631   4.396
 3237SOL    HW110610   6.429   1.611   4.474
 3237SOL    HW210611   6.576   1.585   4.410
 3238SOL     OW10612   6.134   5.296   0.298
 3238SOL    HW110613   6.169   5.386   0.273
 3238SOL    HW210614   6.150   5.279   0.395
 3239SOL     OW10615   0.240   6.997   3.506
 3239SOL    HW110616   0.290   6.912   3.525
 3239SOL    HW210617   0.303   0.047   3.476
 3240SOL     OW10618   0.178   0.567   6.193
 3240SOL    HW110619   0.142   0.577   6.286
 3240SOL    HW210620   0.271   0.530   6.197
 3241SOL     OW10621   4.777   1.668   6.688
 3241SOL    HW110622   4.872   1.696   6.700
 3241SOL    HW210623   4.717   1.743   6.715
 3242SOL     OW10624   5.233   4.138   5.503
 3242SOL    HW110625   5.199   4.224   5.464
 3242SOL    HW210626   5.244   4.071   5.430
 3243SOL     OW10627   3.712   5.596   6.409
 3243SOL    HW110628   3.730   5.517   6.468
 3243SOL    HW210629   3.754   5.581   6.319
 3244SOL     OW10630   5.904   6.202   0.023
 3244SOL    HW110631   5.996   6.224   7.009
 3244SOL    HW210632   5.906   6.198   0.123
 3245SOL     OW10633   4.504   2.129   4.044
 3245SOL    HW110634   4.504   2.180   3.958
 3245SOL    HW210635   4.571   2.168   4.106
 3246SOL     OW10636   0.037   0.053   2.205
 3246SOL    HW110637   6.995   0.131   2.221
 3246SOL    HW210638   7.009   6.988   2.227
 3247SOL     OW10639   0.379   4.289   2.581
 3247SOL    HW110640   0.328   4.205   2.561
 3247SOL    HW210641   0.315   4.361   2.607
 3248SOL     OW10642   5.425   2.623   2.835
 3248SOL    HW110643   5.357   2.555   2.806
 3248SOL    HW210644   5.387   2.714   2.826
 3249SOL     OW10645   3.850   2.980   3.259
 3249SOL    HW110646   3.795   2.925   3.322
 3249SOL    HW210647   3.867   3.069   3.300
 3250SOL     OW10648   4.883   6.269   3.432
 3250SOL    HW110649   4.805   6.308   3.482
 3250SOL    HW210650   4.869   6.171   3.420
 3251SOL     OW10651   2.503   0.852   4.710
 3251SOL    HW110652   2.512   0.752   4.713
 3251SOL    HW210653   2.447   0.882   4.788
 3252SOL     OW10654   2.728   1.372   3.274
 3252SOL    HW110655   2.742   1.465   3.240
 3252SOL    HW210656   2.770   1.362   3.364
 3253SOL     OW10657   5.402   3.408   1.067
 3253SOL    HW110658   5.471   3.339   1.047
 3253SOL    HW210659   5.426   3.456   1.152
 3254SOL     OW10660   5.171   0.294   6.998
 3254SOL    HW110661   5.243   0.360   6.976
 3254SOL    HW210662   5.100   0.297   6.928
 3255SOL     OW10663   5.937   5.832   0.758
 3255SOL    HW110664   5.921   5.788   0.670
 3255SOL    HW210665   5.978   5.766   0.822
 3256SOL     OW10666   4.415   2.156   1.235
 3256SOL    HW110667   4.439   2.067   1.196
 3256SOL    HW210668   4.393   2.220   1.162
 3257SOL     OW10669   3.038   2.133   1.882
 3257SOL    HW110670   3.134   2.161   1.891
 3257SOL    HW210671   2.980   2.198   1.931
 3258SOL     OW10672   3.457   5.685   4.161
 3258SOL    HW110673   3.408   5.610   4.116
 3258SOL    HW210674   3.555   5.672   4.151
 3259SOL     OW10675   5.632   4.795   4.124
 3259SOL    HW110676   5.559   4.862   4.134
 3259SOL    HW210677   5.594   4.703   4.135
 3260SOL     OW10678   1.556   4.179   2.495
 3260SOL    HW110679   1.652   4.196   2.472
 3260SOL    HW210680   1.499   4.199   2.416
 3261SOL     OW10681   5.531   0.838   2.617
 3261SOL    HW110682   5.511   0.756   2.563
 3261SOL    HW210683   5.628   0.838   2.641
 3262SOL     OW10684   4.280   2.028   2.346
 3262SOL    HW110685   4.278   1.934   2.381
 3262SOL    HW210686   4.344   2.033   2.269
 3263SOL     OW10687   3.113   0.989   3.344
 3263SOL    HW110688   3.084   1.081   3.317
 3263SOL    HW210689   3.212   0.981   3.336
 3264SOL     OW10690   2.040   4.741   0.557
 3264SOL    HW110691   2.112   4.789   0.507
 3264SOL    HW210692   1.984   4.688   0.493
 3265SOL     OW10693   6.060   6.261   5.582
 3265SOL    HW110694   6.026   6.329   5.647
 3265SOL    HW210695   6.117   6.194   5.630
 3266SOL     OW10696   2.622   4.153   0.194
 3266SOL    HW110697   2.678   4.078   0.230
 3266SOL    HW210698   2.681   4.222   0.152
 3267SOL     OW10699   4.311   0.862   1.530
 3267SOL    HW110700   4.377   0.797   1.568
 3267SOL    HW210701   4.225   0.856   1.582
 3268SOL     OW10702   1.095   4.712   1.594
 3268SOL    HW110703   1.081   4.807   1.625
 3268SOL    HW210704   1.106   4.653   1.673
 3269SOL     OW10705   0.396   5.436   1.963
 3269SOL    HW110706   0.322   5.379   1.926
 3269SOL    HW210707   0.402   5.520   1.909
 3270SOL     OW10708   1.078   3.012   6.088
 3270SOL    HW110709   1.073   3.008   5.988
 3270SOL    HW210710   1.169   2.981   6.118
 3271SOL     OW10711   6.566   3.500   1.692
 3271SOL    HW110712   6.471   3.528   1.702
 3271SOL    HW210713   6.592   3.507   1.595
 3272SOL     OW10714   4.013   5.703   6.834
 3272SOL    HW110715   4.006   5.727   6.931
 3272SOL    HW210716   4.108   5.682   6.811
 3273SOL     OW10717   4.656   4.160   6.018
 3273SOL    HW110718   4.560   4.170   6.043
 3273SOL    HW210719   4.693   4.250   5.993
 3274SOL     OW10720   6.181   0.698   6.958
 3274SOL    HW110721   6.184   0.790   6.921
 3274SOL    HW210722   6.174   0.632   6.882
 3275SOL     OW10723   4.888   0.611   0.767
 3275SOL    HW110724   4.806   0.630   0.820
 3275SOL    HW210725   4.968   0.647   0.816
 3276SOL     OW10726   4.623   6.447   6.751
 3276SOL    HW110727   4.531   6.462   6.716
 3276SOL    HW210728   4.636   6.350   6.771
 3277SOL     OW10729   3.136   1.579   1.325
 3277SOL    HW110730   3.043   1.601   1.356
 3277SOL    HW210731   3.161   1.640   1.250
 3278SOL     OW10732   0.017   0.786   6.079
 3278SOL    HW110733   0.086   0.721   6.111
 3278SOL    HW210734   6.988   0.746   6.001
 3279SOL     OW10735   4.257   6.402   0.953
 3279SOL    HW110736   4.295   6.378   0.864
 3279SOL    HW210737   4.169   6.355   0.966
 3280SOL     OW10738   5.586   3.745   4.158
 3280SOL    HW110739   5.682   3.752   4.130
 3280SOL    HW210740   5.528   3.734   4.077
 3281SOL     OW10741   6.964   4.628   1.362
 3281SOL    HW110742   0.015   4.576   1.411
 3281SOL    HW210743   6.907   4.676   1.428
 3282SOL     OW10744   0.600   3.965   4.972
 3282SOL    HW110745   0.685   3.915   4.956
 3282SOL    HW210746   0.524   3.918   4.928
 3283SOL     OW10747   3.728   1.518   1.464
 3283SOL    HW110748   3.732   1.615   1.488
 3283SOL    HW210749   3.649   1.475   1.508
 3284SOL     OW10750   1.280   5.521   4.535
 3284SOL    HW110751   1.217   5.599   4.530
 3284SOL    HW210752   1.367   5.551   4.576
 3285SOL     OW10753   5.701   1.931   4.544
 3285SOL    HW110754   5.755   1.847   4.541
 3285SOL    HW210755   5.608   1.913   4.514
 3286SOL     OW10756   3.584   2.033   1.630
 3286SOL    HW110757   3.655   2.021   1.700
 3286SOL    HW210758   3.533   2.117   1.647
 3287SOL     OW10759   0.848   0.337   6.466
 3287SOL    HW110760   0.850   0.270   6.392
 3287SOL    HW210761   0.822   0.291   6.551
 3288SOL     OW10762   1.987   6.543   0.229
 3288SOL    HW110763   1.986   6.446   0.204
 3288SOL    HW210764   1.895   6.572   0.253
 3289SOL     OW10765   3.325   1.756   0.021
 3289SOL    HW110766   3.282   1.845   0.014
 3289SOL    HW210767   3.296   1.699   6.964
 3290SOL     OW10768   6.834   5.536   0.339
 3290SOL    HW110769   6.905   5.590   0.294
 3290SOL    HW210770   6.825   5.565   0.435
 3291SOL     OW10771   3.970   0.580   6.451
 3291SOL    HW110772   4.015   0.669   6.465
 3291SOL    HW210773   4.038   0.507   6.459
 3292SOL     OW10774   0.187   1.346   1.073
 3292SOL    HW110775   0.225   1.253   1.075
 3292SOL    HW210776   0.160   1.369   0.979
 3293SOL     OW10777   6.834   4.514   2.542
 3293SOL    HW110778   6.746   4.535   2.497
 3293SOL    HW210779   6.818   4.455   2.621
 3294SOL     OW10780   5.407   2.790   5.667
 3294SOL    HW110781   5.341   2.802   5.741
 3294SOL    HW210782   5.500   2.803   5.702
 3295SOL     OW10783   1.903   3.045   0.530
 3295SOL    HW110784   1.973   3.005   0.470
 3295SOL    HW210785   1.817   2.997   0.516
 3296SOL     OW10786   6.329   0.011   5.367
 3296SOL    HW110787   6.386   6.954   5.337
 3296SOL    HW210788   6.234   7.001   5.376
 3297SOL     OW10789   3.466   1.682   4.971
 3297SOL    HW110790   3.544   1.744   4.976
 3297SOL    HW210791   3.467   1.635   4.883
 3298SOL     OW10792   6.209   3.841   5.340
 3298SOL    HW110793   6.257   3.778   5.402
 3298SOL    HW210794   6.212   3.806   5.247
 3299SOL     OW10795   3.959   5.430   3.506
 3299SOL    HW110796   4.027   5.486   3.459
 3299SOL    HW210797   3.956   5.454   3.603
 3300SOL     OW10798   2.097   0.392   5.442
 3300SOL    HW110799   2.044   0.423   5.363
 3300SOL    HW210800   2.047   0.320   5.490
 3301SOL     OW10801   1.213   3.051   3.203
 3301SOL    HW110802   1.307   3.084   3.193
 3301SOL    HW210803   1.198   2.973   3.142
 3302SOL     OW10804   0.843   4.656   6.599
 3302SOL    HW110805   0.813   4.563   6.622
 3302SOL    HW210806   0.776   4.699   6.539
 3303SOL     OW10807   3.350   3.033   0.479
 3303SOL    HW110808   3.391   3.122   0.496
 3303SOL    HW210809   3.253   3.036   0.505
 3304SOL     OW10810   2.269   4.254   6.362
 3304SOL    HW110811   2.258   4.288   6.456
 3304SOL    HW210812   2.200   4.296   6.303
 3305SOL     OW10813   3.443   0.843   0.860
 3305SOL    HW110814   3.519   0.908   0.859
 3305SOL    HW210815   3.368   0.880   0.914
 3306SOL     OW10816   1.335   5.798   6.745
 3306SOL    HW110817   1.408   5.795   6.677
 3306SOL    HW210818   1.267   5.866   6.719
 3307SOL     OW10819   0.999   0.133   6.089
 3307SOL    HW110820   1.075   0.142   6.153
 3307SOL    HW210821   1.026   0.078   6.011
 3308SOL     OW10822   4.097   4.640   1.416
 3308SOL    HW110823   4.055   4.700   1.484
 3308SOL    HW210824   4.160   4.576   1.461
 3309SOL     OW10825   5.087   4.608   3.892
 3309SOL    HW110826   5.056   4.547   3.965
 3309SOL    HW210827   5.186   4.620   3.899
 3310SOL     OW10828   1.123   4.587   4.681
 3310SOL    HW110829   1.213   4.563   4.717
 3310SOL    HW210830   1.134   4.646   4.600
 3311SOL     OW10831   3.632   3.612   1.401
 3311SOL    HW110832   3.557   3.570   1.350
 3311SOL    HW210833   3.597   3.690   1.454
 3312SOL     OW10834   4.162   3.116   5.765
 3312SOL    HW110835   4.162   3.149   5.860
 3312SOL    HW210836   4.231   3.045   5.755
 3313SOL     OW10837   0.966   0.508   3.408
 3313SOL    HW110838   0.915   0.584   3.448
 3313SOL    HW210839   0.984   0.439   3.478
 3314SOL     OW10840   2.404   0.541   3.238
 3314SOL    HW110841   2.486   0.582   3.277
 3314SOL    HW210842   2.393   0.573   3.144
 3315SOL     OW10843   0.963   4.471   5.209
 3315SOL    HW110844   0.901   4.439   5.138
 3315SOL    HW210845   1.045   4.511   5.168
 3316SOL     OW10846   3.499   0.616   6.218
 3316SOL    HW110847   3.468   0.570   6.135
 3316SOL    HW210848   3.599   0.616   6.221
 3317SOL     OW10849   5.550   2.081   2.672
 3317SOL    HW110850   5.621   2.081   2.742
 3317SOL    HW210851   5.578   2.020   2.597
 3318SOL     OW10852   2.559   1.882   6.725
 3318SOL    HW110853   2.582   1.954   6.659
 3318SOL    HW210854   2.635   1.871   6.790
 3319SOL     OW10855   0.010   0.074   2.713
 3319SOL    HW110856   6.983   7.007   2.729
 3319SOL    HW210857   0.064   0.068   2.629
 3320SOL     OW10858   6.441   0.342   6.978
 3320SOL    HW110859   6.397   0.257   7.008
 3320SOL    HW210860   6.392   0.420   7.017
 3321SOL     OW10861   5.476   1.691   0.800
 3321SOL    HW110862   5.518   1.692   0.891
 3321SOL    HW210863   5.376   1.698   0.810
 3322SOL     OW10864   6.708   3.230   0.775
 3322SOL    HW110865   6.715   3.150   0.835
 3322SOL    HW210866   6.791   3.286   0.783
 3323SOL     OW10867   2.778   1.385   1.292
 3323SOL    HW110868   2.708   1.357   1.357
 3323SOL    HW210869   2.841   1.449   1.335
 3324SOL     OW10870   4.559   5.767   5.797
 3324SOL    HW110871   4.531   5.686   5.849
 3324SOL    HW210872   4.654   5.757   5.768
 3325SOL     OW10873   0.538   3.237   6.585
 3325SOL    HW110874   0.452   3.210   6.628
 3325SOL    HW210875   0.604   3.261   6.656
 3326SOL     OW10876   4.972   0.920   2.735
 3326SOL    HW110877   4.962   0.968   2.822
 3326SOL    HW210878   4.904   0.954   2.670
 3327SOL     OW10879   2.224   5.815   2.202
 3327SOL    HW110880   2.265   5.844   2.288
 3327SOL    HW210881   2.218   5.894   2.140
 3328SOL     OW10882   3.690   1.761   1.577
 3328SOL    HW110883   3.772   1.778   1.631
 3328SOL    HW210884   3.612   1.807   1.619
 3329SOL     OW10885   5.905   0.034   5.569
 3329SOL    HW110886   5.972   6.980   5.568
 3329SOL    HW210887   5.951   0.122   5.560
 3330SOL     OW10888   7.001   3.539   2.192
 3330SOL    HW110889   0.001   3.468   2.260
 3330SOL    HW210890   0.041   3.617   2.206
 3331SOL     OW10891   2.021   2.598   1.191
 3331SOL    HW110892   2.091   2.607   1.120
 3331SOL    HW210893   2.063   2.600   1.281
 3332SOL     OW10894   5.483   5.667   0.146
 3332SOL    HW110895   5.388   5.637   0.149
 3332SOL    HW210896   5.524   5.657   0.237
 3333SOL     OW10897   4.266   5.074   6.695
 3333SOL    HW110898   4.196   5.113   6.755
 3333SOL    HW210899   4.357   5.100   6.727
 3334SOL     OW10900   3.429   3.453   1.313
 3334SOL    HW110901   3.340   3.440   1.269
 3334SOL    HW210902   3.453   3.370   1.364
 3335SOL     OW10903   4.623   5.364   5.622
 3335SOL    HW110904   4.629   5.267   5.644
 3335SOL    HW210905   4.620   5.418   5.706
 3336SOL     OW10906   2.953   5.436   5.689
 3336SOL    HW110907   2.974   5.353   5.742
 3336SOL    HW210908   2.928   5.510   5.752
 3337SOL     OW10909   3.829   2.667   1.405
 3337SOL    HW110910   3.760   2.604   1.370
 3337SOL    HW210911   3.809   2.688   1.501
 3338SOL     OW10912   5.761   3.835   1.166
 3338SOL    HW110913   5.823   3.768   1.125
 3338SOL    HW210914   5.778   3.925   1.127
 3339SOL     OW10915   6.850   6.447   6.670
 3339SOL    HW110916   6.857   6.434   6.571
 3339SOL    HW210917   6.940   6.442   6.712
 3340SOL     OW10918   3.569   6.867   1.962
 3340SOL    HW110919   3.540   6.808   2.038
 3340SOL    HW210920   3.491   6.923   1.932
 3341SOL     OW10921   0.497   6.888   2.987
 3341SOL    HW110922   0.543   6.801   2.967
 3341SOL    HW210923   0.554   6.942   3.050
 3342SOL     OW10924   2.289   0.002   4.132
 3342SOL    HW110925   2.356   0.012   4.059
 3342SOL    HW210926   2.334   0.013   4.221
 3343SOL     OW10927   4.847   3.345   0.534
 3343SOL    HW110928   4.793   3.378   0.456
 3343SOL    HW210929   4.911   3.416   0.563
 3344SOL     OW10930   5.381   3.681   4.900
 3344SOL    HW110931   5.450   3.641   4.962
 3344SOL    HW210932   5.291   3.676   4.944
 3345SOL     OW10933   2.839   3.426   5.963
 3345SOL    HW110934   2.762   3.461   5.910
 3345SOL    HW210935   2.890   3.360   5.908
 3346SOL     OW10936   0.746   1.061   2.191
 3346SOL    HW110937   0.677   1.128   2.221
 3346SOL    HW210938   0.807   1.040   2.268
 3347SOL     OW10939   6.911   4.366   3.095
 3347SOL    HW110940   6.980   4.298   3.120
 3347SOL    HW210941   6.943   4.419   3.016
 3348SOL     OW10942   3.504   3.118   3.631
 3348SOL    HW110943   3.430   3.148   3.571
 3348SOL    HW210944   3.491   3.022   3.656
 3349SOL     OW10945   6.822   4.688   4.324
 3349SOL    HW110946   6.752   4.619   4.308
 3349SOL    HW210947   6.845   4.733   4.238
 3350SOL     OW10948   1.815   1.008   6.742
 3350SOL    HW110949   1.800   0.984   6.647
 3350SOL    HW210950   1.791   0.931   6.801
 3351SOL     OW10951   5.485   0.320   1.335
 3351SOL    HW110952   5.535   0.366   1.262
 3351SOL    HW210953   5.549   0.287   1.404
 3352SOL     OW10954   0.401   3.927   0.117
 3352SOL    HW110955   0.307   3.899   0.137
 3352SOL    HW210956   0.402   3.984   0.035
 3353SOL     OW10957   1.637   0.078   1.000
 3353SOL    HW110958   1.595   0.169   0.991
 3353SOL    HW210959   1.584   0.012   0.948
 3354SOL     OW10960   6.537   2.458   3.507
 3354SOL    HW110961   6.608   2.456   3.577
 3354SOL    HW210962   6.579   2.466   3.416
 3355SOL     OW10963   0.530   2.073   0.278
 3355SOL    HW110964   0.592   2.075   0.356
 3355SOL    HW210965   0.468   1.995   0.286
 3356SOL     OW10966   2.715   2.840   0.281
 3356SOL    HW110967   2.732   2.935   0.307
 3356SOL    HW210968   2.724   2.781   0.361
 3357SOL     OW10969   2.156   4.739   1.426
 3357SOL    HW110970   2.159   4.830   1.467
 3357SOL    HW210971   2.244   4.719   1.382
 3358SOL     OW10972   4.961   6.310   2.347
 3358SOL    HW110973   4.976   6.329   2.250
 3358SOL    HW210974   4.884   6.364   2.380
 3359SOL     OW10975   0.204   0.439   3.001
 3359SOL    HW110976   0.189   0.538   2.994
 3359SOL    HW210977   0.116   0.392   3.002
 3360SOL     OW10978   0.306   0.963   0.271
 3360SOL    HW110979   0.275   1.017   0.349
 3360SOL    HW210980   0.400   0.932   0.287
 3361SOL     OW10981   6.459   5.823   3.042
 3361SOL    HW110982   6.493   5.756   3.108
 3361SOL    HW210983   6.485   5.795   2.950
 3362SOL     OW10984   2.892   1.339   4.828
 3362SOL    HW110985   2.834   1.270   4.871
 3362SOL    HW210986   2.934   1.301   4.745
 3363SOL     OW10987   0.483   1.009   6.148
 3363SOL    HW110988   0.490   0.983   6.244
 3363SOL    HW210989   0.408   1.074   6.137
 3364SOL     OW10990   1.113   5.895   5.866
 3364SOL    HW110991   1.157   5.915   5.778
 3364SOL    HW210992   1.063   5.808   5.859
 3365SOL     OW10993   0.744   1.779   4.449
 3365SOL    HW110994   0.661   1.829   4.476
 3365SOL    HW210995   0.797   1.835   4.385
 3366SOL     OW10996   5.340   1.190   4.707
 3366SOL    HW110997   5.384   1.171   4.794
 3366SOL    HW210998   5.330   1.106   4.654
 3367SOL     OW10999   2.099   2.585   1.464
 3367SOL    HW111000   2.066   2.634   1.545
 3367SOL    HW211001   2.191   2.617   1.441
 3368SOL     OW11002   6.928   5.186   6.045
 3368SOL    HW111003   7.004   5.145   6.095
 3368SOL    HW211004   6.933   5.286   6.052
 3369SOL     OW11005   3.425   1.481   0.273
 3369SOL    HW111006   3.424   1.577   0.298
 3369SOL    HW211007   3.498   1.434   0.323
 3370SOL     OW11008   6.260   0.050   4.821
 3370SOL    HW111009   6.237   0.055   4.724
 3370SOL    HW211010   6.250   6.975   4.852
 3371SOL     OW11011   1.569   4.202   2.095
 3371SOL    HW111012   1.640   4.247   2.040
 3371SOL    HW211013   1.581   4.103   2.091
 3372SOL     OW11014   0.333   1.491   2.071
 3372SOL    HW111015   0.413   1.519   2.125
 3372SOL    HW211016   0.357   1.413   2.014
 3373SOL     OW11017   6.312   0.965   4.339
 3373SOL    HW111018   6.279   0.893   4.278
 3373SOL    HW211019   6.328   0.927   4.430
 3374SOL     OW11020   3.870   5.857   5.133
 3374SOL    HW111021   3.927   5.939   5.145
 3374SOL    HW211022   3.779   5.885   5.102
 3375SOL     OW11023   4.282   4.737   4.856
 3375SOL    HW111024   4.183   4.746   4.860
 3375SOL    HW211025   4.311   4.658   4.911
 3376SOL     OW11026   4.115   3.357   2.929
 3376SOL    HW111027   4.109   3.292   3.004
 3376SOL    HW211028   4.183   3.427   2.950
 3377SOL     OW11029   1.328   6.542   4.887
 3377SOL    HW111030   1.328   6.631   4.933
 3377SOL    HW211031   1.344   6.470   4.953
 3378SOL     OW11032   6.679   1.056   0.742
 3378SOL    HW111033   6.632   1.003   0.813
 3378SOL    HW211034   6.774   1.071   0.768
 3379SOL     OW11035   0.704   4.249   6.105
 3379SOL    HW111036   0.605   4.241   6.120
 3379SOL    HW211037   0.722   4.258   6.007
 3380SOL     OW11038   0.144   5.492   5.684
 3380SOL    HW111039   0.081   5.416   5.697
 3380SOL    HW211040   0.178   5.522   5.773
 3381SOL     OW11041   2.346   2.068   0.564
 3381SOL    HW111042   2.360   1.974   0.533
 3381SOL    HW211043   2.422   2.096   0.622
 3382SOL     OW11044   0.203   1.607   0.250
 3382SOL    HW111045   0.271   1.548   0.293
 3382SOL    HW211046   0.170   1.564   0.166
 3383SOL     OW11047   6.245   5.187   2.580
 3383SOL    HW111048   6.287   5.207   2.491
 3383SOL    HW211049   6.280   5.099   2.614
 3384SOL     OW11050   3.087   3.068   4.972
 3384SOL    HW111051   3.030   3.112   5.042
 3384SOL    HW211052   3.141   2.995   5.015
 3385SOL     OW11053   7.016   3.881   4.026
 3385SOL    HW111054   6.961   3.829   4.091
 3385SOL    HW211055   0.063   3.820   3.983
 3386SOL     OW11056   5.993   3.960   5.217
 3386SOL    HW111057   6.063   3.951   5.288
 3386SOL    HW211058   5.929   4.032   5.243
 3387SOL     OW11059   2.460   2.238   2.528
 3387SOL    HW111060   2.439   2.296   2.607
 3387SOL    HW211061   2.545   2.269   2.485
 3388SOL     OW11062   5.522   3.274   0.799
 3388SOL    HW111063   5.426   3.290   0.778
 3388SOL    HW211064   5.580   3.316   0.729
 3389SOL     OW11065   4.496   4.455   4.459
 3389SOL    HW111066   4.420   4.507   4.497
 3389SOL    HW211067   4.490   4.455   4.360
 3390SOL     OW11068   5.191   3.500   5.937
 3390SOL    HW111069   5.224   3.585   5.894
 3390SOL    HW211070   5.154   3.439   5.867
 3391SOL     OW11071   3.934   1.729   4.771
 3391SOL    HW111072   3.878   1.785   4.710
 3391SOL    HW211073   3.919   1.757   4.866
 3392SOL     OW11074   2.601   1.009   4.313
 3392SOL    HW111075   2.527   1.023   4.379
 3392SOL    HW211076   2.576   0.935   4.251
 3393SOL     OW11077   6.486   6.601   0.697
 3393SOL    HW111078   6.388   6.599   0.674
 3393SOL    HW211079   6.540   6.577   0.617
 3394SOL     OW11080   5.514   3.081   1.162
 3394SOL    HW111081   5.434   3.073   1.102
 3394SOL    HW211082   5.583   3.138   1.118
 3395SOL     OW11083   6.472   3.283   3.989
 3395SOL    HW111084   6.406   3.358   3.983
 3395SOL    HW211085   6.479   3.238   3.900
 3396SOL     OW11086   0.195   3.020   3.852
 3396SOL    HW111087   0.227   3.069   3.933
 3396SOL    HW211088   0.271   3.007   3.789
 3397SOL     OW11089   3.718   1.069   5.364
 3397SOL    HW111090   3.797   1.128   5.346
 3397SOL    HW211091   3.711   1.052   5.462
 3398SOL     OW11092   0.633   0.215   4.137
 3398SOL    HW111093   0.623   0.308   4.103
 3398SOL    HW211094   0.566   0.156   4.093
 3399SOL     OW11095   4.422   4.653   4.236
 3399SOL    HW111096   4.421   4.654   4.136
 3399SOL    HW211097   4.333   4.680   4.271
 3400SOL     OW11098   4.206   1.685   6.065
 3400SOL    HW111099   4.298   1.703   6.030
 3400SOL    HW211100   4.207   1.694   6.165
 3401SOL     OW11101   6.766   4.013   0.674
 3401SOL    HW111102   6.851   3.982   0.716
 3401SOL    HW211103   6.701   4.038   0.747
 3402SOL     OW11104   5.390   5.809   1.169
 3402SOL    HW111105   5.320   5.738   1.173
 3402SOL    HW211106   5.445   5.797   1.086
 3403SOL     OW11107   4.084   0.553   5.388
 3403SOL    HW111108   4.085   0.574   5.290
 3403SOL    HW211109   4.157   0.488   5.409
 3404SOL     OW11110   4.162   1.822   0.633
 3404SOL    HW111111   4.125   1.888   0.568
 3404SOL    HW211112   4.089   1.793   0.695
 3405SOL     OW11113   6.403   3.688   5.438
 3405SOL    HW111114   6.421   3.635   5.354
 3405SOL    HW211115   6.467   3.764   5.444
 3406SOL     OW11116   1.933   4.475   1.867
 3406SOL    HW111117   1.972   4.491   1.958
 3406SOL    HW211118   1.990   4.519   1.798
 3407SOL     OW11119   1.881   5.399   1.629
 3407SOL    HW111120   1.912   5.469   1.565
 3407SOL    HW211121   1.866   5.439   1.719
 3408SOL     OW11122   5.020   4.100   4.084
 3408SOL    HW111123   4.997   4.070   3.991
 3408SOL    HW211124   4.946   4.075   4.146
 3409SOL     OW11125   4.046   6.975   5.596
 3409SOL    HW111126   4.030   6.881   5.564
 3409SOL    HW211127   4.133   6.979   5.645
 3410SOL     OW11128   6.220   6.117   6.751
 3410SOL    HW111129   6.170   6.133   6.666
 3410SOL    HW211130   6.199   6.026   6.786
 3411SOL     OW11131   6.254   2.525   2.275
 3411SOL    HW111132   6.183   2.534   2.344
 3411SOL    HW211133   6.335   2.577   2.304
 3412SOL     OW11134   4.135   2.929   0.192
 3412SOL    HW111135   4.088   3.017   0.194
 3412SOL    HW211136   4.102   2.876   0.114
 3413SOL     OW11137   4.045   1.327   2.757
 3413SOL    HW111138   4.016   1.338   2.662
 3413SOL    HW211139   3.996   1.392   2.815
 3414SOL     OW11140   3.045   1.628   5.168
 3414SOL    HW111141   3.045   1.612   5.070
 3414SOL    HW211142   3.132   1.670   5.196
 3415SOL     OW11143   1.345   4.475   4.492
 3415SOL    HW111144   1.349   4.389   4.541
 3415SOL    HW211145   1.414   4.538   4.530
 3416SOL     OW11146   0.247   4.652   5.993
 3416SOL    HW111147   0.308   4.649   6.073
 3416SOL    HW211148   0.228   4.559   5.963
 3417SOL     OW11149   6.248   5.843   2.654
 3417SOL    HW111150   6.173   5.885   2.604
 3417SOL    HW211151   6.234   5.855   2.752
 3418SOL     OW11152   4.535   1.240   4.055
 3418SOL    HW111153   4.558   1.314   3.991
 3418SOL    HW211154   4.468   1.273   4.121
 3419SOL     OW11155   3.553   5.430   6.177
 3419SOL    HW111156   3.483   5.477   6.123
 3419SOL    HW211157   3.511   5.394   6.260
 3420SOL     OW11158   4.633   2.027   3.766
 3420SOL    HW111159   4.562   1.965   3.799
 3420SOL    HW211160   4.711   2.026   3.829
 3421SOL     OW11161   6.242   0.757   5.504
 3421SOL    HW111162   6.255   0.832   5.569
 3421SOL    HW211163   6.330   0.720   5.477
 3422SOL     OW11164   3.687   0.284   1.265
 3422SOL    HW111165   3.738   0.211   1.221
 3422SOL    HW211166   3.719   0.295   1.359
 3423SOL     OW11167   2.058   0.829   0.550
 3423SOL    HW111168   2.085   0.742   0.591
 3423SOL    HW211169   1.958   0.830   0.538
 3424SOL     OW11170   3.604   0.923   2.634
 3424SOL    HW111171   3.574   0.991   2.566
 3424SOL    HW211172   3.676   0.963   2.690
 3425SOL     OW11173   5.013   4.186   2.345
 3425SOL    HW111174   4.914   4.182   2.339
 3425SOL    HW211175   5.040   4.212   2.438
 3426SOL     OW11176   3.428   3.561   0.502
 3426SOL    HW111177   3.397   3.500   0.575
 3426SOL    HW211178   3.441   3.508   0.418
 3427SOL     OW11179   6.491   6.525   6.967
 3427SOL    HW111180   6.555   6.573   6.905
 3427SOL    HW211181   6.525   6.433   6.984
 3428SOL     OW11182   3.932   5.197   1.475
 3428SOL    HW111183   3.856   5.209   1.411
 3428SOL    HW211184   3.916   5.252   1.557
 3429SOL     OW11185   0.645   2.131   6.815
 3429SOL    HW111186   0.650   2.197   6.740
 3429SOL    HW211187   0.699   2.050   6.793
 3430SOL     OW11188   1.102   6.570   6.371
 3430SOL    HW111189   1.041   6.610   6.440
 3430SOL    HW211190   1.127   6.477   6.398
 3431SOL     OW11191   2.425   6.743   0.972
 3431SOL    HW111192   2.483   6.818   0.939
 3431SOL    HW211193   2.433   6.665   0.910
 3432SOL     OW11194   2.675   2.378   5.298
 3432SOL    HW111195   2.745   2.337   5.239
 3432SOL    HW211196   2.639   2.461   5.255
 3433SOL     OW11197   2.366   0.503   6.817
 3433SOL    HW111198   2.386   0.457   6.903
 3433SOL    HW211199   2.437   0.570   6.797
 3434SOL     OW11200   3.253   2.639   0.639
 3434SOL    HW111201   3.346   2.617   0.611
 3434SOL    HW211202   3.253   2.674   0.733
 3435SOL     OW11203   0.082   1.972   1.359
 3435SOL    HW111204   0.077   1.872   1.370
 3435SOL    HW211205   0.174   2.003   1.384
 3436SOL     OW11206   4.594   0.043   5.392
 3436SOL    HW111207   4.623   6.974   5.426
 3436SOL    HW211208   4.579   0.038   5.294
 3437SOL     OW11209   4.601   1.056   6.286
 3437SOL    HW111210   4.520   1.016   6.330
 3437SOL    HW211211   4.666   1.086   6.356
 3438SOL     OW11212   1.737   2.831   6.283
 3438SOL    HW111213   1.815   2.874   6.236
 3438SOL    HW211214   1.666   2.809   6.216
 3439SOL     OW11215   2.896   6.892   5.305
 3439SOL    HW111216   2.858   6.900   5.398
 3439SOL    HW211217   2.870   6.972   5.252
 3440SOL     OW11218   4.959   3.387   1.711
 3440SOL    HW111219   5.037   3.438   1.674
 3440SOL    HW211220   4.945   3.304   1.657
 3441SOL     OW11221   4.892   0.411   2.963
 3441SOL    HW111222   4.950   0.444   3.038
 3441SOL    HW211223   4.796   0.414   2.992
 3442SOL     OW11224   2.368   4.323   3.337
 3442SOL    HW111225   2.295   4.366   3.283
 3442SOL    HW211226   2.447   4.384   3.340
 3443SOL     OW11227   5.322   0.903   3.200
 3443SOL    HW111228   5.246   0.954   3.240
 3443SOL    HW211229   5.393   0.966   3.170
 3444SOL     OW11230   5.031   5.527   6.774
 3444SOL    HW111231   4.996   5.436   6.795
 3444SOL    HW211232   5.122   5.519   6.734
 3445SOL     OW11233   6.186   4.207   4.034
 3445SOL    HW111234   6.190   4.303   4.064
 3445SOL    HW211235   6.104   4.164   4.072
 3446SOL     OW11236   5.400   0.272   2.859
 3446SOL    HW111237   5.435   0.223   2.938
 3446SOL    HW211238   5.317   0.322   2.885
 3447SOL     OW11239   5.172   4.906   0.148
 3447SOL    HW111240   5.262   4.939   0.177
 3447SOL    HW211241   5.177   4.807   0.133
 3448SOL     OW11242   3.921   6.598   1.175
 3448SOL    HW111243   3.861   6.518   1.175
 3448SOL    HW211244   3.993   6.586   1.243
 3449SOL     OW11245   6.132   6.338   2.642
 3449SOL    HW111246   6.075   6.256   2.656
 3449SOL    HW211247   6.093   6.393   2.568
 3450SOL     OW11248   0.720   2.513   0.869
 3450SOL    HW111249   0.792   2.581   0.854
 3450SOL    HW211250   0.679   2.528   0.959
 3451SOL     OW11251   0.632   5.624   3.193
 3451SOL    HW111252   0.731   5.635   3.199
 3451SOL    HW211253   0.596   5.599   3.283
 3452SOL     OW11254   6.316   1.187   0.110
 3452SOL    HW111255   6.383   1.116   0.134
 3452SOL    HW211256   6.346   1.274   0.148
 3453SOL     OW11257   5.606   5.738   5.555
 3453SOL    HW111258   5.657   5.697   5.631
 3453SOL    HW211259   5.666   5.798   5.502
 3454SOL     OW11260   1.849   0.724   6.097
 3454SOL    HW111261   1.885   0.747   6.188
 3454SOL    HW211262   1.920   0.677   6.044
 3455SOL     OW11263   1.029   2.697   4.653
 3455SOL    HW111264   1.017   2.598   4.650
 3455SOL    HW211265   1.095   2.725   4.583
 3456SOL     OW11266   5.862   5.817   1.982
 3456SOL    HW111267   5.780   5.812   1.925
 3456SOL    HW211268   5.884   5.726   2.017
 3457SOL     OW11269   2.592   5.045   4.278
 3457SOL    HW111270   2.661   5.006   4.340
 3457SOL    HW211271   2.528   5.100   4.331
 3458SOL     OW11272   5.547   6.549   6.788
 3458SOL    HW111273   5.591   6.523   6.701
 3458SOL    HW211274   5.510   6.468   6.832
 3459SOL     OW11275   0.572   4.000   3.199
 3459SOL    HW111276   0.671   3.998   3.188
 3459SOL    HW211277   0.528   3.986   3.110
 3460SOL     OW11278   3.251   3.153   0.817
 3460SOL    HW111279   3.277   3.249   0.802
 3460SOL    HW211280   3.160   3.137   0.779
 3461SOL     OW11281   4.205   5.351   4.493
 3461SOL    HW111282   4.148   5.276   4.460
 3461SOL    HW211283   4.152   5.409   4.556
 3462SOL     OW11284   6.133   3.517   2.001
 3462SOL    HW111285   6.060   3.505   1.934
 3462SOL    HW211286   6.210   3.457   1.978
 3463SOL     OW11287   0.811   3.420   2.718
 3463SOL    HW111288   0.810   3.389   2.813
 3463SOL    HW211289   0.901   3.458   2.696
 3464SOL     OW11290   5.652   2.269   6.908
 3464SOL    HW111291   5.726   2.223   6.957
 3464SOL    HW211292   5.578   2.290   6.971
 3465SOL     OW11293   1.795   3.131   2.198
 3465SOL    HW111294   1.878   3.186   2.209
 3465SOL    HW211295   1.716   3.192   2.188
 3466SOL     OW11296   5.680   5.083   5.787
 3466SOL    HW111297   5.589   5.060   5.822
 3466SOL    HW211298   5.674   5.167   5.734
 3467SOL     OW11299   2.479   1.807   0.807
 3467SOL    HW111300   2.498   1.718   0.765
 3467SOL    HW211301   2.389   1.839   0.777
 3468SOL     OW11302   5.771   1.994   2.830
 3468SOL    HW111303   5.824   2.040   2.901
 3468SOL    HW211304   5.790   1.896   2.833
 3469SOL     OW11305   5.365   1.091   5.985
 3469SOL    HW111306   5.288   1.031   6.004
 3469SOL    HW211307   5.339   1.157   5.914
 3470SOL     OW11308   0.614   2.911   2.010
 3470SOL    HW111309   0.545   2.910   1.938
 3470SOL    HW211310   0.572   2.943   2.095
 3471SOL     OW11311   4.543   4.452   3.828
 3471SOL    HW111312   4.585   4.439   3.738
 3471SOL    HW211313   4.588   4.392   3.895
 3472SOL     OW11314   3.798   1.413   1.759
 3472SOL    HW111315   3.774   1.347   1.831
 3472SOL    HW211316   3.852   1.367   1.689
 3473SOL     OW11317   6.445   3.506   3.453
 3473SOL    HW111318   6.501   3.589   3.451
 3473SOL    HW211319   6.500   3.428   3.424
 3474SOL     OW11320   0.692   4.301   3.688
 3474SOL    HW111321   0.651   4.388   3.662
 3474SOL    HW211322   0.766   4.316   3.753
 3475SOL     OW11323   1.188   4.633   4.339
 3475SOL    HW111324   1.100   4.638   4.386
 3475SOL    HW211325   1.249   4.571   4.389
 3476SOL     OW11326   1.094   1.726   3.024
 3476SOL    HW111327   1.077   1.822   3.005
 3476SOL    HW211328   1.150   1.687   2.950
 3477SOL     OW11329   0.607   3.979   0.355
 3477SOL    HW111330   0.531   3.987   0.419
 3477SOL    HW211331   0.679   3.923   0.396
 3478SOL     OW11332   2.879   6.544   6.922
 3478SOL    HW111333   2.817   6.623   6.921
 3478SOL    HW211334   2.827   6.461   6.940
 3479SOL     OW11335   0.849   1.233   3.357
 3479SOL    HW111336   0.751   1.219   3.345
 3479SOL    HW211337   0.892   1.145   3.378
 3480SOL     OW11338   1.095   6.509   5.800
 3480SOL    HW111339   1.195   6.516   5.804
 3480SOL    HW211340   1.055   6.567   5.870
 3481SOL     OW11341   5.230   0.393   0.279
 3481SOL    HW111342   5.158   0.357   0.338
 3481SOL    HW211343   5.226   0.346   0.190
 3482SOL     OW11344   6.086   1.600   2.497
 3482SOL    HW111345   6.134   1.515   2.517
 3482SOL    HW211346   6.115   1.634   2.407
 3483SOL     OW11347   5.669   2.255   3.041
 3483SOL    HW111348   5.615   2.334   3.069
 3483SOL    HW211349   5.692   2.201   3.121
 3484SOL     OW11350   1.614   3.142   6.666
 3484SOL    HW111351   1.640   3.046   6.656
 3484SOL    HW211352   1.525   3.149   6.712
 3485SOL     OW11353   1.024   1.996   5.107
 3485SOL    HW111354   1.016   2.056   5.027
 3485SOL    HW211355   1.099   2.028   5.165
 3486SOL     OW11356   1.827   0.264   3.654
 3486SOL    HW111357   1.845   0.171   3.624
 3486SOL    HW211358   1.754   0.263   3.723
 3487SOL     OW11359   6.307   2.574   6.998
 3487SOL    HW111360   6.338   2.525   0.059
 3487SOL    HW211361   6.210   2.554   6.982
 3488SOL     OW11362   5.403   1.013   4.940
 3488SOL    HW111363   5.325   0.954   4.921
 3488SOL    HW211364   5.400   1.043   5.035
 3489SOL     OW11365   3.840   0.689   1.752
 3489SOL    HW111366   3.762   0.719   1.808
 3489SOL    HW211367   3.812   0.684   1.656
 3490SOL     OW11368   3.229   4.523   1.620
 3490SOL    HW111369   3.156   4.512   1.552
 3490SOL    HW211370   3.237   4.620   1.645
 3491SOL     OW11371   3.926   3.093   6.022
 3491SOL    HW111372   3.885   3.152   5.953
 3491SOL    HW211373   3.878   3.106   6.109
 3492SOL     OW11374   5.813   4.109   1.127
 3492SOL    HW111375   5.904   4.143   1.106
 3492SOL    HW211376   5.745   4.160   1.073
 3493SOL     OW11377   5.964   3.800   3.998
 3493SOL    HW111378   5.891   3.736   3.974
 3493SOL    HW211379   6.043   3.749   4.031
 3494SOL     OW11380   2.868   0.646   1.890
 3494SOL    HW111381   2.846   0.729   1.837
 3494SOL    HW211382   2.906   0.577   1.829
 3495SOL     OW11383   0.575   3.567   2.714
 3495SOL    HW111384   0.628   3.482   2.710
 3495SOL    HW211385   0.497   3.560   2.651
 3496SOL     OW11386   5.850   5.282   1.132
 3496SOL    HW111387   5.883   5.204   1.186
 3496SOL    HW211388   5.787   5.337   1.187
 3497SOL     OW11389   2.539   1.479   4.015
 3497SOL    HW111390   2.529   1.461   4.113
 3497SOL    HW211391   2.449   1.488   3.973
 3498SOL     OW11392   2.983   1.347   2.507
 3498SOL    HW111393   3.046   1.294   2.564
 3498SOL    HW211394   3.032   1.386   2.429
 3499SOL     OW11395   6.506   4.689   4.308
 3499SOL    HW111396   6.542   4.782   4.301
 3499SOL    HW211397   6.509   4.646   4.217
 3500SOL     OW11398   1.756   2.962   3.428
 3500SOL    HW111399   1.768   2.903   3.508
 3500SOL    HW211400   1.812   3.045   3.440
 3501SOL     OW11401   3.169   6.813   6.653
 3501SOL    HW111402   3.153   6.865   6.737
 3501SOL    HW211403   3.259   6.769   6.658
 3502SOL     OW11404   6.606   2.978   1.244
 3502SOL    HW111405   6.526   3.025   1.281
 3502SOL    HW211406   6.686   2.997   1.302
 3503SOL     OW11407   0.045   6.763   5.156
 3503SOL    HW111408   0.049   6.688   5.222
 3503SOL    HW211409   0.126   6.820   5.166
 3504SOL     OW11410   1.856   0.954   2.102
 3504SOL    HW111411   1.948   0.962   2.140
 3504SOL    HW211412   1.861   0.906   2.014
 3505SOL     OW11413   5.770   4.852   4.937
 3505SOL    HW111414   5.780   4.822   4.842
 3505SOL    HW211415   5.765   4.952   4.940
 3506SOL     OW11416   5.541   4.751   5.030
 3506SOL    HW111417   5.623   4.779   4.981
 3506SOL    HW211418   5.462   4.755   4.969
 3507SOL     OW11419   2.823   0.659   0.340
 3507SOL    HW111420   2.911   0.642   0.296
 3507SOL    HW211421   2.775   0.572   0.353
 3508SOL     OW11422   2.784   1.913   6.402
 3508SOL    HW111423   2.867   1.967   6.413
 3508SOL    HW211424   2.779   1.876   6.309
 3509SOL     OW11425   5.927   0.003   6.814
 3509SOL    HW111426   5.905   6.979   6.901
 3509SOL    HW211427   5.852   7.009   6.749
 3510SOL     OW11428   1.373   0.509   1.969
 3510SOL    HW111429   1.457   0.458   1.951
 3510SOL    HW211430   1.346   0.497   2.064
 3511SOL     OW11431   1.938   4.128   1.658
 3511SOL    HW111432   2.011   4.189   1.688
 3511SOL    HW211433   1.866   4.126   1.727
 3512SOL     OW11434   0.598   4.215   0.968
 3512SOL    HW111435   0.681   4.270   0.959
 3512SOL    HW211436   0.600   4.141   0.902
 3513SOL     OW11437   5.864   2.052   0.856
 3513SOL    HW111438   5.812   2.042   0.771
 3513SOL    HW211439   5.865   1.965   0.905
 3514SOL     OW11440   6.471   1.053   1.798
 3514SOL    HW111441   6.396   1.061   1.733
 3514SOL    HW211442   6.497   0.957   1.807
 3515SOL     OW11443   5.422   6.351   3.286
 3515SOL    HW111444   5.326   6.324   3.282
 3515SOL    HW211445   5.441   6.417   3.214
 3516SOL     OW11446   4.412   6.263   1.489
 3516SOL    HW111447   4.461   6.230   1.569
 3516SOL    HW211448   4.348   6.193   1.457
 3517SOL     OW11449   0.256   1.595   1.168
 3517SOL    HW111450   0.234   1.509   1.123
 3517SOL    HW211451   0.194   1.667   1.136
 3518SOL     OW11452   5.057   2.915   5.042
 3518SOL    HW111453   5.128   2.974   5.001
 3518SOL    HW211454   5.094   2.823   5.054
 3519SOL     OW11455   2.009   0.538   5.755
 3519SOL    HW111456   2.073   0.494   5.693
 3519SOL    HW211457   2.055   0.610   5.806
 3520SOL     OW11458   3.372   6.613   0.438
 3520SOL    HW111459   3.340   6.707   0.447
 3520SOL    HW211460   3.471   6.610   0.452
 3521SOL     OW11461   4.346   2.850   0.601
 3521SOL    HW111462   4.427   2.887   0.555
 3521SOL    HW211463   4.370   2.766   0.649
 3522SOL     OW11464   6.763   5.891   6.625
 3522SOL    HW111465   6.777   5.904   6.723
 3522SOL    HW211466   6.684   5.831   6.611
 3523SOL     OW11467   1.886   4.808   5.285
 3523SOL    HW111468   1.803   4.850   5.321
 3523SOL    HW211469   1.873   4.787   5.188
 3524SOL     OW11470   4.994   2.047   1.839
 3524SOL    HW111471   4.948   2.115   1.896
 3524SOL    HW211472   5.058   1.994   1.895
 3525SOL     OW11473   6.738   3.251   4.078
 3525SOL    HW111474   6.772   3.344   4.093
 3525SOL    HW211475   6.657   3.255   4.019
 3526SOL     OW11476   1.960   6.751   3.734
 3526SOL    HW111477   1.877   6.713   3.773
 3526SOL    HW211478   1.977   6.710   3.645
 3527SOL     OW11479   5.554   3.686   6.313
 3527SOL    HW111480   5.553   3.586   6.313
 3527SOL    HW211481   5.482   3.719   6.252
 3528SOL     OW11482   2.458   6.394   4.974
 3528SOL    HW111483   2.459   6.331   4.897
 3528SOL    HW211484   2.543   6.385   5.026
 3529SOL     OW11485   4.102   6.346   0.684
 3529SOL    HW111486   4.009   6.373   0.660
 3529SOL    HW211487   4.138   6.285   0.614
 3530SOL     OW11488   6.816   5.395   1.468
 3530SOL    HW111489   6.897   5.398   1.408
 3530SOL    HW211490   6.845   5.383   1.563
 3531SOL     OW11491   5.326   2.251   0.646
 3531SOL    HW111492   5.372   2.198   0.576
 3531SOL    HW211493   5.229   2.259   0.624
 3532SOL     OW11494   2.906   0.562   1.615
 3532SOL    HW111495   2.880   0.470   1.583
 3532SOL    HW211496   2.861   0.631   1.559
 3533SOL     OW11497   0.316   0.989   2.631
 3533SOL    HW111498   0.327   1.057   2.558
 3533SOL    HW211499   0.227   0.945   2.621
 3534SOL     OW11500   0.399   2.247   0.603
 3534SOL    HW111501   0.465   2.315   0.636
 3534SOL    HW211502   0.320   2.294   0.564
 3535SOL     OW11503   2.190   5.353   6.123
 3535SOL    HW111504   2.115   5.395   6.174
 3535SOL    HW211505   2.151   5.293   6.052
 3536SOL     OW11506   3.103   1.856   2.905
 3536SOL    HW111507   3.179   1.902   2.860
 3536SOL    HW211508   3.017   1.901   2.880
 3537SOL     OW11509   2.366   5.224   2.731
 3537SOL    HW111510   2.312   5.168   2.794
 3537SOL    HW211511   2.377   5.316   2.769
 3538SOL     OW11512   2.303   5.905   5.461
 3538SOL    HW111513   2.268   5.812   5.468
 3538SOL    HW211514   2.251   5.956   5.392
 3539SOL     OW11515   3.789   3.637   4.829
 3539SOL    HW111516   3.852   3.568   4.865
 3539SOL    HW211517   3.819   3.728   4.856
 3540SOL     OW11518   2.274   2.620   4.401
 3540SOL    HW111519   2.203   2.688   4.420
 3540SOL    HW211520   2.249   2.533   4.444
 3541SOL     OW11521   2.906   2.768   5.864
 3541SOL    HW111522   2.821   2.787   5.815
 3541SOL    HW211523   2.946   2.855   5.895
 3542SOL     OW11524   1.127   5.380   3.107
 3542SOL    HW111525   1.213   5.405   3.151
 3542SOL    HW211526   1.101   5.288   3.137
 3543SOL     OW11527   0.073   2.675   4.591
 3543SOL    HW111528   0.052   2.690   4.687
 3543SOL    HW211529   0.053   2.580   4.567
 3544SOL     OW11530   1.398   4.187   6.197
 3544SOL    HW111531   1.385   4.279   6.232
 3544SOL    HW211532   1.461   4.137   6.256
 3545SOL     OW11533   3.752   6.031   6.516
 3545SOL    HW111534   3.677   6.003   6.456
 3545SOL    HW211535   3.765   5.962   6.587
 3546SOL     OW11536   0.749   4.846   3.434
 3546SOL    HW111537   0.785   4.926   3.482
 3546SOL    HW211538   0.758   4.766   3.493
 3547SOL     OW11539   5.349   4.321   3.732
 3547SOL    HW111540   5.317   4.373   3.811
 3547SOL    HW211541   5.306   4.355   3.649
 3548SOL     OW11542   5.719   1.224   5.841
 3548SOL    HW111543   5.803   1.220   5.788
 3548SOL    HW211544   5.690   1.319   5.851
 3549SOL     OW11545   6.697   4.324   4.694
 3549SOL    HW111546   6.637   4.373   4.631
 3549SOL    HW211547   6.763   4.388   4.733
 3550SOL     OW11548   5.371   2.476   2.426
 3550SOL    HW111549   5.350   2.565   2.465
 3550SOL    HW211550   5.338   2.404   2.487
 3551SOL     OW11551   3.900   6.098   2.637
 3551SOL    HW111552   3.820   6.094   2.697
 3551SOL    HW211553   3.976   6.141   2.687
 3552SOL     OW11554   4.985   6.243   2.093
 3552SOL    HW111555   5.074   6.247   2.138
 3552SOL    HW211556   4.951   6.149   2.094
 3553SOL     OW11557   5.907   2.997   1.258
 3553SOL    HW111558   5.879   2.956   1.171
 3553SOL    HW211559   5.827   3.007   1.317
 3554SOL     OW11560   3.922   3.210   1.101
 3554SOL    HW111561   3.976   3.294   1.107
 3554SOL    HW211562   3.826   3.230   1.122
 3555SOL     OW11563   1.184   3.484   3.227
 3555SOL    HW111564   1.098   3.516   3.267
 3555SOL    HW211565   1.259   3.542   3.259
 3556SOL     OW11566   4.159   0.817   4.799
 3556SOL    HW111567   4.235   0.803   4.863
 3556SOL    HW211568   4.077   0.841   4.850
 3557SOL     OW11569   0.399   0.342   3.183
 3557SOL    HW111570   0.307   0.369   3.155
 3557SOL    HW211571   0.393   0.273   3.255
 3558SOL     OW11572   0.931   5.898   1.055
 3558SOL    HW111573   0.831   5.901   1.059
 3558SOL    HW211574   0.963   5.950   0.975
 3559SOL     OW11575   0.296   6.743   4.669
 3559SOL    HW111576   0.351   6.812   4.624
 3559SOL    HW211577   0.290   6.662   4.611
 3560SOL     OW11578   1.384   5.165   0.759
 3560SOL    HW111579   1.352   5.119   0.676
 3560SOL    HW211580   1.472   5.209   0.740
 3561SOL     OW11581   3.866   4.998   5.825
 3561SOL    HW111582   3.941   4.977   5.888
 3561SOL    HW211583   3.838   4.914   5.778
 3562SOL     OW11584   4.895   0.971   4.341
 3562SOL    HW111585   4.957   1.019   4.403
 3562SOL    HW211586   4.844   0.901   4.392
 3563SOL     OW11587   5.332   0.461   1.506
 3563SOL    HW111588   5.387   0.435   1.426
 3563SOL    HW211589   5.240   0.485   1.476
 3564SOL     OW11590   1.246   5.195   3.991
 3564SOL    HW111591   1.147   5.189   4.004
 3564SOL    HW211592   1.266   5.258   3.916
 3565SOL     OW11593   4.133   6.702   4.619
 3565SOL    HW111594   4.230   6.680   4.606
 3565SOL    HW211595   4.087   6.707   4.530
 3566SOL     OW11596   6.793   3.138   6.360
 3566SOL    HW111597   6.850   3.067   6.318
 3566SOL    HW211598   6.844   3.181   6.435
 3567SOL     OW11599   0.976   2.633   0.025
 3567SOL    HW111600   1.075   2.635   0.011
 3567SOL    HW211601   0.942   2.540   0.011
 3568SOL     OW11602   5.157   5.301   2.946
 3568SOL    HW111603   5.160   5.288   3.045
 3568SOL    HW211604   5.082   5.246   2.908
 3569SOL     OW11605   2.719   2.679   5.634
 3569SOL    HW111606   2.638   2.630   5.668
 3569SOL    HW211607   2.801   2.637   5.673
 3570SOL     OW11608   5.377   0.271   4.962
 3570SOL    HW111609   5.459   0.269   4.905
 3570SOL    HW211610   5.371   0.186   5.014
 3571SOL     OW11611   2.217   1.075   5.346
 3571SOL    HW111612   2.160   1.101   5.424
 3571SOL    HW211613   2.266   1.155   5.312
 3572SOL     OW11614   5.666   3.557   2.718
 3572SOL    HW111615   5.579   3.515   2.745
 3572SOL    HW211616   5.669   3.566   2.618
 3573SOL     OW11617   6.747   4.621   2.250
 3573SOL    HW111618   6.675   4.632   2.319
 3573SOL    HW211619   6.762   4.524   2.233
 3574SOL     OW11620   1.569   3.624   6.931
 3574SOL    HW111621   1.554   3.554   6.860
 3574SOL    HW211622   1.544   3.586   7.020
 3575SOL     OW11623   5.043   5.614   1.695
 3575SOL    HW111624   4.963   5.655   1.739
 3575SOL    HW211625   5.101   5.571   1.765
 3576SOL     OW11626   0.101   2.244   6.953
 3576SOL    HW111627   0.183   2.209   6.997
 3576SOL    HW211628   0.068   2.324   7.004
 3577SOL     OW11629   2.693   3.127   5.707
 3577SOL    HW111630   2.724   3.097   5.617
 3577SOL    HW211631   2.653   3.218   5.700
 3578SOL     OW11632   4.268   2.785   1.211
 3578SOL    HW111633   4.260   2.847   1.290
 3578SOL    HW211634   4.327   2.827   1.142
 3579SOL     OW11635   0.213   2.837   2.879
 3579SOL    HW111636   0.122   2.797   2.888
 3579SOL    HW211637   0.205   2.937   2.879
 3580SOL     OW11638   6.641   3.505   1.134
 3580SOL    HW111639   6.594   3.453   1.062
 3580SOL    HW211640   6.689   3.582   1.093
 3581SOL     OW11641   0.414   6.321   2.849
 3581SOL    HW111642   0.490   6.309   2.785
 3581SOL    HW211643   0.354   6.395   2.817
 3582SOL     OW11644   2.885   5.187   5.790
 3582SOL    HW111645   2.808   5.248   5.807
 3582SOL    HW211646   2.854   5.107   5.739
 3583SOL     OW11647   1.360   4.345   0.213
 3583SOL    HW111648   1.336   4.248   0.221
 3583SOL    HW211649   1.316   4.396   0.287
 3584SOL     OW11650   5.323   4.917   5.481
 3584SOL    HW111651   5.271   4.896   5.564
 3584SOL    HW211652   5.399   4.854   5.472
 3585SOL     OW11653   3.190   1.800   4.730
 3585SOL    HW111654   3.113   1.847   4.688
 3585SOL    HW211655   3.263   1.866   4.750
 3586SOL     OW11656   6.771   2.466   5.141
 3586SOL    HW111657   6.847   2.448   5.078
 3586SOL    HW211658   6.686   2.435   5.099
 3587SOL     OW11659   3.502   5.126   6.423
 3587SOL    HW111660   3.550   5.104   6.508
 3587SOL    HW211661   3.475   5.223   6.424
 3588SOL     OW11662   6.792   4.036   4.218
 3588SOL    HW111663   6.795   3.945   4.178
 3588SOL    HW211664   6.704   4.049   4.265
 3589SOL     OW11665   6.010   6.595   6.389
 3589SOL    HW111666   5.976   6.521   6.331
 3589SOL    HW211667   6.037   6.558   6.478
 3590SOL     OW11668   0.296   3.501   1.074
 3590SOL    HW111669   0.277   3.518   0.977
 3590SOL    HW211670   0.364   3.567   1.106
 3591SOL     OW11671   5.593   3.036   0.871
 3591SOL    HW111672   5.600   3.132   0.843
 3591SOL    HW211673   5.499   3.016   0.899
 3592SOL     OW11674   0.143   0.018   2.484
 3592SOL    HW111675   0.235   6.998   2.492
 3592SOL    HW211676   0.086   6.979   2.426
 3593SOL     OW11677   0.542   4.526   6.069
 3593SOL    HW111678   0.636   4.523   6.102
 3593SOL    HW211679   0.500   4.436   6.081
 3594SOL     OW11680   4.825   0.227   4.621
 3594SOL    HW111681   4.883   0.238   4.702
 3594SOL    HW211682   4.799   0.318   4.587
 3595SOL     OW11683   6.182   6.093   0.292
 3595SOL    HW111684   6.095   6.119   0.251
 3595SOL    HW211685   6.174   6.096   0.392
 3596SOL     OW11686   4.309   2.378   3.443
 3596SOL    HW111687   4.219   2.374   3.487
 3596SOL    HW211688   4.313   2.313   3.368
 3597SOL     OW11689   1.949   3.600   5.667
 3597SOL    HW111690   2.027   3.644   5.621
 3597SOL    HW211691   1.864   3.640   5.634
 3598SOL     OW11692   2.012   6.179   5.727
 3598SOL    HW111693   1.944   6.183   5.799
 3598SOL    HW211694   1.990   6.103   5.665
 3599SOL     OW11695   5.000   1.874   6.366
 3599SOL    HW111696   4.922   1.899   6.423
 3599SOL    HW211697   5.067   1.825   6.422
 3600SOL     OW11698   1.610   3.286   1.336
 3600SOL    HW111699   1.652   3.366   1.380
 3600SOL    HW211700   1.646   3.277   1.243
 3601SOL     OW11701   5.408   2.131   5.450
 3601SOL    HW111702   5.427   2.121   5.547
 3601SOL    HW211703   5.382   2.042   5.412
 3602SOL     OW11704   1.839   3.000   0.808
 3602SOL    HW111705   1.874   3.013   0.715
 3602SOL    HW211706   1.766   2.932   0.807
 3603SOL     OW11707   3.682   1.065   5.931
 3603SOL    HW111708   3.690   1.147   5.874
 3603SOL    HW211709   3.681   0.984   5.873
 3604SOL     OW11710   6.061   0.827   3.479
 3604SOL    HW111711   6.078   0.915   3.524
 3604SOL    HW211712   6.105   0.754   3.531
 3605SOL     OW11713   0.725   5.415   3.917
 3605SOL    HW111714   0.725   5.342   3.849
 3605SOL    HW211715   0.681   5.383   4.000
 3606SOL     OW11716   1.683   6.252   2.140
 3606SOL    HW111717   1.688   6.340   2.093
 3606SOL    HW211718   1.648   6.182   2.077
 3607SOL     OW11719   4.946   2.733   2.465
 3607SOL    HW111720   4.855   2.768   2.443
 3607SOL    HW211721   4.938   2.643   2.508
 3608SOL     OW11722   5.295   1.609   4.181
 3608SOL    HW111723   5.214   1.668   4.187
 3608SOL    HW211724   5.266   1.513   4.176
 3609SOL     OW11725   2.346   6.391   4.367
 3609SOL    HW111726   2.386   6.424   4.453
 3609SOL    HW211727   2.366   6.457   4.294
 3610SOL     OW11728   1.839   0.509   5.474
 3610SOL    HW111729   1.788   0.551   5.549
 3610SOL    HW211730   1.871   0.419   5.503
 3611SOL     OW11731   4.664   4.554   4.214
 3611SOL    HW111732   4.573   4.596   4.213
 3611SOL    HW211733   4.733   4.623   4.234
 3612SOL     OW11734   6.654   1.801   6.698
 3612SOL    HW111735   6.699   1.734   6.758
 3612SOL    HW211736   6.617   1.753   6.618
 3613SOL     OW11737   4.294   5.297   2.040
 3613SOL    HW111738   4.197   5.289   2.020
 3613SOL    HW211739   4.340   5.210   2.021
 3614SOL     OW11740   3.200   3.453   6.808
 3614SOL    HW111741   3.286   3.472   6.855
 3614SOL    HW211742   3.127   3.507   6.849
 3615SOL     OW11743   6.355   3.249   6.001
 3615SOL    HW111744   6.365   3.154   6.032
 3615SOL    HW211745   6.326   3.250   5.905
 3616SOL     OW11746   1.677   1.473   6.470
 3616SOL    HW111747   1.737   1.423   6.407
 3616SOL    HW211748   1.732   1.534   6.528
 3617SOL     OW11749   4.651   0.070   5.797
 3617SOL    HW111750   4.610   0.063   5.888
 3617SOL    HW211751   4.583   0.106   5.733
 3618SOL     OW11752   2.206   3.594   5.163
 3618SOL    HW111753   2.124   3.539   5.180
 3618SOL    HW211754   2.273   3.577   5.235
 3619SOL     OW11755   5.290   3.378   0.680
 3619SOL    HW111756   5.241   3.443   0.738
 3619SOL    HW211757   5.227   3.306   0.651
 3620SOL     OW11758   6.157   5.861   4.467
 3620SOL    HW111759   6.255   5.870   4.481
 3620SOL    HW211760   6.123   5.782   4.517
 3621SOL     OW11761   3.422   2.893   4.154
 3621SOL    HW111762   3.340   2.942   4.125
 3621SOL    HW211763   3.408   2.856   4.246
 3622SOL     OW11764   1.034   0.509   1.351
 3622SOL    HW111765   1.021   0.529   1.254
 3622SOL    HW211766   0.950   0.532   1.401
 3623SOL     OW11767   0.948   6.048   5.063
 3623SOL    HW111768   0.878   6.118   5.080
 3623SOL    HW211769   0.906   5.969   5.019
 3624SOL     OW11770   1.762   0.074   1.575
 3624SOL    HW111771   1.818   0.156   1.582
 3624SOL    HW211772   1.814   0.002   1.530
 3625SOL     OW11773   0.183   3.169   6.889
 3625SOL    HW111774   0.173   3.157   6.988
 3625SOL    HW211775   0.160   3.263   6.864
 3626SOL     OW11776   0.530   3.732   4.665
 3626SOL    HW111777   0.509   3.658   4.730
 3626SOL    HW211778   0.628   3.735   4.648
 3627SOL     OW11779   5.192   2.798   1.485
 3627SOL    HW111780   5.197   2.839   1.394
 3627SOL    HW211781   5.096   2.789   1.512
 3628SOL     OW11782   1.455   1.507   1.811
 3628SOL    HW111783   1.544   1.549   1.796
 3628SOL    HW211784   1.441   1.494   1.910
 3629SOL     OW11785   1.318   0.227   3.693
 3629SOL    HW111786   1.389   0.200   3.759
 3629SOL    HW211787   1.357   0.293   3.628
 3630SOL     OW11788   6.969   2.725   2.913
 3630SOL    HW111789   6.924   2.638   2.892
 3630SOL    HW211790   6.948   2.751   3.007
 3631SOL     OW11791   2.126   6.679   3.927
 3631SOL    HW111792   2.077   6.686   3.841
 3631SOL    HW211793   2.099   6.755   3.987
 3632SOL     OW11794   4.323   3.879   1.109
 3632SOL    HW111795   4.304   3.889   1.011
 3632SOL    HW211796   4.357   3.787   1.127
 3633SOL     OW11797   3.502   2.496   5.425
 3633SOL    HW111798   3.572   2.549   5.376
 3633SOL    HW211799   3.412   2.523   5.393
 3634SOL     OW11800   2.385   6.081   6.205
 3634SOL    HW111801   2.334   6.087   6.118
 3634SOL    HW211802   2.331   6.028   6.271
 3635SOL     OW11803   2.514   1.487   1.532
 3635SOL    HW111804   2.491   1.495   1.435
 3635SOL    HW211805   2.567   1.567   1.561
 3636SOL     OW11806   0.037   5.242   0.950
 3636SOL    HW111807   0.029   5.149   0.986
 3636SOL    HW211808   7.017   5.307   1.015
 3637SOL     OW11809   1.112   2.640   0.276
 3637SOL    HW111810   1.058   2.627   0.193
 3637SOL    HW211811   1.073   2.714   0.330
 3638SOL     OW11812   6.805   4.145   2.935
 3638SOL    HW111813   6.845   4.228   2.974
 3638SOL    HW211814   6.814   4.070   3.002
 3639SOL     OW11815   3.728   4.132   5.191
 3639SOL    HW111816   3.744   4.146   5.093
 3639SOL    HW211817   3.635   4.100   5.205
 3640SOL     OW11818   5.493   2.468   0.504
 3640SOL    HW111819   5.449   2.471   0.415
 3640SOL    HW211820   5.437   2.416   0.568
 3641SOL     OW11821   5.433   4.287   1.180
 3641SOL    HW111822   5.353   4.248   1.226
 3641SOL    HW211823   5.494   4.329   1.247
 3642SOL     OW11824   5.482   2.284   6.171
 3642SOL    HW111825   5.415   2.312   6.240
 3642SOL    HW211826   5.567   2.335   6.184
 3643SOL     OW11827   3.992   6.699   6.376
 3643SOL    HW111828   4.044   6.765   6.321
 3643SOL    HW211829   4.009   6.606   6.341
 3644SOL     OW11830   3.139   1.065   1.495
 3644SOL    HW111831   3.174   1.100   1.408
 3644SOL    HW211832   3.168   0.970   1.507
 3645SOL     OW11833   1.813   3.676   4.049
 3645SOL    HW111834   1.813   3.652   4.146
 3645SOL    HW211835   1.867   3.758   4.034
 3646SOL     OW11836   2.933   4.793   4.666
 3646SOL    HW111837   2.943   4.809   4.567
 3646SOL    HW211838   3.019   4.756   4.701
 3647SOL     OW11839   2.613   0.065   6.942
 3647SOL    HW111840   2.611   0.071   0.022
 3647SOL    HW211841   2.596   0.155   6.903
 3648SOL     OW11842   5.113   6.052   3.307
 3648SOL    HW111843   5.114   6.146   3.340
 3648SOL    HW211844   5.154   6.049   3.215
 3649SOL     OW11845   5.592   3.874   6.796
 3649SOL    HW111846   5.541   3.950   6.836
 3649SOL    HW211847   5.528   3.810   6.752
 3650SOL     OW11848   5.496   4.113   0.556
 3650SOL    HW111849   5.472   4.193   0.612
 3650SOL    HW211850   5.512   4.034   0.615
 3651SOL     OW11851   2.227   1.958   5.839
 3651SOL    HW111852   2.234   2.019   5.760
 3651SOL    HW211853   2.149   1.897   5.826
 3652SOL     OW11854   5.312   1.083   2.460
 3652SOL    HW111855   5.254   1.014   2.503
 3652SOL    HW211856   5.361   1.134   2.531
 3653SOL     OW11857   0.831   0.583   2.583
 3653SOL    HW111858   0.839   0.640   2.665
 3653SOL    HW211859   0.876   0.496   2.598
 3654SOL     OW11860   4.479   5.988   0.988
 3654SOL    HW111861   4.443   5.900   1.017
 3654SOL    HW211862   4.418   6.061   1.019
 3655SOL     OW11863   2.991   1.042   4.058
 3655SOL    HW111864   3.084   1.062   4.028
 3655SOL    HW211865   2.943   1.128   4.075
 3656SOL     OW11866   1.076   5.563   1.788
 3656SOL    HW111867   1.081   5.472   1.829
 3656SOL    HW211868   1.069   5.555   1.688
 3657SOL     OW11869   4.686   5.911   5.487
 3657SOL    HW111870   4.727   6.001   5.474
 3657SOL    HW211871   4.590   5.922   5.513
 3658SOL     OW11872   1.399   5.492   6.564
 3658SOL    HW111873   1.434   5.433   6.637
 3658SOL    HW211874   1.462   5.488   6.486
 3659SOL     OW11875   0.267   1.440   6.593
 3659SOL    HW111876   0.316   1.355   6.573
 3659SOL    HW211877   0.194   1.421   6.659
 3660SOL     OW11878   5.538   6.263   6.120
 3660SOL    HW111879   5.620   6.264   6.064
 3660SOL    HW211880   5.457   6.272   6.061
 3661SOL     OW11881   6.821   0.679   3.949
 3661SOL    HW111882   6.790   0.741   4.021
 3661SOL    HW211883   6.807   0.721   3.860
 3662SOL     OW11884   3.962   0.755   5.527
 3662SOL    HW111885   3.888   0.708   5.479
 3662SOL    HW211886   4.026   0.689   5.565
 3663SOL     OW11887   2.133   2.465   6.782
 3663SOL    HW111888   2.075   2.393   6.745
 3663SOL    HW211889   2.091   2.503   6.864
 3664SOL     OW11890   4.551   1.523   2.452
 3664SOL    HW111891   4.599   1.522   2.540
 3664SOL    HW211892   4.567   1.610   2.406
 3665SOL     OW11893   0.828   6.090   5.457
 3665SOL    HW111894   0.804   6.082   5.554
 3665SOL    HW211895   0.832   6.186   5.430
 3666SOL     OW11896   1.485   2.592   3.500
 3666SOL    HW111897   1.388   2.571   3.494
 3666SOL    HW211898   1.501   2.688   3.477
 3667SOL     OW11899   1.255   1.528   2.897
 3667SOL    HW111900   1.263   1.487   2.988
 3667SOL    HW211901   1.223   1.460   2.832
 3668SOL     OW11902   1.115   0.376   1.825
 3668SOL    HW111903   1.213   0.393   1.836
 3668SOL    HW211904   1.099   0.278   1.816
 3669SOL     OW11905   6.274   1.848   4.667
 3669SOL    HW111906   6.221   1.801   4.596
 3669SOL    HW211907   6.368   1.859   4.637
 3670SOL     OW11908   3.285   5.041   1.586
 3670SOL    HW111909   3.324   5.129   1.614
 3670SOL    HW211910   3.321   4.968   1.645
 3671SOL     OW11911   6.297   1.194   3.309
 3671SOL    HW111912   6.252   1.106   3.292
 3671SOL    HW211913   6.241   1.249   3.370
 3672SOL     OW11914   5.426   1.385   2.766
 3672SOL    HW111915   5.439   1.422   2.858
 3672SOL    HW211916   5.349   1.321   2.766
 3673SOL     OW11917   4.846   6.026   0.325
 3673SOL    HW111918   4.935   6.051   0.286
 3673SOL    HW211919   4.824   6.087   0.401
 3674SOL     OW11920   1.453   6.085   6.190
 3674SOL    HW111921   1.370   6.036   6.168
 3674SOL    HW211922   1.433   6.155   6.259
 3675SOL     OW11923   0.582   2.161   3.927
 3675SOL    HW111924   0.585   2.093   3.854
 3675SOL    HW211925   0.498   2.150   3.980
 3676SOL     OW11926   4.772   2.927   3.016
 3676SOL    HW111927   4.790   2.951   2.920
 3676SOL    HW211928   4.793   3.005   3.074
 3677SOL     OW11929   2.215   0.927   4.439
 3677SOL    HW111930   2.212   0.833   4.473
 3677SOL    HW211931   2.286   0.978   4.487
 3678SOL     OW11932   1.544   0.057   3.752
 3678SOL    HW111933   1.586   0.139   3.789
 3678SOL    HW211934   1.540   0.063   3.653
 3679SOL     OW11935   5.989   0.438   2.958
 3679SOL    HW111936   6.029   0.529   2.962
 3679SOL    HW211937   5.998   0.402   2.865
 3680SOL     OW11938   4.426   1.594   3.044
 3680SOL    HW111939   4.509   1.637   3.079
 3680SOL    HW211940   4.418   1.501   3.080
 3681SOL     OW11941   1.064   0.892   5.601
 3681SOL    HW111942   1.094   0.981   5.567
 3681SOL    HW211943   1.139   0.847   5.649
 3682SOL     OW11944   5.482   2.057   1.143
 3682SOL    HW111945   5.449   2.150   1.128
 3682SOL    HW211946   5.407   1.993   1.130
 3683SOL     OW11947   0.061   0.369   4.486
 3683SOL    HW111948   0.047   0.402   4.393
 3683SOL    HW211949   0.130   0.426   4.531
 3684SOL     OW11950   2.065   6.854   6.101
 3684SOL    HW111951   2.012   6.934   6.127
 3684SOL    HW211952   2.160   6.865   6.129
 3685SOL     OW11953   2.466   5.885   5.026
 3685SOL    HW111954   2.427   5.825   5.095
 3685SOL    HW211955   2.566   5.883   5.032
 3686SOL     OW11956   6.951   3.531   3.724
 3686SOL    HW111957   6.920   3.622   3.751
 3686SOL    HW211958   6.987   3.534   3.631
 3687SOL     OW11959   4.749   6.531   3.217
 3687SOL    HW111960   4.827   6.516   3.157
 3687SOL    HW211961   4.694   6.447   3.222
 3688SOL     OW11962   6.105   3.358   0.146
 3688SOL    HW111963   6.121   3.303   0.064
 3688SOL    HW211964   6.172   3.334   0.216
 3689SOL     OW11965   2.086   1.647   5.529
 3689SOL    HW111966   2.096   1.718   5.459
 3689SOL    HW211967   2.074   1.558   5.485
 3690SOL     OW11968   5.012   5.327   0.797
 3690SOL    HW111969   5.100   5.373   0.780
 3690SOL    HW211970   4.988   5.272   0.718
 3691SOL     OW11971   3.110   1.897   6.004
 3691SOL    HW111972   3.016   1.864   6.003
 3691SOL    HW211973   3.152   1.882   5.914
 3692SOL     OW11974   6.937   4.178   6.075
 3692SOL    HW111975   6.930   4.277   6.059
 3692SOL    HW211976   6.947   4.161   6.173
 3693SOL     OW11977   0.575   1.592   2.760
 3693SOL    HW111978   0.550   1.680   2.801
 3693SOL    HW211979   0.674   1.586   2.752
 3694SOL     OW11980   1.021   0.801   1.614
 3694SOL    HW111981   1.056   0.768   1.526
 3694SOL    HW211982   0.957   0.877   1.598
 3695SOL     OW11983   6.780   2.578   2.655
 3695SOL    HW111984   6.741   2.669   2.644
 3695SOL    HW211985   6.742   2.534   2.736
 3696SOL     OW11986   5.083   1.028   4.974
 3696SOL    HW111987   5.069   0.938   5.014
 3696SOL    HW211988   5.055   1.027   4.878
 3697SOL     OW11989   6.734   5.899   3.200
 3697SOL    HW111990   6.643   5.858   3.192
 3697SOL    HW211991   6.741   5.949   3.286
 3698SOL     OW11992   1.882   0.889   3.615
 3698SOL    HW111993   1.833   0.808   3.583
 3698SOL    HW211994   1.843   0.919   3.703
 3699SOL     OW11995   2.284   2.132   4.205
 3699SOL    HW111996   2.327   2.161   4.291
 3699SOL    HW211997   2.341   2.159   4.128
 3700SOL     OW11998   1.738   5.228   5.249
 3700SOL    HW111999   1.822   5.282   5.254
 3700SOL    HW212000   1.743   5.166   5.171
 3701SOL     OW12001   1.189   6.288   2.015
 3701SOL    HW112002   1.207   6.246   2.104
 3701SOL    HW212003   1.093   6.274   1.991
 3702SOL     OW12004   5.875   6.064   4.020
 3702SOL    HW112005   5.829   6.015   4.093
 3702SOL    HW212006   5.960   6.017   3.997
 3703SOL     OW12007   1.162   1.138   6.265
 3703SOL    HW112008   1.094   1.193   6.218
 3703SOL    HW212009   1.230   1.106   6.200
 3704SOL     OW12010   5.842   2.909   1.010
 3704SOL    HW112011   5.819   2.812   1.018
 3704SOL    HW212012   5.804   2.945   0.925
 3705SOL     OW12013   5.091   5.014   3.596
 3705SOL    HW112014   5.143   5.099   3.603
 3705SOL    HW212015   5.153   4.940   3.569
 3706SOL     OW12016   0.654   3.754   0.609
 3706SOL    HW112017   0.717   3.694   0.658
 3706SOL    HW212018   0.601   3.701   0.543
 3707SOL     OW12019   3.374   5.081   4.096
 3707SOL    HW112020   3.293   5.110   4.147
 3707SOL    HW212021   3.366   5.111   4.001
 3708SOL     OW12022   3.988   6.717   1.499
 3708SOL    HW112023   4.082   6.693   1.478
 3708SOL    HW212024   3.960   6.796   1.445
 3709SOL     OW12025   1.934   0.267   1.598
 3709SOL    HW112026   1.955   0.238   1.505
 3709SOL    HW212027   2.011   0.246   1.658
 3710SOL     OW12028   0.564   5.021   4.820
 3710SOL    HW112029   0.590   5.033   4.724
 3710SOL    HW212030   0.588   4.929   4.850
 3711SOL     OW12031   1.614   6.368   5.043
 3711SOL    HW112032   1.596   6.303   4.970
 3711SOL    HW212033   1.705   6.352   5.080
 3712SOL     OW12034   2.383   5.407   6.869
 3712SOL    HW112035   2.449   5.440   6.802
 3712SOL    HW212036   2.421   5.329   6.918
 3713SOL     OW12037   6.758   6.826   4.586
 3713SOL    HW112038   6.841   6.784   4.548
 3713SOL    HW212039   6.780   6.869   4.674
 3714SOL     OW12040   0.824   4.810   6.891
 3714SOL    HW112041   0.780   4.886   6.939
 3714SOL    HW212042   0.823   4.828   6.793
 3715SOL     OW12043   0.049   5.798   3.538
 3715SOL    HW112044   0.078   5.819   3.445
 3715SOL    HW212045   0.080   5.870   3.600
 3716SOL     OW12046   6.439   5.763   3.834
 3716SOL    HW112047   6.391   5.792   3.751
 3716SOL    HW212048   6.473   5.670   3.822
 3717SOL     OW12049   5.061   1.264   0.262
 3717SOL    HW112050   5.035   1.249   0.358
 3717SOL    HW212051   4.993   1.221   0.203
 3718SOL     OW12052   0.269   6.962   6.550
 3718SOL    HW112053   0.323   6.896   6.498
 3718SOL    HW212054   0.307   6.971   6.642
 3719SOL     OW12055   3.960   3.277   6.420
 3719SOL    HW112056   4.040   3.243   6.468
 3719SOL    HW212057   3.916   3.201   6.371
 3720SOL     OW12058   5.643   3.381   1.314
 3720SOL    HW112059   5.717   3.372   1.381
 3720SOL    HW212060   5.670   3.337   1.229
 3721SOL     OW12061   6.448   5.568   6.900
 3721SOL    HW112062   6.478   5.481   6.940
 3721SOL    HW212063   6.369   5.552   6.841
 3722SOL     OW12064   4.558   6.948   1.739
 3722SOL    HW112065   4.461   6.928   1.724
 3722SOL    HW212066   4.579   0.018   1.701
 3723SOL     OW12067   4.609   5.284   0.483
 3723SOL    HW112068   4.563   5.203   0.519
 3723SOL    HW212069   4.550   5.363   0.494
 3724SOL     OW12070   1.716   5.092   5.732
 3724SOL    HW112071   1.678   5.119   5.821
 3724SOL    HW212072   1.789   5.155   5.707
 3725SOL     OW12073   0.176   6.604   0.203
 3725SOL    HW112074   0.083   6.586   0.236
 3725SOL    HW212075   0.204   6.530   0.142
 3726SOL     OW12076   5.306   4.452   4.391
 3726SOL    HW112077   5.367   4.380   4.422
 3726SOL    HW212078   5.342   4.541   4.418
 3727SOL     OW12079   0.016   3.459   4.624
 3727SOL    HW112080   6.962   3.493   4.681
 3727SOL    HW212081   0.050   3.532   4.565
 3728SOL     OW12082   3.044   3.210   0.448
 3728SOL    HW112083   3.064   3.301   0.487
 3728SOL    HW212084   2.959   3.175   0.487
 3729SOL     OW12085   0.540   0.462   5.129
 3729SOL    HW112086   0.512   0.517   5.208
 3729SOL    HW212087   0.640   0.465   5.119
 3730SOL     OW12088   4.532   6.660   5.765
 3730SOL    HW112089   4.599   6.612   5.821
 3730SOL    HW212090   4.446   6.669   5.815
 3731SOL     OW12091   0.541   1.271   6.905
 3731SOL    HW112092   0.640   1.266   6.896
 3731SOL    HW212093   0.502   1.179   6.906
 3732SOL     OW12094   1.617   1.802   0.685
 3732SOL    HW112095   1.673   1.814   0.603
 3732SOL    HW212096   1.541   1.867   0.683
 3733SOL     OW12097   1.577   3.012   3.787
 3733SOL    HW112098   1.506   2.969   3.731
 3733SOL    HW212099   1.654   2.950   3.796
 3734SOL     OW12100   4.159   0.494   1.387
 3734SOL    HW112101   4.163   0.578   1.332
 3734SOL    HW212102   4.221   0.426   1.349
 3735SOL     OW12103   4.448   6.799   2.612
 3735SOL    HW112104   4.363   6.837   2.577
 3735SOL    HW212105   4.511   6.783   2.536
 3736SOL     OW12106   6.430   0.609   0.784
 3736SOL    HW112107   6.529   0.594   0.789
 3736SOL    HW212108   6.402   0.670   0.858
 3737SOL     OW12109   6.105   2.441   3.571
 3737SOL    HW112110   6.184   2.501   3.586
 3737SOL    HW212111   6.080   2.397   3.658
 3738SOL     OW12112   6.737   5.715   0.964
 3738SOL    HW112113   6.829   5.749   0.944
 3738SOL    HW212114   6.728   5.700   1.063
 3739SOL     OW12115   2.828   4.703   1.650
 3739SOL    HW112116   2.912   4.754   1.629
 3739SOL    HW212117   2.852   4.614   1.689
 3740SOL     OW12118   6.165   5.813   6.625
 3740SOL    HW112119   6.228   5.796   6.702
 3740SOL    HW212120   6.100   5.737   6.619
 3741SOL     OW12121   5.389   2.639   0.199
 3741SOL    HW112122   5.403   2.696   0.280
 3741SOL    HW212123   5.477   2.602   0.170
 3742SOL     OW12124   4.787   5.761   0.402
 3742SOL    HW112125   4.758   5.714   0.319
 3742SOL    HW212126   4.837   5.844   0.378
 3743SOL     OW12127   4.483   4.101   1.431
 3743SOL    HW112128   4.438   4.130   1.516
 3743SOL    HW212129   4.433   4.140   1.353
 3744SOL     OW12130   1.493   6.552   1.742
 3744SOL    HW112131   1.438   6.586   1.666
 3744SOL    HW212132   1.451   6.581   1.828
 3745SOL     OW12133   4.979   3.703   2.500
 3745SOL    HW112134   4.942   3.764   2.430
 3745SOL    HW212135   4.959   3.608   2.476
 3746SOL     OW12136   6.697   0.203   3.320
 3746SOL    HW112137   6.731   0.123   3.369
 3746SOL    HW212138   6.655   0.266   3.386
 3747SOL     OW12139   4.252   6.840   5.984
 3747SOL    HW112140   4.201   6.916   6.025
 3747SOL    HW212141   4.349   6.851   6.003
 3748SOL     OW12142   5.789   1.133   2.467
 3748SOL    HW112143   5.775   1.217   2.520
 3748SOL    HW212144   5.726   1.131   2.390
 3749SOL     OW12145   1.267   5.373   2.738
 3749SOL    HW112146   1.326   5.454   2.730
 3749SOL    HW212147   1.322   5.296   2.770
 3750SOL     OW12148   5.776   4.528   0.929
 3750SOL    HW112149   5.862   4.565   0.893
 3750SOL    HW212150   5.759   4.438   0.888
 3751SOL     OW12151   1.211   3.065   1.287
 3751SOL    HW112152   1.236   2.999   1.216
 3751SOL    HW212153   1.111   3.073   1.291
 3752SOL     OW12154   0.479   0.749   6.586
 3752SOL    HW112155   0.544   0.673   6.594
 3752SOL    HW212156   0.399   0.729   6.643
 3753SOL     OW12157   0.722   6.461   4.781
 3753SOL    HW112158   0.816   6.425   4.789
 3753SOL    HW212159   0.665   6.393   4.735
 3754SOL     OW12160   5.262   6.191   1.473
 3754SOL    HW112161   5.169   6.214   1.501
 3754SOL    HW212162   5.263   6.098   1.434
 3755SOL     OW12163   5.386   5.508   4.058
 3755SOL    HW112164   5.400   5.543   4.150
 3755SOL    HW212165   5.461   5.446   4.034
 3756SOL     OW12166   2.167   0.909   6.141
 3756SOL    HW112167   2.245   0.887   6.200
 3756SOL    HW212168   2.167   1.007   6.121
 3757SOL     OW12169   3.703   5.992   5.465
 3757SOL    HW112170   3.697   6.067   5.531
 3757SOL    HW212171   3.758   5.918   5.504
 3758SOL     OW12172   2.071   1.545   4.424
 3758SOL    HW112173   2.033   1.637   4.427
 3758SOL    HW212174   2.003   1.482   4.387
 3759SOL     OW12175   4.852   5.405   5.404
 3759SOL    HW112176   4.830   5.490   5.357
 3759SOL    HW212177   4.800   5.400   5.489
 3760SOL     OW12178   1.287   3.758   3.451
 3760SOL    HW112179   1.363   3.700   3.421
 3760SOL    HW212180   1.322   3.848   3.477
 3761SOL     OW12181   0.847   6.914   5.000
 3761SOL    HW112182   0.879   6.898   4.907
 3761SOL    HW212183   0.768   6.974   4.999
 3762SOL     OW12184   1.037   4.337   6.984
 3762SOL    HW112185   1.101   4.337   6.907
 3762SOL    HW212186   0.995   4.427   6.992
 3763SOL     OW12187   6.709   4.278   6.872
 3763SOL    HW112188   6.653   4.357   6.894
 3763SOL    HW212189   6.666   4.226   6.798
 3764SOL     OW12190   2.017   0.905   4.626
 3764SOL    HW112191   2.087   0.942   4.565
 3764SOL    HW212192   2.043   0.813   4.654
 3765SOL     OW12193   4.781   1.068   3.377
 3765SOL    HW112194   4.726   1.032   3.301
 3765SOL    HW212195   4.812   0.992   3.434
 3766SOL     OW12196   0.625   0.444   3.748
 3766SOL    HW112197   0.626   0.526   3.691
 3766SOL    HW212198   0.640   0.363   3.691
 3767SOL     OW12199   1.880   4.567   0.371
 3767SOL    HW112200   1.831   4.650   0.344
 3767SOL    HW212201   1.820   4.510   0.428
 3768SOL     OW12202   3.699   6.485   6.668
 3768SOL    HW112203   3.789   6.452   6.637
 3768SOL    HW212204   3.632   6.412   6.659
 3769SOL     OW12205   5.468   5.742   5.282
 3769SOL    HW112206   5.473   5.723   5.381
 3769SOL    HW212207   5.529   5.679   5.234
 3770SOL     OW12208   2.511   0.658   6.227
 3770SOL    HW112209   2.530   0.592   6.300
 3770SOL    HW212210   2.445   0.725   6.259
 3771SOL     OW12211   5.450   2.039   0.501
 3771SOL    HW112212   5.521   2.059   0.433
 3771SOL    HW212213   5.414   1.948   0.486
 3772SOL     OW12214   6.099   0.854   0.765
 3772SOL    HW112215   6.168   0.813   0.706
 3772SOL    HW212216   6.040   0.913   0.711
 3773SOL     OW12217   5.779   3.101   5.966
 3773SOL    HW112218   5.750   3.006   5.973
 3773SOL    HW212219   5.788   3.126   5.869
 3774SOL     OW12220   1.204   6.946   6.381
 3774SOL    HW112221   1.207   0.000   6.315
 3774SOL    HW212222   1.108   6.922   6.401
 3775SOL     OW12223   5.311   3.994   2.839
 3775SOL    HW112224   5.337   3.931   2.912
 3775SOL    HW212225   5.285   3.943   2.758
 3776SOL     OW12226   2.372   1.590   2.129
 3776SOL    HW112227   2.359   1.501   2.174
 3776SOL    HW212228   2.458   1.590   2.079
 3777SOL     OW12229   3.249   4.926   4.726
 3777SOL    HW112230   3.337   4.890   4.695
 3777SOL    HW212231   3.243   4.918   4.825
 3778SOL     OW12232   2.355   5.501   2.803
 3778SOL    HW112233   2.396   5.514   2.893
 3778SOL    HW212234   2.362   5.585   2.749
 3779SOL     OW12235   2.734   4.582   0.011
 3779SOL    HW112236   2.692   4.523   6.962
 3779SOL    HW212237   2.817   4.538   0.047
 3780SOL     OW12238   3.756   5.448   4.647
 3780SOL    HW112239   3.739   5.430   4.550
 3780SOL    HW212240   3.747   5.363   4.699
 3781SOL     OW12241   2.294   6.291   3.863
 3781SOL    HW112242   2.274   6.193   3.865
 3781SOL    HW212243   2.249   6.332   3.783
 3782SOL     OW12244   2.607   2.379   4.491
 3782SOL    HW112245   2.672   2.359   4.418
 3782SOL    HW212246   2.584   2.476   4.490
 3783SOL     OW12247   6.568   0.020   4.926
 3783SOL    HW112248   6.630   0.092   4.896
 3783SOL    HW212249   6.479   0.033   4.883
 3784SOL     OW12250   5.267   1.628   3.706
 3784SOL    HW112251   5.285   1.563   3.779
 3784SOL    HW212252   5.244   1.717   3.745
 3785SOL     OW12253   2.517   1.547   0.708
 3785SOL    HW112254   2.516   1.505   0.799
 3785SOL    HW212255   2.427   1.537   0.665
 3786SOL     OW12256   3.005   4.841   4.090
 3786SOL    HW112257   3.090   4.846   4.142
 3786SOL    HW212258   3.019   4.882   4.000
 3787SOL     OW12259   5.518   0.652   4.284
 3787SOL    HW112260   5.493   0.638   4.188
 3787SOL    HW212261   5.580   0.579   4.313
 3788SOL     OW12262   6.238   3.276   3.559
 3788SOL    HW112263   6.252   3.190   3.509
 3788SOL    HW212264   6.290   3.349   3.515
 3789SOL     OW12265   1.607   4.310   4.306
 3789SOL    HW112266   1.510   4.335   4.303
 3789SOL    HW212267   1.618   4.218   4.269
 3790SOL     OW12268   2.154   3.838   4.581
 3790SOL    HW112269   2.157   3.817   4.483
 3790SOL    HW212270   2.220   3.910   4.602
 3791SOL     OW12271   5.069   6.590   1.334
 3791SOL    HW112272   4.973   6.615   1.348
 3791SOL    HW212273   5.119   6.671   1.304
 3792SOL     OW12274   6.702   0.241   4.828
 3792SOL    HW112275   6.764   0.301   4.777
 3792SOL    HW212276   6.621   0.293   4.856
 3793SOL     OW12277   2.059   1.210   2.659
 3793SOL    HW112278   2.005   1.273   2.716
 3793SOL    HW212279   2.096   1.259   2.581
 3794SOL     OW12280   3.901   5.413   1.665
 3794SOL    HW112281   3.893   5.338   1.730
 3794SOL    HW212282   3.819   5.471   1.671
 3795SOL     OW12283   4.515   6.749   6.651
 3795SOL    HW112284   4.573   6.786   6.579
 3795SOL    HW212285   4.501   6.818   6.722
 3796SOL     OW12286   1.734   1.758   1.548
 3796SOL    HW112287   1.812   1.752   1.485
 3796SOL    HW212288   1.680   1.839   1.526
 3797SOL     OW12289   6.573   5.384   2.237
 3797SOL    HW112290   6.643   5.359   2.304
 3797SOL    HW212291   6.577   5.321   2.160
 3798SOL     OW12292   2.732   4.781   3.341
 3798SOL    HW112293   2.656   4.753   3.283
 3798SOL    HW212294   2.813   4.796   3.284
 3799SOL     OW12295   1.157   1.450   4.676
 3799SOL    HW112296   1.101   1.368   4.688
 3799SOL    HW212297   1.110   1.515   4.616
 3800SOL     OW12298   5.124   2.515   4.835
 3800SOL    HW112299   5.137   2.566   4.920
 3800SOL    HW212300   5.092   2.577   4.763
 3801SOL     OW12301   6.267   5.787   5.526
 3801SOL    HW112302   6.319   5.851   5.469
 3801SOL    HW212303   6.199   5.739   5.470
 3802SOL     OW12304   1.473   2.333   5.087
 3802SOL    HW112305   1.556   2.308   5.036
 3802SOL    HW212306   1.396   2.340   5.024
 3803SOL     OW12307   4.467   0.842   2.717
 3803SOL    HW112308   4.497   0.847   2.622
 3803SOL    HW212309   4.412   0.759   2.730
 3804SOL     OW12310   4.513   1.913   4.767
 3804SOL    HW112311   4.502   1.984   4.698
 3804SOL    HW212312   4.517   1.955   4.858
 3805SOL     OW12313   3.321   4.183   1.708
 3805SOL    HW112314   3.341   4.132   1.791
 3805SOL    HW212315   3.358   4.275   1.715
 3806SOL     OW12316   3.072   2.522   6.992
 3806SOL    HW112317   3.019   2.542   6.910
 3806SOL    HW212318   3.161   2.485   6.966
 3807SOL     OW12319   1.298   0.514   4.302
 3807SOL    HW112320   1.352   0.571   4.365
 3807SOL    HW212321   1.230   0.572   4.256
 3808SOL     OW12322   3.284   0.375   2.412
 3808SOL    HW112323   3.249   0.348   2.322
 3808SOL    HW212324   3.325   0.467   2.405
 3809SOL     OW12325   6.086   1.880   6.763
 3809SOL    HW112326   6.069   1.821   6.684
 3809SOL    HW212327   6.063   1.830   6.847
 3810SOL     OW12328   3.835   3.308   5.511
 3810SOL    HW112329   3.764   3.367   5.550
 3810SOL    HW212330   3.808   3.280   5.418
 3811SOL     OW12331   0.257   3.887   4.277
 3811SOL    HW112332   0.168   3.868   4.319
 3811SOL    HW212333   0.301   3.802   4.251
 3812SOL     OW12334   6.039   1.761   5.995
 3812SOL    HW112335   6.036   1.680   6.053
 3812SOL    HW212336   6.017   1.736   5.900
 3813SOL     OW12337   4.086   4.970   1.231
 3813SOL    HW112338   4.089   4.995   1.328
 3813SOL    HW212339   4.040   4.882   1.221
 3814SOL     OW12340   0.043   5.644   1.133
 3814SOL    HW112341   0.012   5.675   1.043
 3814SOL    HW212342   0.083   5.721   1.182
 3815SOL     OW12343   4.812   2.109   0.948
 3815SOL    HW112344   4.818   2.115   1.048
 3815SOL    HW212345   4.879   2.171   0.907
 3816SOL     OW12346   6.966   6.142   2.071
 3816SOL    HW112347   0.006   6.086   2.128
 3816SOL    HW212348   6.984   6.124   1.974
 3817SOL     OW12349   4.576   2.578   4.241
 3817SOL    HW112350   4.521   2.515   4.186
 3817SOL    HW212351   4.528   2.601   4.325
 3818SOL     OW12352   4.537   6.528   2.340
 3818SOL    HW112353   4.453   6.521   2.392
 3818SOL    HW212354   4.563   6.625   2.332
 3819SOL     OW12355   5.829   5.606   0.321
 3819SOL    HW112356   5.731   5.620   0.335
 3819SOL    HW212357   5.843   5.558   0.234
 3820SOL     OW12358   5.894   6.079   3.361
 3820SOL    HW112359   5.827   6.005   3.355
 3820SOL    HW212360   5.955   6.076   3.281
 3821SOL     OW12361   1.836   3.361   1.637
 3821SOL    HW112362   1.833   3.296   1.560
 3821SOL    HW212363   1.930   3.373   1.666
 3822SOL     OW12364   1.762   5.509   2.110
 3822SOL    HW112365   1.740   5.536   2.016
 3822SOL    HW212366   1.750   5.410   2.119
 3823SOL     OW12367   4.044   2.194   4.940
 3823SOL    HW112368   3.968   2.171   5.001
 3823SOL    HW212369   4.097   2.269   4.979
 3824SOL     OW12370   6.039   2.318   5.814
 3824SOL    HW112371   6.079   2.264   5.888
 3824SOL    HW212372   6.112   2.362   5.762
 3825SOL     OW12373   6.654   0.245   6.815
 3825SOL    HW112374   6.657   0.160   6.867
 3825SOL    HW212375   6.589   0.308   6.857
 3826SOL     OW12376   7.015   3.649   0.541
 3826SOL    HW112377   0.081   3.692   0.570
 3826SOL    HW212378   6.992   3.680   0.448
 3827SOL     OW12379   3.868   4.383   0.860
 3827SOL    HW112380   3.848   4.327   0.780
 3827SOL    HW212381   3.790   4.443   0.879
 3828SOL     OW12382   4.534   1.823   0.740
 3828SOL    HW112383   4.457   1.880   0.768
 3828SOL    HW212384   4.561   1.847   0.647
 3829SOL     OW12385   2.372   5.115   3.570
 3829SOL    HW112386   2.316   5.071   3.640
 3829SOL    HW212387   2.441   5.051   3.537
 3830SOL     OW12388   1.661   0.187   5.449
 3830SOL    HW112389   1.647   0.232   5.361
 3830SOL    HW212390   1.584   0.127   5.468
 3831SOL     OW12391   3.948   1.821   2.236
 3831SOL    HW112392   3.913   1.739   2.189
 3831SOL    HW212393   3.897   1.901   2.206
 3832SOL     OW12394   6.609   1.095   1.541
 3832SOL    HW112395   6.685   1.150   1.507
 3832SOL    HW212396   6.605   1.102   1.641
 3833SOL     OW12397   0.629   4.790   0.560
 3833SOL    HW112398   0.535   4.818   0.539
 3833SOL    HW212399   0.647   4.806   0.657
 3834SOL     OW12400   2.780   2.181   0.630
 3834SOL    HW112401   2.789   2.247   0.556
 3834SOL    HW212402   2.826   2.215   0.712
 3835SOL     OW12403   3.976   5.584   5.386
 3835SOL    HW112404   4.005   5.522   5.314
 3835SOL    HW212405   3.954   5.531   5.468
 3836SOL     OW12406   1.638   3.719   5.787
 3836SOL    HW112407   1.682   3.629   5.797
 3836SOL    HW212408   1.705   3.786   5.757
 3837SOL     OW12409   4.433   3.650   6.979
 3837SOL    HW112410   4.411   3.584   0.031
 3837SOL    HW212411   4.350   3.681   6.935
 3838SOL     OW12412   5.070   2.655   4.323
 3838SOL    HW112413   5.139   2.705   4.270
 3838SOL    HW212414   4.993   2.716   4.341
 3839SOL     OW12415   5.701   6.856   5.376
 3839SOL    HW112416   5.776   6.791   5.388
 3839SOL    HW212417   5.617   6.816   5.412
 3840SOL     OW12418   1.365   0.834   4.827
 3840SOL    HW112419   1.364   0.876   4.736
 3840SOL    HW212420   1.343   0.737   4.819
 3841SOL     OW12421   0.999   4.202   4.817
 3841SOL    HW112422   1.024   4.242   4.729
 3841SOL    HW212423   0.925   4.135   4.803
 3842SOL     OW12424   0.616   5.330   0.063
 3842SOL    HW112425   0.532   5.366   0.106
 3842SOL    HW212426   0.594   5.245   0.014
 3843SOL     OW12427   6.560   3.143   0.566
 3843SOL    HW112428   6.592   3.185   0.651
 3843SOL    HW212429   6.580   3.204   0.489
 3844SOL     OW12430   1.515   5.579   6.012
 3844SOL    HW112431   1.495   5.652   5.946
 3844SOL    HW212432   1.505   5.490   5.968
 3845SOL     OW12433   3.555   2.927   2.810
 3845SOL    HW112434   3.634   2.966   2.857
 3845SOL    HW212435   3.569   2.934   2.711
 3846SOL     OW12436   6.610   4.503   3.790
 3846SOL    HW112437   6.696   4.531   3.747
 3846SOL    HW212438   6.593   4.406   3.773
 3847SOL     OW12439   6.561   0.915   6.571
 3847SOL    HW112440   6.626   0.858   6.521
 3847SOL    HW212441   6.487   0.944   6.510
 3848SOL     OW12442   2.225   5.215   2.511
 3848SOL    HW112443   2.293   5.208   2.584
 3848SOL    HW212444   2.265   5.261   2.432
 3849SOL     OW12445   0.639   1.467   5.509
 3849SOL    HW112446   0.568   1.418   5.458
 3849SOL    HW212447   0.707   1.401   5.542
 3850SOL     OW12448   3.019   4.016   1.899
 3850SOL    HW112449   3.092   3.948   1.895
 3850SOL    HW212450   2.986   4.024   1.993
 3851SOL     OW12451   2.127   3.582   3.260
 3851SOL    HW112452   2.146   3.646   3.185
 3851SOL    HW212453   2.089   3.632   3.338
 3852SOL     OW12454   5.028   1.271   5.079
 3852SOL    HW112455   4.935   1.273   5.118
 3852SOL    HW212456   5.047   1.179   5.044
 3853SOL     OW12457   1.004   3.252   2.452
 3853SOL    HW112458   1.033   3.336   2.498
 3853SOL    HW212459   1.044   3.173   2.499
 3854SOL     OW12460   1.043   3.384   3.948
 3854SOL    HW112461   0.967   3.336   3.903
 3854SOL    HW212462   1.008   3.466   3.994
 3855SOL     OW12463   6.166   4.769   5.841
 3855SOL    HW112464   6.234   4.702   5.813
 3855SOL    HW212465   6.104   4.727   5.908
 3856SOL     OW12466   6.642   0.563   5.847
 3856SOL    HW112467   6.646   0.605   5.938
 3856SOL    HW212468   6.546   0.551   5.820
 3857SOL     OW12469   1.039   6.416   5.023
 3857SOL    HW112470   1.039   6.446   4.927
 3857SOL    HW212471   1.075   6.323   5.029
 3858SOL     OW12472   0.993   5.748   6.292
 3858SOL    HW112473   0.943   5.680   6.239
 3858SOL    HW212474   1.068   5.703   6.341
 3859SOL     OW12475   6.916   2.759   3.443
 3859SOL    HW112476   6.961   2.674   3.470
 3859SOL    HW212477   6.895   2.757   3.346
 3860SOL     OW12478   2.043   5.720   5.707
 3860SOL    HW112479   2.077   5.691   5.796
 3860SOL    HW212480   1.943   5.713   5.706
 3861SOL     OW12481   5.033   4.596   1.519
 3861SOL    HW112482   5.055   4.511   1.471
 3861SOL    HW212483   4.968   4.576   1.593
 3862SOL     OW12484   0.668   6.793   5.889
 3862SOL    HW112485   0.586   6.837   5.925
 3862SOL    HW212486   0.698   6.839   5.806
 3863SOL     OW12487   3.533   3.464   0.988
 3863SOL    HW112488   3.462   3.467   0.918
 3863SOL    HW212489   3.514   3.534   1.058
 3864SOL     OW12490   3.719   1.878   6.864
 3864SOL    HW112491   3.788   1.939   6.905
 3864SOL    HW212492   3.764   1.795   6.833
 3865SOL     OW12493   3.863   0.555   2.080
 3865SOL    HW112494   3.949   0.602   2.099
 3865SOL    HW212495   3.874   0.457   2.100
 3866SOL     OW12496   3.927   6.845   1.075
 3866SOL    HW112497   4.007   6.839   1.016
 3866SOL    HW212498   3.919   6.761   1.129
 3867SOL     OW12499   2.027   3.349   3.211
 3867SOL    HW112500   2.060   3.441   3.228
 3867SOL    HW212501   2.077   3.284   3.269
 3868SOL     OW12502   3.003   6.660   1.947
 3868SOL    HW112503   2.922   6.653   1.888
 3868SOL    HW212504   3.055   6.741   1.923
 3869SOL     OW12505   0.378   2.548   3.439
 3869SOL    HW112506   0.307   2.479   3.429
 3869SOL    HW212507   0.401   2.586   3.349
 3870SOL     OW12508   2.976   5.358   0.041
 3870SOL    HW112509   2.983   5.303   0.125
 3870SOL    HW212510   2.880   5.381   0.024
 3871SOL     OW12511   3.193   0.209   2.829
 3871SOL    HW112512   3.119   0.197   2.895
 3871SOL    HW212513   3.269   0.257   2.873
 3872SOL     OW12514   4.100   3.954   1.333
 3872SOL    HW112515   4.178   3.919   1.280
 3872SOL    HW212516   4.021   3.964   1.273
 3873SOL     OW12517   5.599   5.084   1.508
 3873SOL    HW112518   5.565   5.091   1.602
 3873SOL    HW212519   5.659   5.005   1.500
 3874SOL     OW12520   3.825   6.652   0.245
 3874SOL    HW112521   3.923   6.663   0.235
 3874SOL    HW212522   3.790   6.592   0.173
 3875SOL     OW12523   1.601   4.507   1.373
 3875SOL    HW112524   1.514   4.536   1.414
 3875SOL    HW212525   1.623   4.415   1.406
 3876SOL     OW12526   5.618   4.504   4.655
 3876SOL    HW112527   5.565   4.460   4.728
 3876SOL    HW212528   5.587   4.598   4.643
 3877SOL     OW12529   6.223   1.354   2.572
 3877SOL    HW112530   6.308   1.311   2.543
 3877SOL    HW212531   6.151   1.285   2.580
 3878SOL     OW12532   3.740   6.715   6.516
 3878SOL    HW112533   3.819   6.697   6.459
 3878SOL    HW212534   3.709   6.631   6.559
 3879SOL     OW12535   4.154   5.539   1.601
 3879SOL    HW112536   4.062   5.500   1.601
 3879SOL    HW212537   4.165   5.598   1.681
 3880SOL     OW12538   5.861   3.188   3.013
 3880SOL    HW112539   5.912   3.130   3.077
 3880SOL    HW212540   5.823   3.131   2.940
 3881SOL     OW12541   1.026   4.471   0.485
 3881SOL    HW112542   0.942   4.520   0.465
 3881SOL    HW212543   1.094   4.536   0.520
 3882SOL     OW12544   6.648   1.560   5.633
 3882SOL    HW112545   6.743   1.543   5.604
 3882SOL    HW212546   6.630   1.658   5.631
 3883SOL     OW12547   4.313   0.774   3.840
 3883SOL    HW112548   4.344   0.733   3.754
 3883SOL    HW212549   4.360   0.861   3.855
 3884SOL     OW12550   1.831   6.017   5.256
 3884SOL    HW112551   1.793   6.059   5.339
 3884SOL    HW212552   1.758   5.998   5.191
 3885SOL     OW12553   6.506   1.041   3.554
 3885SOL    HW112554   6.438   1.113   3.571
 3885SOL    HW212555   6.546   1.053   3.464
 3886SOL     OW12556   6.798   6.923   4.864
 3886SOL    HW112557   6.700   6.941   4.850
 3886SOL    HW212558   6.809   6.865   4.945
 3887SOL     OW12559   4.217   2.099   5.600
 3887SOL    HW112560   4.166   2.016   5.622
 3887SOL    HW212561   4.265   2.131   5.682
 3888SOL     OW12562   6.625   1.486   0.921
 3888SOL    HW112563   6.576   1.410   0.877
 3888SOL    HW212564   6.637   1.466   1.018
 3889SOL     OW12565   0.726   5.954   6.756
 3889SOL    HW112566   0.659   5.929   6.686
 3889SOL    HW212567   0.767   5.871   6.794
 3890SOL     OW12568   5.747   4.740   3.200
 3890SOL    HW112569   5.816   4.718   3.268
 3890SOL    HW212570   5.764   4.688   3.116
 3891SOL     OW12571   5.363   5.126   5.026
 3891SOL    HW112572   5.324   5.055   5.084
 3891SOL    HW212573   5.427   5.085   4.961
 3892SOL     OW12574   5.836   6.669   2.857
 3892SOL    HW112575   5.856   6.661   2.760
 3892SOL    HW212576   5.860   6.761   2.889
 3893SOL     OW12577   3.173   5.758   4.757
 3893SOL    HW112578   3.272   5.747   4.755
 3893SOL    HW212579   3.129   5.670   4.735
 3894SOL     OW12580   4.428   4.023   0.165
 3894SOL    HW112581   4.508   3.964   0.180
 3894SOL    HW212582   4.364   4.013   0.241
 3895SOL     OW12583   2.672   1.408   5.916
 3895SOL    HW112584   2.683   1.309   5.906
 3895SOL    HW212585   2.610   1.442   5.845
 3896SOL     OW12586   6.900   3.188   5.301
 3896SOL    HW112587   6.964   3.112   5.314
 3896SOL    HW212588   6.871   3.222   5.391
 3897SOL     OW12589   3.666   0.181   1.998
 3897SOL    HW112590   3.703   0.154   1.909
 3897SOL    HW212591   3.611   0.263   1.987
 3898SOL     OW12592   4.143   3.411   3.791
 3898SOL    HW112593   4.232   3.456   3.782
 3898SOL    HW212594   4.118   3.406   3.887
 3899SOL     OW12595   4.712   1.994   5.813
 3899SOL    HW112596   4.674   1.907   5.780
 3899SOL    HW212597   4.786   1.976   5.877
 3900SOL     OW12598   6.397   2.704   2.896
 3900SOL    HW112599   6.412   2.780   2.960
 3900SOL    HW212600   6.313   2.656   2.922
 3901SOL     OW12601   1.674   6.913   5.346
 3901SOL    HW112602   1.609   6.980   5.383
 3901SOL    HW212603   1.677   6.922   5.247
 3902SOL     OW12604   4.627   5.087   1.371
 3902SOL    HW112605   4.692   5.148   1.418
 3902SOL    HW212606   4.666   5.059   1.283
 3903SOL     OW12607   4.458   2.808   6.614
 3903SOL    HW112608   4.438   2.726   6.668
 3903SOL    HW212609   4.512   2.783   6.534
 3904SOL     OW12610   1.105   6.276   0.655
 3904SOL    HW112611   1.101   6.212   0.578
 3904SOL    HW212612   1.079   6.228   0.739
 3905SOL     OW12613   6.792   0.551   5.243
 3905SOL    HW112614   6.847   0.629   5.272
 3905SOL    HW212615   6.752   0.507   5.323
 3906SOL     OW12616   2.098   4.932   4.129
 3906SOL    HW112617   2.197   4.928   4.115
 3906SOL    HW212618   2.059   5.005   4.073
 3907SOL     OW12619   6.683   1.100   3.747
 3907SOL    HW112620   6.653   1.177   3.803
 3907SOL    HW212621   6.616   1.084   3.674
 3908SOL     OW12622   1.068   0.352   4.906
 3908SOL    HW112623   1.082   0.300   4.822
 3908SOL    HW212624   1.097   0.297   4.984
 3909SOL     OW12625   5.804   3.138   6.227
 3909SOL    HW112626   5.786   3.169   6.134
 3909SOL    HW212627   5.777   3.043   6.236
 3910SOL     OW12628   3.453   2.146   0.364
 3910SOL    HW112629   3.502   2.061   0.381
 3910SOL    HW212630   3.474   2.212   0.436
 3911SOL     OW12631   6.633   0.922   0.984
 3911SOL    HW112632   6.699   0.847   0.976
 3911SOL    HW212633   6.541   0.887   0.972
 3912SOL     OW12634   4.351   1.426   0.583
 3912SOL    HW112635   4.424   1.420   0.650
 3912SOL    HW212636   4.365   1.358   0.511
 3913SOL     OW12637   5.055   5.307   0.488
 3913SOL    HW112638   5.039   5.404   0.503
 3913SOL    HW212639   5.092   5.292   0.397
 3914SOL     OW12640   5.853   1.226   0.662
 3914SOL    HW112641   5.878   1.319   0.635
 3914SOL    HW212642   5.934   1.176   0.691
 3915SOL     OW12643   4.405   5.254   6.878
 3915SOL    HW112644   4.492   5.293   6.848
 3915SOL    HW212645   4.422   5.170   6.929
 3916SOL     OW12646   1.832   1.251   2.020
 3916SOL    HW112647   1.906   1.196   2.057
 3916SOL    HW212648   1.756   1.254   2.086
 3917SOL     OW12649   2.859   5.370   0.895
 3917SOL    HW112650   2.766   5.339   0.911
 3917SOL    HW212651   2.892   5.420   0.975
 3918SOL     OW12652   5.405   0.412   0.635
 3918SOL    HW112653   5.391   0.314   0.620
 3918SOL    HW212654   5.443   0.453   0.552
 3919SOL     OW12655   3.646   0.461   1.933
 3919SOL    HW112656   3.725   0.483   1.877
 3919SOL    HW212657   3.604   0.545   1.968
 3920SOL     OW12658   3.194   1.156   5.894
 3920SOL    HW112659   3.156   1.072   5.856
 3920SOL    HW212660   3.229   1.213   5.820
 3921SOL     OW12661   0.505   2.864   6.142
 3921SOL    HW112662   0.492   2.948   6.195
 3921SOL    HW212663   0.601   2.855   6.117
 3922SOL     OW12664   5.192   4.917   2.804
 3922SOL    HW112665   5.239   4.960   2.726
 3922SOL    HW212666   5.142   4.837   2.772
 3923SOL     OW12667   5.770   1.337   1.088
 3923SOL    HW112668   5.811   1.249   1.067
 3923SOL    HW212669   5.717   1.369   1.010
 3924SOL     OW12670   5.774   4.918   4.669
 3924SOL    HW112671   5.716   4.847   4.630
 3924SOL    HW212672   5.772   4.999   4.612
 3925SOL     OW12673   4.593   3.515   0.967
 3925SOL    HW112674   4.665   3.470   0.914
 3925SOL    HW212675   4.634   3.587   1.024
 3926SOL     OW12676   0.437   6.948   5.886
 3926SOL    HW112677   0.370   6.911   5.951
 3926SOL    HW212678   0.481   0.008   5.927
 3927SOL     OW12679   5.895   3.039   5.072
 3927SOL    HW112680   5.890   3.116   5.008
 3927SOL    HW212681   5.831   3.053   5.147
 3928SOL     OW12682   2.584   6.352   2.549
 3928SOL    HW112683   2.647   6.370   2.473
 3928SOL    HW212684   2.548   6.259   2.541
 3929SOL     OW12685   0.367   1.969   5.170
 3929SOL    HW112686   0.309   2.039   5.129
 3929SOL    HW212687   0.453   1.962   5.119
 3930SOL     OW12688   0.593   4.060   3.600
 3930SOL    HW112689   0.645   4.134   3.643
 3930SOL    HW212690   0.649   3.977   3.599
 3931SOL     OW12691   1.680   2.166   1.357
 3931SOL    HW112692   1.658   2.263   1.351
 3931SOL    HW212693   1.650   2.130   1.445
 3932SOL     OW12694   2.168   5.598   4.107
 3932SOL    HW112695   2.245   5.656   4.079
 3932SOL    HW212696   2.189   5.555   4.194
 3933SOL     OW12697   2.042   5.472   1.057
 3933SOL    HW112698   1.965   5.411   1.078
 3933SOL    HW212699   2.075   5.452   0.964
 3934SOL     OW12700   0.629   1.310   1.299
 3934SOL    HW112701   0.719   1.318   1.341
 3934SOL    HW212702   0.623   1.369   1.219
 3935SOL     OW12703   5.945   3.597   6.781
 3935SOL    HW112704   5.900   3.599   6.870
 3935SOL    HW212705   5.877   3.609   6.709
 3936SOL     OW12706   0.587   5.275   5.168
 3936SOL    HW112707   0.677   5.242   5.199
 3936SOL    HW212708   0.572   5.367   5.203
 3937SOL     OW12709   6.799   0.188   1.949
 3937SOL    HW112710   6.787   0.089   1.953
 3937SOL    HW212711   6.834   0.222   2.036
 3938SOL     OW12712   0.541   4.660   2.377
 3938SOL    HW112713   0.525   4.650   2.279
 3938SOL    HW212714   0.636   4.639   2.398
 3939SOL     OW12715   1.441   1.225   2.181
 3939SOL    HW112716   1.471   1.194   2.271
 3939SOL    HW212717   1.415   1.146   2.126
 3940SOL     OW12718   3.477   5.488   1.843
 3940SOL    HW112719   3.500   5.582   1.868
 3940SOL    HW212720   3.377   5.477   1.842
 3941SOL     OW12721   5.178   6.502   3.573
 3941SOL    HW112722   5.149   6.552   3.655
 3941SOL    HW212723   5.269   6.463   3.588
 3942SOL     OW12724   6.931   5.875   5.485
 3942SOL    HW112725   6.998   5.834   5.423
 3942SOL    HW212726   6.934   5.828   5.573
 3943SOL     OW12727   1.240   2.593   6.968
 3943SOL    HW112728   1.305   2.661   6.936
 3943SOL    HW212729   1.288   2.521   7.018
 3944SOL     OW12730   5.880   2.187   0.024
 3944SOL    HW112731   5.919   2.159   0.111
 3944SOL    HW212732   5.953   2.198   6.976
 3945SOL     OW12733   6.527   0.331   3.531
 3945SOL    HW112734   6.434   0.306   3.558
 3945SOL    HW212735   6.565   0.397   3.597
 3946SOL     OW12736   1.209   2.991   0.655
 3946SOL    HW112737   1.153   2.953   0.582
 3946SOL    HW212738   1.175   3.082   0.680
 3947SOL     OW12739   5.394   4.917   1.821
 3947SOL    HW112740   5.378   4.861   1.740
 3947SOL    HW212741   5.415   4.857   1.899
 3948SOL     OW12742   1.497   2.773   6.081
 3948SOL    HW112743   1.474   2.678   6.103
 3948SOL    HW212744   1.451   2.800   5.997
 3949SOL     OW12745   6.051   6.488   2.425
 3949SOL    HW112746   6.006   6.420   2.367
 3949SOL    HW212747   5.984   6.554   2.458
 3950SOL     OW12748   3.029   4.510   1.403
 3950SOL    HW112749   2.971   4.453   1.460
 3950SOL    HW212750   2.974   4.557   1.335
 3951SOL     OW12751   0.729   2.593   5.442
 3951SOL    HW112752   0.634   2.608   5.416
 3951SOL    HW212753   0.733   2.559   5.536
 3952SOL     OW12754   6.003   3.860   5.678
 3952SOL    HW112755   5.937   3.901   5.741
 3952SOL    HW212756   6.061   3.932   5.641
 3953SOL     OW12757   3.242   3.845   6.427
 3953SOL    HW112758   3.195   3.792   6.356
 3953SOL    HW212759   3.268   3.934   6.391
 3954SOL     OW12760   0.742   3.079   5.277
 3954SOL    HW112761   0.654   3.032   5.274
 3954SOL    HW212762   0.796   3.055   5.196
 3955SOL     OW12763   6.276   4.805   6.951
 3955SOL    HW112764   6.257   4.768   0.022
 3955SOL    HW212765   6.301   4.731   6.889
 3956SOL     OW12766   1.059   2.833   5.782
 3956SOL    HW112767   1.055   2.829   5.682
 3956SOL    HW212768   1.001   2.907   5.815
 3957SOL     OW12769   1.174   0.692   2.746
 3957SOL    HW112770   1.082   0.729   2.760
 3957SOL    HW212771   1.234   0.726   2.819
 3958SOL     OW12772   5.216   6.345   5.128
 3958SOL    HW112773   5.206   6.441   5.101
 3958SOL    HW212774   5.305   6.311   5.098
 3959SOL     OW12775   2.574   4.878   0.650
 3959SOL    HW112776   2.588   4.977   0.655
 3959SOL    HW212777   2.492   4.859   0.597
 3960SOL     OW12778   4.388   3.239   0.295
 3960SOL    HW112779   4.413   3.177   0.221
 3960SOL    HW212780   4.288   3.240   0.306
 3961SOL     OW12781   5.604   0.795   2.053
 3961SOL    HW112782   5.635   0.886   2.029
 3961SOL    HW212783   5.508   0.784   2.027
 3962SOL     OW12784   0.338   0.238   6.192
 3962SOL    HW112785   0.341   0.329   6.233
 3962SOL    HW212786   0.427   0.218   6.150
 3963SOL     OW12787   5.268   6.088   3.081
 3963SOL    HW112788   5.215   6.156   3.031
 3963SOL    HW212789   5.341   6.053   3.023
 3964SOL     OW12790   5.465   6.300   5.367
 3964SOL    HW112791   5.463   6.395   5.334
 3964SOL    HW212792   5.378   6.278   5.411
 3965SOL     OW12793   4.085   3.641   0.228
 3965SOL    HW112794   4.031   3.666   0.309
 3965SOL    HW212795   4.070   3.710   0.156
 3966SOL     OW12796   5.778   3.708   4.968
 3966SOL    HW112797   5.738   3.620   4.990
 3966SOL    HW212798   5.731   3.748   4.890
 3967SOL     OW12799   0.486   5.672   6.215
 3967SOL    HW112800   0.538   5.677   6.130
 3967SOL    HW212801   0.392   5.704   6.198
 3968SOL     OW12802   6.110   0.341   1.611
 3968SOL    HW112803   6.136   0.309   1.702
 3968SOL    HW212804   6.013   0.324   1.596
 3969SOL     OW12805   0.589   5.280   2.153
 3969SOL    HW112806   0.547   5.308   2.067
 3969SOL    HW212807   0.517   5.259   2.220
 3970SOL     OW12808   5.158   4.711   3.389
 3970SOL    HW112809   5.221   4.789   3.394
 3970SOL    HW212810   5.209   4.629   3.366
 3971SOL     OW12811   1.307   5.500   3.336
 3971SOL    HW112812   1.299   5.592   3.299
 3971SOL    HW212813   1.403   5.474   3.341
 3972SOL     OW12814   1.665   6.682   0.231
 3972SOL    HW112815   1.656   6.663   0.133
 3972SOL    HW212816   1.709   6.771   0.244
 3973SOL     OW12817   2.940   3.691   3.936
 3973SOL    HW112818   2.920   3.625   3.864
 3973SOL    HW212819   2.857   3.739   3.963
 3974SOL     OW12820   6.012   1.653   6.564
 3974SOL    HW112821   6.027   1.737   6.512
 3974SOL    HW212822   6.100   1.617   6.595
 3975SOL     OW12823   6.989   1.355   5.766
 3975SOL    HW112824   6.931   1.321   5.693
 3975SOL    HW212825   0.020   1.279   5.807
 3976SOL     OW12826   1.118   3.110   0.262
 3976SOL    HW112827   1.211   3.121   0.228
 3976SOL    HW212828   1.053   3.127   0.187
 3977SOL     OW12829   3.797   6.230   6.300
 3977SOL    HW112830   3.789   6.182   6.387
 3977SOL    HW212831   3.893   6.240   6.275
 3978SOL     OW12832   5.947   3.340   6.349
 3978SOL    HW112833   6.016   3.384   6.291
 3978SOL    HW212834   5.892   3.278   6.293
 3979SOL     OW12835   0.867   6.715   2.897
 3979SOL    HW112836   0.767   6.706   2.894
 3979SOL    HW212837   0.908   6.624   2.897
 3980SOL     OW12838   5.258   2.804   3.912
 3980SOL    HW112839   5.249   2.903   3.914
 3980SOL    HW212840   5.185   2.765   3.855
 3981SOL     OW12841   6.635   2.404   6.565
 3981SOL    HW112842   6.644   2.305   6.553
 3981SOL    HW212843   6.672   2.431   6.654
 3982SOL     OW12844   2.352   1.863   3.817
 3982SOL    HW112845   2.342   1.825   3.909
 3982SOL    HW212846   2.444   1.843   3.782
 3983SOL     OW12847   3.696   6.299   4.256
 3983SOL    HW112848   3.620   6.335   4.311
 3983SOL    HW212849   3.743   6.375   4.211
 3984SOL     OW12850   1.899   6.643   1.721
 3984SOL    HW112851   1.869   6.710   1.654
 3984SOL    HW212852   1.857   6.663   1.809
 3985SOL     OW12853   1.940   2.803   1.940
 3985SOL    HW112854   1.901   2.807   2.032
 3985SOL    HW212855   2.016   2.867   1.934
 3986SOL     OW12856   0.649   2.434   1.801
 3986SOL    HW112857   0.679   2.343   1.771
 3986SOL    HW212858   0.561   2.455   1.759
 3987SOL     OW12859   2.913   4.593   6.550
 3987SOL    HW112860   2.896   4.679   6.502
 3987SOL    HW212861   2.836   4.531   6.538
 3988SOL     OW12862   3.822   2.746   0.627
 3988SOL    HW112863   3.864   2.758   0.537
 3988SOL    HW212864   3.857   2.816   0.689
 3989SOL     OW12865   4.987   6.878   6.573
 3989SOL    HW112866   4.914   6.905   6.636
 3989SOL    HW212867   4.991   6.779   6.567
 3990SOL     OW12868   0.754   3.402   3.601
 3990SOL    HW112869   0.693   3.358   3.535
 3990SOL    HW212870   0.844   3.416   3.559
 3991SOL     OW12871   0.372   1.841   4.290
 3991SOL    HW112872   0.365   1.922   4.347
 3991SOL    HW212873   0.336   1.861   4.199
 3992SOL     OW12874   4.420   3.635   6.530
 3992SOL    HW112875   4.411   3.715   6.471
 3992SOL    HW212876   4.438   3.554   6.475
 3993SOL     OW12877   2.519   2.443   2.702
 3993SOL    HW112878   2.455   2.488   2.764
 3993SOL    HW212879   2.515   2.486   2.612
 3994SOL     OW12880   2.343   2.856   3.681
 3994SOL    HW112881   2.405   2.780   3.698
 3994SOL    HW212882   2.344   2.918   3.759
 3995SOL     OW12883   2.120   3.620   2.494
 3995SOL    HW112884   2.020   3.613   2.501
 3995SOL    HW212885   2.162   3.575   2.573
 3996SOL     OW12886   6.308   0.667   3.028
 3996SOL    HW112887   6.331   0.569   3.034
 3996SOL    HW212888   6.298   0.705   3.119
 3997SOL     OW12889   5.655   3.933   3.034
 3997SOL    HW112890   5.575   3.883   3.001
 3997SOL    HW212891   5.637   4.031   3.031
 3998SOL     OW12892   6.324   1.664   2.974
 3998SOL    HW112893   6.344   1.601   2.899
 3998SOL    HW212894   6.360   1.755   2.953
 3999SOL     OW12895   5.540   3.216   2.683
 3999SOL    HW112896   5.464   3.184   2.740
 3999SOL    HW212897   5.519   3.199   2.587
 4000SOL     OW12898   2.780   5.833   2.166
 4000SOL    HW112899   2.762   5.883   2.081
 4000SOL    HW212900   2.695   5.791   2.199
 4001SOL     OW12901   2.482   4.191   5.319
 4001SOL    HW112902   2.432   4.269   5.280
 4001SOL    HW212903   2.446   4.106   5.281
 4002SOL     OW12904   3.256   3.267   4.362
 4002SOL    HW112905   3.203   3.203   4.307
 4002SOL    HW212906   3.196   3.342   4.392
 4003SOL     OW12907   2.232   0.801   5.333
 4003SOL    HW112908   2.142   0.764   5.310
 4003SOL    HW212909   2.228   0.900   5.332
 4004SOL     OW12910   0.374   3.892   3.672
 4004SOL    HW112911   0.447   3.961   3.665
 4004SOL    HW212912   0.407   3.815   3.726
 4005SOL     OW12913   4.336   3.673   1.607
 4005SOL    HW112914   4.245   3.704   1.633
 4005SOL    HW212915   4.330   3.622   1.521
 4006SOL     OW12916   4.821   5.370   3.272
 4006SOL    HW112917   4.842   5.277   3.302
 4006SOL    HW212918   4.890   5.433   3.305
 4007SOL     OW12919   0.177   1.434   2.731
 4007SOL    HW112920   0.186   1.440   2.632
 4007SOL    HW212921   0.080   1.430   2.756
 4008SOL     OW12922   2.316   6.977   0.639
 4008SOL    HW112923   2.272   0.033   0.591
 4008SOL    HW212924   2.279   6.970   0.732
 4009SOL     OW12925   4.304   1.968   0.798
 4009SOL    HW112926   4.272   1.944   0.890
 4009SOL    HW212927   4.252   1.916   0.731
 4010SOL     OW12928   2.536   5.004   1.251
 4010SOL    HW112929   2.481   4.959   1.180
 4010SOL    HW212930   2.566   4.936   1.318
 4011SOL     OW12931   6.284   6.234   0.532
 4011SOL    HW112932   6.362   6.172   0.530
 4011SOL    HW212933   6.274   6.278   0.442
 4012SOL     OW12934   4.167   6.579   2.332
 4012SOL    HW112935   4.206   6.534   2.252
 4012SOL    HW212936   4.089   6.636   2.305
 4013SOL     OW12937   1.344   1.069   1.122
 4013SOL    HW112938   1.437   1.102   1.106
 4013SOL    HW212939   1.286   1.145   1.153
 4014SOL     OW12940   2.536   5.508   3.816
 4014SOL    HW112941   2.604   5.476   3.751
 4014SOL    HW212942   2.448   5.462   3.800
 4015SOL     OW12943   4.619   4.861   6.537
 4015SOL    HW112944   4.705   4.852   6.486
 4015SOL    HW212945   4.562   4.781   6.521
 4016SOL     OW12946   3.728   6.211   6.023
 4016SOL    HW112947   3.827   6.209   6.005
 4016SOL    HW212948   3.712   6.254   6.111
 4017SOL     OW12949   0.585   5.530   5.249
 4017SOL    HW112950   0.488   5.555   5.238
 4017SOL    HW212951   0.609   5.530   5.346
 4018SOL     OW12952   3.835   6.142   2.162
 4018SOL    HW112953   3.837   6.232   2.119
 4018SOL    HW212954   3.879   6.147   2.252
 4019SOL     OW12955   5.208   3.452   2.891
 4019SOL    HW112956   5.115   3.466   2.923
 4019SOL    HW212957   5.214   3.471   2.793
 4020SOL     OW12958   6.888   4.209   4.519
 4020SOL    HW112959   6.825   4.258   4.580
 4020SOL    HW212960   6.976   4.196   4.564
 4021SOL     OW12961   3.281   3.691   5.831
 4021SOL    HW112962   3.189   3.723   5.808
 4021SOL    HW212963   3.346   3.724   5.762
 4022SOL     OW12964   2.777   0.103   0.680
 4022SOL    HW112965   2.681   0.120   0.660
 4022SOL    HW212966   2.788   0.079   0.777
 4023SOL     OW12967   0.284   2.279   5.735
 4023SOL    HW112968   0.340   2.196   5.731
 4023SOL    HW212969   0.332   2.354   5.690
 4024SOL     OW12970   0.816   5.017   3.635
 4024SOL    HW112971   0.744   4.964   3.680
 4024SOL    HW212972   0.869   5.065   3.705
 4025SOL     OW12973   1.288   6.058   4.085
 4025SOL    HW112974   1.259   6.154   4.086
 4025SOL    HW212975   1.248   6.013   4.005
 4026SOL     OW12976   6.644   6.301   3.938
 4026SOL    HW112977   6.588   6.290   4.020
 4026SOL    HW212978   6.621   6.230   3.871
 4027SOL     OW12979   2.700   2.938   6.140
 4027SOL    HW112980   2.781   2.885   6.164
 4027SOL    HW212981   2.726   3.033   6.125
 4028SOL     OW12982   4.890   1.750   3.239
 4028SOL    HW112983   4.976   1.717   3.279
 4028SOL    HW212984   4.910   1.808   3.160
 4029SOL     OW12985   3.060   3.957   6.935
 4029SOL    HW112986   3.150   4.001   6.944
 4029SOL    HW212987   3.047   3.928   6.840
 4030SOL     OW12988   6.794   0.938   1.908
 4030SOL    HW112989   6.862   1.000   1.948
 4030SOL    HW212990   6.840   0.875   1.845
 4031SOL     OW12991   5.477   0.116   1.940
 4031SOL    HW112992   5.457   0.087   1.847
 4031SOL    HW212993   5.393   0.148   1.984
 4032SOL     OW12994   6.243   6.702   1.388
 4032SOL    HW112995   6.183   6.780   1.372
 4032SOL    HW212996   6.197   6.619   1.356
 4033SOL     OW12997   3.045   2.197   2.422
 4033SOL    HW112998   3.065   2.109   2.379
 4033SOL    HW212999   2.989   2.252   2.361
 4034SOL     OW13000   7.004   2.698   4.846
 4034SOL    HW113001   0.000   2.712   4.944
 4034SOL    HW213002   6.922   2.749   4.819
 4035SOL     OW13003   6.568   2.434   0.950
 4035SOL    HW113004   6.502   2.386   1.008
 4035SOL    HW213005   6.635   2.368   0.915
 4036SOL     OW13006   3.508   4.927   3.010
 4036SOL    HW113007   3.583   4.943   2.945
 4036SOL    HW213008   3.489   5.012   3.060
 4037SOL     OW13009   2.957   0.773   6.010
 4037SOL    HW113010   2.934   0.762   5.913
 4037SOL    HW213011   2.874   0.772   6.065
 4038SOL     OW13012   4.015   3.610   6.828
 4038SOL    HW113013   3.993   3.555   6.748
 4038SOL    HW213014   4.057   3.553   6.898
 4039SOL     OW13015   5.200   5.491   1.869
 4039SOL    HW113016   5.247   5.472   1.956
 4039SOL    HW213017   5.169   5.404   1.829
 4040SOL     OW13018   3.422   5.194   5.225
 4040SOL    HW113019   3.341   5.202   5.284
 4040SOL    HW213020   3.482   5.123   5.262
 4041SOL     OW13021   2.216   6.773   1.466
 4041SOL    HW113022   2.237   6.722   1.550
 4041SOL    HW213023   2.293   6.831   1.442
 4042SOL     OW13024   6.059   6.877   2.629
 4042SOL    HW113025   5.990   6.888   2.700
 4042SOL    HW213026   6.015   6.858   2.542
 4043SOL     OW13027   6.303   2.867   6.996
 4043SOL    HW113028   6.289   2.774   6.963
 4043SOL    HW213029   6.392   2.875   0.019
 4044SOL     OW13030   4.220   4.897   2.911
 4044SOL    HW113031   4.218   4.997   2.912
 4044SOL    HW213032   4.185   4.863   2.998
 4045SOL     OW13033   4.957   0.006   6.338
 4045SOL    HW113034   4.973   6.995   6.431
 4045SOL    HW213035   5.039   0.053   6.304
 4046SOL     OW13036   0.601   1.188   3.289
 4046SOL    HW113037   0.543   1.267   3.268
 4046SOL    HW213038   0.638   1.150   3.205
 4047SOL     OW13039   2.155   3.124   0.001
 4047SOL    HW113040   2.124   3.029   0.008
 4047SOL    HW213041   2.195   3.140   6.931
 4048SOL     OW13042   5.025   1.107   2.156
 4048SOL    HW113043   5.062   1.023   2.118
 4048SOL    HW213044   5.009   1.174   2.083
 4049SOL     OW13045   3.818   5.764   6.650
 4049SOL    HW113046   3.895   5.743   6.711
 4049SOL    HW213047   3.801   5.685   6.591
 4050SOL     OW13048   1.137   5.609   2.152
 4050SOL    HW113049   1.094   5.523   2.179
 4050SOL    HW213050   1.088   5.647   2.073
 4051SOL     OW13051   5.133   1.412   6.211
 4051SOL    HW113052   5.036   1.402   6.188
 4051SOL    HW213053   5.141   1.436   6.308
 4052SOL     OW13054   6.794   2.082   2.809
 4052SOL    HW113055   6.740   2.086   2.893
 4052SOL    HW213056   6.859   2.158   2.807
 4053SOL     OW13057   1.329   6.153   4.760
 4053SOL    HW113058   1.263   6.164   4.834
 4053SOL    HW213059   1.285   6.173   4.673
 4054SOL     OW13060   4.813   4.011   1.312
 4054SOL    HW113061   4.892   3.965   1.352
 4054SOL    HW213062   4.748   3.943   1.279
 4055SOL     OW13063   1.497   3.720   1.967
 4055SOL    HW113064   1.581   3.692   2.014
 4055SOL    HW213065   1.424   3.656   1.989
 4056SOL     OW13066   5.688   3.609   0.866
 4056SOL    HW113067   5.614   3.664   0.905
 4056SOL    HW213068   5.766   3.610   0.928
 4057SOL     OW13069   6.398   3.243   6.397
 4057SOL    HW113070   6.439   3.167   6.447
 4057SOL    HW213071   6.454   3.264   6.316
 4058SOL     OW13072   2.736   5.894   5.057
 4058SOL    HW113073   2.803   5.833   5.015
 4058SOL    HW213074   2.747   5.986   5.018
 4059SOL     OW13075   0.688   2.835   3.959
 4059SOL    HW113076   0.676   2.849   3.861
 4059SOL    HW213077   0.665   2.740   3.982
 4060SOL     OW13078   6.053   5.656   4.623
 4060SOL    HW113079   6.112   5.575   4.624
 4060SOL    HW213080   5.966   5.634   4.667
 4061SOL     OW13081   2.204   4.765   2.231
 4061SOL    HW113082   2.236   4.783   2.324
 4061SOL    HW213083   2.244   4.831   2.168
 4062SOL     OW13084   2.818   1.323   1.681
 4062SOL    HW113085   2.905   1.360   1.648
 4062SOL    HW213086   2.802   1.355   1.775
 4063SOL     OW13087   5.371   6.520   1.073
 4063SOL    HW113088   5.400   6.435   1.118
 4063SOL    HW213089   5.451   6.573   1.046
 4064SOL     OW13090   2.098   1.854   4.894
 4064SOL    HW113091   2.192   1.834   4.920
 4064SOL    HW213092   2.048   1.769   4.881
 4065SOL     OW13093   1.174   0.069   0.384
 4065SOL    HW113094   1.265   0.029   0.372
 4065SOL    HW213095   1.124   0.063   0.298
 4066SOL     OW13096   6.472   4.345   2.807
 4066SOL    HW113097   6.404   4.279   2.775
 4066SOL    HW213098   6.559   4.327   2.762
 4067SOL     OW13099   6.197   4.233   2.765
 4067SOL    HW113100   6.171   4.329   2.762
 4067SOL    HW213101   6.175   4.195   2.854
 4068SOL     OW13102   1.685   2.499   4.306
 4068SOL    HW113103   1.759   2.543   4.253
 4068SOL    HW213104   1.622   2.454   4.243
 4069SOL     OW13105   3.357   6.036   6.686
 4069SOL    HW113106   3.414   6.115   6.665
 4069SOL    HW213107   3.328   5.992   6.602
 4070SOL     OW13108   1.059   3.262   3.111
 4070SOL    HW113109   1.131   3.320   3.151
 4070SOL    HW213110   1.048   3.180   3.167
 4071SOL     OW13111   1.656   0.270   4.417
 4071SOL    HW113112   1.621   0.180   4.439
 4071SOL    HW213113   1.727   0.262   4.346
 4072SOL     OW13114   1.335   5.078   4.528
 4072SOL    HW113115   1.340   4.989   4.482
 4072SOL    HW213116   1.309   5.148   4.462
 4073SOL     OW13117   2.372   5.026   6.401
 4073SOL    HW113118   2.286   4.975   6.394
 4073SOL    HW213119   2.447   4.969   6.366
 4074SOL     OW13120   1.284   4.595   1.446
 4074SOL    HW113121   1.232   4.649   1.512
 4074SOL    HW213122   1.284   4.499   1.474
 4075SOL     OW13123   5.217   1.712   0.827
 4075SOL    HW113124   5.161   1.792   0.809
 4075SOL    HW213125   5.171   1.630   0.793
 4076SOL     OW13126   3.608   3.692   5.837
 4076SOL    HW113127   3.591   3.602   5.796
 4076SOL    HW213128   3.640   3.680   5.931
 4077SOL     OW13129   4.970   0.838   1.775
 4077SOL    HW113130   5.026   0.920   1.780
 4077SOL    HW213131   5.013   0.772   1.713
 4078SOL     OW13132   2.743   5.039   2.556
 4078SOL    HW113133   2.815   5.107   2.567
 4078SOL    HW213134   2.783   4.947   2.558
 4079SOL     OW13135   1.741   1.848   4.213
 4079SOL    HW113136   1.650   1.870   4.247
 4079SOL    HW213137   1.766   1.756   4.244
 4080SOL     OW13138   5.060   2.240   4.791
 4080SOL    HW113139   4.966   2.224   4.761
 4080SOL    HW213140   5.076   2.339   4.799
 4081SOL     OW13141   1.501   2.940   4.408
 4081SOL    HW113142   1.590   2.922   4.449
 4081SOL    HW213143   1.506   3.024   4.354
 4082SOL     OW13144   1.607   2.944   0.557
 4082SOL    HW113145   1.567   2.862   0.598
 4082SOL    HW213146   1.578   3.024   0.609
 4083SOL     OW13147   5.959   3.102   3.519
 4083SOL    HW113148   6.012   3.032   3.567
 4083SOL    HW213149   6.021   3.170   3.480
 4084SOL     OW13150   6.238   1.954   4.135
 4084SOL    HW113151   6.331   1.916   4.139
 4084SOL    HW213152   6.173   1.887   4.169
 4085SOL     OW13153   4.117   6.020   0.668
 4085SOL    HW113154   4.058   6.009   0.748
 4085SOL    HW213155   4.062   6.047   0.589
 4086SOL     OW13156   2.044   5.921   1.565
 4086SOL    HW113157   2.108   5.985   1.607
 4086SOL    HW213158   2.095   5.849   1.517
 4087SOL     OW13159   2.491   2.545   3.266
 4087SOL    HW113160   2.473   2.621   3.328
 4087SOL    HW213161   2.412   2.484   3.263
 4088SOL     OW13162   6.705   1.597   0.695
 4088SOL    HW113163   6.711   1.696   0.709
 4088SOL    HW213164   6.669   1.554   0.777
 4089SOL     OW13165   6.988   6.448   3.099
 4089SOL    HW113166   6.945   6.359   3.083
 4089SOL    HW213167   6.917   6.519   3.100
 4090SOL     OW13168   2.594   4.052   6.035
 4090SOL    HW113169   2.633   4.087   5.950
 4090SOL    HW213170   2.667   4.032   6.100
 4091SOL     OW13171   6.012   6.709   6.988
 4091SOL    HW113172   5.957   6.631   7.018
 4091SOL    HW213173   6.102   6.704   0.010
 4092SOL     OW13174   6.971   2.720   5.127
 4092SOL    HW113175   6.938   2.626   5.121
 4092SOL    HW213176   6.923   2.768   5.201
 4093SOL     OW13177   4.781   0.230   3.813
 4093SOL    HW113178   4.757   0.313   3.762
 4093SOL    HW213179   4.802   0.157   3.748
 4094SOL     OW13180   2.294   5.305   5.160
 4094SOL    HW113181   2.284   5.399   5.127
 4094SOL    HW213182   2.258   5.242   5.092
 4095SOL     OW13183   0.638   3.778   6.508
 4095SOL    HW113184   0.656   3.692   6.460
 4095SOL    HW213185   0.724   3.815   6.545
 4096SOL     OW13186   4.728   5.792   0.703
 4096SOL    HW113187   4.814   5.763   0.746
 4096SOL    HW213188   4.719   5.749   0.613
 4097SOL     OW13189   3.383   3.991   5.892
 4097SOL    HW113190   3.442   3.971   5.814
 4097SOL    HW213191   3.416   4.074   5.938
 4098SOL     OW13192   0.256   3.008   2.515
 4098SOL    HW113193   0.175   3.049   2.557
 4098SOL    HW213194   0.313   3.080   2.476
 4099SOL     OW13195   2.904   4.931   1.119
 4099SOL    HW113196   2.951   5.019   1.121
 4099SOL    HW213197   2.882   4.903   1.213
 4100SOL     OW13198   5.817   5.738   4.361
 4100SOL    HW113199   5.900   5.768   4.313
 4100SOL    HW213200   5.839   5.659   4.418
 4101SOL     OW13201   5.910   0.715   7.011
 4101SOL    HW113202   6.002   0.733   0.028
 4101SOL    HW213203   5.844   0.773   0.039
 4102SOL     OW13204   6.755   0.553   1.267
 4102SOL    HW113205   6.707   0.557   1.354
 4102SOL    HW213206   6.766   0.646   1.231
 4103SOL     OW13207   0.710   0.728   1.897
 4103SOL    HW113208   0.767   0.655   1.860
 4103SOL    HW213209   0.736   0.816   1.856
 4104SOL     OW13210   1.246   4.485   2.415
 4104SOL    HW113211   1.201   4.427   2.347
 4104SOL    HW213212   1.284   4.428   2.488
 4105SOL     OW13213   4.115   5.551   0.983
 4105SOL    HW113214   4.080   5.501   1.062
 4105SOL    HW213215   4.101   5.649   0.997
 4106SOL     OW13216   0.391   3.523   4.821
 4106SOL    HW113217   0.312   3.517   4.760
 4106SOL    HW213218   0.360   3.551   4.912
 4107SOL     OW13219   0.921   6.681   0.802
 4107SOL    HW113220   1.015   6.688   0.768
 4107SOL    HW213221   0.920   6.620   0.882
 4108SOL     OW13222   0.389   4.762   6.247
 4108SOL    HW113223   0.404   4.850   6.293
 4108SOL    HW213224   0.380   4.690   6.316
 4109SOL     OW13225   4.473   6.349   4.691
 4109SOL    HW113226   4.387   6.298   4.682
 4109SOL    HW213227   4.504   6.344   4.786
 4110SOL     OW13228   4.265   3.722   6.783
 4110SOL    HW113229   4.174   3.684   6.800
 4110SOL    HW213230   4.303   3.682   6.700
 4111SOL     OW13231   3.238   2.763   6.942
 4111SOL    HW113232   3.327   2.737   6.980
 4111SOL    HW213233   3.183   2.807   7.013
 4112SOL     OW13234   5.185   1.805   5.566
 4112SOL    HW113235   5.282   1.788   5.551
 4112SOL    HW213236   5.173   1.883   5.626
 4113SOL     OW13237   4.080   6.006   4.773
 4113SOL    HW113238   4.026   6.024   4.855
 4113SOL    HW213239   4.075   5.909   4.750
 4114SOL     OW13240   3.495   2.119   3.842
 4114SOL    HW113241   3.476   2.162   3.754
 4114SOL    HW213242   3.562   2.045   3.829
 4115SOL     OW13243   4.881   5.980   2.121
 4115SOL    HW113244   4.811   6.030   2.172
 4115SOL    HW213245   4.890   5.888   2.158
 4116SOL     OW13246   4.336   2.249   1.502
 4116SOL    HW113247   4.414   2.280   1.558
 4116SOL    HW213248   4.370   2.210   1.417
 4117SOL     OW13249   0.639   4.826   1.472
 4117SOL    HW113250   0.577   4.831   1.393
 4117SOL    HW213251   0.616   4.898   1.537
 4118SOL     OW13252   1.674   6.529   0.822
 4118SOL    HW113253   1.669   6.430   0.833
 4118SOL    HW213254   1.674   6.552   0.724
 4119SOL     OW13255   3.921   1.389   3.559
 4119SOL    HW113256   3.930   1.470   3.617
 4119SOL    HW213257   3.989   1.394   3.485
 4120SOL     OW13258   4.637   6.381   1.618
 4120SOL    HW113259   4.693   6.459   1.646
 4120SOL    HW213260   4.566   6.412   1.555
 4121SOL     OW13261   6.649   1.609   4.781
 4121SOL    HW113262   6.650   1.709   4.788
 4121SOL    HW213263   6.637   1.570   4.872
 4122SOL     OW13264   1.088   6.369   5.402
 4122SOL    HW113265   1.002   6.343   5.358
 4122SOL    HW213266   1.121   6.456   5.362
 4123SOL     OW13267   5.147   4.849   5.670
 4123SOL    HW113268   5.089   4.931   5.675
 4123SOL    HW213269   5.090   4.768   5.686
 4124SOL     OW13270   6.274   5.513   5.272
 4124SOL    HW113271   6.264   5.516   5.172
 4124SOL    HW213272   6.196   5.465   5.312
 4125SOL     OW13273   4.764   0.580   1.607
 4125SOL    HW113274   4.812   0.590   1.519
 4125SOL    HW213275   4.791   0.494   1.650
 4126SOL     OW13276   1.203   4.647   3.839
 4126SOL    HW113277   1.270   4.671   3.769
 4126SOL    HW213278   1.171   4.554   3.824
 4127SOL     OW13279   5.270   3.867   4.178
 4127SOL    HW113280   5.262   3.803   4.255
 4127SOL    HW213281   5.276   3.960   4.214
 4128SOL     OW13282   1.890   3.927   2.562
 4128SOL    HW113283   1.868   3.882   2.475
 4128SOL    HW213284   1.986   3.911   2.584
 4129SOL     OW13285   5.375   1.955   6.127
 4129SOL    HW113286   5.310   2.010   6.179
 4129SOL    HW213287   5.466   1.962   6.168
 4130SOL     OW13288   0.228   3.733   5.886
 4130SOL    HW113289   0.316   3.715   5.843
 4130SOL    HW213290   0.203   3.829   5.872
 4131SOL     OW13291   0.922   5.942   3.573
 4131SOL    HW113292   0.904   5.843   3.568
 4131SOL    HW213293   1.013   5.961   3.537
 4132SOL     OW13294   5.793   4.215   3.880
 4132SOL    HW113295   5.740   4.288   3.835
 4132SOL    HW213296   5.789   4.132   3.824
 4133SOL     OW13297   2.953   6.624   1.580
 4133SOL    HW113298   2.953   6.547   1.517
 4133SOL    HW213299   2.942   6.709   1.528
 4134SOL     OW13300   1.548   2.227   0.624
 4134SOL    HW113301   1.511   2.210   0.532
 4134SOL    HW213302   1.635   2.177   0.635
 4135SOL     OW13303   2.145   0.719   2.535
 4135SOL    HW113304   2.186   0.654   2.472
 4135SOL    HW213305   2.056   0.748   2.500
 4136SOL     OW13306   0.775   2.016   4.112
 4136SOL    HW113307   0.730   2.065   4.037
 4136SOL    HW213308   0.722   2.028   4.196
 4137SOL     OW13309   2.209   3.803   1.253
 4137SOL    HW113310   2.307   3.816   1.242
 4137SOL    HW213311   2.173   3.748   1.178
 4138SOL     OW13312   3.506   4.937   4.341
 4138SOL    HW113313   3.598   4.908   4.312
 4138SOL    HW213314   3.473   5.008   4.279
 4139SOL     OW13315   2.187   2.251   6.157
 4139SOL    HW113316   2.250   2.181   6.192
 4139SOL    HW213317   2.212   2.274   6.063
 4140SOL     OW13318   3.619   0.470   5.275
 4140SOL    HW113319   3.693   0.522   5.319
 4140SOL    HW213320   3.550   0.533   5.241
 4141SOL     OW13321   5.235   5.365   1.162
 4141SOL    HW113322   5.329   5.365   1.194
 4141SOL    HW213323   5.213   5.276   1.124
 4142SOL     OW13324   6.496   5.527   0.913
 4142SOL    HW113325   6.525   5.554   1.005
 4142SOL    HW213326   6.443   5.601   0.872
 4143SOL     OW13327   6.921   3.364   0.881
 4143SOL    HW113328   7.006   3.375   0.830
 4143SOL    HW213329   6.869   3.450   0.878
 4144SOL     OW13330   5.873   2.320   0.892
 4144SOL    HW113331   5.870   2.221   0.876
 4144SOL    HW213332   5.782   2.353   0.915
 4145SOL     OW13333   7.000   5.745   1.604
 4145SOL    HW113334   6.935   5.784   1.538
 4145SOL    HW213335   0.046   5.688   1.556
 4146SOL     OW13336   5.973   0.697   5.431
 4146SOL    HW113337   6.072   0.703   5.443
 4146SOL    HW213338   5.946   0.602   5.419
 4147SOL     OW13339   3.585   1.858   5.334
 4147SOL    HW113340   3.564   1.766   5.367
 4147SOL    HW213341   3.500   1.906   5.312
 4148SOL     OW13342   0.415   6.915   3.922
 4148SOL    HW113343   0.322   6.883   3.904
 4148SOL    HW213344   0.412   7.008   3.959
 4149SOL     OW13345   0.461   3.425   0.476
 4149SOL    HW113346   0.421   3.474   0.553
 4149SOL    HW213347   0.556   3.401   0.498
 4150SOL     OW13348   5.976   0.620   5.841
 4150SOL    HW113349   6.076   0.610   5.843
 4150SOL    HW213350   5.953   0.706   5.796
 4151SOL     OW13351   5.524   5.863   6.969
 4151SOL    HW113352   5.520   5.809   6.885
 4151SOL    HW213353   5.510   5.803   0.028
 4152SOL     OW13354   3.010   4.891   1.567
 4152SOL    HW113355   2.969   4.977   1.597
 4152SOL    HW213356   3.100   4.909   1.526
 4153SOL     OW13357   5.230   5.503   6.463
 4153SOL    HW113358   5.266   5.425   6.411
 4153SOL    HW213359   5.130   5.502   6.461
 4154SOL     OW13360   6.607   3.889   5.428
 4154SOL    HW113361   6.680   3.909   5.493
 4154SOL    HW213362   6.642   3.897   5.335
 4155SOL     OW13363   0.290   3.470   3.193
 4155SOL    HW113364   0.215   3.433   3.248
 4155SOL    HW213365   0.284   3.570   3.192
 4156SOL     OW13366   5.784   0.034   4.938
 4156SOL    HW113367   5.790   0.119   4.886
 4156SOL    HW213368   5.749   6.982   4.879
 4157SOL     OW13369   3.605   0.269   3.829
 4157SOL    HW113370   3.524   0.328   3.835
 4157SOL    HW213371   3.687   0.325   3.820
 4158SOL     OW13372   1.208   5.382   3.757
 4158SOL    HW113373   1.121   5.410   3.798
 4158SOL    HW213374   1.255   5.462   3.719
 4159SOL     OW13375   1.583   3.144   4.230
 4159SOL    HW113376   1.544   3.132   4.139
 4159SOL    HW213377   1.539   3.221   4.276
 4160SOL     OW13378   6.268   0.668   1.139
 4160SOL    HW113379   6.310   0.671   1.230
 4160SOL    HW213380   6.175   0.704   1.144
 4161SOL     OW13381   2.156   0.232   6.569
 4161SOL    HW113382   2.151   0.331   6.580
 4161SOL    HW213383   2.071   0.199   6.528
 4162SOL     OW13384   6.217   0.487   4.932
 4162SOL    HW113385   6.293   0.424   4.949
 4162SOL    HW213386   6.167   0.503   5.017
 4163SOL     OW13387   6.078   1.675   3.104
 4163SOL    HW113388   6.147   1.677   3.032
 4163SOL    HW213389   6.046   1.768   3.121
 4164SOL     OW13390   1.838   0.185   6.798
 4164SOL    HW113391   1.765   0.152   6.739
 4164SOL    HW213392   1.901   0.110   6.819
 4165SOL     OW13393   4.514   6.790   0.840
 4165SOL    HW113394   4.486   6.832   0.754
 4165SOL    HW213395   4.549   6.860   0.902
 4166SOL     OW13396   4.956   2.630   1.337
 4166SOL    HW113397   5.029   2.576   1.379
 4166SOL    HW213398   4.913   2.688   1.406
 4167SOL     OW13399   2.341   3.303   1.150
 4167SOL    HW113400   2.389   3.270   1.232
 4167SOL    HW213401   2.395   3.376   1.107
 4168SOL     OW13402   0.305   4.479   1.242
 4168SOL    HW113403   0.372   4.467   1.315
 4168SOL    HW213404   0.353   4.488   1.154
 4169SOL     OW13405   5.112   3.845   4.670
 4169SOL    HW113406   5.198   3.794   4.674
 4169SOL    HW213407   5.047   3.807   4.736
 4170SOL     OW13408   3.970   3.148   5.044
 4170SOL    HW113409   3.973   3.097   5.130
 4170SOL    HW213410   3.933   3.090   4.971
 4171SOL     OW13411   5.340   3.996   0.878
 4171SOL    HW113412   5.359   3.899   0.869
 4171SOL    HW213413   5.424   4.044   0.905
 4172SOL     OW13414   6.988   2.501   6.802
 4172SOL    HW113415   6.904   2.554   6.795
 4172SOL    HW213416   7.005   2.478   6.898
 4173SOL     OW13417   5.482   3.232   5.280
 4173SOL    HW113418   5.505   3.329   5.288
 4173SOL    HW213419   5.386   3.218   5.305
 4174SOL     OW13420   4.940   0.899   4.089
 4174SOL    HW113421   4.929   0.935   4.182
 4174SOL    HW213422   4.891   0.813   4.080
 4175SOL     OW13423   3.211   6.643   4.567
 4175SOL    HW113424   3.266   6.683   4.494
 4175SOL    HW213425   3.231   6.545   4.575
 4176SOL     OW13426   3.858   0.290   2.155
 4176SOL    HW113427   3.834   0.245   2.241
 4176SOL    HW213428   3.789   0.269   2.086
 4177SOL     OW13429   0.288   4.929   5.003
 4177SOL    HW113430   0.360   4.941   4.934
 4177SOL    HW213431   0.287   4.834   5.034
 4178SOL     OW13432   3.832   1.009   5.084
 4178SOL    HW113433   3.840   1.088   5.022
 4178SOL    HW213434   3.920   0.963   5.090
 4179SOL     OW13435   5.751   3.665   3.902
 4179SOL    HW113436   5.826   3.621   3.852
 4179SOL    HW213437   5.664   3.643   3.857
 4180SOL     OW13438   5.169   4.578   1.839
 4180SOL    HW113439   5.122   4.490   1.836
 4180SOL    HW213440   5.223   4.584   1.923
 4181SOL     OW13441   1.706   2.093   6.370
 4181SOL    HW113442   1.779   2.063   6.309
 4181SOL    HW213443   1.622   2.043   6.351
 4182SOL     OW13444   0.115   0.815   2.538
 4182SOL    HW113445   0.044   0.772   2.594
 4182SOL    HW213446   0.141   0.753   2.464
 4183SOL     OW13447   2.729   1.354   1.936
 4183SOL    HW113448   2.667   1.426   1.903
 4183SOL    HW213449   2.686   1.307   2.013
 4184SOL     OW13450   3.762   5.077   1.124
 4184SOL    HW113451   3.852   5.121   1.124
 4184SOL    HW213452   3.712   5.105   1.206
 4185SOL     OW13453   0.267   5.548   3.181
 4185SOL    HW113454   0.335   5.613   3.216
 4185SOL    HW213455   0.277   5.461   3.229
 4186SOL     OW13456   1.981   4.028   6.974
 4186SOL    HW113457   1.941   4.117   6.954
 4186SOL    HW213458   2.072   4.022   6.933
 4187SOL     OW13459   3.936   3.288   5.837
 4187SOL    HW113460   4.007   3.278   5.768
 4187SOL    HW213461   3.850   3.251   5.801
 4188SOL     OW13462   4.565   0.867   4.398
 4188SOL    HW113463   4.572   0.793   4.331
 4188SOL    HW213464   4.469   0.881   4.421
 4189SOL     OW13465   2.970   1.895   4.064
 4189SOL    HW113466   3.021   1.898   4.150
 4189SOL    HW213467   2.883   1.848   4.079
 4190SOL     OW13468   2.987   0.252   6.298
 4190SOL    HW113469   2.953   0.167   6.339
 4190SOL    HW213470   3.055   0.293   6.359
 4191SOL     OW13471   5.622   3.239   3.151
 4191SOL    HW113472   5.566   3.266   3.072
 4191SOL    HW213473   5.714   3.214   3.120
 4192SOL     OW13474   6.622   1.705   3.054
 4192SOL    HW113475   6.573   1.789   3.030
 4192SOL    HW213476   6.556   1.632   3.072
 4193SOL     OW13477   2.505   6.707   2.001
 4193SOL    HW113478   2.576   6.765   2.041
 4193SOL    HW213479   2.415   6.740   2.031
 4194SOL     OW13480   6.744   1.855   4.491
 4194SOL    HW113481   6.832   1.840   4.537
 4194SOL    HW213482   6.671   1.856   4.559
 4195SOL     OW13483   3.975   0.548   1.138
 4195SOL    HW113484   3.878   0.566   1.152
 4195SOL    HW213485   3.992   0.449   1.144
 4196SOL     OW13486   5.807   2.684   4.101
 4196SOL    HW113487   5.859   2.615   4.151
 4196SOL    HW213488   5.721   2.644   4.068
 4197SOL     OW13489   5.296   4.213   4.085
 4197SOL    HW113490   5.197   4.214   4.072
 4197SOL    HW213491   5.317   4.224   4.183
 4198SOL     OW13492   6.152   3.795   6.982
 4198SOL    HW113493   6.243   3.815   7.019
 4198SOL    HW213494   6.136   3.696   6.984
 4199SOL     OW13495   2.973   3.158   5.191
 4199SOL    HW113496   2.891   3.208   5.219
 4199SOL    HW213497   3.054   3.210   5.220
 4200SOL     OW13498   2.396   6.486   6.532
 4200SOL    HW113499   2.474   6.548   6.545
 4200SOL    HW213500   2.407   6.436   6.446
 4201SOL     OW13501   6.408   6.705   3.223
 4201SOL    HW113502   6.428   6.628   3.283
 4201SOL    HW213503   6.433   6.681   3.129
 4202SOL     OW13504   4.843   4.558   6.279
 4202SOL    HW113505   4.796   4.567   6.191
 4202SOL    HW213506   4.817   4.472   6.322
 4203SOL     OW13507   4.538   5.975   3.235
 4203SOL    HW113508   4.587   5.968   3.148
 4203SOL    HW213509   4.463   6.040   3.226
 4204SOL     OW13510   3.148   3.002   1.927
 4204SOL    HW113511   3.233   3.054   1.939
 4204SOL    HW213512   3.150   2.920   1.984
 4205SOL     OW13513   3.208   4.899   4.286
 4205SOL    HW113514   3.173   4.928   4.375
 4205SOL    HW213515   3.306   4.878   4.294
 4206SOL     OW13516   4.713   1.050   5.870
 4206SOL    HW113517   4.807   1.042   5.904
 4206SOL    HW213518   4.714   1.073   5.773
 4207SOL     OW13519   1.708   0.987   1.674
 4207SOL    HW113520   1.772   1.024   1.608
 4207SOL    HW213521   1.680   1.059   1.738
 4208SOL     OW13522   1.638   2.527   0.876
 4208SOL    HW113523   1.700   2.489   0.945
 4208SOL    HW213524   1.558   2.468   0.868
 4209SOL     OW13525   1.635   0.897   4.853
 4209SOL    HW113526   1.540   0.868   4.841
 4209SOL    HW213527   1.638   0.994   4.876
 4210SOL     OW13528   3.494   3.485   1.729
 4210SOL    HW113529   3.448   3.572   1.749
 4210SOL    HW213530   3.429   3.422   1.687
 4211SOL     OW13531   4.702   5.096   5.262
 4211SOL    HW113532   4.800   5.097   5.280
 4211SOL    HW213533   4.679   5.018   5.203
 4212SOL     OW13534   6.514   1.608   2.192
 4212SOL    HW113535   6.462   1.609   2.278
 4212SOL    HW213536   6.566   1.693   2.184
 4213SOL     OW13537   2.339   1.039   2.396
 4213SOL    HW113538   2.397   1.115   2.368
 4213SOL    HW213539   2.378   0.994   2.477
 4214SOL     OW13540   0.531   3.492   6.466
 4214SOL    HW113541   0.507   3.403   6.504
 4214SOL    HW213542   0.624   3.516   6.495
 4215SOL     OW13543   0.533   5.562   4.377
 4215SOL    HW113544   0.626   5.539   4.404
 4215SOL    HW213545   0.532   5.655   4.339
 4216SOL     OW13546   1.232   2.075   4.000
 4216SOL    HW113547   1.296   2.001   3.979
 4216SOL    HW213548   1.265   2.160   3.960
 4217SOL     OW13549   7.014   6.835   2.329
 4217SOL    HW113550   6.947   6.779   2.281
 4217SOL    HW213551   0.047   6.778   2.391
 4218SOL     OW13552   4.848   0.333   1.657
 4218SOL    HW113553   4.894   0.272   1.721
 4218SOL    HW213554   4.754   0.301   1.643
 4219SOL     OW13555   3.562   4.907   5.273
 4219SOL    HW113556   3.601   4.815   5.277
 4219SOL    HW213557   3.464   4.901   5.251
 4220SOL     OW13558   6.687   3.829   3.224
 4220SOL    HW113559   6.757   3.828   3.153
 4220SOL    HW213560   6.597   3.840   3.182
 4221SOL     OW13561   5.230   5.770   6.738
 4221SOL    HW113562   5.197   5.859   6.770
 4221SOL    HW213563   5.327   5.777   6.717
 4222SOL     OW13564   6.139   2.184   2.241
 4222SOL    HW113565   6.198   2.245   2.189
 4222SOL    HW213566   6.169   2.089   2.228
 4223SOL     OW13567   3.225   3.601   2.833
 4223SOL    HW113568   3.158   3.546   2.785
 4223SOL    HW213569   3.269   3.664   2.769
 4224SOL     OW13570   4.705   2.827   4.679
 4224SOL    HW113571   4.716   2.890   4.756
 4224SOL    HW213572   4.613   2.788   4.682
 4225SOL     OW13573   5.578   0.879   4.798
 4225SOL    HW113574   5.514   0.908   4.868
 4225SOL    HW213575   5.572   0.780   4.787
 4226SOL     OW13576   1.754   0.797   3.952
 4226SOL    HW113577   1.798   0.886   3.945
 4226SOL    HW213578   1.705   0.791   4.039
 4227SOL     OW13579   4.103   4.805   0.250
 4227SOL    HW113580   4.182   4.791   0.311
 4227SOL    HW213581   4.111   4.745   0.171
 4228SOL     OW13582   5.607   6.475   3.925
 4228SOL    HW113583   5.702   6.455   3.947
 4228SOL    HW213584   5.546   6.416   3.978
 4229SOL     OW13585   4.001   4.822   6.498
 4229SOL    HW113586   4.015   4.725   6.519
 4229SOL    HW213587   3.944   4.831   6.417
 4230SOL     OW13588   2.789   0.214   5.305
 4230SOL    HW113589   2.740   0.301   5.294
 4230SOL    HW213590   2.858   0.223   5.376
 4231SOL     OW13591   4.862   6.479   5.395
 4231SOL    HW113592   4.887   6.483   5.491
 4231SOL    HW213593   4.927   6.420   5.346
 4232SOL     OW13594   1.284   5.679   1.564
 4232SOL    HW113595   1.287   5.589   1.608
 4232SOL    HW213596   1.339   5.744   1.616
 4233SOL     OW13597   6.013   0.700   6.555
 4233SOL    HW113598   6.028   0.602   6.548
 4233SOL    HW213599   6.027   0.742   6.466
 4234SOL     OW13600   2.620   5.069   6.052
 4234SOL    HW113601   2.679   5.087   6.131
 4234SOL    HW213602   2.595   5.155   6.008
 4235SOL     OW13603   6.490   4.650   5.699
 4235SOL    HW113604   6.493   4.625   5.796
 4235SOL    HW213605   6.578   4.631   5.657
 4236SOL     OW13606   0.560   2.422   3.691
 4236SOL    HW113607   0.527   2.498   3.635
 4236SOL    HW213608   0.525   2.336   3.654
 4237SOL     OW13609   5.838   4.132   4.563
 4237SOL    HW113610   5.829   4.063   4.491
 4237SOL    HW213611   5.865   4.219   4.522
 4238SOL     OW13612   3.965   5.265   3.843
 4238SOL    HW113613   3.954   5.188   3.781
 4238SOL    HW213614   4.049   5.254   3.896
 4239SOL     OW13615   4.682   6.869   4.958
 4239SOL    HW113616   4.673   6.941   4.889
 4239SOL    HW213617   4.759   6.891   5.018
 4240SOL     OW13618   2.679   5.432   6.848
 4240SOL    HW113619   2.743   5.504   6.877
 4240SOL    HW213620   2.694   5.412   6.752
 4241SOL     OW13621   5.018   0.157   1.463
 4241SOL    HW113622   5.108   0.120   1.438
 4241SOL    HW213623   5.015   0.172   1.562
 4242SOL     OW13624   2.412   0.104   2.716
 4242SOL    HW113625   2.327   0.063   2.751
 4242SOL    HW213626   2.483   0.098   2.786
 4243SOL     OW13627   0.737   3.674   2.107
 4243SOL    HW113628   0.821   3.641   2.150
 4243SOL    HW213629   0.690   3.737   2.170
 4244SOL     OW13630   4.815   5.895   1.247
 4244SOL    HW113631   4.770   5.914   1.159
 4244SOL    HW213632   4.755   5.839   1.304
 4245SOL     OW13633   6.645   3.084   0.146
 4245SOL    HW113634   6.651   3.149   0.070
 4245SOL    HW213635   6.670   3.130   0.232
 4246SOL     OW13636   5.268   2.397   2.820
 4246SOL    HW113637   5.230   2.319   2.870
 4246SOL    HW213638   5.280   2.373   2.724
 4247SOL     OW13639   2.117   5.199   4.808
 4247SOL    HW113640   2.187   5.156   4.864
 4247SOL    HW213641   2.032   5.207   4.859
 4248SOL     OW13642   1.873   0.818   2.496
 4248SOL    HW113643   1.799   0.789   2.557
 4248SOL    HW213644   1.868   0.916   2.481
 4249SOL     OW13645   0.166   1.050   4.290
 4249SOL    HW113646   0.093   1.119   4.288
 4249SOL    HW213647   0.170   1.008   4.381
 4250SOL     OW13648   0.828   5.651   3.838
 4250SOL    HW113649   0.801   5.556   3.858
 4250SOL    HW213650   0.787   5.679   3.751
 4251SOL     OW13651   5.910   2.680   6.775
 4251SOL    HW113652   5.843   2.661   6.704
 4251SOL    HW213653   5.959   2.763   6.753
 4252SOL     OW13654   6.245   6.388   5.437
 4252SOL    HW113655   6.231   6.487   5.439
 4252SOL    HW213656   6.165   6.342   5.475
 4253SOL     OW13657   3.651   6.008   2.325
 4253SOL    HW113658   3.698   5.940   2.381
 4253SOL    HW213659   3.700   6.020   2.239
 4254SOL     OW13660   2.420   3.192   0.101
 4254SOL    HW113661   2.380   3.278   0.067
 4254SOL    HW213662   2.349   3.123   0.110
 4255SOL     OW13663   0.827   4.531   2.659
 4255SOL    HW113664   0.819   4.432   2.670
 4255SOL    HW213665   0.861   4.571   2.745
 4256SOL     OW13666   0.956   4.405   1.637
 4256SOL    HW113667   1.025   4.440   1.701
 4256SOL    HW213668   0.984   4.315   1.604
 4257SOL     OW13669   5.934   1.427   4.943
 4257SOL    HW113670   5.852   1.379   4.913
 4257SOL    HW213671   5.908   1.510   4.994
 4258SOL     OW13672   3.065   5.765   0.762
 4258SOL    HW113673   3.044   5.669   0.746
 4258SOL    HW213674   3.138   5.773   0.830
 4259SOL     OW13675   1.665   6.556   1.417
 4259SOL    HW113676   1.706   6.483   1.472
 4259SOL    HW213677   1.708   6.559   1.327
 4260SOL     OW13678   4.991   0.046   4.764
 4260SOL    HW113679   4.950   0.110   4.829
 4260SOL    HW213680   5.081   0.078   4.737
 4261SOL     OW13681   2.696   6.856   4.967
 4261SOL    HW113682   2.674   6.884   4.874
 4261SOL    HW213683   2.746   6.929   5.013
 4262SOL     OW13684   1.204   4.966   6.352
 4262SOL    HW113685   1.251   4.963   6.264
 4262SOL    HW213686   1.105   4.960   6.337
 4263SOL     OW13687   2.648   2.392   3.486
 4263SOL    HW113688   2.657   2.474   3.429
 4263SOL    HW213689   2.721   2.327   3.462
 4264SOL     OW13690   5.345   1.349   4.504
 4264SOL    HW113691   5.441   1.357   4.477
 4264SOL    HW213692   5.337   1.282   4.577
 4265SOL     OW13693   2.828   0.124   1.213
 4265SOL    HW113694   2.922   0.141   1.242
 4265SOL    HW213695   2.803   0.030   1.235
 4266SOL     OW13696   1.062   0.052   0.128
 4266SOL    HW113697   1.052   0.148   0.103
 4266SOL    HW213698   1.119   0.006   0.059
 4267SOL     OW13699   2.177   3.938   3.909
 4267SOL    HW113700   2.205   4.021   3.861
 4267SOL    HW213701   2.156   3.866   3.843
 4268SOL     OW13702   1.453   5.216   6.412
 4268SOL    HW113703   1.546   5.198   6.442
 4268SOL    HW213704   1.391   5.146   6.448
 4269SOL     OW13705   3.163   1.801   4.249
 4269SOL    HW113706   3.228   1.802   4.173
 4269SOL    HW213707   3.189   1.729   4.313
 4270SOL     OW13708   3.562   2.991   1.207
 4270SOL    HW113709   3.589   3.082   1.176
 4270SOL    HW213710   3.626   2.923   1.171
 4271SOL     OW13711   6.296   0.443   0.963
 4271SOL    HW113712   6.339   0.468   0.877
 4271SOL    HW213713   6.273   0.527   1.014
 4272SOL     OW13714   6.845   3.255   5.592
 4272SOL    HW113715   6.838   3.350   5.623
 4272SOL    HW213716   6.763   3.205   5.620
 4273SOL     OW13717   4.624   6.068   4.720
 4273SOL    HW113718   4.536   6.084   4.674
 4273SOL    HW213719   4.613   6.082   4.818
 4274SOL     OW13720   6.979   6.404   1.416
 4274SOL    HW113721   6.898   6.435   1.465
 4274SOL    HW213722   6.971   6.428   1.319
 4275SOL     OW13723   0.925   2.499   3.760
 4275SOL    HW113724   0.956   2.405   3.774
 4275SOL    HW213725   0.878   2.531   3.842
 4276SOL     OW13726   2.784   5.556   4.231
 4276SOL    HW113727   2.812   5.638   4.282
 4276SOL    HW213728   2.731   5.583   4.151
 4277SOL     OW13729   6.527   5.415   4.442
 4277SOL    HW113730   6.492   5.329   4.405
 4277SOL    HW213731   6.585   5.460   4.374
 4278SOL     OW13732   0.367   6.616   2.241
 4278SOL    HW113733   0.426   6.689   2.208
 4278SOL    HW213734   0.281   6.654   2.275
 4279SOL     OW13735   1.255   1.871   2.311
 4279SOL    HW113736   1.342   1.823   2.300
 4279SOL    HW213737   1.226   1.909   2.223
 4280SOL     OW13738   6.781   0.102   6.525
 4280SOL    HW113739   6.798   0.151   6.440
 4280SOL    HW213740   6.683   0.093   6.540
 4281SOL     OW13741   4.544   5.695   4.020
 4281SOL    HW113742   4.572   5.791   4.027
 4281SOL    HW213743   4.526   5.673   3.924
 4282SOL     OW13744   3.052   4.092   1.089
 4282SOL    HW113745   3.128   4.073   1.151
 4282SOL    HW213746   3.007   4.007   1.063
 4283SOL     OW13747   4.761   0.824   3.576
 4283SOL    HW113748   4.803   0.884   3.644
 4283SOL    HW213749   4.712   0.750   3.622
 4284SOL     OW13750   4.924   5.423   0.091
 4284SOL    HW113751   5.024   5.420   0.089
 4284SOL    HW213752   4.888   5.385   0.006
 4285SOL     OW13753   3.466   0.824   6.396
 4285SOL    HW113754   3.404   0.813   6.474
 4285SOL    HW213755   3.455   0.747   6.333
 4286SOL     OW13756   6.342   0.981   6.429
 4286SOL    HW113757   6.246   0.995   6.454
 4286SOL    HW213758   6.347   0.948   6.335
 4287SOL     OW13759   4.654   0.993   6.980
 4287SOL    HW113760   4.676   1.050   6.901
 4287SOL    HW213761   4.656   0.897   6.953
 4288SOL     OW13762   6.506   6.051   1.851
 4288SOL    HW113763   6.420   6.100   1.864
 4288SOL    HW213764   6.487   5.958   1.819
 4289SOL     OW13765   0.786   2.881   5.564
 4289SOL    HW113766   0.733   2.798   5.547
 4289SOL    HW213767   0.727   2.961   5.555
 4290SOL     OW13768   0.245   0.707   2.946
 4290SOL    HW113769   0.332   0.731   2.989
 4290SOL    HW213770   0.243   0.745   2.853
 4291SOL     OW13771   4.913   3.343   6.052
 4291SOL    HW113772   4.967   3.412   6.004
 4291SOL    HW213773   4.864   3.287   5.985
 4292SOL     OW13774   5.160   1.954   0.483
 4292SOL    HW113775   5.112   1.924   0.566
 4292SOL    HW213776   5.225   2.026   0.506
 4293SOL     OW13777   4.951   3.864   6.628
 4293SOL    HW113778   5.010   3.911   6.562
 4293SOL    HW213779   4.883   3.809   6.579
 4294SOL     OW13780   3.174   2.417   6.500
 4294SOL    HW113781   3.096   2.400   6.560
 4294SOL    HW213782   3.202   2.332   6.455
 4295SOL     OW13783   4.417   6.657   2.061
 4295SOL    HW113784   4.346   6.623   1.999
 4295SOL    HW213785   4.392   6.633   2.155
 4296SOL     OW13786   2.713   6.655   1.004
 4296SOL    HW113787   2.780   6.674   0.932
 4296SOL    HW213788   2.643   6.594   0.970
 4297SOL     OW13789   6.553   5.197   1.044
 4297SOL    HW113790   6.580   5.101   1.034
 4297SOL    HW213791   6.458   5.209   1.013
 4298SOL     OW13792   3.407   6.443   1.427
 4298SOL    HW113793   3.366   6.438   1.336
 4298SOL    HW213794   3.337   6.471   1.493
 4299SOL     OW13795   0.405   2.635   6.870
 4299SOL    HW113796   0.423   2.731   6.848
 4299SOL    HW213797   0.492   2.586   6.877
 4300SOL     OW13798   3.934   0.772   0.753
 4300SOL    HW113799   3.868   0.732   0.816
 4300SOL    HW213800   4.013   0.711   0.744
 4301SOL     OW13801   3.160   6.338   1.798
 4301SOL    HW113802   3.158   6.388   1.711
 4301SOL    HW213803   3.225   6.382   1.860
 4302SOL     OW13804   1.443   6.393   6.382
 4302SOL    HW113805   1.443   6.340   6.467
 4302SOL    HW213806   1.351   6.393   6.343
 4303SOL     OW13807   6.394   4.391   4.696
 4303SOL    HW113808   6.380   4.341   4.781
 4303SOL    HW213809   6.305   4.415   4.656
 4304SOL     OW13810   3.173   3.767   1.852
 4304SOL    HW113811   3.208   3.731   1.765
 4304SOL    HW213812   3.121   3.695   1.899
 4305SOL     OW13813   6.623   0.129   5.825
 4305SOL    HW113814   6.594   0.099   5.734
 4305SOL    HW213815   6.695   0.198   5.817
 4306SOL     OW13816   4.870   3.903   4.461
 4306SOL    HW113817   4.952   3.880   4.513
 4306SOL    HW213818   4.850   3.830   4.396
 4307SOL     OW13819   6.287   2.559   5.217
 4307SOL    HW113820   6.300   2.579   5.119
 4307SOL    HW213821   6.190   2.555   5.238
 4308SOL     OW13822   5.110   4.833   1.733
 4308SOL    HW113823   5.107   4.743   1.775
 4308SOL    HW213824   5.164   4.830   1.649
 4309SOL     OW13825   1.027   3.352   0.578
 4309SOL    HW113826   1.090   3.356   0.501
 4309SOL    HW213827   0.994   3.259   0.590
 4310SOL     OW13828   0.314   1.598   2.441
 4310SOL    HW113829   0.367   1.586   2.357
 4310SOL    HW213830   0.334   1.688   2.480
 4311SOL     OW13831   1.149   6.160   2.253
 4311SOL    HW113832   1.166   6.076   2.201
 4311SOL    HW213833   1.052   6.164   2.279
 4312SOL     OW13834   0.996   5.355   2.153
 4312SOL    HW113835   0.997   5.346   2.053
 4312SOL    HW213836   0.907   5.389   2.182
 4313SOL     OW13837   5.778   1.805   0.506
 4313SOL    HW113838   5.875   1.826   0.512
 4313SOL    HW213839   5.729   1.849   0.581
 4314SOL     OW13840   6.791   2.849   5.301
 4314SOL    HW113841   6.762   2.927   5.245
 4314SOL    HW213842   6.765   2.864   5.396
 4315SOL     OW13843   2.307   1.453   3.849
 4315SOL    HW113844   2.221   1.502   3.856
 4315SOL    HW213845   2.351   1.474   3.762
 4316SOL     OW13846   5.658   0.089   2.375
 4316SOL    HW113847   5.566   0.130   2.379
 4316SOL    HW213848   5.669   0.042   2.287
 4317SOL     OW13849   4.491   1.324   5.764
 4317SOL    HW113850   4.494   1.353   5.860
 4317SOL    HW213851   4.437   1.240   5.757
 4318SOL     OW13852   0.535   0.686   3.635
 4318SOL    HW113853   0.508   0.776   3.671
 4318SOL    HW213854   0.454   0.631   3.619
 4319SOL     OW13855   1.368   3.313   2.274
 4319SOL    HW113856   1.311   3.358   2.343
 4319SOL    HW213857   1.464   3.336   2.290
 4320SOL     OW13858   3.565   6.364   0.712
 4320SOL    HW113859   3.581   6.446   0.766
 4320SOL    HW213860   3.473   6.368   0.672
 4321SOL     OW13861   6.246   6.132   2.311
 4321SOL    HW113862   6.299   6.091   2.236
 4321SOL    HW213863   6.307   6.147   2.389
 4322SOL     OW13864   0.454   2.244   5.286
 4322SOL    HW113865   0.487   2.312   5.221
 4322SOL    HW213866   0.459   2.153   5.244
 4323SOL     OW13867   4.193   5.390   6.966
 4323SOL    HW113868   4.229   5.472   7.010
 4323SOL    HW213869   4.267   5.341   6.922
 4324SOL     OW13870   0.137   4.010   5.801
 4324SOL    HW113871   0.177   3.982   5.713
 4324SOL    HW213872   0.040   3.984   5.803
 4325SOL     OW13873   3.013   0.681   2.977
 4325SOL    HW113874   3.089   0.665   3.040
 4325SOL    HW213875   3.046   0.671   2.883
 4326SOL     OW13876   5.058   2.478   2.248
 4326SOL    HW113877   5.061   2.537   2.328
 4326SOL    HW213878   5.056   2.382   2.277
 4327SOL     OW13879   3.788   5.711   4.339
 4327SOL    HW113880   3.868   5.724   4.398
 4327SOL    HW213881   3.705   5.726   4.393
 4328SOL     OW13882   6.545   5.585   5.343
 4328SOL    HW113883   6.559   5.650   5.268
 4328SOL    HW213884   6.452   5.547   5.336
 4329SOL     OW13885   5.663   2.855   5.790
 4329SOL    HW113886   5.755   2.822   5.815
 4329SOL    HW213887   5.670   2.947   5.751
 4330SOL     OW13888   2.411   5.693   5.227
 4330SOL    HW113889   2.330   5.661   5.276
 4330SOL    HW213890   2.490   5.637   5.251
 4331SOL     OW13891   6.107   0.595   1.442
 4331SOL    HW113892   6.207   0.593   1.443
 4331SOL    HW213893   6.072   0.504   1.462
 4332SOL     OW13894   6.779   4.054   2.467
 4332SOL    HW113895   6.806   3.972   2.517
 4332SOL    HW213896   6.855   4.086   2.411
 4333SOL     OW13897   4.273   2.010   5.010
 4333SOL    HW113898   4.193   2.068   4.994
 4333SOL    HW213899   4.355   2.058   4.978
 4334SOL     OW13900   1.431   2.817   3.079
 4334SOL    HW113901   1.477   2.855   2.999
 4334SOL    HW213902   1.332   2.812   3.061
 4335SOL     OW13903   3.530   3.114   0.859
 4335SOL    HW113904   3.434   3.119   0.885
 4335SOL    HW213905   3.552   3.020   0.832
 4336SOL     OW13906   2.004   5.556   6.141
 4336SOL    HW113907   1.943   5.553   6.062
 4336SOL    HW213908   1.996   5.645   6.186
 4337SOL     OW13909   1.231   5.935   2.116
 4337SOL    HW113910   1.246   5.932   2.017
 4337SOL    HW213911   1.297   5.874   2.161
 4338SOL     OW13912   5.628   0.545   5.220
 4338SOL    HW113913   5.658   0.622   5.276
 4338SOL    HW213914   5.602   0.469   5.280
 4339SOL     OW13915   4.230   2.585   6.309
 4339SOL    HW113916   4.218   2.683   6.298
 4339SOL    HW213917   4.231   2.541   6.219
 4340SOL     OW13918   6.412   4.046   1.094
 4340SOL    HW113919   6.502   4.014   1.122
 4340SOL    HW213920   6.342   3.979   1.122
 4341SOL     OW13921   0.965   5.779   1.913
 4341SOL    HW113922   1.020   5.859   1.890
 4341SOL    HW213923   0.996   5.700   1.859
 4342SOL     OW13924   5.191   3.791   2.702
 4342SOL    HW113925   5.111   3.777   2.644
 4342SOL    HW213926   5.230   3.702   2.727
 4343SOL     OW13927   4.703   0.570   5.603
 4343SOL    HW113928   4.605   0.591   5.607
 4343SOL    HW213929   4.732   0.564   5.508
 4344SOL     OW13930   0.402   2.717   4.297
 4344SOL    HW113931   0.323   2.756   4.248
 4344SOL    HW213932   0.473   2.787   4.306
 4345SOL     OW13933   2.914   3.380   2.563
 4345SOL    HW113934   3.010   3.396   2.584
 4345SOL    HW213935   2.879   3.306   2.620
 4346SOL     OW13936   2.453   2.598   2.495
 4346SOL    HW113937   2.475   2.604   2.397
 4346SOL    HW213938   2.353   2.602   2.507
 4347SOL     OW13939   5.886   5.185   1.458
 4347SOL    HW113940   5.948   5.113   1.490
 4347SOL    HW213941   5.792   5.151   1.461
 4348SOL     OW13942   6.861   5.904   3.849
 4348SOL    HW113943   6.822   5.850   3.924
 4348SOL    HW213944   6.948   5.944   3.879
 4349SOL     OW13945   0.147   4.059   3.694
 4349SOL    HW113946   0.063   4.013   3.665
 4349SOL    HW213947   0.225   4.000   3.673
 4350SOL     OW13948   5.337   1.635   4.595
 4350SOL    HW113949   5.312   1.618   4.691
 4350SOL    HW213950   5.326   1.551   4.543
 4351SOL     OW13951   1.246   0.176   1.180
 4351SOL    HW113952   1.342   0.200   1.195
 4351SOL    HW213953   1.198   0.173   1.268
 4352SOL     OW13954   4.252   3.858   0.823
 4352SOL    HW113955   4.335   3.805   0.806
 4352SOL    HW213956   4.173   3.812   0.782
 4353SOL     OW13957   3.138   3.432   0.151
 4353SOL    HW113958   3.188   3.352   0.185
 4353SOL    HW213959   3.043   3.406   0.133
 4354SOL     OW13960   6.466   0.008   3.758
 4354SOL    HW113961   6.531   0.084   3.764
 4354SOL    HW213962   6.376   0.040   3.788
 4355SOL     OW13963   1.124   0.045   3.737
 4355SOL    HW113964   1.074   0.081   3.816
 4355SOL    HW213965   1.179   0.119   3.696
 4356SOL     OW13966   5.112   2.911   6.287
 4356SOL    HW113967   5.061   2.965   6.219
 4356SOL    HW213968   5.049   2.880   6.358
 4357SOL     OW13969   6.407   0.482   2.192
 4357SOL    HW113970   6.354   0.563   2.167
 4357SOL    HW213971   6.459   0.451   2.113
 4358SOL     OW13972   0.574   0.878   0.290
 4358SOL    HW113973   0.620   0.913   0.208
 4358SOL    HW213974   0.628   0.805   0.330
 4359SOL     OW13975   2.570   0.694   6.831
 4359SOL    HW113976   2.640   0.670   6.899
 4359SOL    HW213977   2.608   0.761   6.767
 4360SOL     OW13978   1.503   2.846   3.368
 4360SOL    HW113979   1.591   2.888   3.391
 4360SOL    HW213980   1.482   2.865   3.272
 4361SOL     OW13981   1.094   1.839   1.024
 4361SOL    HW113982   1.152   1.818   1.103
 4361SOL    HW213983   1.152   1.868   0.947
 4362SOL     OW13984   0.699   6.005   4.298
 4362SOL    HW113985   0.763   6.011   4.374
 4362SOL    HW213986   0.671   5.910   4.285
 4363SOL     OW13987   4.408   0.579   2.665
 4363SOL    HW113988   4.405   0.509   2.737
 4363SOL    HW213989   4.500   0.582   2.625
 4364SOL     OW13990   3.334   3.790   2.650
 4364SOL    HW113991   3.424   3.804   2.690
 4364SOL    HW213992   3.278   3.871   2.664
 4365SOL     OW13993   2.906   2.247   1.648
 4365SOL    HW113994   2.927   2.325   1.707
 4365SOL    HW213995   2.951   2.165   1.685
 4366SOL     OW13996   4.923   5.993   5.195
 4366SOL    HW113997   4.930   6.088   5.166
 4366SOL    HW213998   4.996   5.940   5.152
 4367SOL     OW13999   3.001   5.516   4.036
 4367SOL    HW114000   2.932   5.486   4.101
 4367SOL    HW214001   3.055   5.590   4.076
 4368SOL     OW14002   4.762   5.346   2.487
 4368SOL    HW114003   4.792   5.287   2.563
 4368SOL    HW214004   4.663   5.359   2.493
 4369SOL     OW14005   4.512   5.535   2.889
 4369SOL    HW114006   4.588   5.553   2.826
 4369SOL    HW214007   4.527   5.447   2.935
 4370SOL     OW14008   3.978   4.769   1.650
 4370SOL    HW114009   3.888   4.727   1.642
 4370SOL    HW214010   4.028   4.725   1.725
 4371SOL     OW14011   2.365   0.618   1.446
 4371SOL    HW114012   2.273   0.580   1.445
 4371SOL    HW214013   2.429   0.550   1.482
 4372SOL     OW14014   1.926   2.651   4.613
 4372SOL    HW114015   1.857   2.583   4.588
 4372SOL    HW214016   1.909   2.683   4.706
 4373SOL     OW14017   4.495   1.095   6.015
 4373SOL    HW114018   4.532   1.065   6.103
 4373SOL    HW214019   4.565   1.084   5.944
 4374SOL     OW14020   2.557   2.015   1.041
 4374SOL    HW114021   2.462   1.992   1.063
 4374SOL    HW214022   2.618   1.944   1.075
 4375SOL     OW14023   3.383   0.488   3.509
 4375SOL    HW114024   3.322   0.567   3.499
 4375SOL    HW214025   3.353   0.414   3.448
 4376SOL     OW14026   6.584   6.506   1.388
 4376SOL    HW114027   6.662   6.554   1.347
 4376SOL    HW214028   6.536   6.568   1.450
 4377SOL     OW14029   6.025   6.226   6.576
 4377SOL    HW114030   5.977   6.205   6.662
 4377SOL    HW214031   6.058   6.320   6.578
 4378SOL     OW14032   1.934   6.060   2.827
 4378SOL    HW114033   1.965   6.155   2.827
 4378SOL    HW214034   1.943   6.022   2.919
 4379SOL     OW14035   1.273   0.605   1.711
 4379SOL    HW114036   1.311   0.572   1.798
 4379SOL    HW214037   1.241   0.699   1.723
 4380SOL     OW14038   2.005   5.959   5.560
 4380SOL    HW114039   2.025   5.870   5.601
 4380SOL    HW214040   2.028   5.957   5.463
 4381SOL     OW14041   4.355   6.378   4.313
 4381SOL    HW114042   4.388   6.423   4.396
 4381SOL    HW214043   4.377   6.280   4.317
 4382SOL     OW14044   4.800   4.076   4.241
 4382SOL    HW114045   4.755   4.156   4.279
 4382SOL    HW214046   4.820   4.011   4.314
 4383SOL     OW14047   1.967   2.032   5.997
 4383SOL    HW114048   2.064   2.052   6.004
 4383SOL    HW214049   1.916   2.091   6.060
 4384SOL     OW14050   3.641   6.478   1.172
 4384SOL    HW114051   3.631   6.514   1.079
 4384SOL    HW214052   3.594   6.390   1.177
 4385SOL     OW14053   0.048   1.381   3.736
 4385SOL    HW114054   0.006   1.300   3.696
 4385SOL    HW214055   0.006   1.400   3.825
 4386SOL     OW14056   0.485   3.638   6.894
 4386SOL    HW114057   0.562   3.622   6.956
 4386SOL    HW214058   0.400   3.638   6.946
 4387SOL     OW14059   6.427   3.139   1.376
 4387SOL    HW114060   6.436   3.237   1.358
 4387SOL    HW214061   6.331   3.117   1.393
 4388SOL     OW14062   3.418   0.411   6.034
 4388SOL    HW114063   3.448   0.364   6.118
 4388SOL    HW214064   3.319   0.401   6.025
 4389SOL     OW14065   5.482   2.956   1.856
 4389SOL    HW114066   5.552   2.885   1.858
 4389SOL    HW214067   5.457   2.976   1.761
 4390SOL     OW14068   5.251   2.141   1.524
 4390SOL    HW114069   5.266   2.096   1.612
 4390SOL    HW214070   5.254   2.241   1.537
 4391SOL     OW14071   0.939   5.773   0.125
 4391SOL    HW114072   0.975   5.710   0.057
 4391SOL    HW214073   0.983   5.862   0.115
 4392SOL     OW14074   5.256   3.115   3.938
 4392SOL    HW114075   5.302   3.201   3.964
 4392SOL    HW214076   5.162   3.116   3.973
 4393SOL     OW14077   5.286   0.172   3.224
 4393SOL    HW114078   5.288   0.166   3.125
 4393SOL    HW214079   5.325   0.089   3.264
 4394SOL     OW14080   5.834   6.225   2.635
 4394SOL    HW114081   5.742   6.227   2.673
 4394SOL    HW214082   5.834   6.170   2.551
 4395SOL     OW14083   4.470   1.478   2.061
 4395SOL    HW114084   4.487   1.431   2.148
 4395SOL    HW214085   4.410   1.557   2.078
 4396SOL     OW14086   1.084   1.140   4.164
 4396SOL    HW114087   1.043   1.225   4.199
 4396SOL    HW214088   1.159   1.162   4.103
 4397SOL     OW14089   6.817   1.118   4.484
 4397SOL    HW114090   6.874   1.155   4.557
 4397SOL    HW214091   6.856   1.141   4.395
 4398SOL     OW14092   1.093   4.082   4.344
 4398SOL    HW114093   1.094   4.117   4.438
 4398SOL    HW214094   1.162   4.010   4.335
 4399SOL     OW14095   2.252   0.734   0.202
 4399SOL    HW114096   2.215   0.654   0.155
 4399SOL    HW214097   2.179   0.782   0.249
 4400SOL     OW14098   2.647   6.651   4.124
 4400SOL    HW114099   2.635   6.627   4.028
 4400SOL    HW214100   2.717   6.592   4.164
 4401SOL     OW14101   5.759   5.954   4.826
 4401SOL    HW114102   5.699   5.891   4.776
 4401SOL    HW214103   5.763   6.042   4.777
 4402SOL     OW14104   1.075   5.723   3.041
 4402SOL    HW114105   1.092   5.653   2.972
 4402SOL    HW214106   1.011   5.688   3.110
 4403SOL     OW14107   6.853   6.978   3.043
 4403SOL    HW114108   6.947   6.966   3.010
 4403SOL    HW214109   6.835   0.055   3.056
 4404SOL     OW14110   0.892   4.453   3.515
 4404SOL    HW114111   0.837   4.406   3.583
 4404SOL    HW214112   0.922   4.541   3.552
 4405SOL     OW14113   3.041   4.553   6.262
 4405SOL    HW114114   2.983   4.504   6.327
 4405SOL    HW214115   3.025   4.652   6.271
 4406SOL     OW14116   4.869   4.548   1.706
 4406SOL    HW114117   4.934   4.512   1.773
 4406SOL    HW214118   4.807   4.475   1.677
 4407SOL     OW14119   6.852   6.169   0.351
 4407SOL    HW114120   6.772   6.209   0.396
 4407SOL    HW214121   6.894   6.102   0.412
 4408SOL     OW14122   5.007   0.325   0.429
 4408SOL    HW114123   4.917   0.342   0.467
 4408SOL    HW214124   5.046   0.242   0.469
 4409SOL     OW14125   4.014   1.955   1.929
 4409SOL    HW114126   4.097   1.949   1.873
 4409SOL    HW214127   4.025   2.027   1.997
 4410SOL     OW14128   2.391   4.861   1.059
 4410SOL    HW114129   2.415   4.819   0.972
 4410SOL    HW214130   2.298   4.833   1.086
 4411SOL     OW14131   3.626   3.356   2.881
 4411SOL    HW114132   3.538   3.310   2.892
 4411SOL    HW214133   3.697   3.288   2.862
 4412SOL     OW14134   3.918   1.276   6.036
 4412SOL    HW114135   3.828   1.318   6.041
 4412SOL    HW214136   3.921   1.197   6.098
 4413SOL     OW14137   3.772   5.729   3.836
 4413SOL    HW114138   3.835   5.769   3.902
 4413SOL    HW214139   3.778   5.778   3.749
 4414SOL     OW14140   4.096   4.778   2.120
 4414SOL    HW114141   4.170   4.845   2.113
 4414SOL    HW214142   4.065   4.773   2.215
 4415SOL     OW14143   5.262   4.036   6.052
 4415SOL    HW114144   5.298   4.102   6.118
 4415SOL    HW214145   5.337   3.996   6.000
 4416SOL     OW14146   2.770   1.762   4.645
 4416SOL    HW114147   2.794   1.749   4.549
 4416SOL    HW214148   2.844   1.809   4.692
 4417SOL     OW14149   0.396   4.951   1.902
 4417SOL    HW114150   0.494   4.973   1.895
 4417SOL    HW214151   0.363   4.918   1.814
 4418SOL     OW14152   4.265   6.526   3.870
 4418SOL    HW114153   4.224   6.569   3.789
 4418SOL    HW214154   4.277   6.429   3.853
 4419SOL     OW14155   6.257   5.253   0.547
 4419SOL    HW114156   6.313   5.317   0.600
 4419SOL    HW214157   6.298   5.162   0.552
 4420SOL     OW14158   4.635   0.845   0.879
 4420SOL    HW114159   4.671   0.937   0.863
 4420SOL    HW214160   4.591   0.812   0.796
 4421SOL     OW14161   1.697   1.457   2.542
 4421SOL    HW114162   1.787   1.460   2.585
 4421SOL    HW214163   1.626   1.444   2.611
 4422SOL     OW14164   2.785   3.760   6.428
 4422SOL    HW114165   2.761   3.688   6.363
 4422SOL    HW214166   2.816   3.720   6.514
 4423SOL     OW14167   1.089   1.907   6.290
 4423SOL    HW114168   1.135   1.832   6.337
 4423SOL    HW214169   1.135   1.926   6.204
 4424SOL     OW14170   5.468   6.063   3.273
 4424SOL    HW114171   5.385   6.061   3.217
 4424SOL    HW214172   5.488   6.158   3.299
 4425SOL     OW14173   3.669   5.703   5.847
 4425SOL    HW114174   3.700   5.611   5.824
 4425SOL    HW214175   3.617   5.741   5.770
 4426SOL     OW14176   6.765   0.922   5.123
 4426SOL    HW114177   6.845   0.893   5.174
 4426SOL    HW214178   6.753   0.864   5.042
 4427SOL     OW14179   0.536   0.664   3.248
 4427SOL    HW114180   0.457   0.641   3.191
 4427SOL    HW214181   0.543   0.763   3.259
 4428SOL     OW14182   2.856   4.732   4.277
 4428SOL    HW114183   2.783   4.675   4.238
 4428SOL    HW214184   2.915   4.765   4.203
 4429SOL     OW14185   2.943   6.779   3.369
 4429SOL    HW114186   2.865   6.718   3.382
 4429SOL    HW214187   2.954   6.838   3.449
 4430SOL     OW14188   3.916   1.874   2.532
 4430SOL    HW114189   3.884   1.968   2.539
 4430SOL    HW214190   3.949   1.857   2.439
 4431SOL     OW14191   2.631   1.618   3.434
 4431SOL    HW114192   2.691   1.557   3.485
 4431SOL    HW214193   2.649   1.609   3.336
 4432SOL     OW14194   3.312   3.251   3.129
 4432SOL    HW114195   3.334   3.233   3.033
 4432SOL    HW214196   3.241   3.321   3.134
 4433SOL     OW14197   5.470   6.557   3.082
 4433SOL    HW114198   5.514   6.633   3.131
 4433SOL    HW214199   5.528   6.529   3.006
 4434SOL     OW14200   5.169   1.888   3.798
 4434SOL    HW114201   5.237   1.959   3.813
 4434SOL    HW214202   5.094   1.900   3.863
 4435SOL     OW14203   3.524   3.196   1.446
 4435SOL    HW114204   3.537   3.102   1.414
 4435SOL    HW214205   3.614   3.238   1.463
 4436SOL     OW14206   3.243   2.113   0.213
 4436SOL    HW114207   3.327   2.139   0.261
 4436SOL    HW214208   3.171   2.179   0.235
 4437SOL     OW14209   4.251   0.659   4.382
 4437SOL    HW114210   4.175   0.721   4.405
 4437SOL    HW214211   4.225   0.602   4.304
 4438SOL     OW14212   4.296   2.282   0.196
 4438SOL    HW114213   4.210   2.279   0.248
 4438SOL    HW214214   4.346   2.196   0.210
 4439SOL     OW14215   0.698   5.368   1.632
 4439SOL    HW114216   0.616   5.330   1.675
 4439SOL    HW214217   0.677   5.459   1.596
 4440SOL     OW14218   1.914   6.140   0.003
 4440SOL    HW114219   1.911   6.043   0.026
 4440SOL    HW214220   1.995   6.159   6.968
 4441SOL     OW14221   6.429   2.625   2.504
 4441SOL    HW114222   6.483   2.542   2.514
 4441SOL    HW214223   6.352   2.622   2.568
 4442SOL     OW14224   4.045   6.391   3.512
 4442SOL    HW114225   3.980   6.315   3.516
 4442SOL    HW214226   4.013   6.459   3.446
 4443SOL     OW14227   2.345   2.064   6.270
 4443SOL    HW114228   2.335   2.053   6.369
 4443SOL    HW214229   2.440   2.085   6.249
 4444SOL     OW14230   4.585   6.326   1.265
 4444SOL    HW114231   4.526   6.353   1.341
 4444SOL    HW214232   4.601   6.405   1.206
 4445SOL     OW14233   1.528   1.018   6.213
 4445SOL    HW114234   1.492   0.924   6.216
 4445SOL    HW214235   1.457   1.080   6.181
 4446SOL     OW14236   5.930   0.259   2.194
 4446SOL    HW114237   5.923   0.261   2.293
 4446SOL    HW214238   5.840   0.240   2.155
 4447SOL     OW14239   5.611   3.349   5.945
 4447SOL    HW114240   5.625   3.253   5.924
 4447SOL    HW214241   5.531   3.358   6.005
 4448SOL     OW14242   2.861   3.409   0.672
 4448SOL    HW114243   2.847   3.487   0.733
 4448SOL    HW214244   2.775   3.386   0.627
 4449SOL     OW14245   2.796   0.482   5.217
 4449SOL    HW114246   2.778   0.542   5.295
 4449SOL    HW214247   2.883   0.435   5.232
 4450SOL     OW14248   3.084   3.048   3.009
 4450SOL    HW114249   3.066   3.078   3.103
 4450SOL    HW214250   3.167   2.992   3.007
 4451SOL     OW14251   6.565   4.341   2.505
 4451SOL    HW114252   6.618   4.277   2.560
 4451SOL    HW214253   6.468   4.320   2.514
 4452SOL     OW14254   5.903   6.416   5.736
 4452SOL    HW114255   5.816   6.382   5.772
 4452SOL    HW214256   5.892   6.510   5.706
 4453SOL     OW14257   5.875   2.815   1.715
 4453SOL    HW114258   5.826   2.812   1.802
 4453SOL    HW214259   5.965   2.856   1.730
 4454SOL     OW14260   5.365   2.307   1.103
 4454SOL    HW114261   5.372   2.400   1.067
 4454SOL    HW214262   5.269   2.287   1.125
 4455SOL     OW14263   3.532   6.671   2.454
 4455SOL    HW114264   3.530   6.588   2.398
 4455SOL    HW214265   3.543   6.646   2.550
 4456SOL     OW14266   2.115   5.491   2.485
 4456SOL    HW114267   2.033   5.496   2.428
 4456SOL    HW214268   2.143   5.396   2.497
 4457SOL     OW14269   4.233   2.275   6.426
 4457SOL    HW114270   4.292   2.354   6.410
 4457SOL    HW214271   4.288   2.191   6.421
 4458SOL     OW14272   2.565   3.028   6.493
 4458SOL    HW114273   2.652   3.037   6.444
 4458SOL    HW214274   2.536   3.119   6.525
 4459SOL     OW14275   4.665   0.032   4.776
 4459SOL    HW114276   4.728   0.071   4.709
 4459SOL    HW214277   4.595   0.100   4.799
 4460SOL     OW14278   2.595   3.282   6.894
 4460SOL    HW114279   2.564   3.204   6.949
 4460SOL    HW214280   2.529   3.357   6.902
 4461SOL     OW14281   1.139   0.126   2.273
 4461SOL    HW114282   1.201   0.061   2.316
 4461SOL    HW214283   1.103   0.189   2.342
 4462SOL     OW14284   6.305   5.121   0.916
 4462SOL    HW114285   6.212   5.085   0.924
 4462SOL    HW214286   6.347   5.086   0.832
 4463SOL     OW14287   1.972   2.997   6.414
 4463SOL    HW114288   1.899   2.941   6.375
 4463SOL    HW214289   1.932   3.078   6.457
 4464SOL     OW14290   5.755   4.598   6.377
 4464SOL    HW114291   5.809   4.514   6.371
 4464SOL    HW214292   5.745   4.625   6.473
 4465SOL     OW14293   2.172   6.293   2.228
 4465SOL    HW114294   2.128   6.282   2.317
 4465SOL    HW214295   2.136   6.375   2.183
 4466SOL     OW14296   0.813   1.566   2.404
 4466SOL    HW114297   0.871   1.486   2.385
 4466SOL    HW214298   0.836   1.639   2.339
 4467SOL     OW14299   1.299   6.447   3.215
 4467SOL    HW114300   1.296   6.533   3.164
 4467SOL    HW214301   1.378   6.394   3.184
 4468SOL     OW14302   1.123   2.247   6.816
 4468SOL    HW114303   1.216   2.277   6.796
 4468SOL    HW214304   1.125   2.165   6.873
 4469SOL     OW14305   3.178   0.290   1.709
 4469SOL    HW114306   3.198   0.346   1.789
 4469SOL    HW214307   3.262   0.247   1.677
 4470SOL     OW14308   5.161   3.699   1.908
 4470SOL    HW114309   5.220   3.633   1.861
 4470SOL    HW214310   5.078   3.653   1.939
 4471SOL     OW14311   0.646   2.587   1.230
 4471SOL    HW114312   0.547   2.586   1.245
 4471SOL    HW214313   0.684   2.676   1.255
 4472SOL     OW14314   1.835   4.181   2.416
 4472SOL    HW114315   1.855   4.105   2.355
 4472SOL    HW214316   1.854   4.154   2.510
 4473SOL     OW14317   0.237   0.150   4.735
 4473SOL    HW114318   0.221   0.170   4.638
 4473SOL    HW214319   0.151   0.127   4.779
 4474SOL     OW14320   3.667   0.104   2.271
 4474SOL    HW114321   3.665   0.008   2.302
 4474SOL    HW214322   3.650   0.108   2.173
 4475SOL     OW14323   1.627   3.731   0.867
 4475SOL    HW114324   1.600   3.794   0.940
 4475SOL    HW214325   1.718   3.696   0.886
 4476SOL     OW14326   5.184   6.724   2.615
 4476SOL    HW114327   5.201   6.651   2.681
 4476SOL    HW214328   5.271   6.751   2.572
 4477SOL     OW14329   2.078   0.821   6.891
 4477SOL    HW114330   2.079   0.744   6.827
 4477SOL    HW214331   2.172   0.851   6.908
 4478SOL     OW14332   2.317   6.745   2.439
 4478SOL    HW114333   2.415   6.751   2.453
 4478SOL    HW214334   2.297   6.719   2.344
 4479SOL     OW14335   1.129   0.574   6.129
 4479SOL    HW114336   1.115   0.596   6.226
 4479SOL    HW214337   1.107   0.654   6.073
 4480SOL     OW14338   1.406   4.214   4.607
 4480SOL    HW114339   1.378   4.119   4.593
 4480SOL    HW214340   1.505   4.218   4.621
 4481SOL     OW14341   1.560   6.344   4.156
 4481SOL    HW114342   1.466   6.323   4.181
 4481SOL    HW214343   1.604   6.397   4.229
 4482SOL     OW14344   1.242   4.339   4.132
 4482SOL    HW114345   1.292   4.266   4.085
 4482SOL    HW214346   1.150   4.306   4.156
 4483SOL     OW14347   6.413   2.717   1.021
 4483SOL    HW114348   6.407   2.805   0.974
 4483SOL    HW214349   6.330   2.700   1.073
 4484SOL     OW14350   3.738   2.679   5.315
 4484SOL    HW114351   3.706   2.774   5.317
 4484SOL    HW214352   3.834   2.677   5.343
 4485SOL     OW14353   4.845   2.030   6.550
 4485SOL    HW114354   4.890   2.119   6.551
 4485SOL    HW214355   4.840   1.994   6.643
 4486SOL     OW14356   0.123   4.338   5.066
 4486SOL    HW114357   0.082   4.247   5.058
 4486SOL    HW214358   0.196   4.335   5.135
 4487SOL     OW14359   2.601   3.627   6.646
 4487SOL    HW114360   2.576   3.574   6.566
 4487SOL    HW214361   2.700   3.634   6.652
 4488SOL     OW14362   5.981   2.603   5.322
 4488SOL    HW114363   5.938   2.541   5.257
 4488SOL    HW214364   5.948   2.696   5.308
 4489SOL     OW14365   5.793   5.482   4.553
 4489SOL    HW114366   5.699   5.475   4.585
 4489SOL    HW214367   5.847   5.408   4.592
 4490SOL     OW14368   6.011   1.345   1.473
 4490SOL    HW114369   5.956   1.348   1.557
 4490SOL    HW214370   5.992   1.261   1.423
 4491SOL     OW14371   1.766   3.560   2.723
 4491SOL    HW114372   1.804   3.641   2.767
 4491SOL    HW214373   1.780   3.480   2.782
 4492SOL     OW14374   5.084   2.286   0.118
 4492SOL    HW114375   5.099   2.249   0.026
 4492SOL    HW214376   5.002   2.245   0.158
 4493SOL     OW14377   4.661   5.222   4.784
 4493SOL    HW114378   4.631   5.314   4.760
 4493SOL    HW214379   4.760   5.214   4.770
 4494SOL     OW14380   0.195   3.403   5.648
 4494SOL    HW114381   0.185   3.494   5.689
 4494SOL    HW214382   0.189   3.410   5.549
 4495SOL     OW14383   5.569   6.573   2.487
 4495SOL    HW114384   5.553   6.632   2.565
 4495SOL    HW214385   5.543   6.620   2.403
 4496SOL     OW14386   5.755   4.607   6.667
 4496SOL    HW114387   5.834   4.547   6.654
 4496SOL    HW214388   5.686   4.560   6.723
 4497SOL     OW14389   5.228   6.117   6.625
 4497SOL    HW114390   5.277   6.177   6.688
 4497SOL    HW214391   5.131   6.113   6.651
 4498SOL     OW14392   0.301   4.233   6.583
 4498SOL    HW114393   0.243   4.170   6.634
 4498SOL    HW214394   0.392   4.192   6.571
 4499SOL     OW14395   6.898   3.004   4.628
 4499SOL    HW114396   6.820   3.060   4.655
 4499SOL    HW214397   6.884   2.910   4.659
 4500SOL     OW14398   3.093   3.895   4.022
 4500SOL    HW114399   3.043   3.823   3.973
 4500SOL    HW214400   3.161   3.936   3.962
 4501SOL     OW14401   1.300   4.055   5.565
 4501SOL    HW114402   1.248   4.135   5.537
 4501SOL    HW214403   1.341   4.072   5.655
 4502SOL     OW14404   1.786   2.574   6.353
 4502SOL    HW114405   1.766   2.669   6.379
 4502SOL    HW214406   1.866   2.572   6.294
 4503SOL     OW14407   2.243   1.112   3.417
 4503SOL    HW114408   2.230   1.038   3.351
 4503SOL    HW214409   2.229   1.077   3.509
 4504SOL     OW14410   6.016   2.598   5.595
 4504SOL    HW114411   6.028   2.605   5.496
 4504SOL    HW214412   5.919   2.589   5.617
 4505SOL     OW14413   0.702   6.092   4.837
 4505SOL    HW114414   0.757   6.156   4.784
 4505SOL    HW214415   0.755   6.010   4.855
 4506SOL     OW14416   3.596   1.315   4.872
 4506SOL    HW114417   3.682   1.320   4.923
 4506SOL    HW214418   3.578   1.403   4.829
 4507SOL     OW14419   4.774   5.014   1.167
 4507SOL    HW114420   4.763   4.990   1.071
 4507SOL    HW214421   4.871   5.025   1.188
 4508SOL     OW14422   1.997   3.525   0.042
 4508SOL    HW114423   1.940   3.532   0.123
 4508SOL    HW214424   2.015   3.616   0.005
 4509SOL     OW14425   4.181   1.934   4.521
 4509SOL    HW114426   4.120   1.921   4.444
 4509SOL    HW214427   4.134   1.984   4.594
 4510SOL     OW14428   5.883   0.773   5.041
 4510SOL    HW114429   5.854   0.768   5.137
 4510SOL    HW214430   5.871   0.684   4.997
 4511SOL     OW14431   0.114   3.144   0.617
 4511SOL    HW114432   0.021   3.107   0.628
 4511SOL    HW214433   0.108   3.241   0.597
 4512SOL     OW14434   2.613   6.816   6.932
 4512SOL    HW114435   2.613   6.914   6.910
 4512SOL    HW214436   2.662   6.801   7.018
 4513SOL     OW14437   4.195   6.433   1.462
 4513SOL    HW114438   4.279   6.383   1.483
 4513SOL    HW214439   4.217   6.528   1.439
 4514SOL     OW14440   3.720   0.945   4.635
 4514SOL    HW114441   3.706   1.044   4.623
 4514SOL    HW214442   3.652   0.910   4.699
 4515SOL     OW14443   6.571   4.498   6.914
 4515SOL    HW114444   6.508   4.558   6.864
 4515SOL    HW214445   6.610   4.548   6.991
 4516SOL     OW14446   1.413   0.955   5.578
 4516SOL    HW114447   1.470   1.036   5.564
 4516SOL    HW214448   1.470   0.873   5.578
 4517SOL     OW14449   3.069   0.145   6.760
 4517SOL    HW114450   3.025   0.174   6.675
 4517SOL    HW214451   3.153   0.096   6.739
 4518SOL     OW14452   0.994   1.913   3.959
 4518SOL    HW114453   0.935   1.932   4.037
 4518SOL    HW214454   1.082   1.958   3.972
 4519SOL     OW14455   0.543   1.970   3.684
 4519SOL    HW114456   0.475   1.899   3.663
 4519SOL    HW214457   0.635   1.931   3.681
 4520SOL     OW14458   6.271   4.588   2.444
 4520SOL    HW114459   6.305   4.682   2.442
 4520SOL    HW214460   6.259   4.555   2.351
 4521SOL     OW14461   5.066   2.538   5.732
 4521SOL    HW114462   5.114   2.482   5.665
 4521SOL    HW214463   4.996   2.483   5.777
 4522SOL     OW14464   5.259   6.766   4.007
 4522SOL    HW114465   5.333   6.728   3.952
 4522SOL    HW214466   5.211   6.837   3.955
 4523SOL     OW14467   2.749   5.208   0.344
 4523SOL    HW114468   2.661   5.192   0.299
 4523SOL    HW214469   2.822   5.167   0.290
 4524SOL     OW14470   5.463   1.748   5.620
 4524SOL    HW114471   5.435   1.822   5.681
 4524SOL    HW214472   5.460   1.661   5.671
 4525SOL     OW14473   6.470   1.819   4.190
 4525SOL    HW114474   6.460   1.751   4.263
 4525SOL    HW214475   6.566   1.848   4.185
 4526SOL     OW14476   4.771   6.834   1.407
 4526SOL    HW114477   4.796   6.816   1.502
 4526SOL    HW214478   4.720   6.756   1.371
 4527SOL     OW14479   3.881   0.669   3.358
 4527SOL    HW114480   3.800   0.680   3.415
 4527SOL    HW214481   3.955   0.727   3.394
 4528SOL     OW14482   5.276   6.823   6.908
 4528SOL    HW114483   5.205   6.835   6.977
 4528SOL    HW214484   5.315   6.912   6.884
 4529SOL     OW14485   2.519   0.923   3.346
 4529SOL    HW114486   2.455   0.982   3.297
 4529SOL    HW214487   2.558   0.857   3.282
 4530SOL     OW14488   0.600   3.116   5.588
 4530SOL    HW114489   0.557   3.150   5.504
 4530SOL    HW214490   0.532   3.065   5.641
 4531SOL     OW14491   1.115   3.939   3.207
 4531SOL    HW114492   1.184   3.954   3.278
 4531SOL    HW214493   1.155   3.884   3.133
 4532SOL     OW14494   6.754   1.165   1.113
 4532SOL    HW114495   6.709   1.094   1.059
 4532SOL    HW214496   6.691   1.242   1.126
 4533SOL     OW14497   1.525   6.958   3.194
 4533SOL    HW114498   1.572   6.905   3.123
 4533SOL    HW214499   1.494   0.025   3.156
 4534SOL     OW14500   6.100   3.469   5.090
 4534SOL    HW114501   6.077   3.564   5.112
 4534SOL    HW214502   6.186   3.467   5.039
 4535SOL     OW14503   4.731   2.739   1.972
 4535SOL    HW114504   4.771   2.718   1.883
 4535SOL    HW214505   4.721   2.838   1.981
 4536SOL     OW14506   4.967   0.912   4.717
 4536SOL    HW114507   4.877   0.869   4.711
 4536SOL    HW214508   4.963   1.004   4.678
 4537SOL     OW14509   3.704   3.180   6.843
 4537SOL    HW114510   3.783   3.240   6.854
 4537SOL    HW214511   3.721   3.117   6.767
 4538SOL     OW14512   3.492   1.271   3.322
 4538SOL    HW114513   3.565   1.338   3.306
 4538SOL    HW214514   3.433   1.303   3.396
 4539SOL     OW14515   2.803   2.054   3.591
 4539SOL    HW114516   2.742   2.003   3.530
 4539SOL    HW214517   2.828   2.141   3.549
 4540SOL     OW14518   3.787   3.805   4.383
 4540SOL    HW114519   3.777   3.737   4.455
 4540SOL    HW214520   3.709   3.868   4.385
 4541SOL     OW14521   5.431   0.812   0.113
 4541SOL    HW114522   5.423   0.842   0.208
 4541SOL    HW214523   5.362   0.742   0.094
 4542SOL     OW14524   6.354   5.817   1.795
 4542SOL    HW114525   6.268   5.830   1.746
 4542SOL    HW214526   6.335   5.790   1.890
 4543SOL     OW14527   5.073   1.514   0.698
 4543SOL    HW114528   5.114   1.519   0.607
 4543SOL    HW214529   4.975   1.533   0.692
 4544SOL     OW14530   2.355   6.261   6.736
 4544SOL    HW114531   2.441   6.209   6.740
 4544SOL    HW214532   2.374   6.354   6.703
 4545SOL     OW14533   4.118   2.303   5.400
 4545SOL    HW114534   4.025   2.331   5.380
 4545SOL    HW214535   4.118   2.234   5.472
 4546SOL     OW14536   0.915   6.697   5.951
 4546SOL    HW114537   0.975   6.772   5.924
 4546SOL    HW214538   0.822   6.731   5.964
 4547SOL     OW14539   5.666   2.489   1.427
 4547SOL    HW114540   5.662   2.407   1.483
 4547SOL    HW214541   5.696   2.465   1.335
 4548SOL     OW14542   0.552   4.509   3.862
 4548SOL    HW114543   0.502   4.422   3.864
 4548SOL    HW214544   0.508   4.574   3.924
 4549SOL     OW14545   0.061   3.058   3.119
 4549SOL    HW114546   0.105   3.069   3.030
 4549SOL    HW214547   0.094   3.128   3.181
 4550SOL     OW14548   1.100   6.409   3.547
 4550SOL    HW114549   1.023   6.345   3.543
 4550SOL    HW214550   1.184   6.362   3.523
 4551SOL     OW14551   0.604   2.878   5.036
 4551SOL    HW114552   0.587   2.867   5.134
 4551SOL    HW214553   0.519   2.900   4.990
 4552SOL     OW14554   0.473   3.410   5.582
 4552SOL    HW114555   0.467   3.330   5.521
 4552SOL    HW214556   0.386   3.424   5.627
 4553SOL     OW14557   4.691   4.923   0.419
 4553SOL    HW114558   4.755   4.986   0.374
 4553SOL    HW214559   4.631   4.883   0.349
 4554SOL     OW14560   4.268   0.390   2.514
 4554SOL    HW114561   4.332   0.316   2.536
 4554SOL    HW214562   4.301   0.475   2.556
 4555SOL     OW14563   4.571   2.309   6.683
 4555SOL    HW114564   4.496   2.273   6.739
 4555SOL    HW214565   4.534   2.361   6.607
 4556SOL     OW14566   4.008   0.757   3.801
 4556SOL    HW114567   4.101   0.736   3.832
 4556SOL    HW214568   3.958   0.672   3.785
 4557SOL     OW14569   5.112   0.378   5.037
 4557SOL    HW114570   5.096   0.352   5.132
 4557SOL    HW214571   5.181   0.319   4.997
 4558SOL     OW14572   6.353   3.748   6.451
 4558SOL    HW114573   6.383   3.666   6.401
 4558SOL    HW214574   6.288   3.721   6.522
 4559SOL     OW14575   1.393   6.061   1.177
 4559SOL    HW114576   1.488   6.031   1.180
 4559SOL    HW214577   1.389   6.159   1.196
 4560SOL     OW14578   4.946   3.585   3.261
 4560SOL    HW114579   4.959   3.638   3.345
 4560SOL    HW214580   4.936   3.488   3.283
 4561SOL     OW14581   3.033   1.304   0.222
 4561SOL    HW114582   3.055   1.346   0.310
 4561SOL    HW214583   3.070   1.361   0.148
 4562SOL     OW14584   3.267   5.844   5.818
 4562SOL    HW114585   3.218   5.758   5.806
 4562SOL    HW214586   3.331   5.857   5.742
 4563SOL     OW14587   5.842   2.571   0.235
 4563SOL    HW114588   5.911   2.575   0.163
 4563SOL    HW214589   5.848   2.483   0.282
 4564SOL     OW14590   0.937   5.212   0.625
 4564SOL    HW114591   0.863   5.273   0.653
 4564SOL    HW214592   0.899   5.128   0.588
 4565SOL     OW14593   0.501   1.774   4.900
 4565SOL    HW114594   0.499   1.728   4.989
 4565SOL    HW214595   0.527   1.870   4.914
 4566SOL     OW14596   6.903   0.113   6.814
 4566SOL    HW114597   6.864   0.101   6.723
 4566SOL    HW214598   6.914   0.211   6.833
 4567SOL     OW14599   0.276   0.468   0.839
 4567SOL    HW114600   0.327   0.549   0.871
 4567SOL    HW214601   0.222   0.431   0.915
 4568SOL     OW14602   2.616   4.935   5.411
 4568SOL    HW114603   2.617   4.997   5.489
 4568SOL    HW214604   2.670   4.854   5.433
 4569SOL     OW14605   0.983   1.599   4.489
 4569SOL    HW114606   0.922   1.580   4.412
 4569SOL    HW214607   1.041   1.678   4.468
 4570SOL     OW14608   0.053   5.890   3.250
 4570SOL    HW114609   0.056   5.790   3.240
 4570SOL    HW214610   0.050   5.931   3.159
 4571SOL     OW14611   2.930   3.500   4.818
 4571SOL    HW114612   2.920   3.402   4.805
 4571SOL    HW214613   3.024   3.527   4.797
 4572SOL     OW14614   0.051   6.865   0.649
 4572SOL    HW114615   7.012   6.795   0.608
 4572SOL    HW214616   0.067   6.842   0.745
 4573SOL     OW14617   5.877   6.119   1.361
 4573SOL    HW114618   5.781   6.126   1.334
 4573SOL    HW214619   5.935   6.149   1.286
 4574SOL     OW14620   0.179   4.744   1.213
 4574SOL    HW114621   0.095   4.720   1.262
 4574SOL    HW214622   0.243   4.667   1.218
 4575SOL     OW14623   6.193   1.987   0.419
 4575SOL    HW114624   6.264   1.919   0.399
 4575SOL    HW214625   6.169   1.982   0.516
 4576SOL     OW14626   3.135   5.696   6.795
 4576SOL    HW114627   3.124   5.596   6.795
 4576SOL    HW214628   3.195   5.723   6.720
 4577SOL     OW14629   0.976   3.570   3.356
 4577SOL    HW114630   0.911   3.593   3.284
 4577SOL    HW214631   0.994   3.652   3.411
 4578SOL     OW14632   0.646   3.568   3.788
 4578SOL    HW114633   0.695   3.521   3.715
 4578SOL    HW214634   0.711   3.608   3.853
 4579SOL     OW14635   4.580   1.796   2.663
 4579SOL    HW114636   4.549   1.708   2.699
 4579SOL    HW214637   4.558   1.868   2.729
 4580SOL     OW14638   5.854   5.283   0.864
 4580SOL    HW114639   5.937   5.330   0.835
 4580SOL    HW214640   5.849   5.282   0.964
 4581SOL     OW14641   3.005   5.022   3.552
 4581SOL    HW114642   3.063   5.103   3.567
 4581SOL    HW214643   3.049   4.962   3.485
 4582SOL     OW14644   5.202   6.364   3.848
 4582SOL    HW114645   5.146   6.441   3.817
 4582SOL    HW214646   5.294   6.371   3.808
 4583SOL     OW14647   3.173   1.997   5.051
 4583SOL    HW114648   3.173   2.093   5.079
 4583SOL    HW214649   3.193   1.991   4.953
 4584SOL     OW14650   0.284   5.883   5.559
 4584SOL    HW114651   0.338   5.805   5.590
 4584SOL    HW214652   0.225   5.856   5.483
 4585SOL     OW14653   3.140   6.286   2.923
 4585SOL    HW114654   3.167   6.380   2.903
 4585SOL    HW214655   3.070   6.257   2.858
 4586SOL     OW14656   2.983   5.201   1.148
 4586SOL    HW114657   2.980   5.289   1.101
 4586SOL    HW214658   3.076   5.184   1.180
 4587SOL     OW14659   4.153   3.370   1.778
 4587SOL    HW114660   4.135   3.460   1.818
 4587SOL    HW214661   4.244   3.339   1.805
 4588SOL     OW14662   4.088   3.811   4.504
 4588SOL    HW114663   4.072   3.725   4.455
 4588SOL    HW214664   4.138   3.793   4.588
 4589SOL     OW14665   6.094   2.186   2.786
 4589SOL    HW114666   6.026   2.180   2.713
 4589SOL    HW214667   6.067   2.258   2.850
 4590SOL     OW14668   4.157   6.109   2.812
 4590SOL    HW114669   4.119   6.097   2.904
 4590SOL    HW214670   4.166   6.021   2.767
 4591SOL     OW14671   6.371   5.683   5.759
 4591SOL    HW114672   6.328   5.696   5.670
 4591SOL    HW214673   6.428   5.763   5.780
 4592SOL     OW14674   4.220   3.087   0.831
 4592SOL    HW114675   4.276   3.026   0.774
 4592SOL    HW214676   4.157   3.032   0.886
 4593SOL     OW14677   4.115   5.542   3.311
 4593SOL    HW114678   4.070   5.529   3.223
 4593SOL    HW214679   4.213   5.523   3.302
 4594SOL     OW14680   3.521   2.085   2.511
 4594SOL    HW114681   3.508   2.077   2.412
 4594SOL    HW214682   3.434   2.109   2.555
 4595SOL     OW14683   3.731   3.092   6.464
 4595SOL    HW114684   3.797   3.018   6.479
 4595SOL    HW214685   3.638   3.058   6.479
 4596SOL     OW14686   5.873   6.038   2.145
 4596SOL    HW114687   5.838   6.069   2.056
 4596SOL    HW214688   5.874   5.938   2.147
 4597SOL     OW14689   5.648   5.264   6.731
 4597SOL    HW114690   5.616   5.169   6.729
 4597SOL    HW214691   5.624   5.309   6.644
 4598SOL     OW14692   1.724   5.196   6.495
 4598SOL    HW114693   1.731   5.181   6.593
 4598SOL    HW214694   1.738   5.110   6.447
 4599SOL     OW14695   0.889   3.842   1.009
 4599SOL    HW114696   0.977   3.801   1.029
 4599SOL    HW214697   0.895   3.942   1.020
 4600SOL     OW14698   2.689   5.075   6.471
 4600SOL    HW114699   2.590   5.059   6.465
 4600SOL    HW214700   2.714   5.095   6.566
 4601SOL     OW14701   1.570   0.611   5.212
 4601SOL    HW114702   1.669   0.624   5.216
 4601SOL    HW214703   1.524   0.700   5.223
 4602SOL     OW14704   1.413   6.861   1.272
 4602SOL    HW114705   1.359   6.942   1.253
 4602SOL    HW214706   1.453   6.826   1.187
 4603SOL     OW14707   3.615   6.480   1.964
 4603SOL    HW114708   3.546   6.415   1.931
 4603SOL    HW214709   3.612   6.563   1.907
 4604SOL     OW14710   3.919   0.439   1.820
 4604SOL    HW114711   3.980   0.407   1.893
 4604SOL    HW214712   3.917   0.539   1.820
 4605SOL     OW14713   4.790   0.667   4.130
 4605SOL    HW114714   4.691   0.660   4.147
 4605SOL    HW214715   4.839   0.655   4.217
 4606SOL     OW14716   0.048   6.514   3.672
 4606SOL    HW114717   0.011   6.541   3.761
 4606SOL    HW214718   0.123   6.575   3.646
 4607SOL     OW14719   2.426   2.510   1.126
 4607SOL    HW114720   2.526   2.519   1.130
 4607SOL    HW214721   2.398   2.422   1.165
 4608SOL     OW14722   1.708   4.988   5.399
 4608SOL    HW114723   1.618   4.951   5.377
 4608SOL    HW214724   1.719   5.078   5.355
 4609SOL     OW14725   4.083   5.621   6.297
 4609SOL    HW114726   4.124   5.709   6.320
 4609SOL    HW214727   3.998   5.636   6.247
 4610SOL     OW14728   6.665   2.420   0.443
 4610SOL    HW114729   6.595   2.432   0.512
 4610SOL    HW214730   6.755   2.419   0.487
 4611SOL     OW14731   6.757   4.061   0.024
 4611SOL    HW114732   6.771   4.075   0.122
 4611SOL    HW214733   6.749   4.149   6.998
 4612SOL     OW14734   2.025   5.811   6.782
 4612SOL    HW114735   1.998   5.900   6.745
 4612SOL    HW214736   2.096   5.771   6.725
 4613SOL     OW14737   2.501   4.986   2.644
 4613SOL    HW114738   2.445   5.064   2.669
 4613SOL    HW214739   2.588   5.019   2.607
 4614SOL     OW14740   2.051   5.406   0.020
 4614SOL    HW114741   2.118   5.340   7.007
 4614SOL    HW214742   1.959   5.366   0.014
 4615SOL     OW14743   1.767   1.537   0.702
 4615SOL    HW114744   1.703   1.612   0.719
 4615SOL    HW214745   1.780   1.525   0.604
 4616SOL     OW14746   6.237   0.535   6.748
 4616SOL    HW114747   6.190   0.531   6.660
 4616SOL    HW214748   6.272   0.444   6.770
 4617SOL     OW14749   0.666   2.323   2.782
 4617SOL    HW114750   0.589   2.273   2.744
 4617SOL    HW214751   0.732   2.345   2.709
 4618SOL     OW14752   1.399   2.365   5.585
 4618SOL    HW114753   1.399   2.307   5.504
 4618SOL    HW214754   1.468   2.332   5.649
 4619SOL     OW14755   4.161   0.510   3.650
 4619SOL    HW114756   4.232   0.573   3.618
 4619SOL    HW214757   4.204   0.427   3.684
 4620SOL     OW14758   3.846   4.194   0.190
 4620SOL    HW114759   3.871   4.151   0.104
 4620SOL    HW214760   3.894   4.281   0.200
 4621SOL     OW14761   6.560   1.739   5.109
 4621SOL    HW114762   6.507   1.672   5.057
 4621SOL    HW214763   6.534   1.736   5.205
 4622SOL     OW14764   1.267   2.597   0.891
 4622SOL    HW114765   1.331   2.530   0.855
 4622SOL    HW214766   1.270   2.596   0.991
 4623SOL     OW14767   7.016   4.963   1.150
 4623SOL    HW114768   0.063   4.890   1.137
 4623SOL    HW214769   6.927   4.923   1.172
 4624SOL     OW14770   4.474   0.958   3.693
 4624SOL    HW114771   4.424   1.040   3.723
 4624SOL    HW214772   4.566   0.959   3.734
 4625SOL     OW14773   1.521   4.699   7.016
 4625SOL    HW114774   1.612   4.721   6.981
 4625SOL    HW214775   1.452   4.749   6.964
 4626SOL     OW14776   6.452   4.575   1.868
 4626SOL    HW114777   6.386   4.637   1.826
 4626SOL    HW214778   6.483   4.614   1.955
 4627SOL     OW14779   3.733   6.206   5.635
 4627SOL    HW114780   3.723   6.306   5.636
 4627SOL    HW214781   3.688   6.167   5.716
 4628SOL     OW14782   6.343   4.787   2.148
 4628SOL    HW114783   6.315   4.691   2.157
 4628SOL    HW214784   6.306   4.840   2.224
 4629SOL     OW14785   1.922   4.797   6.249
 4629SOL    HW114786   1.923   4.861   6.173
 4629SOL    HW214787   1.926   4.703   6.214
 4630SOL     OW14788   2.873   5.826   3.727
 4630SOL    HW114789   2.790   5.839   3.673
 4630SOL    HW214790   2.883   5.729   3.751
 4631SOL     OW14791   1.996   6.645   3.502
 4631SOL    HW114792   2.084   6.599   3.495
 4631SOL    HW214793   1.958   6.659   3.410
 4632SOL     OW14794   4.034   5.411   4.216
 4632SOL    HW114795   4.093   5.364   4.151
 4632SOL    HW214796   4.076   5.496   4.245
 4633SOL     OW14797   6.557   2.105   5.451
 4633SOL    HW114798   6.490   2.051   5.501
 4633SOL    HW214799   6.510   2.163   5.384
 4634SOL     OW14800   2.800   4.618   0.368
 4634SOL    HW114801   2.895   4.631   0.395
 4634SOL    HW214802   2.783   4.521   0.352
 4635SOL     OW14803   5.892   3.399   2.816
 4635SOL    HW114804   5.854   3.337   2.885
 4635SOL    HW214805   5.826   3.471   2.795
 4636SOL     OW14806   2.610   5.411   0.123
 4636SOL    HW114807   2.547   5.457   0.186
 4636SOL    HW214808   2.617   5.463   0.038
 4637SOL     OW14809   1.218   0.979   6.873
 4637SOL    HW114810   1.302   1.017   6.836
 4637SOL    HW214811   1.200   0.890   6.830
 4638SOL     OW14812   3.885   2.816   6.087
 4638SOL    HW114813   3.890   2.895   6.026
 4638SOL    HW214814   3.820   2.835   6.161
 4639SOL     OW14815   0.957   4.074   6.183
 4639SOL    HW114816   0.860   4.081   6.161
 4639SOL    HW214817   0.976   3.984   6.221
 4640SOL     OW14818   4.933   4.332   3.876
 4640SOL    HW114819   4.975   4.348   3.965
 4640SOL    HW214820   4.840   4.297   3.889
 4641SOL     OW14821   2.822   4.945   4.422
 4641SOL    HW114822   2.838   4.860   4.373
 4641SOL    HW214823   2.909   4.992   4.437
 4642SOL     OW14824   6.760   5.225   4.987
 4642SOL    HW114825   6.752   5.322   5.009
 4642SOL    HW214826   6.778   5.214   4.889
 4643SOL     OW14827   4.524   2.409   1.031
 4643SOL    HW114828   4.474   2.361   0.958
 4643SOL    HW214829   4.460   2.462   1.085
 4644SOL     OW14830   1.305   5.351   4.769
 4644SOL    HW114831   1.315   5.405   4.686
 4644SOL    HW214832   1.394   5.314   4.796
 4645SOL     OW14833   2.121   6.371   4.579
 4645SOL    HW114834   2.130   6.422   4.664
 4645SOL    HW214835   2.118   6.273   4.599
 4646SOL     OW14836   2.822   0.304   2.263
 4646SOL    HW114837   2.774   0.291   2.176
 4646SOL    HW214838   2.848   0.400   2.273
 4647SOL     OW14839   0.664   7.008   3.209
 4647SOL    HW114840   0.702   7.010   3.301
 4647SOL    HW214841   0.728   6.963   3.148
 4648SOL     OW14842   3.447   6.830   2.722
 4648SOL    HW114843   3.473   6.872   2.635
 4648SOL    HW214844   3.526   6.830   2.783
 4649SOL     OW14845   4.984   1.102   5.860
 4649SOL    HW114846   5.004   1.017   5.811
 4649SOL    HW214847   5.013   1.180   5.805
 4650SOL     OW14848   3.880   6.282   2.881
 4650SOL    HW114849   3.933   6.271   2.965
 4650SOL    HW214850   3.786   6.252   2.896
 4651SOL     OW14851   0.375   2.473   1.740
 4651SOL    HW114852   0.308   2.408   1.776
 4651SOL    HW214853   0.329   2.556   1.710
 4652SOL     OW14854   0.598   0.210   3.049
 4652SOL    HW114855   0.597   0.132   3.112
 4652SOL    HW214856   0.527   0.275   3.077
 4653SOL     OW14857   6.935   6.449   6.948
 4653SOL    HW114858   6.890   6.521   6.895
 4653SOL    HW214859   6.872   6.373   6.960
 4654SOL     OW14860   0.887   6.855   0.065
 4654SOL    HW114861   0.922   6.949   0.072
 4654SOL    HW214862   0.823   6.850   7.009
 4655SOL     OW14863   0.603   4.952   2.622
 4655SOL    HW114864   0.576   4.870   2.673
 4655SOL    HW214865   0.557   5.032   2.662
 4656SOL     OW14866   1.001   0.492   3.135
 4656SOL    HW114867   0.941   0.417   3.105
 4656SOL    HW214868   0.997   0.499   3.234
 4657SOL     OW14869   4.939   6.994   1.282
 4657SOL    HW114870   4.896   6.910   1.316
 4657SOL    HW214871   4.959   0.035   1.358
 4658SOL     OW14872   4.266   0.107   2.722
 4658SOL    HW114873   4.168   0.089   2.713
 4658SOL    HW214874   4.307   0.114   2.632
 4659SOL     OW14875   1.476   3.225   5.195
 4659SOL    HW114876   1.463   3.191   5.289
 4659SOL    HW214877   1.536   3.163   5.145
 4660SOL     OW14878   1.198   2.007   5.350
 4660SOL    HW114879   1.233   1.948   5.423
 4660SOL    HW214880   1.255   2.089   5.343
 4661SOL     OW14881   3.612   4.148   4.333
 4661SOL    HW114882   3.559   4.138   4.418
 4661SOL    HW214883   3.663   4.234   4.337
 4662SOL     OW14884   5.135   0.408   5.642
 4662SOL    HW114885   5.102   0.407   5.548
 4662SOL    HW214886   5.057   0.420   5.704
 4663SOL     OW14887   0.145   1.923   1.930
 4663SOL    HW114888   0.163   2.011   1.976
 4663SOL    HW214889   0.075   1.936   1.860
 4664SOL     OW14890   2.486   2.692   6.508
 4664SOL    HW114891   2.429   2.610   6.501
 4664SOL    HW214892   2.464   2.755   6.434
 4665SOL     OW14893   5.189   0.278   6.142
 4665SOL    HW114894   5.231   0.188   6.126
 4665SOL    HW214895   5.255   0.350   6.122
 4666SOL     OW14896   2.238   1.689   0.081
 4666SOL    HW114897   2.221   1.722   0.174
 4666SOL    HW214898   2.316   1.739   0.042
 4667SOL     OW14899   0.141   4.892   6.339
 4667SOL    HW114900   0.230   4.936   6.331
 4667SOL    HW214901   0.099   4.882   6.249
 4668SOL     OW14902   0.018   1.638   4.536
 4668SOL    HW114903   7.014   1.597   4.623
 4668SOL    HW214904   6.982   1.598   4.463
 4669SOL     OW14905   2.076   6.173   0.245
 4669SOL    HW114906   2.009   6.142   0.177
 4669SOL    HW214907   2.034   6.170   0.336
 4670SOL     OW14908   3.289   0.924   4.599
 4670SOL    HW114909   3.265   0.998   4.662
 4670SOL    HW214910   3.241   0.841   4.626
 4671SOL     OW14911   6.326   2.821   1.700
 4671SOL    HW114912   6.391   2.859   1.634
 4671SOL    HW214913   6.262   2.760   1.653
 4672SOL     OW14914   1.890   3.986   5.724
 4672SOL    HW114915   1.923   3.970   5.631
 4672SOL    HW214916   1.968   3.981   5.787
 4673SOL     OW14917   3.497   0.661   1.530
 4673SOL    HW114918   3.511   0.581   1.472
 4673SOL    HW214919   3.583   0.710   1.540
 4674SOL     OW14920   5.467   5.391   5.450
 4674SOL    HW114921   5.450   5.302   5.408
 4674SOL    HW214922   5.390   5.453   5.429
 4675SOL     OW14923   1.343   3.500   0.803
 4675SOL    HW114924   1.382   3.574   0.857
 4675SOL    HW214925   1.361   3.412   0.848
 4676SOL     OW14926   1.308   6.214   3.810
 4676SOL    HW114927   1.315   6.193   3.713
 4676SOL    HW214928   1.365   6.151   3.863
 4677SOL     OW14929   1.923   1.362   0.852
 4677SOL    HW114930   1.840   1.382   0.800
 4677SOL    HW214931   1.919   1.407   0.941
 4678SOL     OW14932   2.161   3.916   2.633
 4678SOL    HW114933   2.185   4.010   2.659
 4678SOL    HW214934   2.218   3.852   2.684
 4679SOL     OW14935   5.297   6.274   1.905
 4679SOL    HW114936   5.254   6.229   1.984
 4679SOL    HW214937   5.395   6.287   1.924
 4680SOL     OW14938   3.949   1.389   1.362
 4680SOL    HW114939   3.950   1.289   1.357
 4680SOL    HW214940   3.883   1.418   1.431
 4681SOL     OW14941   5.039   4.294   7.010
 4681SOL    HW114942   4.987   4.326   6.930
 4681SOL    HW214943   5.113   4.234   6.980
 4682SOL     OW14944   4.484   3.419   6.397
 4682SOL    HW114945   4.431   3.371   6.326
 4682SOL    HW214946   4.539   3.353   6.447
 4683SOL     OW14947   5.485   4.556   3.361
 4683SOL    HW114948   5.457   4.604   3.278
 4683SOL    HW214949   5.480   4.619   3.439
 4684SOL     OW14950   4.162   6.063   6.784
 4684SOL    HW114951   4.113   6.053   6.871
 4684SOL    HW214952   4.221   6.144   6.789
 4685SOL     OW14953   2.172   3.836   6.000
 4685SOL    HW114954   2.111   3.766   5.961
 4685SOL    HW214955   2.126   3.924   6.000
 4686SOL     OW14956   3.329   6.313   0.508
 4686SOL    HW114957   3.258   6.283   0.445
 4686SOL    HW214958   3.342   6.412   0.498
 4687SOL     OW14959   3.209   1.878   3.150
 4687SOL    HW114960   3.179   1.888   3.055
 4687SOL    HW214961   3.224   1.781   3.170
 4688SOL     OW14962   5.366   2.443   5.841
 4688SOL    HW114963   5.342   2.451   5.745
 4688SOL    HW214964   5.396   2.532   5.876
 4689SOL     OW14965   5.287   0.088   1.378
 4689SOL    HW114966   5.328   0.004   1.414
 4689SOL    HW214967   5.356   0.140   1.328
 4690SOL     OW14968   1.904   1.478   1.091
 4690SOL    HW114969   1.934   1.432   1.175
 4690SOL    HW214970   1.804   1.483   1.090
 4691SOL     OW14971   5.083   4.371   0.419
 4691SOL    HW114972   5.077   4.439   0.492
 4691SOL    HW214973   5.052   4.412   0.333
 4692SOL     OW14974   6.415   4.366   3.077
 4692SOL    HW114975   6.438   4.351   2.981
 4692SOL    HW214976   6.467   4.444   3.111
 4693SOL     OW14977   1.593   0.776   4.231
 4693SOL    HW114978   1.558   0.684   4.247
 4693SOL    HW214979   1.691   0.779   4.249
 4694SOL     OW14980   2.366   1.799   0.495
 4694SOL    HW114981   2.450   1.746   0.482
 4694SOL    HW214982   2.310   1.793   0.413
 4695SOL     OW14983   1.806   5.858   0.694
 4695SOL    HW114984   1.747   5.904   0.627
 4695SOL    HW214985   1.830   5.767   0.660
 4696SOL     OW14986   0.800   4.934   5.672
 4696SOL    HW114987   0.838   5.002   5.735
 4696SOL    HW214988   0.701   4.926   5.689
 4697SOL     OW14989   1.192   3.762   1.863
 4697SOL    HW114990   1.103   3.794   1.895
 4697SOL    HW214991   1.248   3.841   1.837
 4698SOL     OW14992   4.796   0.425   3.487
 4698SOL    HW114993   4.805   0.463   3.579
 4698SOL    HW214994   4.866   0.465   3.427
 4699SOL     OW14995   0.494   0.501   2.166
 4699SOL    HW114996   0.465   0.423   2.110
 4699SOL    HW214997   0.535   0.468   2.251
 4700SOL     OW14998   6.681   1.914   2.372
 4700SOL    HW114999   6.722   1.901   2.461
 4700SOL    HW215000   6.605   1.979   2.380
 4701SOL     OW15001   3.185   1.850   2.157
 4701SOL    HW115002   3.125   1.817   2.231
 4701SOL    HW215003   3.199   1.949   2.167
 4702SOL     OW15004   4.934   4.959   0.250
 4702SOL    HW115005   5.013   4.956   0.189
 4702SOL    HW215006   4.922   5.052   0.285
 4703SOL     OW15007   1.272   5.368   2.379
 4703SOL    HW115008   1.329   5.446   2.405
 4703SOL    HW215009   1.302   5.334   2.289
 4704SOL     OW15010   0.315   6.439   5.405
 4704SOL    HW115011   0.389   6.415   5.343
 4704SOL    HW215012   0.258   6.358   5.421
 4705SOL     OW15013   3.199   2.913   0.986
 4705SOL    HW115014   3.235   2.977   0.918
 4705SOL    HW215015   3.264   2.839   1.001
 4706SOL     OW15016   1.182   7.007   0.986
 4706SOL    HW115017   1.225   0.049   1.052
 4706SOL    HW215018   1.083   7.007   1.001
 4707SOL     OW15019   1.765   6.497   1.158
 4707SOL    HW115020   1.846   6.551   1.181
 4707SOL    HW215021   1.793   6.408   1.121
 4708SOL     OW15022   1.558   1.663   4.892
 4708SOL    HW115023   1.463   1.636   4.905
 4708SOL    HW215024   1.614   1.582   4.873
 4709SOL     OW15025   5.040   4.962   5.176
 4709SOL    HW115026   5.011   5.055   5.196
 4709SOL    HW215027   5.133   4.963   5.139
 4710SOL     OW15028   5.668   6.262   4.265
 4710SOL    HW115029   5.698   6.200   4.192
 4710SOL    HW215030   5.612   6.335   4.227
 4711SOL     OW15031   6.244   2.861   3.343
 4711SOL    HW115032   6.178   2.798   3.303
 4711SOL    HW215033   6.223   2.875   3.440
 4712SOL     OW15034   4.296   4.294   5.931
 4712SOL    HW115035   4.342   4.249   6.007
 4712SOL    HW215036   4.205   4.254   5.919
 4713SOL     OW15037   5.053   5.025   1.212
 4713SOL    HW115038   5.076   4.933   1.244
 4713SOL    HW215039   5.133   5.067   1.171
 4714SOL     OW15040   6.516   2.035   6.795
 4714SOL    HW115041   6.560   1.958   6.748
 4714SOL    HW215042   6.421   2.042   6.765
 4715SOL     OW15043   6.407   1.804   1.557
 4715SOL    HW115044   6.309   1.821   1.569
 4715SOL    HW215045   6.440   1.857   1.478
 4716SOL     OW15046   4.293   5.200   5.331
 4716SOL    HW115047   4.369   5.263   5.349
 4716SOL    HW215048   4.275   5.198   5.232
 4717SOL     OW15049   2.478   5.754   5.958
 4717SOL    HW115050   2.420   5.691   6.010
 4717SOL    HW215051   2.450   5.753   5.862
 4718SOL     OW15052   5.189   2.796   1.209
 4718SOL    HW115053   5.275   2.751   1.187
 4718SOL    HW215054   5.115   2.753   1.159
 4719SOL     OW15055   5.968   3.545   3.354
 4719SOL    HW115056   6.003   3.453   3.339
 4719SOL    HW215057   6.044   3.608   3.369
 4720SOL     OW15058   2.934   5.097   0.201
 4720SOL    HW115059   2.974   5.029   0.263
 4720SOL    HW215060   2.933   5.061   0.108
 4721SOL     OW15061   6.063   3.178   1.605
 4721SOL    HW115062   6.134   3.247   1.619
 4721SOL    HW215063   6.077   3.133   1.517
 4722SOL     OW15064   1.132   4.828   0.051
 4722SOL    HW115065   1.194   4.764   0.096
 4722SOL    HW215066   1.041   4.787   0.044
 4723SOL     OW15067   3.384   4.544   5.478
 4723SOL    HW115068   3.308   4.601   5.448
 4723SOL    HW215069   3.350   4.460   5.520
 4724SOL     OW15070   6.976   6.567   3.972
 4724SOL    HW115071   6.937   6.476   3.984
 4724SOL    HW215072   0.055   6.559   3.957
 4725SOL     OW15073   5.901   5.097   0.647
 4725SOL    HW115074   5.823   5.086   0.585
 4725SOL    HW215075   5.892   5.183   0.698
 4726SOL     OW15076   1.839   2.731   5.474
 4726SOL    HW115077   1.911   2.740   5.405
 4726SOL    HW215078   1.805   2.637   5.475
 4727SOL     OW15079   0.828   5.642   0.377
 4727SOL    HW115080   0.864   5.674   0.289
 4727SOL    HW215081   0.884   5.681   0.451
 4728SOL     OW15082   5.844   1.497   3.015
 4728SOL    HW115083   5.914   1.527   2.951
 4728SOL    HW215084   5.886   1.478   3.104
 4729SOL     OW15085   5.015   0.150   0.158
 4729SOL    HW115086   4.941   0.213   0.181
 4729SOL    HW215087   5.077   0.194   0.093
 4730SOL     OW15088   3.720   6.968   4.597
 4730SOL    HW115089   3.626   6.977   4.630
 4730SOL    HW215090   3.732   6.878   4.555
 4731SOL     OW15091   3.003   0.724   0.565
 4731SOL    HW115092   2.953   0.802   0.602
 4731SOL    HW215093   2.943   0.671   0.505
 4732SOL     OW15094   0.933   3.425   5.095
 4732SOL    HW115095   0.970   3.353   5.154
 4732SOL    HW215096   0.879   3.489   5.151
 4733SOL     OW15097   2.016   4.227   3.007
 4733SOL    HW115098   1.958   4.153   2.972
 4733SOL    HW215099   1.963   4.312   3.011
 4734SOL     OW15100   5.052   3.149   6.439
 4734SOL    HW115101   5.083   3.097   6.519
 4734SOL    HW215102   5.103   3.234   6.432
 4735SOL     OW15103   0.378   6.094   3.868
 4735SOL    HW115104   0.451   6.138   3.816
 4735SOL    HW215105   0.384   6.122   3.964
 4736SOL     OW15106   6.550   2.226   3.874
 4736SOL    HW115107   6.631   2.170   3.861
 4736SOL    HW215108   6.574   2.323   3.869
 4737SOL     OW15109   1.975   4.217   0.342
 4737SOL    HW115110   1.875   4.205   0.342
 4737SOL    HW215111   2.007   4.227   0.436
 4738SOL     OW15112   3.227   0.001   3.803
 4738SOL    HW115113   3.292   6.966   3.749
 4738SOL    HW215114   3.186   6.963   3.874
 4739SOL     OW15115   6.670   2.509   4.785
 4739SOL    HW115116   6.672   2.483   4.881
 4739SOL    HW215117   6.665   2.427   4.728
 4740SOL     OW15118   0.883   0.840   1.250
 4740SOL    HW115119   0.902   0.765   1.187
 4740SOL    HW215120   0.887   0.927   1.201
 4741SOL     OW15121   4.382   4.531   1.067
 4741SOL    HW115122   4.434   4.616   1.059
 4741SOL    HW215123   4.442   4.458   1.100
 4742SOL     OW15124   2.805   5.471   1.721
 4742SOL    HW115125   2.726   5.429   1.677
 4742SOL    HW215126   2.798   5.459   1.820
 4743SOL     OW15127   2.726   1.101   5.556
 4743SOL    HW115128   2.654   1.169   5.547
 4743SOL    HW215129   2.814   1.143   5.536
 4744SOL     OW15130   2.054   2.624   5.221
 4744SOL    HW115131   2.088   2.712   5.187
 4744SOL    HW215132   2.131   2.567   5.247
 4745SOL     OW15133   3.283   5.265   5.915
 4745SOL    HW115134   3.286   5.169   5.888
 4745SOL    HW215135   3.188   5.291   5.934
 4746SOL     OW15136   6.005   5.657   0.528
 4746SOL    HW115137   6.095   5.691   0.503
 4746SOL    HW215138   5.949   5.646   0.446
 4747SOL     OW15139   0.077   3.104   0.118
 4747SOL    HW115140   0.077   3.013   0.159
 4747SOL    HW215141   7.009   3.121   0.075
 4748SOL     OW15142   1.306   0.530   1.452
 4748SOL    HW115143   1.285   0.548   1.548
 4748SOL    HW215144   1.223   0.543   1.396
 4749SOL     OW15145   2.731   6.809   6.688
 4749SOL    HW115146   2.704   6.788   6.782
 4749SOL    HW215147   2.742   6.907   6.677
 4750SOL     OW15148   0.142   1.439   4.249
 4750SOL    HW115149   0.227   1.465   4.295
 4750SOL    HW215150   0.074   1.512   4.262
 4751SOL     OW15151   2.219   4.067   6.837
 4751SOL    HW115152   2.302   4.078   6.893
 4751SOL    HW215153   2.219   4.134   6.763
 4752SOL     OW15154   2.879   6.189   1.147
 4752SOL    HW115155   2.863   6.234   1.059
 4752SOL    HW215156   2.866   6.256   1.221
 4753SOL     OW15157   5.563   6.948   4.721
 4753SOL    HW115158   5.503   6.971   4.644
 4753SOL    HW215159   5.607   6.860   4.704
 4754SOL     OW15160   6.335   0.645   6.176
 4754SOL    HW115161   6.302   0.739   6.188
 4754SOL    HW215162   6.258   0.585   6.154
 4755SOL     OW15163   2.931   0.689   6.387
 4755SOL    HW115164   2.874   0.736   6.321
 4755SOL    HW215165   2.875   0.656   6.463
 4756SOL     OW15166   5.869   2.104   1.655
 4756SOL    HW115167   5.958   2.145   1.635
 4756SOL    HW215168   5.875   2.050   1.740
 4757SOL     OW15169   2.450   2.497   2.197
 4757SOL    HW115170   2.387   2.428   2.231
 4757SOL    HW215171   2.515   2.453   2.134
 4758SOL     OW15172   4.250   5.747   5.432
 4758SOL    HW115173   4.206   5.679   5.490
 4758SOL    HW215174   4.183   5.786   5.369
 4759SOL     OW15175   5.235   5.683   4.903
 4759SOL    HW115176   5.187   5.770   4.889
 4759SOL    HW215177   5.321   5.684   4.852
 4760SOL     OW15178   2.581   1.229   1.612
 4760SOL    HW115179   2.679   1.245   1.622
 4760SOL    HW215180   2.536   1.315   1.586
 4761SOL     OW15181   6.260   0.107   6.151
 4761SOL    HW115182   6.226   0.098   6.245
 4761SOL    HW215183   6.206   0.047   6.091
 4762SOL     OW15184   2.362   4.318   2.286
 4762SOL    HW115185   2.290   4.306   2.355
 4762SOL    HW215186   2.418   4.397   2.311
 4763SOL     OW15187   6.183   5.946   2.901
 4763SOL    HW115188   6.133   5.900   2.975
 4763SOL    HW215189   6.244   6.014   2.941
 4764SOL     OW15190   4.581   3.866   5.294
 4764SOL    HW115191   4.623   3.775   5.288
 4764SOL    HW215192   4.614   3.912   5.377
 4765SOL     OW15193   4.746   6.515   4.955
 4765SOL    HW115194   4.821   6.559   5.004
 4765SOL    HW215195   4.659   6.547   4.991
 4766SOL     OW15196   3.203   0.729   3.503
 4766SOL    HW115197   3.177   0.793   3.431
 4766SOL    HW215198   3.123   0.678   3.533
 4767SOL     OW15199   4.263   6.652   1.104
 4767SOL    HW115200   4.262   6.559   1.067
 4767SOL    HW215201   4.226   6.716   1.037
 4768SOL     OW15202   5.525   1.858   4.879
 4768SOL    HW115203   5.462   1.919   4.831
 4768SOL    HW215204   5.571   1.799   4.812
 4769SOL     OW15205   3.698   5.539   1.558
 4769SOL    HW115206   3.651   5.616   1.600
 4769SOL    HW215207   3.757   5.571   1.484
 4770SOL     OW15208   2.177   0.604   2.940
 4770SOL    HW115209   2.190   0.700   2.918
 4770SOL    HW215210   2.234   0.547   2.881
 4771SOL     OW15211   3.341   4.536   5.849
 4771SOL    HW115212   3.297   4.449   5.828
 4771SOL    HW215213   3.350   4.545   5.949
 4772SOL     OW15214   2.483   6.754   1.245
 4772SOL    HW115215   2.473   6.752   1.146
 4772SOL    HW215216   2.519   6.666   1.276
 4773SOL     OW15217   0.271   5.448   4.337
 4773SOL    HW115218   0.337   5.524   4.335
 4773SOL    HW215219   0.219   5.453   4.422
 4774SOL     OW15220   0.846   3.090   2.277
 4774SOL    HW115221   0.915   3.155   2.308
 4774SOL    HW215222   0.891   3.005   2.248
 4775SOL     OW15223   5.545   0.596   3.218
 4775SOL    HW115224   5.631   0.550   3.239
 4775SOL    HW215225   5.558   0.660   3.142
 4776SOL     OW15226   2.441   6.783   3.077
 4776SOL    HW115227   2.513   6.747   3.017
 4776SOL    HW215228   2.352   6.766   3.037
 4777SOL     OW15229   2.578   4.092   1.386
 4777SOL    HW115230   2.638   4.035   1.330
 4777SOL    HW215231   2.621   4.180   1.402
 4778SOL     OW15232   5.320   2.536   1.887
 4778SOL    HW115233   5.294   2.441   1.904
 4778SOL    HW215234   5.348   2.579   1.974
 4779SOL     OW15235   6.412   0.087   2.555
 4779SOL    HW115236   6.488   0.033   2.590
 4779SOL    HW215237   6.444   0.144   2.479
 4780SOL     OW15238   0.393   0.850   5.931
 4780SOL    HW115239   0.364   0.834   6.025
 4780SOL    HW215240   0.492   0.868   5.928
 4781SOL     OW15241   2.704   5.879   1.738
 4781SOL    HW115242   2.750   5.923   1.815
 4781SOL    HW215243   2.761   5.806   1.702
 4782SOL     OW15244   5.024   6.908   0.073
 4782SOL    HW115245   4.978   6.929   7.007
 4782SOL    HW215246   5.041   6.993   0.123
 4783SOL     OW15247   4.484   4.529   0.628
 4783SOL    HW115248   4.455   4.625   0.626
 4783SOL    HW215249   4.566   4.519   0.571
 4784SOL     OW15250   6.216   5.196   5.799
 4784SOL    HW115251   6.201   5.262   5.873
 4784SOL    HW215252   6.223   5.104   5.838
 4785SOL     OW15253   6.657   6.236   1.112
 4785SOL    HW115254   6.687   6.141   1.122
 4785SOL    HW215255   6.736   6.297   1.122
 4786SOL     OW15256   1.797   2.344   2.542
 4786SOL    HW115257   1.759   2.272   2.483
 4786SOL    HW215258   1.822   2.305   2.630
 4787SOL     OW15259   3.453   2.119   3.585
 4787SOL    HW115260   3.447   2.020   3.578
 4787SOL    HW215261   3.412   2.161   3.504
 4788SOL     OW15262   1.195   5.902   6.146
 4788SOL    HW115263   1.192   5.913   6.046
 4788SOL    HW215264   1.103   5.888   6.181
 4789SOL     OW15265   5.197   0.656   0.054
 4789SOL    HW115266   5.131   0.679   7.002
 4789SOL    HW215267   5.260   0.587   0.020
 4790SOL     OW15268   5.580   3.410   6.752
 4790SOL    HW115269   5.633   3.393   6.835
 4790SOL    HW215270   5.602   3.340   6.684
 4791SOL     OW15271   5.941   0.901   1.815
 4791SOL    HW115272   5.874   0.947   1.872
 4791SOL    HW215273   5.937   0.802   1.833
 4792SOL     OW15274   1.977   2.796   3.058
 4792SOL    HW115275   2.048   2.866   3.068
 4792SOL    HW215276   1.997   2.719   3.119
 4793SOL     OW15277   1.236   0.734   5.783
 4793SOL    HW115278   1.334   0.731   5.802
 4793SOL    HW215279   1.206   0.644   5.751
 4794SOL     OW15280   3.635   0.659   2.776
 4794SOL    HW115281   3.702   0.607   2.722
 4794SOL    HW215282   3.627   0.751   2.738
 4795SOL     OW15283   6.583   2.552   4.217
 4795SOL    HW115284   6.492   2.523   4.247
 4795SOL    HW215285   6.642   2.471   4.209
 4796SOL     OW15286   4.931   2.410   0.401
 4796SOL    HW115287   4.953   2.490   0.346
 4796SOL    HW215288   4.902   2.335   0.341
 4797SOL     OW15289   1.550   5.903   5.306
 4797SOL    HW115290   1.585   5.930   5.395
 4797SOL    HW215291   1.566   5.805   5.292
 4798SOL     OW15292   0.626   4.204   5.245
 4798SOL    HW115293   0.654   4.216   5.150
 4798SOL    HW215294   0.533   4.169   5.248
 4799SOL     OW15295   5.307   1.884   5.272
 4799SOL    HW115296   5.224   1.866   5.220
 4799SOL    HW215297   5.386   1.849   5.223
 4800SOL     OW15298   3.280   3.335   6.149
 4800SOL    HW115299   3.281   3.350   6.050
 4800SOL    HW215300   3.349   3.392   6.193
 4801SOL     OW15301   2.255   2.459   0.392
 4801SOL    HW115302   2.348   2.427   0.376
 4801SOL    HW215303   2.209   2.398   0.457
 4802SOL     OW15304   1.341   6.279   2.415
 4802SOL    HW115305   1.320   6.374   2.437
 4802SOL    HW215306   1.260   6.237   2.373
 4803SOL     OW15307   0.583   6.925   1.004
 4803SOL    HW115308   0.652   6.859   1.035
 4803SOL    HW215309   0.524   6.882   0.936
 4804SOL     OW15310   4.136   5.600   6.558
 4804SOL    HW115311   4.154   5.698   6.568
 4804SOL    HW215312   4.104   5.581   6.465
 4805SOL     OW15313   6.813   0.037   0.858
 4805SOL    HW115314   6.787   0.004   0.949
 4805SOL    HW215315   6.821   6.980   0.795
 4806SOL     OW15316   6.813   3.802   3.756
 4806SOL    HW115317   6.797   3.877   3.821
 4806SOL    HW215318   6.866   3.836   3.678
 4807SOL     OW15319   1.124   5.309   1.042
 4807SOL    HW115320   1.127   5.240   1.114
 4807SOL    HW215321   1.217   5.334   1.016
 4808SOL     OW15322   5.744   3.463   0.653
 4808SOL    HW115323   5.727   3.545   0.707
 4808SOL    HW215324   5.782   3.391   0.711
 4809SOL     OW15325   3.588   4.151   0.079
 4809SOL    HW115326   3.536   4.231   0.050
 4809SOL    HW215327   3.686   4.169   0.071
 4810SOL     OW15328   1.214   4.792   1.007
 4810SOL    HW115329   1.166   4.815   0.923
 4810SOL    HW215330   1.309   4.769   0.987
 4811SOL     OW15331   2.623   4.929   2.332
 4811SOL    HW115332   2.526   4.919   2.353
 4811SOL    HW215333   2.669   4.975   2.408
 4812SOL     OW15334   6.996   4.915   5.494
 4812SOL    HW115335   0.049   4.976   5.465
 4812SOL    HW215336   6.921   4.918   5.427
 4813SOL     OW15337   4.886   1.040   2.973
 4813SOL    HW115338   4.858   1.105   2.902
 4813SOL    HW215339   4.806   0.994   3.009
 4814SOL     OW15340   6.117   4.935   0.555
 4814SOL    HW115341   6.199   4.982   0.524
 4814SOL    HW215342   6.057   5.000   0.603
 4815SOL     OW15343   4.911   5.159   2.687
 4815SOL    HW115344   4.914   5.124   2.593
 4815SOL    HW215345   4.966   5.101   2.746
 4816SOL     OW15346   5.580   5.128   3.540
 4816SOL    HW115347   5.588   5.064   3.463
 4816SOL    HW215348   5.618   5.087   3.622
 4817SOL     OW15349   0.720   2.407   5.944
 4817SOL    HW115350   0.665   2.416   6.027
 4817SOL    HW215351   0.813   2.379   5.968
 4818SOL     OW15352   0.737   7.007   3.456
 4818SOL    HW115353   0.642   6.994   3.482
 4818SOL    HW215354   0.796   6.951   3.516
 4819SOL     OW15355   1.370   3.144   0.159
 4819SOL    HW115356   1.424   3.136   0.242
 4819SOL    HW215357   1.427   3.178   0.084
 4820SOL     OW15358   0.006   2.887   1.989
 4820SOL    HW115359   0.012   2.973   2.039
 4820SOL    HW215360   6.935   2.878   1.948
 4821SOL     OW15361   0.830   6.049   1.592
 4821SOL    HW115362   0.925   6.078   1.599
 4821SOL    HW215363   0.819   5.988   1.513
 4822SOL     OW15364   1.691   4.256   3.927
 4822SOL    HW115365   1.720   4.206   4.008
 4822SOL    HW215366   1.748   4.338   3.916
 4823SOL     OW15367   1.077   2.124   2.616
 4823SOL    HW115368   0.980   2.127   2.638
 4823SOL    HW215369   1.123   2.204   2.655
 4824SOL     OW15370   5.233   1.410   5.189
 4824SOL    HW115371   5.150   1.364   5.156
 4824SOL    HW215372   5.208   1.479   5.256
 4825SOL     OW15373   0.969   0.903   4.255
 4825SOL    HW115374   1.007   0.979   4.202
 4825SOL    HW215375   0.870   0.904   4.247
 4826SOL     OW15376   4.928   0.522   1.093
 4826SOL    HW115377   4.995   0.596   1.094
 4826SOL    HW215378   4.946   0.459   1.169
 4827SOL     OW15379   6.461   1.429   0.205
 4827SOL    HW115380   6.422   1.471   0.287
 4827SOL    HW215381   6.465   1.497   0.131
 4828SOL     OW15382   4.114   0.252   1.912
 4828SOL    HW115383   4.171   0.276   1.833
 4828SOL    HW215384   4.157   0.285   1.996
 4829SOL     OW15385   3.669   6.934   6.666
 4829SOL    HW115386   3.665   7.010   6.601
 4829SOL    HW215387   3.697   6.851   6.618
 4830SOL     OW15388   4.082   6.007   3.607
 4830SOL    HW115389   4.132   5.941   3.663
 4830SOL    HW215390   4.119   6.007   3.514
 4831SOL     OW15391   3.425   5.643   6.031
 4831SOL    HW115392   3.347   5.640   5.970
 4831SOL    HW215393   3.508   5.665   5.979
 4832SOL     OW15394   3.409   3.608   4.607
 4832SOL    HW115395   3.437   3.544   4.536
 4832SOL    HW215396   3.355   3.682   4.566
 4833SOL     OW15397   5.832   2.094   4.161
 4833SOL    HW115398   5.907   2.148   4.125
 4833SOL    HW215399   5.852   1.996   4.151
 4834SOL     OW15400   2.679   5.266   2.838
 4834SOL    HW115401   2.616   5.330   2.882
 4834SOL    HW215402   2.659   5.173   2.870
 4835SOL     OW15403   6.383   3.752   6.036
 4835SOL    HW115404   6.384   3.736   5.937
 4835SOL    HW215405   6.322   3.687   6.080
 4836SOL     OW15406   4.796   1.274   5.208
 4836SOL    HW115407   4.767   1.242   5.299
 4836SOL    HW215408   4.757   1.364   5.190
 4837SOL     OW15409   6.469   2.970   3.669
 4837SOL    HW115410   6.530   2.916   3.611
 4837SOL    HW215411   6.520   3.046   3.709
 4838SOL     OW15412   1.281   4.972   6.068
 4838SOL    HW115413   1.258   4.879   6.040
 4838SOL    HW215414   1.214   5.036   6.030
 4839SOL     OW15415   1.163   2.562   6.712
 4839SOL    HW115416   1.189   2.550   6.808
 4839SOL    HW215417   1.243   2.589   6.659
 4840SOL     OW15418   5.564   4.075   5.152
 4840SOL    HW115419   5.629   4.110   5.084
 4840SOL    HW215420   5.585   3.980   5.172
 4841SOL     OW15421   2.781   5.151   3.516
 4841SOL    HW115422   2.695   5.101   3.509
 4841SOL    HW215423   2.858   5.087   3.509
 4842SOL     OW15424   2.408   5.170   3.185
 4842SOL    HW115425   2.411   5.076   3.151
 4842SOL    HW215426   2.499   5.198   3.215
 4843SOL     OW15427   0.485   3.054   2.220
 4843SOL    HW115428   0.418   3.128   2.207
 4843SOL    HW215429   0.503   3.042   2.317
 4844SOL     OW15430   0.844   4.834   5.054
 4844SOL    HW115431   0.916   4.852   4.987
 4844SOL    HW215432   0.755   4.831   5.007
 4845SOL     OW15433   4.493   4.685   5.209
 4845SOL    HW115434   4.563   4.648   5.269
 4845SOL    HW215435   4.462   4.614   5.146
 4846SOL     OW15436   0.634   2.087   4.340
 4846SOL    HW115437   0.716   2.144   4.348
 4846SOL    HW215438   0.609   2.051   4.429
 4847SOL     OW15439   2.806   6.812   5.577
 4847SOL    HW115440   2.726   6.772   5.622
 4847SOL    HW215441   2.889   6.785   5.625
 4848SOL     OW15442   1.853   1.029   3.861
 4848SOL    HW115443   1.792   1.105   3.883
 4848SOL    HW215444   1.948   1.057   3.875
 4849SOL     OW15445   1.693   0.751   0.269
 4849SOL    HW115446   1.609   0.795   0.238
 4849SOL    HW215447   1.716   0.675   0.207
 4850SOL     OW15448   4.541   0.738   1.310
 4850SOL    HW115449   4.482   0.762   1.233
 4850SOL    HW215450   4.611   0.809   1.321
 4851SOL     OW15451   3.429   5.717   0.107
 4851SOL    HW115452   3.425   5.779   0.029
 4851SOL    HW215453   3.336   5.689   0.132
 4852SOL     OW15454   3.627   5.905   4.990
 4852SOL    HW115455   3.547   5.933   5.042
 4852SOL    HW215456   3.601   5.835   4.923
 4853SOL     OW15457   3.136   0.773   2.672
 4853SOL    HW115458   3.103   0.773   2.578
 4853SOL    HW215459   3.167   0.681   2.697
 4854SOL     OW15460   5.573   6.349   1.754
 4854SOL    HW115461   5.522   6.410   1.694
 4854SOL    HW215462   5.578   6.258   1.713
 4855SOL     OW15463   0.061   4.059   4.978
 4855SOL    HW115464   0.096   4.007   4.901
 4855SOL    HW215465   0.084   4.011   5.063
 4856SOL     OW15466   0.529   3.586   2.972
 4856SOL    HW115467   0.546   3.578   2.874
 4856SOL    HW215468   0.503   3.497   3.010
 4857SOL     OW15469   3.009   2.207   4.230
 4857SOL    HW115470   2.959   2.120   4.234
 4857SOL    HW215471   2.945   2.283   4.243
 4858SOL     OW15472   0.522   0.206   5.281
 4858SOL    HW115473   0.507   0.215   5.183
 4858SOL    HW215474   0.459   0.138   5.319
 4859SOL     OW15475   0.797   5.527   2.155
 4859SOL    HW115476   0.762   5.604   2.209
 4859SOL    HW215477   0.746   5.444   2.177
 4860SOL     OW15478   4.531   5.551   0.146
 4860SOL    HW115479   4.621   5.594   0.144
 4860SOL    HW215480   4.539   5.455   0.121
 4861SOL     OW15481   6.750   4.768   5.864
 4861SOL    HW115482   6.758   4.854   5.914
 4861SOL    HW215483   6.792   4.778   5.773
 4862SOL     OW15484   2.883   4.913   5.053
 4862SOL    HW115485   2.866   4.823   5.013
 4862SOL    HW215486   2.797   4.965   5.056
 4863SOL     OW15487   4.909   3.288   2.771
 4863SOL    HW115488   5.002   3.252   2.767
 4863SOL    HW215489   4.862   3.268   2.685
 4864SOL     OW15490   3.162   1.548   2.069
 4864SOL    HW115491   3.086   1.533   2.005
 4864SOL    HW215492   3.174   1.646   2.084
 4865SOL     OW15493   3.307   5.014   5.838
 4865SOL    HW115494   3.216   4.975   5.824
 4865SOL    HW215495   3.369   4.982   5.767
 4866SOL     OW15496   6.510   5.307   1.957
 4866SOL    HW115497   6.418   5.312   1.920
 4866SOL    HW215498   6.562   5.236   1.910
 4867SOL     OW15499   5.010   5.453   2.589
 4867SOL    HW115500   4.986   5.442   2.686
 4867SOL    HW215501   4.938   5.414   2.532
 4868SOL     OW15502   0.541   5.296   1.032
 4868SOL    HW115503   0.480   5.217   1.020
 4868SOL    HW215504   0.631   5.274   0.995
 4869SOL     OW15505   6.985   1.771   0.314
 4869SOL    HW115506   6.986   1.851   0.375
 4869SOL    HW215507   0.059   1.744   0.293
 4870SOL     OW15508   4.204   6.446   2.109
 4870SOL    HW115509   4.247   6.441   2.019
 4870SOL    HW215510   4.128   6.381   2.113
 4871SOL     OW15511   1.193   1.920   3.364
 4871SOL    HW115512   1.209   1.870   3.448
 4871SOL    HW215513   1.227   2.014   3.374
 4872SOL     OW15514   0.938   0.205   2.736
 4872SOL    HW115515   0.839   0.218   2.742
 4872SOL    HW215516   0.984   0.281   2.780
 4873SOL     OW15517   0.238   5.182   4.664
 4873SOL    HW115518   0.173   5.211   4.594
 4873SOL    HW215519   0.220   5.232   4.749
 4874SOL     OW15520   5.173   3.734   3.373
 4874SOL    HW115521   5.230   3.816   3.371
 4874SOL    HW215522   5.197   3.675   3.296
 4875SOL     OW15523   5.920   1.547   1.189
 4875SOL    HW115524   5.893   1.639   1.164
 4875SOL    HW215525   5.857   1.481   1.148
 4876SOL     OW15526   5.978   0.852   6.160
 4876SOL    HW115527   5.933   0.903   6.233
 4876SOL    HW215528   5.961   0.897   6.072
 4877SOL     OW15529   6.326   1.664   0.853
 4877SOL    HW115530   6.334   1.644   0.950
 4877SOL    HW215531   6.328   1.763   0.838
 4878SOL     OW15532   0.245   1.684   1.872
 4878SOL    HW115533   0.190   1.766   1.891
 4878SOL    HW215534   0.247   1.626   1.953
 4879SOL     OW15535   4.108   4.806   3.631
 4879SOL    HW115536   4.152   4.822   3.542
 4879SOL    HW215537   4.085   4.709   3.639
 4880SOL     OW15538   5.694   1.145   0.119
 4880SOL    HW115539   5.633   1.214   0.078
 4880SOL    HW215540   5.773   1.130   0.059
 4881SOL     OW15541   2.854   6.235   6.108
 4881SOL    HW115542   2.912   6.239   6.027
 4881SOL    HW215543   2.911   6.218   6.189
 4882SOL     OW15544   6.049   1.331   5.210
 4882SOL    HW115545   6.090   1.296   5.126
 4882SOL    HW215546   5.970   1.274   5.236
 4883SOL     OW15547   6.135   4.253   2.286
 4883SOL    HW115548   6.141   4.179   2.218
 4883SOL    HW215549   6.180   4.223   2.370
 4884SOL     OW15550   3.723   6.649   1.572
 4884SOL    HW115551   3.819   6.652   1.546
 4884SOL    HW215552   3.712   6.684   1.665
 4885SOL     OW15553   1.931   6.696   1.185
 4885SOL    HW115554   1.930   6.765   1.257
 4885SOL    HW215555   2.021   6.652   1.181
 4886SOL     OW15556   6.523   0.106   6.619
 4886SOL    HW115557   6.562   0.169   6.686
 4886SOL    HW215558   6.477   0.031   6.668
 4887SOL     OW15559   0.208   2.215   3.569
 4887SOL    HW115560   0.186   2.239   3.663
 4887SOL    HW215561   0.307   2.215   3.556
 4888SOL     OW15562   1.791   6.131   3.156
 4888SOL    HW115563   1.701   6.112   3.117
 4888SOL    HW215564   1.798   6.228   3.178
 4889SOL     OW15565   1.267   2.020   0.275
 4889SOL    HW115566   1.342   1.955   0.275
 4889SOL    HW215567   1.207   2.002   0.197
 4890SOL     OW15568   0.553   0.948   4.113
 4890SOL    HW115569   0.538   1.029   4.170
 4890SOL    HW215570   0.607   0.881   4.164
 4891SOL     OW15571   1.004   4.844   0.340
 4891SOL    HW115572   1.029   4.887   0.253
 4891SOL    HW215573   1.086   4.817   0.389
 4892SOL     OW15574   1.574   5.722   1.440
 4892SOL    HW115575   1.508   5.652   1.411
 4892SOL    HW215576   1.525   5.801   1.476
 4893SOL     OW15577   6.995   3.941   6.498
 4893SOL    HW115578   0.048   3.880   6.468
 4893SOL    HW215579   6.937   3.893   6.564
 4894SOL     OW15580   1.570   0.471   3.129
 4894SOL    HW115581   1.618   0.489   3.043
 4894SOL    HW215582   1.482   0.518   3.128
 4895SOL     OW15583   0.747   3.267   0.225
 4895SOL    HW115584   0.812   3.208   0.177
 4895SOL    HW215585   0.748   3.358   0.184
 4896SOL     OW15586   3.496   4.938   4.599
 4896SOL    HW115587   3.488   4.914   4.503
 4896SOL    HW215588   3.586   4.911   4.634
 4897SOL     OW15589   3.393   5.410   6.768
 4897SOL    HW115590   3.295   5.430   6.775
 4897SOL    HW215591   3.416   5.335   6.829
 4898SOL     OW15592   5.531   2.571   5.518
 4898SOL    HW115593   5.473   2.645   5.554
 4898SOL    HW215594   5.473   2.495   5.490
 4899SOL     OW15595   5.903   4.408   2.927
 4899SOL    HW115596   6.000   4.382   2.938
 4899SOL    HW215597   5.863   4.355   2.853
 4900SOL     OW15598   0.351   6.857   5.641
 4900SOL    HW115599   0.254   6.877   5.657
 4900SOL    HW215600   0.403   6.878   5.724
 4901SOL     OW15601   0.783   6.958   4.037
 4901SOL    HW115602   0.796   0.037   4.029
 4901SOL    HW215603   0.870   6.911   4.020
 4902SOL     OW15604   2.446   4.809   2.018
 4902SOL    HW115605   2.451   4.731   2.081
 4902SOL    HW215606   2.532   4.818   1.969
 4903SOL     OW15607   3.830   6.993   6.869
 4903SOL    HW115608   3.759   6.985   6.798
 4903SOL    HW215609   3.792   6.968   6.957
 4904SOL     OW15610   1.844   5.803   4.018
 4904SOL    HW115611   1.758   5.839   4.053
 4904SOL    HW215612   1.842   5.800   3.918
 4905SOL     OW15613   5.043   2.736   2.036
 4905SOL    HW115614   5.088   2.674   1.970
 4905SOL    HW215615   4.975   2.685   2.089
 4906SOL     OW15616   4.721   0.209   0.471
 4906SOL    HW115617   4.631   0.167   0.459
 4906SOL    HW215618   4.792   0.144   0.444
 4907SOL     OW15619   4.094   0.029   3.746
 4907SOL    HW115620   4.143   0.110   3.777
 4907SOL    HW215621   4.130   6.968   3.793
 4908SOL     OW15622   3.632   5.840   6.347
 4908SOL    HW115623   3.657   5.750   6.381
 4908SOL    HW215624   3.685   5.860   6.264
 4909SOL     OW15625   6.258   6.665   5.473
 4909SOL    HW115626   6.344   6.687   5.518
 4909SOL    HW215627   6.183   6.711   5.520
 4910SOL     OW15628   5.249   0.668   5.302
 4910SOL    HW115629   5.290   0.618   5.226
 4910SOL    HW215630   5.277   0.764   5.298
 4911SOL     OW15631   0.309   2.399   5.990
 4911SOL    HW115632   0.391   2.380   6.044
 4911SOL    HW215633   0.316   2.355   5.901
 4912SOL     OW15634   3.772   2.135   2.535
 4912SOL    HW115635   3.790   2.204   2.465
 4912SOL    HW215636   3.674   2.115   2.538
 4913SOL     OW15637   3.412   4.095   3.438
 4913SOL    HW115638   3.341   4.101   3.368
 4913SOL    HW215639   3.501   4.109   3.396
 4914SOL     OW15640   2.780   0.177   3.845
 4914SOL    HW115641   2.767   0.137   3.936
 4914SOL    HW215642   2.868   0.147   3.808
 4915SOL     OW15643   4.168   6.367   4.518
 4915SOL    HW115644   4.228   6.365   4.439
 4915SOL    HW215645   4.075   6.390   4.490
 4916SOL     OW15646   2.860   2.253   3.389
 4916SOL    HW115647   2.843   2.165   3.345
 4916SOL    HW215648   2.896   2.318   3.322
 4917SOL     OW15649   2.037   3.788   0.724
 4917SOL    HW115650   2.086   3.796   0.811
 4917SOL    HW215651   1.960   3.725   0.735
 4918SOL     OW15652   2.566   0.645   2.308
 4918SOL    HW115653   2.514   0.726   2.283
 4918SOL    HW215654   2.663   0.662   2.293
 4919SOL     OW15655   1.536   1.737   2.412
 4919SOL    HW115656   1.551   1.651   2.460
 4919SOL    HW215657   1.624   1.776   2.385
 4920SOL     OW15658   4.438   0.815   0.377
 4920SOL    HW115659   4.411   0.769   0.293
 4920SOL    HW215660   4.360   0.865   0.415
 4921SOL     OW15661   2.377   4.170   1.809
 4921SOL    HW115662   2.351   4.168   1.905
 4921SOL    HW215663   2.295   4.179   1.752
 4922SOL     OW15664   1.524   3.078   5.436
 4922SOL    HW115665   1.613   3.033   5.441
 4922SOL    HW215666   1.460   3.021   5.384
 4923SOL     OW15667   5.251   0.221   2.046
 4923SOL    HW115668   5.257   0.290   1.974
 4923SOL    HW215669   5.176   0.244   2.108
 4924SOL     OW15670   1.300   3.875   4.262
 4924SOL    HW115671   1.346   3.843   4.344
 4924SOL    HW215672   1.368   3.901   4.193
 4925SOL     OW15673   4.559   6.597   1.109
 4925SOL    HW115674   4.529   6.691   1.125
 4925SOL    HW215675   4.532   6.568   1.017
 4926SOL     OW15676   5.596   2.688   1.897
 4926SOL    HW115677   5.638   2.626   1.831
 4926SOL    HW215678   5.519   2.642   1.941
 4927SOL     OW15679   3.579   2.887   2.534
 4927SOL    HW115680   3.647   2.908   2.463
 4927SOL    HW215681   3.603   2.801   2.579
 4928SOL     OW15682   0.689   6.882   6.517
 4928SOL    HW115683   0.608   6.825   6.501
 4928SOL    HW215684   0.677   6.971   6.472
 4929SOL     OW15685   1.521   4.980   4.749
 4929SOL    HW115686   1.501   5.077   4.754
 4929SOL    HW215687   1.541   4.954   4.654
 4930SOL     OW15688   0.707   1.906   0.095
 4930SOL    HW115689   0.625   1.955   0.123
 4930SOL    HW215690   0.688   1.808   0.090
 4931SOL     OW15691   0.674   0.193   6.919
 4931SOL    HW115692   0.727   0.214   7.001
 4931SOL    HW215693   0.580   0.169   6.946
 4932SOL     OW15694   2.619   2.682   1.326
 4932SOL    HW115695   2.607   2.771   1.370
 4932SOL    HW215696   2.696   2.686   1.263
 4933SOL     OW15697   2.500   1.548   4.343
 4933SOL    HW115698   2.476   1.628   4.289
 4933SOL    HW215699   2.423   1.484   4.345
 4934SOL     OW15700   0.030   5.069   3.812
 4934SOL    HW115701   0.061   5.139   3.877
 4934SOL    HW215702   0.094   4.993   3.812
 4935SOL     OW15703   2.359   0.818   6.662
 4935SOL    HW115704   2.361   0.803   6.761
 4935SOL    HW215705   2.303   0.898   6.643
 4936SOL     OW15706   3.311   5.809   1.629
 4936SOL    HW115707   3.393   5.827   1.683
 4936SOL    HW215708   3.279   5.716   1.647
 4937SOL     OW15709   0.730   3.641   6.223
 4937SOL    HW115710   0.829   3.630   6.221
 4937SOL    HW215711   0.705   3.729   6.184
 4938SOL     OW15712   3.156   4.370   1.018
 4938SOL    HW115713   3.108   4.425   0.950
 4938SOL    HW215714   3.091   4.312   1.066
 4939SOL     OW15715   1.582   1.576   1.406
 4939SOL    HW115716   1.515   1.535   1.467
 4939SOL    HW215717   1.637   1.643   1.457
 4940SOL     OW15718   0.043   2.420   4.237
 4940SOL    HW115719   0.040   2.476   4.154
 4940SOL    HW215720   6.970   2.399   4.266
 4941SOL     OW15721   3.995   2.637   5.396
 4941SOL    HW115722   4.045   2.698   5.458
 4941SOL    HW215723   4.053   2.613   5.318
 4942SOL     OW15724   5.430   2.966   3.524
 4942SOL    HW115725   5.506   2.911   3.558
 4942SOL    HW215726   5.385   3.011   3.602
 4943SOL     OW15727   5.389   3.238   6.512
 4943SOL    HW115728   5.462   3.202   6.569
 4943SOL    HW215729   5.303   3.194   6.536
 4944SOL     OW15730   1.784   4.562   0.753
 4944SOL    HW115731   1.741   4.522   0.673
 4944SOL    HW215732   1.754   4.513   0.835
 4945SOL     OW15733   2.025   1.276   4.821
 4945SOL    HW115734   2.065   1.329   4.746
 4945SOL    HW215735   2.079   1.192   4.834
 4946SOL     OW15736   1.139   4.093   0.047
 4946SOL    HW115737   1.046   4.056   0.055
 4946SOL    HW215738   1.135   4.187   0.012
 4947SOL     OW15739   2.076   0.592   1.735
 4947SOL    HW115740   2.106   0.590   1.640
 4947SOL    HW215741   2.111   0.675   1.780
 4948SOL     OW15742   1.784   2.173   1.985
 4948SOL    HW115743   1.819   2.266   1.988
 4948SOL    HW215744   1.859   2.108   1.969
 4949SOL     OW15745   6.973   3.590   5.858
 4949SOL    HW115746   6.935   3.621   5.770
 4949SOL    HW215747   0.033   3.645   5.880
 4950SOL     OW15748   2.574   4.227   5.570
 4950SOL    HW115749   2.565   4.216   5.471
 4950SOL    HW215750   2.559   4.323   5.594
 4951SOL     OW15751   5.810   6.596   3.716
 4951SOL    HW115752   5.812   6.622   3.813
 4951SOL    HW215753   5.856   6.508   3.704
 4952SOL     OW15754   6.803   0.211   6.270
 4952SOL    HW115755   6.843   0.214   6.178
 4952SOL    HW215756   6.707   0.184   6.263
 4953SOL     OW15757   1.117   1.792   4.978
 4953SOL    HW115758   1.069   1.869   5.020
 4953SOL    HW215759   1.051   1.735   4.929
 4954SOL     OW15760   2.516   3.875   5.391
 4954SOL    HW115761   2.468   3.933   5.324
 4954SOL    HW215762   2.613   3.873   5.369
 4955SOL     OW15763   3.115   5.925   6.972
 4955SOL    HW115764   3.156   5.841   6.936
 4955SOL    HW215765   3.028   5.942   6.925
 4956SOL     OW15766   2.508   0.449   5.138
 4956SOL    HW115767   2.590   0.492   5.176
 4956SOL    HW215768   2.430   0.509   5.151
 4957SOL     OW15769   6.501   4.126   6.680
 4957SOL    HW115770   6.436   4.185   6.632
 4957SOL    HW215771   6.502   4.035   6.637
 4958SOL     OW15772   2.521   0.222   6.032
 4958SOL    HW115773   2.510   0.164   5.951
 4958SOL    HW215774   2.607   0.272   6.026
 4959SOL     OW15775   6.744   2.466   1.456
 4959SOL    HW115776   6.665   2.412   1.487
 4959SOL    HW215777   6.783   2.514   1.535
 4960SOL     OW15778   4.027   5.060   3.650
 4960SOL    HW115779   4.104   5.102   3.603
 4960SOL    HW215780   4.033   4.960   3.642
 4961SOL     OW15781   2.957   0.780   6.784
 4961SOL    HW115782   2.887   0.842   6.819
 4961SOL    HW215783   3.012   0.827   6.715
 4962SOL     OW15784   6.535   3.341   0.966
 4962SOL    HW115785   6.593   3.296   0.898
 4962SOL    HW215786   6.453   3.287   0.983
 4963SOL     OW15787   0.362   4.351   0.695
 4963SOL    HW115788   0.358   4.409   0.614
 4963SOL    HW215789   0.428   4.389   0.760
 4964SOL     OW15790   2.926   6.770   4.616
 4964SOL    HW115791   3.025   6.758   4.608
 4964SOL    HW215792   2.890   6.703   4.679
 4965SOL     OW15793   1.167   6.674   2.740
 4965SOL    HW115794   1.161   6.716   2.831
 4965SOL    HW215795   1.146   6.577   2.746
 4966SOL     OW15796   3.270   6.313   4.627
 4966SOL    HW115797   3.191   6.259   4.657
 4966SOL    HW215798   3.338   6.316   4.700
 4967SOL     OW15799   4.096   4.686   5.465
 4967SOL    HW115800   4.045   4.772   5.467
 4967SOL    HW215801   4.041   4.613   5.507
 4968SOL     OW15802   0.291   0.892   4.085
 4968SOL    HW115803   0.244   0.937   4.161
 4968SOL    HW215804   0.389   0.893   4.102
 4969SOL     OW15805   0.543   6.539   1.820
 4969SOL    HW115806   0.509   6.468   1.881
 4969SOL    HW215807   0.589   6.610   1.873
 4970SOL     OW15808   1.781   0.814   1.878
 4970SOL    HW115809   1.688   0.793   1.907
 4970SOL    HW215810   1.778   0.887   1.810
 4971SOL     OW15811   6.675   6.066   2.679
 4971SOL    HW115812   6.688   5.975   2.718
 4971SOL    HW215813   6.626   6.124   2.744
 4972SOL     OW15814   1.492   4.064   1.112
 4972SOL    HW115815   1.434   4.098   1.185
 4972SOL    HW215816   1.508   3.966   1.124
 4973SOL     OW15817   0.216   0.389   1.298
 4973SOL    HW115818   0.260   0.329   1.231
 4973SOL    HW215819   0.121   0.361   1.310
 4974SOL     OW15820   4.139   3.820   6.274
 4974SOL    HW115821   4.110   3.724   6.266
 4974SOL    HW215822   4.074   3.869   6.334
 4975SOL     OW15823   5.669   3.932   0.721
 4975SOL    HW115824   5.602   3.861   0.702
 4975SOL    HW215825   5.713   3.915   0.809
 4976SOL     OW15826   0.456   0.455   4.393
 4976SOL    HW115827   0.410   0.490   4.475
 4976SOL    HW215828   0.536   0.403   4.421
 4977SOL     OW15829   2.908   4.249   6.630
 4977SOL    HW115830   3.007   4.235   6.638
 4977SOL    HW215831   2.861   4.184   6.690
 4978SOL     OW15832   4.942   4.356   5.191
 4978SOL    HW115833   4.862   4.359   5.131
 4978SOL    HW215834   4.924   4.295   5.269
 4979SOL     OW15835   1.463   6.895   6.559
 4979SOL    HW115836   1.426   6.944   6.480
 4979SOL    HW215837   1.491   6.803   6.531
 4980SOL     OW15838   6.698   4.666   2.933
 4980SOL    HW115839   6.785   4.622   2.953
 4980SOL    HW215840   6.641   4.667   3.015
 4981SOL     OW15841   3.291   4.844   2.066
 4981SOL    HW115842   3.222   4.805   2.004
 4981SOL    HW215843   3.382   4.820   2.033
 4982SOL     OW15844   4.373   1.698   6.580
 4982SOL    HW115845   4.334   1.722   6.491
 4982SOL    HW215846   4.319   1.742   6.652
 4983SOL     OW15847   6.210   5.348   3.944
 4983SOL    HW115848   6.265   5.374   3.865
 4983SOL    HW215849   6.126   5.304   3.912
 4984SOL     OW15850   4.449   4.623   3.458
 4984SOL    HW115851   4.527   4.671   3.498
 4984SOL    HW215852   4.476   4.529   3.437
 4985SOL     OW15853   5.367   5.880   2.714
 4985SOL    HW115854   5.271   5.853   2.708
 4985SOL    HW215855   5.390   5.939   2.637
 4986SOL     OW15856   0.391   4.493   1.772
 4986SOL    HW115857   0.472   4.524   1.822
 4986SOL    HW215858   0.315   4.554   1.791
 4987SOL     OW15859   0.720   6.879   2.351
 4987SOL    HW115860   0.758   6.971   2.360
 4987SOL    HW215861   0.737   6.827   2.435
 4988SOL     OW15862   5.779   0.739   4.043
 4988SOL    HW115863   5.707   0.719   3.977
 4988SOL    HW215864   5.857   0.780   3.995
 4989SOL     OW15865   5.355   0.808   1.939
 4989SOL    HW115866   5.384   0.899   1.908
 4989SOL    HW215867   5.326   0.754   1.861
 4990SOL     OW15868   3.929   1.645   0.030
 4990SOL    HW115869   3.883   1.695   0.103
 4990SOL    HW215870   4.023   1.627   0.057
 4991SOL     OW15871   0.286   5.752   4.332
 4991SOL    HW115872   0.364   5.760   4.270
 4991SOL    HW215873   0.203   5.735   4.280
 4992SOL     OW15874   6.437   0.843   3.285
 4992SOL    HW115875   6.502   0.779   3.326
 4992SOL    HW215876   6.485   0.926   3.257
 4993SOL     OW15877   4.907   6.936   5.085
 4993SOL    HW115878   4.950   6.995   5.017
 4993SOL    HW215879   4.960   6.939   5.170
 4994SOL     OW15880   2.061   5.145   5.324
 4994SOL    HW115881   2.125   5.139   5.247
 4994SOL    HW215882   2.057   5.057   5.371
 4995SOL     OW15883   0.785   0.668   4.739
 4995SOL    HW115884   0.875   0.706   4.761
 4995SOL    HW215885   0.796   0.573   4.709
 4996SOL     OW15886   0.285   1.599   4.433
 4996SOL    HW115887   0.344   1.670   4.395
 4996SOL    HW215888   0.210   1.642   4.485
 4997SOL     OW15889   3.725   2.190   1.383
 4997SOL    HW115890   3.670   2.218   1.462
 4997SOL    HW215891   3.702   2.097   1.357
 4998SOL     OW15892   1.483   3.579   3.366
 4998SOL    HW115893   1.509   3.514   3.437
 4998SOL    HW215894   1.559   3.593   3.303
 4999SOL     OW15895   1.035   3.542   4.886
 4999SOL    HW115896   1.004   3.498   4.970
 4999SOL    HW215897   1.108   3.607   4.907
 5000SOL     OW15898   3.276   6.280   3.691
 5000SOL    HW115899   3.219   6.362   3.704
 5000SOL    HW215900   3.218   6.202   3.668
 5001SOL     OW15901   0.766   5.622   2.619
 5001SOL    HW115902   0.829   5.675   2.676
 5001SOL    HW215903   0.680   5.607   2.668
 5002SOL     OW15904   1.026   4.937   2.231
 5002SOL    HW115905   1.102   5.002   2.235
 5002SOL    HW215906   1.026   4.880   2.313
 5003SOL     OW15907   4.004   5.715   3.008
 5003SOL    HW115908   4.085   5.684   2.958
 5003SOL    HW215909   3.956   5.636   3.046
 5004SOL     OW15910   3.352   5.636   6.300
 5004SOL    HW115911   3.283   5.564   6.303
 5004SOL    HW215912   3.387   5.644   6.207
 5005SOL     OW15913   2.504   3.241   6.282
 5005SOL    HW115914   2.474   3.273   6.192
 5005SOL    HW215915   2.443   3.168   6.314
 5006SOL     OW15916   5.493   1.415   2.216
 5006SOL    HW115917   5.420   1.453   2.274
 5006SOL    HW215918   5.522   1.484   2.149
 5007SOL     OW15919   6.830   0.303   0.352
 5007SOL    HW115920   6.760   0.332   0.286
 5007SOL    HW215921   6.915   0.352   0.333
 5008SOL     OW15922   6.590   6.008   1.514
 5008SOL    HW115923   6.541   6.090   1.486
 5008SOL    HW215924   6.651   6.029   1.590
 5009SOL     OW15925   0.714   2.660   0.123
 5009SOL    HW115926   0.660   2.726   0.071
 5009SOL    HW215927   0.808   2.659   0.089
 5010SOL     OW15928   3.554   2.371   0.623
 5010SOL    HW115929   3.536   2.291   0.679
 5010SOL    HW215930   3.650   2.369   0.592
 5011SOL     OW15931   1.333   3.892   0.430
 5011SOL    HW115932   1.409   3.957   0.432
 5011SOL    HW215933   1.347   3.826   0.356
 5012SOL     OW15934   5.878   3.184   5.711
 5012SOL    HW115935   5.940   3.130   5.655
 5012SOL    HW215936   5.930   3.240   5.774
 5013SOL     OW15937   5.908   0.439   5.366
 5013SOL    HW115938   5.953   0.362   5.322
 5013SOL    HW215939   5.808   0.429   5.358
 5014SOL     OW15940   6.583   4.399   0.396
 5014SOL    HW115941   6.605   4.352   0.481
 5014SOL    HW215942   6.496   4.448   0.405
 5015SOL     OW15943   5.288   0.782   4.795
 5015SOL    HW115944   5.337   0.839   4.729
 5015SOL    HW215945   5.231   0.716   4.747
 5016SOL     OW15946   1.099   3.021   5.141
 5016SOL    HW115947   1.050   3.032   5.055
 5016SOL    HW215948   1.043   2.967   5.204
 5017SOL     OW15949   0.913   2.717   1.375
 5017SOL    HW115950   0.873   2.645   1.431
 5017SOL    HW215951   0.931   2.798   1.431
 5018SOL     OW15952   0.868   4.757   2.051
 5018SOL    HW115953   0.850   4.795   1.960
 5018SOL    HW215954   0.939   4.812   2.097
 5019SOL     OW15955   1.742   5.772   5.470
 5019SOL    HW115956   1.833   5.802   5.443
 5019SOL    HW215957   1.739   5.760   5.569
 5020SOL     OW15958   0.521   6.389   5.222
 5020SOL    HW115959   0.559   6.333   5.149
 5020SOL    HW215960   0.546   6.485   5.209
 5021SOL     OW15961   1.489   0.589   1.294
 5021SOL    HW115962   1.559   0.517   1.294
 5021SOL    HW215963   1.420   0.567   1.363
 5022SOL     OW15964   0.080   2.931   1.693
 5022SOL    HW115965   0.019   2.975   1.759
 5022SOL    HW215966   0.054   2.958   1.601
 5023SOL     OW15967   0.065   4.041   1.640
 5023SOL    HW115968   0.112   3.982   1.707
 5023SOL    HW215969   0.043   3.988   1.559
 5024SOL     OW15970   5.456   4.918   0.863
 5024SOL    HW115971   5.443   4.921   0.962
 5024SOL    HW215972   5.411   4.836   0.826
 5025SOL     OW15973   3.878   1.645   3.680
 5025SOL    HW115974   3.893   1.668   3.584
 5025SOL    HW215975   3.884   1.727   3.736
 5026SOL     OW15976   6.815   5.167   4.673
 5026SOL    HW115977   6.836   5.081   4.721
 5026SOL    HW215978   6.890   5.188   4.610
 5027SOL     OW15979   5.753   0.185   1.303
 5027SOL    HW115980   5.830   0.181   1.368
 5027SOL    HW215981   5.730   0.280   1.285
 5028SOL     OW15982   6.986   1.916   3.166
 5028SOL    HW115983   6.895   1.878   3.179
 5028SOL    HW215984   0.007   1.937   3.255
 5029SOL     OW15985   6.573   3.011   2.233
 5029SOL    HW115986   6.588   2.916   2.261
 5029SOL    HW215987   6.507   3.014   2.158
 5030SOL     OW15988   6.975   5.892   6.003
 5030SOL    HW115989   6.939   5.810   5.961
 5030SOL    HW215990   6.947   5.896   6.099
 5031SOL     OW15991   6.881   1.202   5.544
 5031SOL    HW115992   6.914   1.108   5.549
 5031SOL    HW215993   6.883   1.234   5.449
 5032SOL     OW15994   3.004   2.075   6.417
 5032SOL    HW115995   3.098   2.105   6.400
 5032SOL    HW215996   2.941   2.133   6.365
 5033SOL     OW15997   2.191   1.261   0.038
 5033SOL    HW115998   2.127   1.231   6.988
 5033SOL    HW215999   2.161   1.229   0.127
 5034SOL     OW16000   4.959   6.952   4.259
 5034SOL    HW116001   4.912   6.952   4.348
 5034SOL    HW216002   4.939   0.017   4.211
 5035SOL     OW16003   0.431   4.004   5.211
 5035SOL    HW116004   0.338   4.026   5.181
 5035SOL    HW216005   0.487   3.979   5.133
 5036SOL     OW16006   6.586   5.015   6.209
 5036SOL    HW116007   6.597   5.084   6.280
 5036SOL    HW216008   6.488   4.997   6.196
 5037SOL     OW16009   4.482   4.435   1.469
 5037SOL    HW116010   4.562   4.471   1.420
 5037SOL    HW216011   4.502   4.432   1.567
 5038SOL     OW16012   4.138   3.266   4.303
 5038SOL    HW116013   4.064   3.205   4.277
 5038SOL    HW216014   4.179   3.234   4.389
 5039SOL     OW16015   2.155   3.669   5.508
 5039SOL    HW116016   2.142   3.672   5.409
 5039SOL    HW216017   2.250   3.692   5.530
 5040SOL     OW16018   0.806   5.612   5.109
 5040SOL    HW116019   0.842   5.680   5.173
 5040SOL    HW216020   0.714   5.585   5.137
 5041SOL     OW16021   1.059   2.502   2.497
 5041SOL    HW116022   1.082   2.525   2.402
 5041SOL    HW216023   0.982   2.558   2.527
 5042SOL     OW16024   6.275   3.121   0.498
 5042SOL    HW116025   6.363   3.102   0.540
 5042SOL    HW216026   6.273   3.082   0.406
 5043SOL     OW16027   4.409   0.968   0.073
 5043SOL    HW116028   4.409   0.874   0.107
 5043SOL    HW216029   4.500   0.991   0.040
 5044SOL     OW16030   0.853   5.892   1.380
 5044SOL    HW116031   0.896   5.938   1.303
 5044SOL    HW216032   0.812   5.806   1.349
 5045SOL     OW16033   6.506   5.313   5.947
 5045SOL    HW116034   6.544   5.400   5.914
 5045SOL    HW216035   6.505   5.247   5.872
 5046SOL     OW16036   3.793   3.626   3.427
 5046SOL    HW116037   3.835   3.587   3.509
 5046SOL    HW216038   3.704   3.664   3.450
 5047SOL     OW16039   1.993   3.777   2.867
 5047SOL    HW116040   2.029   3.742   2.780
 5047SOL    HW216041   2.051   3.745   2.941
 5048SOL     OW16042   1.319   0.514   5.018
 5048SOL    HW116043   1.350   0.600   5.059
 5048SOL    HW216044   1.225   0.526   4.986
 5049SOL     OW16045   5.186   1.444   6.492
 5049SOL    HW116046   5.122   1.395   6.550
 5049SOL    HW216047   5.280   1.424   6.521
 5050SOL     OW16048   1.689   1.440   6.843
 5050SOL    HW116049   1.760   1.434   6.914
 5050SOL    HW216050   1.635   1.356   6.842
 5051SOL     OW16051   4.300   4.166   1.214
 5051SOL    HW116052   4.293   4.068   1.197
 5051SOL    HW216053   4.218   4.198   1.260
 5052SOL     OW16054   3.425   1.892   6.226
 5052SOL    HW116055   3.390   1.950   6.152
 5052SOL    HW216056   3.456   1.949   6.301
 5053SOL     OW16057   0.636   5.022   3.129
 5053SOL    HW116058   0.716   5.065   3.170
 5053SOL    HW216059   0.576   4.987   3.201
 5054SOL     OW16060   3.545   4.624   5.692
 5054SOL    HW116061   3.515   4.615   5.597
 5054SOL    HW216062   3.476   4.583   5.752
 5055SOL     OW16063   0.907   2.320   5.563
 5055SOL    HW116064   0.874   2.372   5.642
 5055SOL    HW216065   0.979   2.371   5.518
 5056SOL     OW16066   5.332   4.013   5.279
 5056SOL    HW116067   5.422   4.035   5.241
 5056SOL    HW216068   5.276   3.969   5.208
 5057SOL     OW16069   0.504   6.840   2.189
 5057SOL    HW116070   0.457   6.908   2.244
 5057SOL    HW216071   0.597   6.828   2.223
 5058SOL     OW16072   3.344   4.726   6.953
 5058SOL    HW116073   3.248   4.701   6.969
 5058SOL    HW216074   3.390   4.736   0.021
 5059SOL     OW16075   6.677   0.535   3.147
 5059SOL    HW116076   6.595   0.513   3.094
 5059SOL    HW216077   6.752   0.556   3.085
 5060SOL     OW16078   6.216   2.141   6.457
 5060SOL    HW116079   6.237   2.135   6.359
 5060SOL    HW216080   6.172   2.229   6.476
 5061SOL     OW16081   4.474   2.470   0.253
 5061SOL    HW116082   4.543   2.436   0.317
 5061SOL    HW216083   4.410   2.396   0.231
 5062SOL     OW16084   6.673   0.086   2.337
 5062SOL    HW116085   6.691   0.019   2.410
 5062SOL    HW216086   6.689   0.044   2.248
 5063SOL     OW16087   0.053   6.141   1.805
 5063SOL    HW116088   0.077   6.224   1.755
 5063SOL    HW216089   0.132   6.080   1.810
 5064SOL     OW16090   4.806   3.036   0.619
 5064SOL    HW116091   4.860   2.981   0.555
 5064SOL    HW216092   4.757   3.108   0.569
 5065SOL     OW16093   3.254   0.467   5.437
 5065SOL    HW116094   3.284   0.509   5.351
 5065SOL    HW216095   3.313   0.390   5.459
 5066SOL     OW16096   5.251   3.934   2.308
 5066SOL    HW116097   5.289   4.027   2.312
 5066SOL    HW216098   5.186   3.921   2.383
 5067SOL     OW16099   5.436   1.223   0.729
 5067SOL    HW116100   5.349   1.269   0.741
 5067SOL    HW216101   5.499   1.251   0.801
 5068SOL     OW16102   2.427   4.309   0.980
 5068SOL    HW116103   2.408   4.231   1.040
 5068SOL    HW216104   2.392   4.289   0.889
 5069SOL     OW16105   1.339   3.953   2.312
 5069SOL    HW116106   1.288   4.026   2.358
 5069SOL    HW216107   1.348   3.875   2.373
 5070SOL     OW16108   4.912   3.357   3.725
 5070SOL    HW116109   4.987   3.402   3.678
 5070SOL    HW216110   4.880   3.280   3.670
 5071SOL     OW16111   4.401   2.350   4.862
 5071SOL    HW116112   4.367   2.350   4.768
 5071SOL    HW216113   4.326   2.371   4.925
 5072SOL     OW16114   0.633   5.483   0.381
 5072SOL    HW116115   0.718   5.533   0.364
 5072SOL    HW216116   0.622   5.466   0.479
 5073SOL     OW16117   6.726   6.357   2.635
 5073SOL    HW116118   6.648   6.386   2.579
 5073SOL    HW216119   6.735   6.258   2.632
 5074SOL     OW16120   3.323   4.094   0.070
 5074SOL    HW116121   3.283   4.098   0.161
 5074SOL    HW216122   3.423   4.095   0.077
 5075SOL     OW16123   0.247   1.058   5.753
 5075SOL    HW116124   0.324   1.016   5.802
 5075SOL    HW216125   0.216   0.997   5.681
 5076SOL     OW16126   4.183   1.119   1.452
 5076SOL    HW116127   4.242   1.046   1.485
 5076SOL    HW216128   4.155   1.177   1.529
 5077SOL     OW16129   1.531   2.137   3.621
 5077SOL    HW116130   1.500   2.146   3.526
 5077SOL    HW216131   1.631   2.138   3.624
 5078SOL     OW16132   1.106   1.617   3.257
 5078SOL    HW116133   1.091   1.668   3.173
 5078SOL    HW216134   1.023   1.567   3.282
 5079SOL     OW16135   2.628   4.633   5.862
 5079SOL    HW116136   2.727   4.637   5.877
 5079SOL    HW216137   2.587   4.720   5.888
 5080SOL     OW16138   5.617   6.549   5.009
 5080SOL    HW116139   5.699   6.562   5.066
 5080SOL    HW216140   5.598   6.452   5.000
 5081SOL     OW16141   3.276   3.778   3.020
 5081SOL    HW116142   3.374   3.798   3.013
 5081SOL    HW216143   3.254   3.699   2.963
 5082SOL     OW16144   5.390   6.576   5.232
 5082SOL    HW116145   5.399   6.633   5.150
 5082SOL    HW216146   5.421   6.628   5.312
 5083SOL     OW16147   2.047   6.499   2.118
 5083SOL    HW116148   1.983   6.466   2.050
 5083SOL    HW216149   2.000   6.558   2.184
 5084SOL     OW16150   1.381   4.574   4.072
 5084SOL    HW116151   1.331   4.504   4.123
 5084SOL    HW216152   1.329   4.599   3.991
 5085SOL     OW16153   5.267   1.631   0.106
 5085SOL    HW116154   5.205   1.694   0.152
 5085SOL    HW216155   5.360   1.645   0.140
 5086SOL     OW16156   6.217   4.491   4.108
 5086SOL    HW116157   6.149   4.475   4.180
 5086SOL    HW216158   6.308   4.476   4.145
 5087SOL     OW16159   6.514   6.110   3.775
 5087SOL    HW116160   6.499   6.016   3.745
 5087SOL    HW216161   6.511   6.171   3.696
 5088SOL     OW16162   6.217   1.329   6.372
 5088SOL    HW116163   6.124   1.295   6.391
 5088SOL    HW216164   6.252   1.376   6.453
 5089SOL     OW16165   6.638   3.694   3.468
 5089SOL    HW116166   6.577   3.733   3.538
 5089SOL    HW216167   6.658   3.764   3.399
 5090SOL     OW16168   2.036   4.456   1.468
 5090SOL    HW116169   1.957   4.517   1.465
 5090SOL    HW216170   2.070   4.442   1.375
 5091SOL     OW16171   1.258   5.866   2.480
 5091SOL    HW116172   1.328   5.794   2.482
 5091SOL    HW216173   1.172   5.828   2.444
 5092SOL     OW16174   3.592   2.646   1.794
 5092SOL    HW116175   3.509   2.630   1.742
 5092SOL    HW216176   3.624   2.560   1.834
 5093SOL     OW16177   0.969   2.200   1.743
 5093SOL    HW116178   0.978   2.103   1.764
 5093SOL    HW216179   0.995   2.255   1.822
 5094SOL     OW16180   0.610   0.494   5.664
 5094SOL    HW116181   0.693   0.548   5.676
 5094SOL    HW216182   0.604   0.463   5.570
 5095SOL     OW16183   1.220   0.408   4.549
 5095SOL    HW116184   1.282   0.400   4.470
 5095SOL    HW216185   1.270   0.387   4.633
 5096SOL     OW16186   4.748   3.360   0.792
 5096SOL    HW116187   4.782   3.359   0.698
 5096SOL    HW216188   4.652   3.332   0.792
 5097SOL     OW16189   1.912   0.428   5.987
 5097SOL    HW116190   1.925   0.473   5.899
 5097SOL    HW216191   1.823   0.454   6.025
 5098SOL     OW16192   0.757   0.410   1.820
 5098SOL    HW116193   0.769   0.408   1.919
 5098SOL    HW216194   0.827   0.469   1.779
 5099SOL     OW16195   0.861   0.517   6.033
 5099SOL    HW116196   0.801   0.481   6.105
 5099SOL    HW216197   0.955   0.517   6.065
 5100SOL     OW16198   4.767   0.191   6.234
 5100SOL    HW116199   4.804   0.248   6.161
 5100SOL    HW216200   4.835   0.123   6.262
 5101SOL     OW16201   5.174   6.317   6.853
 5101SOL    HW116202   5.108   6.337   6.780
 5101SOL    HW216203   5.178   6.395   6.916
 5102SOL     OW16204   5.759   0.794   5.277
 5102SOL    HW116205   5.831   0.753   5.334
 5102SOL    HW216206   5.682   0.820   5.336
 5103SOL     OW16207   0.304   0.725   3.864
 5103SOL    HW116208   0.271   0.781   3.788
 5103SOL    HW216209   0.285   0.771   3.950
 5104SOL     OW16210   1.682   6.945   1.241
 5104SOL    HW116211   1.691   6.926   1.143
 5104SOL    HW216212   1.589   6.925   1.270
 5105SOL     OW16213   4.365   4.040   6.599
 5105SOL    HW116214   4.285   4.002   6.647
 5105SOL    HW216215   4.433   4.068   6.667
 5106SOL     OW16216   3.574   0.054   2.600
 5106SOL    HW116217   3.622   0.093   2.679
 5106SOL    HW216218   3.481   0.091   2.596
 5107SOL     OW16219   3.082   0.902   0.154
 5107SOL    HW116220   3.061   0.929   0.247
 5107SOL    HW216221   3.025   0.953   0.090
 5108SOL     OW16222   3.220   4.074   3.858
 5108SOL    HW116223   3.193   4.165   3.891
 5108SOL    HW216224   3.197   4.066   3.761
 5109SOL     OW16225   0.727   1.821   1.174
 5109SOL    HW116226   0.629   1.803   1.162
 5109SOL    HW216227   0.759   1.876   1.097
 5110SOL     OW16228   1.732   6.467   5.964
 5110SOL    HW116229   1.709   6.542   5.902
 5110SOL    HW216230   1.659   6.399   5.962
 5111SOL     OW16231   0.804   0.909   6.191
 5111SOL    HW116232   0.853   0.945   6.271
 5111SOL    HW216233   0.729   0.970   6.168
 5112SOL     OW16234   0.065   6.849   3.640
 5112SOL    HW116235   0.110   6.823   3.725
 5112SOL    HW216236   0.124   6.910   3.588
 5113SOL     OW16237   0.466   0.459   0.584
 5113SOL    HW116238   0.392   0.483   0.646
 5113SOL    HW216239   0.535   0.405   0.633
 5114SOL     OW16240   3.228   4.129   0.329
 5114SOL    HW116241   3.177   4.215   0.333
 5114SOL    HW216242   3.275   4.114   0.416
 5115SOL     OW16243   1.651   4.198   5.836
 5115SOL    HW116244   1.692   4.139   5.765
 5115SOL    HW216245   1.663   4.294   5.810
 5116SOL     OW16246   5.065   5.119   6.352
 5116SOL    HW116247   4.995   5.143   6.285
 5116SOL    HW216248   5.114   5.037   6.322
 5117SOL     OW16249   2.154   4.826   3.524
 5117SOL    HW116250   2.119   4.792   3.436
 5117SOL    HW216251   2.244   4.786   3.541
 5118SOL     OW16252   4.795   6.312   1.065
 5118SOL    HW116253   4.724   6.295   1.134
 5118SOL    HW216254   4.885   6.295   1.106
 5119SOL     OW16255   5.330   0.397   1.771
 5119SOL    HW116256   5.408   0.455   1.798
 5119SOL    HW216257   5.307   0.415   1.675
 5120SOL     OW16258   6.098   1.294   2.860
 5120SOL    HW116259   6.113   1.243   2.776
 5120SOL    HW216260   6.001   1.319   2.868
 5121SOL     OW16261   0.543   3.157   6.308
 5121SOL    HW116262   0.624   3.196   6.264
 5121SOL    HW216263   0.548   3.170   6.407
 5122SOL     OW16264   2.762   0.633   3.511
 5122SOL    HW116265   2.715   0.546   3.495
 5122SOL    HW216266   2.722   0.679   3.591
 5123SOL     OW16267   5.470   3.678   3.469
 5123SOL    HW116268   5.388   3.689   3.524
 5123SOL    HW216269   5.468   3.742   3.392
 5124SOL     OW16270   2.883   6.120   6.724
 5124SOL    HW116271   2.885   6.072   6.636
 5124SOL    HW216272   2.892   6.219   6.708
 5125SOL     OW16273   0.304   3.639   4.180
 5125SOL    HW116274   0.264   3.589   4.256
 5125SOL    HW216275   0.236   3.650   4.107
 5126SOL     OW16276   6.345   5.273   6.145
 5126SOL    HW116277   6.417   5.291   6.079
 5126SOL    HW216278   6.324   5.175   6.145
 5127SOL     OW16279   5.742   4.130   0.027
 5127SOL    HW116280   5.681   4.126   0.106
 5127SOL    HW216281   5.817   4.065   0.040
 5128SOL     OW16282   1.563   0.816   6.912
 5128SOL    HW116283   1.657   0.783   6.911
 5128SOL    HW216284   1.554   0.889   6.980
 5129SOL     OW16285   5.531   0.167   2.609
 5129SOL    HW116286   5.605   0.172   2.543
 5129SOL    HW216287   5.550   0.229   2.685
 5130SOL     OW16288   0.773   5.411   4.485
 5130SOL    HW116289   0.853   5.445   4.435
 5130SOL    HW216290   0.778   5.311   4.491
 5131SOL     OW16291   3.041   4.921   3.827
 5131SOL    HW116292   3.097   4.868   3.763
 5131SOL    HW216293   2.997   4.997   3.779
 5132SOL     OW16294   3.274   1.767   6.391
 5132SOL    HW116295   3.177   1.754   6.370
 5132SOL    HW216296   3.322   1.796   6.309
 5133SOL     OW16297   3.459   5.400   6.460
 5133SOL    HW116298   3.478   5.393   6.558
 5133SOL    HW216299   3.442   5.496   6.437
 5134SOL     OW16300   6.468   6.696   1.536
 5134SOL    HW116301   6.384   6.701   1.483
 5134SOL    HW216302   6.445   6.680   1.633
 5135SOL     OW16303   6.571   3.376   2.572
 5135SOL    HW116304   6.608   3.333   2.490
 5135SOL    HW216305   6.487   3.330   2.600
 5136SOL     OW16306   0.583   0.731   6.204
 5136SOL    HW116307   0.530   0.808   6.240
 5136SOL    HW216308   0.671   0.762   6.171
 5137SOL     OW16309   5.125   2.645   5.066
 5137SOL    HW116310   5.205   2.625   5.122
 5137SOL    HW216311   5.043   2.613   5.113
 5138SOL     OW16312   3.785   4.054   4.103
 5138SOL    HW116313   3.868   4.001   4.119
 5138SOL    HW216314   3.735   4.065   4.189
 5139SOL     OW16315   1.774   0.672   4.841
 5139SOL    HW116316   1.734   0.764   4.834
 5139SOL    HW216317   1.842   0.661   4.770
 5140SOL     OW16318   4.121   1.854   5.860
 5140SOL    HW116319   4.125   1.822   5.765
 5140SOL    HW216320   4.166   1.786   5.919
 5141SOL     OW16321   6.616   3.074   1.888
 5141SOL    HW116322   6.656   3.162   1.914
 5141SOL    HW216323   6.599   3.073   1.789
 5142SOL     OW16324   6.694   6.550   3.360
 5142SOL    HW116325   6.648   6.584   3.442
 5142SOL    HW216326   6.786   6.521   3.383
 5143SOL     OW16327   0.743   4.632   4.165
 5143SOL    HW116328   0.808   4.571   4.210
 5143SOL    HW216329   0.676   4.664   4.232
 5144SOL     OW16330   1.931   3.424   6.819
 5144SOL    HW116331   1.979   3.488   6.758
 5144SOL    HW216332   1.955   3.445   6.913
 5145SOL     OW16333   3.239   6.289   6.421
 5145SOL    HW116334   3.263   6.253   6.331
 5145SOL    HW216335   3.225   6.388   6.415
 5146SOL     OW16336   4.367   4.527   5.478
 5146SOL    HW116337   4.304   4.460   5.517
 5146SOL    HW216338   4.437   4.551   5.546
 5147SOL     OW16339   4.902   3.659   3.743
 5147SOL    HW116340   4.867   3.569   3.719
 5147SOL    HW216341   4.930   3.707   3.660
 5148SOL     OW16342   0.541   0.794   1.526
 5148SOL    HW116343   0.582   0.873   1.481
 5148SOL    HW216344   0.486   0.742   1.461
 5149SOL     OW16345   5.620   4.452   3.804
 5149SOL    HW116346   5.525   4.423   3.800
 5149SOL    HW216347   5.633   4.511   3.884
 5150SOL     OW16348   1.255   4.993   3.777
 5150SOL    HW116349   1.267   5.080   3.730
 5150SOL    HW216350   1.258   5.008   3.876
 5151SOL     OW16351   5.752   4.859   1.554
 5151SOL    HW116352   5.704   4.813   1.629
 5151SOL    HW216353   5.840   4.891   1.587
 5152SOL     OW16354   1.948   0.389   6.662
 5152SOL    HW116355   1.889   0.323   6.710
 5152SOL    HW216356   1.895   0.437   6.592
 5153SOL     OW16357   1.922   1.062   0.899
 5153SOL    HW116358   1.833   1.036   0.860
 5153SOL    HW216359   1.938   1.159   0.882
 5154SOL     OW16360   1.361   2.896   6.537
 5154SOL    HW116361   1.460   2.897   6.553
 5154SOL    HW216362   1.335   2.808   6.498
 5155SOL     OW16363   2.190   1.800   0.720
 5155SOL    HW116364   2.248   1.813   0.640
 5155SOL    HW216365   2.162   1.704   0.726
 5156SOL     OW16366   5.760   5.067   5.322
 5156SOL    HW116367   5.794   5.030   5.409
 5156SOL    HW216368   5.710   4.996   5.273
 5157SOL     OW16369   4.201   1.688   2.125
 5157SOL    HW116370   4.140   1.766   2.130
 5157SOL    HW216371   4.284   1.707   2.178
 5158SOL     OW16372   3.885   1.093   2.223
 5158SOL    HW116373   3.916   1.168   2.164
 5158SOL    HW216374   3.785   1.085   2.217
 5159SOL     OW16375   5.690   3.965   6.242
 5159SOL    HW116376   5.706   4.020   6.324
 5159SOL    HW216377   5.657   3.875   6.268
 5160SOL     OW16378   6.845   6.693   3.102
 5160SOL    HW116379   6.826   6.681   3.200
 5160SOL    HW216380   6.837   6.790   3.078
 5161SOL     OW16381   0.623   2.961   0.052
 5161SOL    HW116382   0.580   2.972   0.142
 5161SOL    HW216383   0.685   3.037   0.035
 5162SOL     OW16384   0.203   6.332   2.580
 5162SOL    HW116385   0.181   6.428   2.593
 5162SOL    HW216386   0.164   6.278   2.655
 5163SOL     OW16387   3.024   5.777   1.895
 5163SOL    HW116388   2.987   5.701   1.841
 5163SOL    HW216389   3.099   5.819   1.846
 5164SOL     OW16390   2.688   3.297   1.101
 5164SOL    HW116391   2.613   3.359   1.123
 5164SOL    HW216392   2.676   3.211   1.152
 5165SOL     OW16393   1.813   4.902   6.936
 5165SOL    HW116394   1.911   4.914   6.953
 5165SOL    HW216395   1.797   4.899   6.837
 5166SOL     OW16396   2.095   5.439   1.817
 5166SOL    HW116397   2.193   5.430   1.833
 5166SOL    HW216398   2.064   5.528   1.849
 5167SOL     OW16399   5.278   3.728   5.842
 5167SOL    HW116400   5.378   3.725   5.831
 5167SOL    HW216401   5.241   3.807   5.794
 5168SOL     OW16402   4.764   2.348   2.292
 5168SOL    HW116403   4.731   2.369   2.384
 5168SOL    HW216404   4.737   2.423   2.230
 5169SOL     OW16405   3.784   0.766   4.031
 5169SOL    HW116406   3.693   0.729   4.011
 5169SOL    HW216407   3.850   0.691   4.037
 5170SOL     OW16408   1.425   3.662   6.625
 5170SOL    HW116409   1.491   3.590   6.647
 5170SOL    HW216410   1.368   3.680   6.705
 5171SOL     OW16411   1.829   5.430   5.802
 5171SOL    HW116412   1.825   5.391   5.894
 5171SOL    HW216413   1.871   5.363   5.740
 5172SOL     OW16414   0.895   4.378   3.859
 5172SOL    HW116415   0.847   4.465   3.865
 5172SOL    HW216416   0.936   4.356   3.948
 5173SOL     OW16417   4.698   3.400   5.813
 5173SOL    HW116418   4.731   3.492   5.793
 5173SOL    HW216419   4.735   3.336   5.746
 5174SOL     OW16420   1.848   0.071   3.411
 5174SOL    HW116421   1.779   7.020   3.419
 5174SOL    HW216422   1.865   0.092   3.315
 5175SOL     OW16423   2.808   4.248   6.983
 5175SOL    HW116424   2.903   4.273   6.966
 5175SOL    HW216425   2.749   4.295   6.918
 5176SOL     OW16426   5.900   5.315   6.817
 5176SOL    HW116427   5.919   5.411   6.838
 5176SOL    HW216428   5.801   5.300   6.816
 5177SOL     OW16429   4.640   0.323   1.242
 5177SOL    HW116430   4.653   0.231   1.204
 5177SOL    HW216431   4.642   0.390   1.169
 5178SOL     OW16432   0.916   3.817   1.421
 5178SOL    HW116433   0.920   3.742   1.355
 5178SOL    HW216434   0.880   3.784   1.508
 5179SOL     OW16435   5.496   4.611   2.848
 5179SOL    HW116436   5.431   4.535   2.854
 5179SOL    HW216437   5.467   4.675   2.777
 5180SOL     OW16438   2.503   6.517   1.366
 5180SOL    HW116439   2.442   6.443   1.337
 5180SOL    HW216440   2.577   6.479   1.422
 5181SOL     OW16441   0.242   0.756   6.725
 5181SOL    HW116442   0.188   0.814   6.664
 5181SOL    HW216443   0.189   0.674   6.748
 5182SOL     OW16444   4.245   4.777   3.394
 5182SOL    HW116445   4.297   4.694   3.416
 5182SOL    HW216446   4.307   4.845   3.355
 5183SOL     OW16447   3.850   1.796   3.448
 5183SOL    HW116448   3.857   1.864   3.520
 5183SOL    HW216449   3.762   1.806   3.400
 5184SOL     OW16450   2.078   2.074   4.011
 5184SOL    HW116451   2.040   2.162   3.984
 5184SOL    HW216452   2.147   2.088   4.083
 5185SOL     OW16453   5.335   0.592   2.113
 5185SOL    HW116454   5.400   0.529   2.156
 5185SOL    HW216455   5.378   0.635   2.033
 5186SOL     OW16456   6.811   2.857   5.730
 5186SOL    HW116457   6.856   2.941   5.760
 5186SOL    HW216458   6.798   2.797   5.809
 5187SOL     OW16459   2.216   5.031   5.061
 5187SOL    HW116460   2.193   4.975   4.982
 5187SOL    HW216461   2.231   4.972   5.140
 5188SOL     OW16462   6.838   6.144   1.626
 5188SOL    HW116463   6.772   6.212   1.659
 5188SOL    HW216464   6.923   6.151   1.678
 5189SOL     OW16465   5.707   0.728   6.477
 5189SOL    HW116466   5.698   0.729   6.576
 5189SOL    HW216467   5.777   0.793   6.449
 5190SOL     OW16468   2.077   3.020   1.961
 5190SOL    HW116469   2.089   3.019   1.862
 5190SOL    HW216470   2.071   3.114   1.994
 5191SOL     OW16471   2.551   5.407   2.387
 5191SOL    HW116472   2.633   5.412   2.445
 5191SOL    HW216473   2.572   5.354   2.305
 5192SOL     OW16474   1.823   5.642   1.400
 5192SOL    HW116475   1.804   5.594   1.314
 5192SOL    HW216476   1.737   5.669   1.442
 5193SOL     OW16477   5.324   0.649   6.655
 5193SOL    HW116478   5.293   0.554   6.654
 5193SOL    HW216479   5.332   0.681   6.750
 5194SOL     OW16480   4.145   1.938   0.047
 5194SOL    HW116481   4.158   1.839   0.059
 5194SOL    HW216482   4.192   1.987   0.121
 5195SOL     OW16483   0.306   0.558   3.384
 5195SOL    HW116484   0.406   0.567   3.381
 5195SOL    HW216485   0.265   0.649   3.394
 5196SOL     OW16486   4.215   0.025   3.327
 5196SOL    HW116487   4.247   0.053   3.237
 5196SOL    HW216488   4.162   0.099   3.368
 5197SOL     OW16489   1.388   4.130   5.810
 5197SOL    HW116490   1.335   4.147   5.893
 5197SOL    HW216491   1.480   4.169   5.821
 5198SOL     OW16492   5.101   5.786   2.745
 5198SOL    HW116493   5.023   5.848   2.753
 5198SOL    HW216494   5.110   5.733   2.829
 5199SOL     OW16495   6.866   4.884   0.817
 5199SOL    HW116496   6.878   4.786   0.800
 5199SOL    HW216497   6.788   4.917   0.765
 5200SOL     OW16498   0.364   4.285   5.476
 5200SOL    HW116499   0.446   4.250   5.522
 5200SOL    HW216500   0.390   4.350   5.405
 5201SOL     OW16501   1.548   6.046   3.810
 5201SOL    HW116502   1.558   5.965   3.868
 5201SOL    HW216503   1.539   6.017   3.715
 5202SOL     OW16504   6.517   3.378   0.144
 5202SOL    HW116505   6.576   3.371   0.224
 5202SOL    HW216506   6.428   3.336   0.164
 5203SOL     OW16507   0.688   2.884   6.637
 5203SOL    HW116508   0.624   2.879   6.559
 5203SOL    HW216509   0.751   2.807   6.633
 5204SOL     OW16510   4.415   5.041   0.438
 5204SOL    HW116511   4.390   5.119   0.380
 5204SOL    HW216512   4.499   4.999   0.403
 5205SOL     OW16513   2.032   0.290   1.343
 5205SOL    HW116514   2.119   0.308   1.299
 5205SOL    HW216515   1.959   0.287   1.274
 5206SOL     OW16516   6.954   4.224   6.750
 5206SOL    HW116517   6.867   4.228   6.799
 5206SOL    HW216518   6.955   4.291   6.677
 5207SOL     OW16519   1.589   5.585   4.137
 5207SOL    HW116520   1.617   5.653   4.204
 5207SOL    HW216521   1.660   5.514   4.130
 5208SOL     OW16522   4.033   0.740   0.286
 5208SOL    HW116523   4.057   0.814   0.224
 5208SOL    HW216524   3.988   0.778   0.367
 5209SOL     OW16525   6.046   6.131   3.156
 5209SOL    HW116526   6.134   6.177   3.156
 5209SOL    HW216527   5.992   6.160   3.077
 5210SOL     OW16528   5.200   3.456   4.642
 5210SOL    HW116529   5.250   3.543   4.641
 5210SOL    HW216530   5.237   3.397   4.713
 5211SOL     OW16531   3.299   3.355   4.066
 5211SOL    HW116532   3.352   3.440   4.074
 5211SOL    HW216533   3.202   3.376   4.075
 5212SOL     OW16534   6.937   2.566   0.311
 5212SOL    HW116535   6.916   2.500   0.383
 5212SOL    HW216536   6.982   2.646   0.351
 5213SOL     OW16537   5.172   2.775   5.812
 5213SOL    HW116538   5.144   2.690   5.765
 5213SOL    HW216539   5.144   2.770   5.908
 5214SOL     OW16540   5.395   2.348   5.272
 5214SOL    HW116541   5.396   2.279   5.344
 5214SOL    HW216542   5.473   2.335   5.211
 5215SOL     OW16543   5.474   4.290   3.376
 5215SOL    HW116544   5.480   4.389   3.361
 5215SOL    HW216545   5.521   4.266   3.461
 5216SOL     OW16546   5.117   4.793   1.347
 5216SOL    HW116547   5.207   4.758   1.371
 5216SOL    HW216548   5.046   4.734   1.386
 5217SOL     OW16549   3.124   5.267   3.947
 5217SOL    HW116550   3.089   5.359   3.965
 5217SOL    HW216551   3.048   5.208   3.920
 5218SOL     OW16552   2.002   0.004   4.387
 5218SOL    HW116553   1.990   6.925   4.390
 5218SOL    HW216554   2.088   0.029   4.432
 5219SOL     OW16555   3.863   0.284   6.740
 5219SOL    HW116556   3.801   0.215   6.777
 5219SOL    HW216557   3.849   0.292   6.641
 5220SOL     OW16558   1.324   5.563   1.945
 5220SOL    HW116559   1.246   5.561   2.007
 5220SOL    HW216560   1.292   5.572   1.851
 5221SOL     OW16561   5.454   1.862   4.477
 5221SOL    HW116562   5.434   1.928   4.549
 5221SOL    HW216563   5.409   1.775   4.497
 5222SOL     OW16564   2.353   0.295   3.987
 5222SOL    HW116565   2.434   0.257   3.943
 5222SOL    HW216566   2.349   0.266   4.082
 5223SOL     OW16567   4.671   0.069   1.163
 5223SOL    HW116568   4.748   0.048   1.224
 5223SOL    HW216569   4.627   7.005   1.135
 5224SOL     OW16570   6.856   2.894   2.704
 5224SOL    HW116571   6.764   2.856   2.697
 5224SOL    HW216572   6.905   2.848   2.778
 5225SOL     OW16573   6.901   0.637   2.919
 5225SOL    HW116574   6.945   0.714   2.965
 5225SOL    HW216575   6.935   0.551   2.957
 5226SOL     OW16576   0.808   6.312   4.496
 5226SOL    HW116577   0.784   6.256   4.416
 5226SOL    HW216578   0.725   6.337   4.546
 5227SOL     OW16579   6.912   4.946   3.593
 5227SOL    HW116580   6.944   4.958   3.499
 5227SOL    HW216581   6.950   5.018   3.651
 5228SOL     OW16582   6.127   2.027   0.677
 5228SOL    HW116583   6.080   1.978   0.750
 5228SOL    HW216584   6.111   2.125   0.688
 5229SOL     OW16585   1.234   4.287   6.793
 5229SOL    HW116586   1.272   4.247   6.710
 5229SOL    HW216587   1.299   4.350   6.834
 5230SOL     OW16588   0.365   0.254   1.097
 5230SOL    HW116589   0.420   0.204   1.165
 5230SOL    HW216590   0.418   0.262   1.012
 5231SOL     OW16591   3.380   2.861   4.446
 5231SOL    HW116592   3.362   2.768   4.479
 5231SOL    HW216593   3.326   2.926   4.498
 5232SOL     OW16594   3.705   2.228   6.489
 5232SOL    HW116595   3.793   2.253   6.448
 5232SOL    HW216596   3.718   2.208   6.586
 5233SOL     OW16597   6.515   6.321   1.592
 5233SOL    HW116598   6.548   6.378   1.517
 5233SOL    HW216599   6.568   6.340   1.674
 5234SOL     OW16600   3.250   0.671   0.470
 5234SOL    HW116601   3.168   0.696   0.521
 5234SOL    HW216602   3.263   0.572   0.472
 5235SOL     OW16603   1.394   2.783   0.717
 5235SOL    HW116604   1.343   2.716   0.771
 5235SOL    HW216605   1.332   2.855   0.685
 5236SOL     OW16606   5.577   2.738   1.472
 5236SOL    HW116607   5.628   2.654   1.456
 5236SOL    HW216608   5.492   2.717   1.521
 5237SOL     OW16609   2.996   1.961   5.502
 5237SOL    HW116610   2.956   1.877   5.467
 5237SOL    HW216611   2.957   2.039   5.453
 5238SOL     OW16612   1.589   5.170   0.295
 5238SOL    HW116613   1.602   5.266   0.268
 5238SOL    HW216614   1.587   5.113   0.213
 5239SOL     OW16615   3.292   3.840   4.499
 5239SOL    HW116616   3.233   3.903   4.550
 5239SOL    HW216617   3.293   3.866   4.403
 5240SOL     OW16618   3.264   1.771   5.178
 5240SOL    HW116619   3.214   1.832   5.117
 5240SOL    HW216620   3.342   1.731   5.130
 5241SOL     OW16621   0.699   6.205   6.907
 5241SOL    HW116622   0.776   6.162   6.954
 5241SOL    HW216623   0.672   6.149   6.829
 5242SOL     OW16624   6.145   1.419   5.685
 5242SOL    HW116625   6.121   1.385   5.594
 5242SOL    HW216626   6.063   1.423   5.742
 5243SOL     OW16627   0.804   6.116   0.557
 5243SOL    HW116628   0.760   6.202   0.532
 5243SOL    HW216629   0.893   6.109   0.512
 5244SOL     OW16630   4.082   3.792   5.688
 5244SOL    HW116631   4.083   3.704   5.639
 5244SOL    HW216632   4.176   3.826   5.696
 5245SOL     OW16633   4.476   3.892   5.821
 5245SOL    HW116634   4.524   3.858   5.740
 5245SOL    HW216635   4.504   3.840   5.901
 5246SOL     OW16636   0.272   3.784   2.636
 5246SOL    HW116637   0.283   3.741   2.547
 5246SOL    HW216638   0.222   3.723   2.697
 5247SOL     OW16639   0.471   6.158   0.050
 5247SOL    HW116640   0.534   6.205   7.009
 5247SOL    HW216641   0.515   6.140   0.138
 5248SOL     OW16642   5.588   0.560   5.564
 5248SOL    HW116643   5.546   0.649   5.547
 5248SOL    HW216644   5.645   0.565   5.646
 5249SOL     OW16645   1.102   5.084   4.314
 5249SOL    HW116646   1.166   5.009   4.297
 5249SOL    HW216647   1.153   5.168   4.334
 5250SOL     OW16648   0.152   1.428   6.111
 5250SOL    HW116649   0.169   1.512   6.163
 5250SOL    HW216650   0.209   1.427   6.029
 5251SOL     OW16651   0.095   2.888   1.145
 5251SOL    HW116652   0.089   2.824   1.069
 5251SOL    HW216653   0.036   2.967   1.127
 5252SOL     OW16654   2.203   5.567   1.260
 5252SOL    HW116655   2.144   5.547   1.181
 5252SOL    HW216656   2.250   5.484   1.288
 5253SOL     OW16657   5.838   3.113   4.682
 5253SOL    HW116658   5.766   3.057   4.641
 5253SOL    HW216659   5.802   3.159   4.764
 5254SOL     OW16660   4.724   1.480   3.472
 5254SOL    HW116661   4.797   1.479   3.404
 5254SOL    HW216662   4.737   1.403   3.535
 5255SOL     OW16663   4.137   0.082   4.352
 5255SOL    HW116664   4.142   0.051   4.257
 5255SOL    HW216665   4.044   0.111   4.372
 5256SOL     OW16666   4.634   1.315   3.018
 5256SOL    HW116667   4.640   1.254   2.940
 5256SOL    HW216668   4.539   1.329   3.044
 5257SOL     OW16669   3.737   6.703   1.831
 5257SOL    HW116670   3.832   6.725   1.851
 5257SOL    HW216671   3.676   6.764   1.881
 5258SOL     OW16672   5.097   3.949   1.827
 5258SOL    HW116673   5.074   4.000   1.910
 5258SOL    HW216674   5.115   3.854   1.851
 5259SOL     OW16675   4.675   6.112   2.328
 5259SOL    HW116676   4.687   6.173   2.406
 5259SOL    HW216677   4.627   6.160   2.255
 5260SOL     OW16678   4.944   3.481   0.944
 5260SOL    HW116679   4.881   3.418   0.898
 5260SOL    HW216680   4.937   3.468   1.043
 5261SOL     OW16681   1.134   2.437   5.471
 5261SOL    HW116682   1.217   2.383   5.485
 5261SOL    HW216683   1.158   2.533   5.457
 5262SOL     OW16684   2.695   0.294   2.747
 5262SOL    HW116685   2.748   0.251   2.674
 5262SOL    HW216686   2.629   0.227   2.783
 5263SOL     OW16687   1.885   0.226   5.818
 5263SOL    HW116688   1.894   0.305   5.879
 5263SOL    HW216689   1.816   0.164   5.856
 5264SOL     OW16690   6.617   1.408   1.176
 5264SOL    HW116691   6.664   1.417   1.264
 5264SOL    HW216692   6.518   1.406   1.190
 5265SOL     OW16693   5.843   3.969   2.708
 5265SOL    HW116694   5.848   3.895   2.775
 5265SOL    HW216695   5.800   3.935   2.624
 5266SOL     OW16696   2.673   6.410   1.558
 5266SOL    HW116697   2.752   6.364   1.597
 5266SOL    HW216698   2.610   6.436   1.631
 5267SOL     OW16699   4.373   4.793   6.087
 5267SOL    HW116700   4.300   4.738   6.128
 5267SOL    HW216701   4.380   4.770   5.990
 5268SOL     OW16702   6.268   5.855   5.050
 5268SOL    HW116703   6.276   5.906   4.964
 5268SOL    HW216704   6.173   5.825   5.062
 5269SOL     OW16705   2.204   5.602   3.605
 5269SOL    HW116706   2.187   5.696   3.635
 5269SOL    HW216707   2.211   5.542   3.685
 5270SOL     OW16708   5.056   2.033   1.370
 5270SOL    HW116709   5.134   2.083   1.407
 5270SOL    HW216710   5.086   1.942   1.341
 5271SOL     OW16711   4.081   5.048   4.886
 5271SOL    HW116712   4.019   5.027   4.961
 5271SOL    HW216713   4.048   5.004   4.802
 5272SOL     OW16714   1.061   6.167   4.304
 5272SOL    HW116715   1.111   6.167   4.218
 5272SOL    HW216716   1.120   6.203   4.377
 5273SOL     OW16717   1.028   2.786   3.810
 5273SOL    HW116718   0.962   2.726   3.855
 5273SOL    HW216719   1.121   2.759   3.836
 5274SOL     OW16720   6.407   4.798   3.485
 5274SOL    HW116721   6.482   4.863   3.476
 5274SOL    HW216722   6.379   4.766   3.394
 5275SOL     OW16723   3.191   0.357   6.454
 5275SOL    HW116724   3.194   0.430   6.385
 5275SOL    HW216725   3.272   0.364   6.513
 5276SOL     OW16726   0.100   6.477   0.517
 5276SOL    HW116727   0.193   6.515   0.522
 5276SOL    HW216728   0.097   6.408   0.445
 5277SOL     OW16729   1.973   1.637   3.185
 5277SOL    HW116730   2.011   1.702   3.119
 5277SOL    HW216731   2.021   1.647   3.272
 5278SOL     OW16732   5.260   6.393   6.159
 5278SOL    HW116733   5.252   6.339   6.075
 5278SOL    HW216734   5.290   6.335   6.234
 5279SOL     OW16735   1.075   5.941   6.919
 5279SOL    HW116736   1.137   5.962   6.844
 5279SOL    HW216737   1.001   5.881   6.886
 5280SOL     OW16738   3.690   6.271   5.029
 5280SOL    HW116739   3.678   6.239   5.123
 5280SOL    HW216740   3.757   6.345   5.028
 5281SOL     OW16741   0.716   0.888   4.615
 5281SOL    HW116742   0.806   0.933   4.615
 5281SOL    HW216743   0.726   0.793   4.644
 5282SOL     OW16744   1.963   0.378   2.407
 5282SOL    HW116745   1.894   0.397   2.337
 5282SOL    HW216746   2.045   0.431   2.388
 5283SOL     OW16747   1.713   0.566   3.773
 5283SOL    HW116748   1.689   0.618   3.691
 5283SOL    HW216749   1.734   0.629   3.847
 5284SOL     OW16750   4.916   2.550   2.660
 5284SOL    HW116751   4.847   2.496   2.612
 5284SOL    HW216752   4.935   2.507   2.749
 5285SOL     OW16753   1.339   3.701   3.711
 5285SOL    HW116754   1.308   3.621   3.761
 5285SOL    HW216755   1.341   3.681   3.613
 5286SOL     OW16756   6.286   3.223   0.971
 5286SOL    HW116757   6.243   3.258   1.054
 5286SOL    HW216758   6.226   3.154   0.930
 5287SOL     OW16759   2.942   5.108   1.965
 5287SOL    HW116760   2.852   5.070   1.989
 5287SOL    HW216761   2.984   5.148   2.046
 5288SOL     OW16762   4.901   0.186   2.818
 5288SOL    HW116763   4.969   0.131   2.866
 5288SOL    HW216764   4.880   0.268   2.872
 5289SOL     OW16765   2.074   4.859   0.197
 5289SOL    HW116766   2.126   4.774   0.208
 5289SOL    HW216767   2.116   4.914   0.125
 5290SOL     OW16768   1.735   4.538   5.384
 5290SOL    HW116769   1.667   4.603   5.350
 5290SOL    HW216770   1.746   4.463   5.319
 5291SOL     OW16771   3.280   4.278   5.799
 5291SOL    HW116772   3.266   4.256   5.896
 5291SOL    HW216773   3.256   4.198   5.744
 5292SOL     OW16774   5.743   4.284   6.240
 5292SOL    HW116775   5.751   4.326   6.150
 5292SOL    HW216776   5.822   4.224   6.256
 5293SOL     OW16777   2.169   6.088   4.554
 5293SOL    HW116778   2.125   6.013   4.603
 5293SOL    HW216779   2.111   6.116   4.478
 5294SOL     OW16780   4.420   1.445   5.523
 5294SOL    HW116781   4.466   1.414   5.606
 5294SOL    HW216782   4.454   1.536   5.498
 5295SOL     OW16783   3.753   0.543   3.732
 5295SOL    HW116784   3.675   0.594   3.770
 5295SOL    HW216785   3.721   0.484   3.658
 5296SOL     OW16786   3.847   3.764   0.357
 5296SOL    HW116787   3.896   3.850   0.348
 5296SOL    HW216788   3.792   3.747   0.275
 5297SOL     OW16789   2.154   3.382   0.751
 5297SOL    HW116790   2.175   3.471   0.792
 5297SOL    HW216791   2.127   3.396   0.656
 5298SOL     OW16792   2.272   6.056   6.500
 5298SOL    HW116793   2.320   5.968   6.492
 5298SOL    HW216794   2.327   6.119   6.555
 5299SOL     OW16795   2.790   2.639   0.909
 5299SOL    HW116796   2.839   2.552   0.915
 5299SOL    HW216797   2.845   2.711   0.952
 5300SOL     OW16798   0.623   4.929   0.797
 5300SOL    HW116799   0.640   4.993   0.872
 5300SOL    HW216800   0.586   4.979   0.718
 5301SOL     OW16801   4.263   0.555   6.680
 5301SOL    HW116802   4.241   0.515   6.591
 5301SOL    HW216803   4.217   0.503   6.752
 5302SOL     OW16804   5.444   6.422   3.708
 5302SOL    HW116805   5.494   6.400   3.624
 5302SOL    HW216806   5.509   6.440   3.782
 5303SOL     OW16807   0.083   5.074   5.084
 5303SOL    HW116808   0.082   5.164   5.040
 5303SOL    HW216809   0.168   5.026   5.060
 5304SOL     OW16810   5.706   1.042   0.417
 5304SOL    HW116811   5.751   1.059   0.329
 5304SOL    HW216812   5.757   0.971   0.467
 5305SOL     OW16813   0.832   5.355   2.931
 5305SOL    HW116814   0.896   5.432   2.928
 5305SOL    HW216815   0.822   5.315   2.840
 5306SOL     OW16816   0.624   4.579   5.420
 5306SOL    HW116817   0.722   4.571   5.439
 5306SOL    HW216818   0.574   4.592   5.506
 5307SOL     OW16819   4.498   1.874   0.457
 5307SOL    HW116820   4.591   1.839   0.442
 5307SOL    HW216821   4.431   1.804   0.434
 5308SOL     OW16822   1.304   4.332   2.056
 5308SOL    HW116823   1.395   4.293   2.067
 5308SOL    HW216824   1.245   4.302   2.132
 5309SOL     OW16825   3.560   4.913   2.256
 5309SOL    HW116826   3.490   4.856   2.213
 5309SOL    HW216827   3.645   4.908   2.202
 5310SOL     OW16828   6.409   3.718   2.169
 5310SOL    HW116829   6.490   3.768   2.198
 5310SOL    HW216830   6.357   3.688   2.249
 5311SOL     OW16831   5.530   6.839   6.695
 5311SOL    HW116832   5.440   6.876   6.720
 5311SOL    HW216833   5.551   6.761   6.754
 5312SOL     OW16834   0.086   5.428   1.969
 5312SOL    HW116835   0.048   5.503   1.915
 5312SOL    HW216836   0.012   5.383   2.020
 5313SOL     OW16837   1.197   4.098   6.033
 5313SOL    HW116838   1.110   4.061   6.066
 5313SOL    HW216839   1.264   4.096   6.106
 5314SOL     OW16840   4.161   6.801   0.523
 5314SOL    HW116841   4.074   6.840   0.493
 5314SOL    HW216842   4.217   6.777   0.444
 5315SOL     OW16843   5.140   3.131   2.846
 5315SOL    HW116844   5.206   3.110   2.917
 5315SOL    HW216845   5.183   3.120   2.756
 5316SOL     OW16846   1.161   3.902   5.392
 5316SOL    HW116847   1.210   3.965   5.453
 5316SOL    HW216848   1.225   3.837   5.352
 5317SOL     OW16849   6.295   1.833   5.877
 5317SOL    HW116850   6.329   1.744   5.844
 5317SOL    HW216851   6.209   1.819   5.925
 5318SOL     OW16852   0.603   2.798   0.382
 5318SOL    HW116853   0.538   2.724   0.401
 5318SOL    HW216854   0.653   2.778   0.298
 5319SOL     OW16855   4.375   6.208   1.115
 5319SOL    HW116856   4.451   6.240   1.172
 5319SOL    HW216857   4.332   6.286   1.070
 5320SOL     OW16858   4.314   5.369   0.926
 5320SOL    HW116859   4.233   5.417   0.961
 5320SOL    HW216860   4.336   5.403   0.835
 5321SOL     OW16861   2.149   4.536   5.058
 5321SOL    HW116862   2.193   4.471   4.996
 5321SOL    HW216863   2.050   4.533   5.045
 5322SOL     OW16864   5.502   6.695   0.047
 5322SOL    HW116865   5.560   6.655   6.997
 5322SOL    HW216866   5.421   6.736   0.005
 5323SOL     OW16867   3.690   1.370   5.368
 5323SOL    HW116868   3.628   1.293   5.358
 5323SOL    HW216869   3.775   1.341   5.413
 5324SOL     OW16870   3.259   2.354   0.490
 5324SOL    HW116871   3.300   2.425   0.434
 5324SOL    HW216872   3.254   2.386   0.585
 5325SOL     OW16873   4.052   0.832   4.407
 5325SOL    HW116874   3.956   0.805   4.410
 5325SOL    HW216875   4.067   0.908   4.469
 5326SOL     OW16876   6.831   5.545   3.031
 5326SOL    HW116877   6.828   5.446   3.022
 5326SOL    HW216878   6.923   5.573   3.059
 5327SOL     OW16879   6.040   2.788   5.018
 5327SOL    HW116880   5.973   2.838   5.072
 5327SOL    HW216881   6.132   2.825   5.036
 5328SOL     OW16882   3.187   3.715   6.167
 5328SOL    HW116883   3.282   3.687   6.152
 5328SOL    HW216884   3.155   3.766   6.088
 5329SOL     OW16885   0.708   5.119   6.637
 5329SOL    HW116886   0.625   5.065   6.644
 5329SOL    HW216887   0.788   5.059   6.643
 5330SOL     OW16888   4.026   3.844   0.017
 5330SOL    HW116889   4.086   3.828   6.958
 5330SOL    HW216890   3.962   3.918   7.016
 5331SOL     OW16891   5.828   1.794   6.326
 5331SOL    HW116892   5.808   1.838   6.239
 5331SOL    HW216893   5.756   1.816   6.392
 5332SOL     OW16894   1.349   2.965   1.633
 5332SOL    HW116895   1.410   3.043   1.647
 5332SOL    HW216896   1.282   2.961   1.707
 5333SOL     OW16897   0.769   1.071   3.063
 5333SOL    HW116898   0.726   1.052   2.974
 5333SOL    HW216899   0.822   1.156   3.057
 5334SOL     OW16900   3.113   0.509   4.525
 5334SOL    HW116901   3.168   0.436   4.566
 5334SOL    HW216902   3.030   0.470   4.486
 5335SOL     OW16903   0.060   5.782   0.622
 5335SOL    HW116904   7.019   5.705   0.606
 5335SOL    HW216905   0.144   5.770   0.569
 5336SOL     OW16906   2.143   3.243   2.716
 5336SOL    HW116907   2.150   3.169   2.648
 5336SOL    HW216908   2.084   3.214   2.791
 5337SOL     OW16909   5.066   4.446   0.822
 5337SOL    HW116910   5.047   4.362   0.771
 5337SOL    HW216911   5.135   4.427   0.892
 5338SOL     OW16912   5.739   1.472   0.513
 5338SOL    HW116913   5.749   1.388   0.460
 5338SOL    HW216914   5.797   1.543   0.475
 5339SOL     OW16915   6.528   1.296   3.901
 5339SOL    HW116916   6.487   1.218   3.948
 5339SOL    HW216917   6.534   1.373   3.965
 5340SOL     OW16918   5.319   4.407   0.959
 5340SOL    HW116919   5.310   4.502   0.989
 5340SOL    HW216920   5.355   4.352   1.034
 5341SOL     OW16921   3.865   2.819   6.536
 5341SOL    HW116922   3.942   2.795   6.477
 5341SOL    HW216923   3.847   2.744   6.599
 5342SOL     OW16924   3.299   0.734   4.377
 5342SOL    HW116925   3.280   0.660   4.442
 5342SOL    HW216926   3.262   0.819   4.412
 5343SOL     OW16927   3.454   3.594   4.150
 5343SOL    HW116928   3.522   3.624   4.084
 5343SOL    HW216929   3.418   3.673   4.200
 5344SOL     OW16930   1.990   2.121   2.530
 5344SOL    HW116931   2.040   2.207   2.531
 5344SOL    HW216932   1.923   2.122   2.456
 5345SOL     OW16933   4.176   6.601   1.796
 5345SOL    HW116934   4.244   6.534   1.823
 5345SOL    HW216935   4.093   6.554   1.766
 5346SOL     OW16936   3.308   6.452   4.183
 5346SOL    HW116937   3.373   6.526   4.199
 5346SOL    HW216938   3.267   6.463   4.093
 5347SOL     OW16939   0.361   2.687   1.970
 5347SOL    HW116940   0.388   2.779   1.943
 5347SOL    HW216941   0.398   2.621   1.905
 5348SOL     OW16942   0.473   1.186   0.808
 5348SOL    HW116943   0.523   1.129   0.742
 5348SOL    HW216944   0.412   1.248   0.758
 5349SOL     OW16945   1.189   2.295   0.157
 5349SOL    HW116946   1.238   2.372   0.115
 5349SOL    HW216947   1.255   2.228   0.191
 5350SOL     OW16948   1.678   0.104   5.970
 5350SOL    HW116949   1.635   0.014   5.979
 5350SOL    HW216950   1.609   0.174   5.957
 5351SOL     OW16951   5.735   5.636   1.775
 5351SOL    HW116952   5.677   5.586   1.840
 5351SOL    HW216953   5.771   5.572   1.707
 5352SOL     OW16954   1.697   5.765   4.294
 5352SOL    HW116955   1.688   5.818   4.379
 5352SOL    HW216956   1.793   5.754   4.272
 5353SOL     OW16957   3.051   5.971   4.449
 5353SOL    HW116958   3.025   6.002   4.357
 5353SOL    HW216959   3.014   5.879   4.465
 5354SOL     OW16960   1.928   5.254   1.968
 5354SOL    HW116961   1.987   5.317   1.916
 5354SOL    HW216962   1.959   5.250   2.062
 5355SOL     OW16963   4.761   2.419   3.883
 5355SOL    HW116964   4.687   2.476   3.847
 5355SOL    HW216965   4.821   2.476   3.940
 5356SOL     OW16966   5.900   4.580   1.751
 5356SOL    HW116967   5.833   4.652   1.766
 5356SOL    HW216968   5.854   4.494   1.729
 5357SOL     OW16969   3.223   0.125   1.188
 5357SOL    HW116970   3.269   0.130   1.099
 5357SOL    HW216971   3.219   0.217   1.228
 5358SOL     OW16972   4.249   1.376   1.067
 5358SOL    HW116973   4.256   1.431   0.984
 5358SOL    HW216974   4.323   1.308   1.069
 5359SOL     OW16975   1.900   1.903   0.023
 5359SOL    HW116976   1.839   1.982   0.023
 5359SOL    HW216977   1.995   1.934   0.029
 5360SOL     OW16978   4.302   6.125   5.061
 5360SOL    HW116979   4.285   6.134   5.159
 5360SOL    HW216980   4.232   6.177   5.010
 5361SOL     OW16981   2.602   6.781   4.715
 5361SOL    HW116982   2.640   6.746   4.629
 5361SOL    HW216983   2.575   6.705   4.774
 5362SOL     OW16984   5.160   4.509   3.598
 5362SOL    HW116985   5.065   4.538   3.607
 5362SOL    HW216986   5.221   4.584   3.625
 5363SOL     OW16987   0.937   6.511   6.143
 5363SOL    HW116988   0.961   6.553   6.230
 5363SOL    HW216989   0.918   6.583   6.076
 5364SOL     OW16990   0.138   5.817   1.325
 5364SOL    HW116991   0.126   5.745   1.394
 5364SOL    HW216992   0.146   5.906   1.370
 5365SOL     OW16993   3.932   3.348   6.932
 5365SOL    HW116994   3.870   3.423   6.952
 5365SOL    HW216995   4.026   3.374   6.956
 5366SOL     OW16996   5.125   5.252   1.763
 5366SOL    HW116997   5.075   5.188   1.822
 5366SOL    HW216998   5.127   5.216   1.670
 5367SOL     OW16999   0.476   5.127   0.675
 5367SOL    HW117000   0.483   5.227   0.672
 5367SOL    HW217001   0.406   5.100   0.741
 5368SOL     OW17002   5.002   0.762   3.202
 5368SOL    HW117003   5.071   0.769   3.131
 5368SOL    HW217004   4.986   0.852   3.243
 5369SOL     OW17005   3.278   6.591   3.070
 5369SOL    HW117006   3.290   6.500   3.108
 5369SOL    HW217007   3.320   6.595   2.979
 5370SOL     OW17008   3.911   3.073   1.533
 5370SOL    HW117009   3.870   3.028   1.454
 5370SOL    HW217010   3.861   3.046   1.616
 5371SOL     OW17011   1.792   3.579   4.327
 5371SOL    HW117012   1.730   3.500   4.331
 5371SOL    HW217013   1.859   3.573   4.401
 5372SOL     OW17014   2.310   5.885   3.327
 5372SOL    HW117015   2.314   5.800   3.273
 5372SOL    HW217016   2.400   5.928   3.326
 5373SOL     OW17017   3.206   5.266   4.355
 5373SOL    HW117018   3.282   5.246   4.417
 5373SOL    HW217019   3.194   5.365   4.348
 5374SOL     OW17020   0.664   3.487   0.060
 5374SOL    HW117021   0.733   3.540   0.011
 5374SOL    HW217022   0.606   3.549   0.113
 5375SOL     OW17023   1.929   4.487   4.718
 5375SOL    HW117024   1.882   4.483   4.630
 5375SOL    HW217025   2.028   4.487   4.703
 5376SOL     OW17026   1.639   2.792   0.823
 5376SOL    HW117027   1.552   2.813   0.778
 5376SOL    HW217028   1.638   2.697   0.855
 5377SOL     OW17029   0.140   6.921   1.267
 5377SOL    HW117030   0.075   6.990   1.233
 5377SOL    HW217031   0.160   6.938   1.363
 5378SOL     OW17032   6.930   0.348   1.330
 5378SOL    HW117033   6.878   0.418   1.282
 5378SOL    HW217034   6.871   0.303   1.398
 5379SOL     OW17035   0.942   5.421   5.286
 5379SOL    HW117036   0.911   5.453   5.197
 5379SOL    HW217037   0.863   5.402   5.345
 5380SOL     OW17038   1.874   1.080   3.428
 5380SOL    HW117039   1.883   1.001   3.489
 5380SOL    HW217040   1.924   1.062   3.343
 5381SOL     OW17041   6.091   4.284   0.580
 5381SOL    HW117042   6.056   4.378   0.572
 5381SOL    HW217043   6.017   4.219   0.561
 5382SOL     OW17044   3.203   0.431   1.939
 5382SOL    HW117045   3.211   0.365   2.014
 5382SOL    HW217046   3.160   0.515   1.973
 5383SOL     OW17047   2.556   2.612   5.182
 5383SOL    HW117048   2.501   2.620   5.098
 5383SOL    HW217049   2.527   2.682   5.247
 5384SOL     OW17050   5.900   0.442   4.105
 5384SOL    HW117051   5.941   0.472   4.190
 5384SOL    HW217052   5.835   0.511   4.072
 5385SOL     OW17053   2.885   3.475   3.287
 5385SOL    HW117054   2.953   3.505   3.354
 5385SOL    HW217055   2.794   3.479   3.329
 5386SOL     OW17056   4.323   0.289   4.304
 5386SOL    HW117057   4.259   0.227   4.350
 5386SOL    HW217058   4.374   0.239   4.234
 5387SOL     OW17059   2.713   5.891   3.483
 5387SOL    HW117060   2.657   5.958   3.436
 5387SOL    HW217061   2.739   5.818   3.419
 5388SOL     OW17062   5.715   0.152   3.306
 5388SOL    HW117063   5.674   0.129   3.394
 5388SOL    HW217064   5.798   0.099   3.293
 5389SOL     OW17065   5.450   0.772   1.566
 5389SOL    HW117066   5.455   0.737   1.472
 5389SOL    HW217067   5.480   0.867   1.567
 5390SOL     OW17068   4.469   4.693   3.959
 5390SOL    HW117069   4.486   4.604   3.915
 5390SOL    HW217070   4.425   4.754   3.894
 5391SOL     OW17071   1.619   2.069   0.961
 5391SOL    HW117072   1.525   2.100   0.950
 5391SOL    HW217073   1.677   2.145   0.990
 5392SOL     OW17074   5.911   3.662   1.047
 5392SOL    HW117075   5.956   3.604   1.116
 5392SOL    HW217076   5.966   3.662   0.963
 5393SOL     OW17077   5.436   6.606   6.402
 5393SOL    HW117078   5.339   6.584   6.396
 5393SOL    HW217079   5.448   6.706   6.402
 5394SOL     OW17080   6.822   3.811   6.697
 5394SOL    HW117081   6.803   3.805   6.795
 5394SOL    HW217082   6.751   3.865   6.653
 5395SOL     OW17083   4.970   1.326   1.992
 5395SOL    HW117084   4.917   1.352   2.072
 5395SOL    HW217085   4.994   1.408   1.939
 5396SOL     OW17086   4.856   4.030   2.633
 5396SOL    HW117087   4.766   4.068   2.657
 5396SOL    HW217088   4.857   4.005   2.536
 5397SOL     OW17089   6.783   2.833   1.907
 5397SOL    HW117090   6.729   2.916   1.897
 5397SOL    HW217091   6.730   2.764   1.956
 5398SOL     OW17092   3.148   1.880   2.567
 5398SOL    HW117093   3.058   1.890   2.611
 5398SOL    HW217094   3.199   1.965   2.578
 5399SOL     OW17095   2.294   5.994   6.894
 5399SOL    HW117096   2.223   6.050   6.853
 5399SOL    HW217097   2.330   6.039   6.976
 5400SOL     OW17098   2.790   4.075   0.870
 5400SOL    HW117099   2.783   4.070   0.770
 5400SOL    HW217100   2.840   4.158   0.896
 5401SOL     OW17101   5.857   3.561   1.627
 5401SOL    HW117102   5.863   3.640   1.565
 5401SOL    HW217103   5.847   3.477   1.574
 5402SOL     OW17104   2.541   5.035   1.662
 5402SOL    HW117105   2.470   5.026   1.732
 5402SOL    HW217106   2.611   5.100   1.693
 5403SOL     OW17107   6.117   2.922   6.204
 5403SOL    HW117108   6.122   2.970   6.116
 5403SOL    HW217109   6.077   2.831   6.189
 5404SOL     OW17110   0.542   1.367   2.931
 5404SOL    HW117111   0.452   1.384   2.971
 5404SOL    HW217112   0.568   1.445   2.875
 5405SOL     OW17113   6.125   5.476   6.985
 5405SOL    HW117114   6.142   5.381   7.012
 5405SOL    HW217115   6.033   5.502   7.014
 5406SOL     OW17116   2.219   1.506   6.880
 5406SOL    HW117117   2.285   1.580   6.893
 5406SOL    HW217118   2.225   1.442   6.958
 5407SOL     OW17119   4.774   3.181   1.104
 5407SOL    HW117120   4.793   3.144   1.013
 5407SOL    HW217121   4.676   3.194   1.115
 5408SOL     OW17122   3.412   1.430   6.535
 5408SOL    HW117123   3.445   1.513   6.579
 5408SOL    HW217124   3.340   1.453   6.469
 5409SOL     OW17125   5.224   0.767   3.680
 5409SOL    HW117126   5.302   0.778   3.617
 5409SOL    HW217127   5.147   0.726   3.631
 5410SOL     OW17128   3.001   2.269   1.378
 5410SOL    HW117129   2.978   2.282   1.474
 5410SOL    HW217130   2.977   2.176   1.350
 5411SOL     OW17131   6.885   5.360   5.657
 5411SOL    HW117132   6.828   5.432   5.618
 5411SOL    HW217133   6.829   5.299   5.712
 5412SOL     OW17134   4.883   1.581   0.379
 5412SOL    HW117135   4.860   1.556   0.285
 5412SOL    HW217136   4.958   1.524   0.412
 5413SOL     OW17137   2.752   1.811   1.239
 5413SOL    HW117138   2.663   1.832   1.278
 5413SOL    HW217139   2.740   1.757   1.155
 5414SOL     OW17140   4.803   2.197   4.748
 5414SOL    HW117141   4.780   2.101   4.763
 5414SOL    HW217142   4.753   2.232   4.669
 5415SOL     OW17143   1.378   5.770   1.070
 5415SOL    HW117144   1.294   5.753   1.122
 5415SOL    HW217145   1.409   5.864   1.086
 5416SOL     OW17146   4.672   5.421   5.904
 5416SOL    HW117147   4.733   5.343   5.888
 5416SOL    HW217148   4.591   5.391   5.953
 5417SOL     OW17149   3.936   6.726   5.466
 5417SOL    HW117150   3.982   6.643   5.434
 5417SOL    HW217151   3.885   6.768   5.391
 5418SOL     OW17152   3.420   6.882   3.673
 5418SOL    HW117153   3.462   6.800   3.636
 5418SOL    HW217154   3.479   6.921   3.744
 5419SOL     OW17155   3.537   5.431   0.403
 5419SOL    HW117156   3.456   5.451   0.348
 5419SOL    HW217157   3.560   5.334   0.395
 5420SOL     OW17158   1.621   2.598   2.541
 5420SOL    HW117159   1.668   2.514   2.517
 5420SOL    HW217160   1.578   2.588   2.631
 5421SOL     OW17161   2.210   2.665   2.416
 5421SOL    HW117162   2.122   2.617   2.408
 5421SOL    HW217163   2.215   2.735   2.345
 5422SOL     OW17164   0.587   5.117   0.395
 5422SOL    HW117165   0.565   5.104   0.492
 5422SOL    HW217166   0.631   5.206   0.383
 5423SOL     OW17167   6.059   2.950   6.928
 5423SOL    HW117168   6.145   2.928   6.974
 5423SOL    HW217169   6.068   2.932   6.830
 5424SOL     OW17170   5.686   2.959   3.819
 5424SOL    HW117171   5.771   2.912   3.840
 5424SOL    HW217172   5.675   3.037   3.881
 5425SOL     OW17173   4.185   1.237   4.354
 5425SOL    HW117174   4.259   1.289   4.312
 5425SOL    HW217175   4.218   1.146   4.380
 5426SOL     OW17176   6.457   5.736   4.278
 5426SOL    HW117177   6.422   5.644   4.296
 5426SOL    HW217178   6.421   5.768   4.190
 5427SOL     OW17179   4.837   4.708   0.088
 5427SOL    HW117180   4.878   4.772   0.152
 5427SOL    HW217181   4.834   4.749   7.017
 5428SOL     OW17182   0.178   6.668   1.150
 5428SOL    HW117183   0.270   6.657   1.187
 5428SOL    HW217184   0.131   6.742   1.199
 5429SOL     OW17185   1.963   2.157   6.657
 5429SOL    HW117186   1.977   2.190   6.563
 5429SOL    HW217187   1.883   2.097   6.659
 5430SOL     OW17188   0.075   3.000   6.067
 5430SOL    HW117189   0.114   2.911   6.044
 5430SOL    HW217190   0.051   3.001   6.164
 5431SOL     OW17191   3.089   6.326   0.068
 5431SOL    HW117192   3.156   6.274   0.015
 5431SOL    HW217193   2.997   6.300   0.039
 5432SOL     OW17194   5.262   6.917   6.638
 5432SOL    HW117195   5.169   6.923   6.601
 5432SOL    HW217196   5.260   6.865   6.723
 5433SOL     OW17197   0.433   1.361   4.620
 5433SOL    HW117198   0.388   1.295   4.560
 5433SOL    HW217199   0.403   1.346   4.714
 5434SOL     OW17200   3.566   0.768   5.573
 5434SOL    HW117201   3.538   0.760   5.477
 5434SOL    HW217202   3.534   0.688   5.624
 5435SOL     OW17203   5.766   0.626   1.878
 5435SOL    HW117204   5.824   0.556   1.920
 5435SOL    HW217205   5.733   0.688   1.949
 5436SOL     OW17206   5.144   3.649   4.318
 5436SOL    HW117207   5.045   3.662   4.308
 5436SOL    HW217208   5.166   3.553   4.299
 5437SOL     OW17209   2.665   4.410   6.803
 5437SOL    HW117210   2.571   4.430   6.776
 5437SOL    HW217211   2.725   4.421   6.724
 5438SOL     OW17212   6.630   3.137   2.799
 5438SOL    HW117213   6.648   3.152   2.701
 5438SOL    HW217214   6.581   3.050   2.810
 5439SOL     OW17215   0.779   2.305   0.465
 5439SOL    HW117216   0.734   2.360   0.395
 5439SOL    HW217217   0.852   2.250   0.424
 5440SOL     OW17218   0.942   1.101   1.128
 5440SOL    HW117219   1.021   1.106   1.190
 5440SOL    HW217220   0.931   1.188   1.080
 5441SOL     OW17221   4.510   2.247   3.197
 5441SOL    HW117222   4.496   2.160   3.244
 5441SOL    HW217223   4.477   2.240   3.103
 5442SOL     OW17224   3.250   5.914   3.940
 5442SOL    HW117225   3.179   5.936   3.873
 5442SOL    HW217226   3.243   5.978   4.017
 5443SOL     OW17227   2.934   0.801   4.159
 5443SOL    HW117228   2.924   0.891   4.115
 5443SOL    HW217229   2.852   0.747   4.142
 5444SOL     OW17230   1.075   0.666   4.212
 5444SOL    HW117231   1.048   0.760   4.233
 5444SOL    HW217232   0.994   0.607   4.216
 5445SOL     OW17233   6.143   3.921   3.529
 5445SOL    HW117234   6.043   3.919   3.536
 5445SOL    HW217235   6.182   3.950   3.616
 5446SOL     OW17236   6.520   4.983   4.949
 5446SOL    HW117237   6.618   4.962   4.946
 5446SOL    HW217238   6.506   5.072   4.993
 5447SOL     OW17239   3.035   2.104   6.765
 5447SOL    HW117240   2.991   2.017   6.743
 5447SOL    HW217241   2.983   2.152   6.835
 5448SOL     OW17242   4.583   2.861   5.313
 5448SOL    HW117243   4.589   2.941   5.373
 5448SOL    HW217244   4.489   2.829   5.311
 5449SOL     OW17245   1.578   3.196   6.130
 5449SOL    HW117246   1.564   3.295   6.129
 5449SOL    HW217247   1.673   3.176   6.153
 5450SOL     OW17248   1.580   0.277   1.612
 5450SOL    HW117249   1.634   0.192   1.612
 5450SOL    HW217250   1.483   0.254   1.625
 5451SOL     OW17251   1.533   6.713   3.657
 5451SOL    HW117252   1.462   6.642   3.662
 5451SOL    HW217253   1.493   6.797   3.622
 5452SOL     OW17254   2.371   4.661   6.988
 5452SOL    HW117255   2.345   4.750   6.952
 5452SOL    HW217256   2.408   4.672   0.061
 5453SOL     OW17257   5.604   4.451   1.398
 5453SOL    HW117258   5.678   4.412   1.454
 5453SOL    HW217259   5.519   4.450   1.451
 5454SOL     OW17260   0.141   4.055   6.726
 5454SOL    HW117261   0.071   4.125   6.741
 5454SOL    HW217262   0.104   3.984   6.666
 5455SOL     OW17263   6.311   3.347   0.339
 5455SOL    HW117264   6.316   3.269   0.401
 5455SOL    HW217265   6.294   3.430   0.391
 5456SOL     OW17266   3.434   6.870   6.998
 5456SOL    HW117267   3.393   6.789   0.020
 5456SOL    HW217268   3.449   6.940   0.048
 5457SOL     OW17269   5.885   2.324   0.344
 5457SOL    HW117270   5.952   2.256   0.316
 5457SOL    HW217271   5.864   2.314   0.441
 5458SOL     OW17272   0.253   4.878   6.997
 5458SOL    HW117273   0.191   4.955   7.014
 5458SOL    HW217274   0.219   4.797   0.024
 5459SOL     OW17275   2.406   4.487   6.737
 5459SOL    HW117276   2.475   4.536   6.684
 5459SOL    HW217277   2.378   4.543   6.816
 5460SOL     OW17278   2.611   6.989   2.570
 5460SOL    HW117279   2.629   0.041   2.503
 5460SOL    HW217280   2.556   0.007   2.645
 5461SOL     OW17281   5.809   6.542   5.210
 5461SOL    HW117282   5.831   6.462   5.265
 5461SOL    HW217283   5.887   6.606   5.212
 5462SOL     OW17284   0.723   1.080   6.726
 5462SOL    HW117285   0.767   1.146   6.786
 5462SOL    HW217286   0.654   1.029   6.778
 5463SOL     OW17287   6.189   2.056   0.047
 5463SOL    HW117288   6.157   2.100   6.983
 5463SOL    HW217289   6.129   2.082   0.123
 5464SOL     OW17290   1.401   0.848   4.036
 5464SOL    HW117291   1.473   0.835   4.105
 5464SOL    HW217292   1.320   0.797   4.063
 5465SOL     OW17293   3.975   6.605   3.343
 5465SOL    HW117294   4.072   6.618   3.362
 5465SOL    HW217295   3.928   6.693   3.352
 5466SOL     OW17296   6.221   4.690   5.353
 5466SOL    HW117297   6.311   4.689   5.397
 5466SOL    HW217298   6.182   4.598   5.356
 5467SOL     OW17299   5.216   2.841   3.104
 5467SOL    HW117300   5.252   2.766   3.159
 5467SOL    HW217301   5.133   2.811   3.058
 5468SOL     OW17302   5.170   1.987   4.345
 5468SOL    HW117303   5.256   2.027   4.312
 5468SOL    HW217304   5.099   2.058   4.348
 5469SOL     OW17305   3.806   4.635   6.702
 5469SOL    HW117306   3.802   4.607   6.606
 5469SOL    HW217307   3.867   4.713   6.712
 5470SOL     OW17308   3.125   5.682   2.889
 5470SOL    HW117309   3.208   5.626   2.893
 5470SOL    HW217310   3.147   5.774   2.859
 5471SOL     OW17311   5.369   6.906   2.325
 5471SOL    HW117312   5.421   6.976   2.373
 5471SOL    HW217313   5.275   6.936   2.313
 5472SOL     OW17314   3.999   3.556   5.971
 5472SOL    HW117315   4.085   3.560   5.920
 5472SOL    HW217316   3.943   3.480   5.937
 5473SOL     OW17317   0.560   3.323   3.419
 5473SOL    HW117318   0.476   3.371   3.446
 5473SOL    HW217319   0.554   3.297   3.322
 5474SOL     OW17320   1.117   4.800   4.100
 5474SOL    HW117321   1.139   4.754   4.014
 5474SOL    HW217322   1.151   4.745   4.177
 5475SOL     OW17323   2.348   2.397   0.822
 5475SOL    HW117324   2.443   2.396   0.855
 5475SOL    HW217325   2.296   2.466   0.872
 5476SOL     OW17326   2.435   3.884   5.910
 5476SOL    HW117327   2.505   3.917   5.973
 5476SOL    HW217328   2.345   3.888   5.954
 5477SOL     OW17329   2.002   4.179   3.449
 5477SOL    HW117330   2.031   4.160   3.543
 5477SOL    HW217331   2.061   4.129   3.385
 5478SOL     OW17332   4.429   4.783   5.556
 5478SOL    HW117333   4.414   4.751   5.463
 5478SOL    HW217334   4.497   4.857   5.556
 5479SOL     OW17335   4.875   1.389   6.103
 5479SOL    HW117336   4.851   1.293   6.095
 5479SOL    HW217337   4.799   1.439   6.144
 5480SOL     OW17338   0.342   3.440   3.534
 5480SOL    HW117339   0.247   3.459   3.509
 5480SOL    HW217340   0.368   3.498   3.612
 5481SOL     OW17341   3.694   1.026   4.041
 5481SOL    HW117342   3.699   1.074   4.129
 5481SOL    HW217343   3.748   0.942   4.046
 5482SOL     OW17344   3.742   4.655   1.596
 5482SOL    HW117345   3.801   4.579   1.567
 5482SOL    HW217346   3.678   4.623   1.666
 5483SOL     OW17347   0.516   2.671   5.754
 5483SOL    HW117348   0.526   2.573   5.741
 5483SOL    HW217349   0.443   2.689   5.820
 5484SOL     OW17350   4.643   0.940   4.850
 5484SOL    HW117351   4.567   1.000   4.826
 5484SOL    HW217352   4.702   0.986   4.916
 5485SOL     OW17353   4.308   0.385   5.469
 5485SOL    HW117354   4.386   0.360   5.525
 5485SOL    HW217355   4.223   0.362   5.517
 5486SOL     OW17356   2.811   6.013   5.493
 5486SOL    HW117357   2.752   6.054   5.563
 5486SOL    HW217358   2.814   6.072   5.413
 5487SOL     OW17359   2.864   3.655   6.695
 5487SOL    HW117360   2.918   3.722   6.744
 5487SOL    HW217361   2.919   3.572   6.680
 5488SOL     OW17362   6.600   1.066   0.491
 5488SOL    HW117363   6.645   1.152   0.468
 5488SOL    HW217364   6.638   1.030   0.576
 5489SOL     OW17365   6.321   3.332   1.922
 5489SOL    HW117366   6.405   3.380   1.949
 5489SOL    HW217367   6.310   3.339   1.823
 5490SOL     OW17368   1.526   0.091   2.350
 5490SOL    HW117369   1.446   0.031   2.352
 5490SOL    HW217370   1.535   0.131   2.259
 5491SOL     OW17371   0.625   2.885   0.888
 5491SOL    HW117372   0.700   2.909   0.827
 5491SOL    HW217373   0.620   2.952   0.962
 5492SOL     OW17374   1.159   3.236   5.740
 5492SOL    HW117375   1.237   3.216   5.800
 5492SOL    HW217376   1.149   3.334   5.730
 5493SOL     OW17377   4.141   3.663   2.155
 5493SOL    HW117378   4.212   3.731   2.140
 5493SOL    HW217379   4.126   3.651   2.253
 5494SOL     OW17380   6.715   3.862   5.165
 5494SOL    HW117381   6.737   3.946   5.117
 5494SOL    HW217382   6.649   3.808   5.112
 5495SOL     OW17383   5.681   0.678   1.033
 5495SOL    HW117384   5.607   0.674   0.966
 5495SOL    HW217385   5.769   0.687   0.985
 5496SOL     OW17386   4.700   0.482   3.744
 5496SOL    HW117387   4.611   0.447   3.773
 5496SOL    HW217388   4.704   0.581   3.760
 5497SOL     OW17389   0.087   1.157   5.945
 5497SOL    HW117390   0.144   1.108   5.879
 5497SOL    HW217391   0.144   1.215   6.002
 5498SOL     OW17392   0.199   4.957   1.577
 5498SOL    HW117393   0.117   5.006   1.547
 5498SOL    HW217394   0.267   4.960   1.504
 5499SOL     OW17395   0.624   0.432   3.455
 5499SOL    HW117396   0.714   0.398   3.428
 5499SOL    HW217397   0.602   0.515   3.404
 5500SOL     OW17398   1.450   0.825   0.195
 5500SOL    HW117399   1.423   0.742   0.145
 5500SOL    HW217400   1.370   0.862   0.242
 5501SOL     OW17401   4.111   2.149   0.659
 5501SOL    HW117402   4.173   2.072   0.674
 5501SOL    HW217403   4.111   2.208   0.740
 5502SOL     OW17404   5.222   3.962   6.500
 5502SOL    HW117405   5.281   4.019   6.556
 5502SOL    HW217406   5.266   3.874   6.484
 5503SOL     OW17407   0.436   4.135   1.181
 5503SOL    HW117408   0.511   4.149   1.115
 5503SOL    HW217409   0.468   4.158   1.273
 5504SOL     OW17410   4.452   1.679   5.908
 5504SOL    HW117411   4.533   1.705   5.855
 5504SOL    HW217412   4.472   1.596   5.960
 5505SOL     OW17413   2.294   4.205   3.843
 5505SOL    HW117414   2.336   4.277   3.788
 5505SOL    HW217415   2.293   4.233   3.939
 5506SOL     OW17416   6.679   3.287   6.907
 5506SOL    HW117417   6.600   3.343   6.933
 5506SOL    HW217418   6.674   3.267   6.809
 5507SOL     OW17419   3.714   0.806   5.841
 5507SOL    HW117420   3.804   0.826   5.880
 5507SOL    HW217421   3.722   0.729   5.778
 5508SOL     OW17422   1.218   0.945   0.358
 5508SOL    HW117423   1.188   0.896   0.440
 5508SOL    HW217424   1.141   0.997   0.321
 5509SOL     OW17425   0.728   5.657   0.793
 5509SOL    HW117426   0.633   5.688   0.787
 5509SOL    HW217427   0.756   5.656   0.889
 5510SOL     OW17428   5.330   5.380   6.713
 5510SOL    HW117429   5.314   5.405   6.617
 5510SOL    HW217430   5.414   5.325   6.719
 5511SOL     OW17431   0.795   1.317   5.022
 5511SOL    HW117432   0.886   1.275   5.016
 5511SOL    HW217433   0.805   1.412   5.053
 5512SOL     OW17434   3.802   1.116   1.194
 5512SOL    HW117435   3.893   1.156   1.188
 5512SOL    HW217436   3.744   1.173   1.251
 5513SOL     OW17437   3.123   4.784   6.004
 5513SOL    HW117438   3.218   4.815   6.013
 5513SOL    HW217439   3.062   4.856   6.037
 5514SOL     OW17440   3.763   6.718   4.847
 5514SOL    HW117441   3.676   6.671   4.831
 5514SOL    HW217442   3.748   6.817   4.845
 5515SOL     OW17443   1.834   5.765   2.197
 5515SOL    HW117444   1.815   5.669   2.175
 5515SOL    HW217445   1.768   5.796   2.265
 5516SOL     OW17446   2.407   2.692   4.973
 5516SOL    HW117447   2.350   2.668   4.894
 5516SOL    HW217448   2.408   2.791   4.984
 5517SOL     OW17449   1.749   3.596   2.321
 5517SOL    HW117450   1.817   3.530   2.352
 5517SOL    HW217451   1.777   3.688   2.350
 5518SOL     OW17452   6.379   4.918   5.914
 5518SOL    HW117453   6.292   4.884   5.877
 5518SOL    HW217454   6.447   4.845   5.913
 5519SOL     OW17455   5.071   2.988   3.531
 5519SOL    HW117456   5.071   2.987   3.431
 5519SOL    HW217457   5.138   3.054   3.564
 5520SOL     OW17458   5.551   6.047   2.506
 5520SOL    HW117459   5.548   6.144   2.532
 5520SOL    HW217460   5.512   6.036   2.415
 5521SOL     OW17461   5.450   5.572   1.371
 5521SOL    HW117462   5.473   5.516   1.450
 5521SOL    HW217463   5.386   5.643   1.398
 5522SOL     OW17464   6.539   5.516   1.448
 5522SOL    HW117465   6.630   5.475   1.456
 5522SOL    HW217466   6.529   5.588   1.517
 5523SOL     OW17467   5.218   0.703   3.029
 5523SOL    HW117468   5.250   0.765   3.100
 5523SOL    HW217469   5.273   0.620   3.030
 5524SOL     OW17470   3.927   0.184   5.496
 5524SOL    HW117471   3.854   0.153   5.435
 5524SOL    HW217472   3.986   0.106   5.519
 5525SOL     OW17473   6.906   3.005   0.581
 5525SOL    HW117474   6.809   3.030   0.574
 5525SOL    HW217475   6.915   2.919   0.630
 5526SOL     OW17476   4.702   4.318   3.025
 5526SOL    HW117477   4.798   4.323   2.995
 5526SOL    HW217478   4.691   4.240   3.087
 5527SOL     OW17479   4.882   3.425   3.967
 5527SOL    HW117480   4.899   3.396   3.872
 5527SOL    HW217481   4.783   3.435   3.980
 5528SOL     OW17482   1.089   1.475   1.610
 5528SOL    HW117483   1.092   1.439   1.703
 5528SOL    HW217484   1.031   1.557   1.608
 5529SOL     OW17485   2.279   6.957   3.562
 5529SOL    HW117486   2.263   6.872   3.611
 5529SOL    HW217487   2.201   7.018   3.575
 5530SOL     OW17488   6.949   2.584   2.277
 5530SOL    HW117489   6.899   2.536   2.205
 5530SOL    HW217490   0.012   2.625   2.238
 5531SOL     OW17491   3.845   4.397   1.538
 5531SOL    HW117492   3.903   4.315   1.540
 5531SOL    HW217493   3.789   4.396   1.455
 5532SOL     OW17494   1.810   2.552   0.350
 5532SOL    HW117495   1.733   2.597   0.305
 5532SOL    HW217496   1.789   2.542   0.448
 5533SOL     OW17497   4.789   1.496   4.182
 5533SOL    HW117498   4.738   1.522   4.264
 5533SOL    HW217499   4.809   1.398   4.185
 5534SOL     OW17500   1.018   1.247   5.682
 5534SOL    HW117501   1.078   1.200   5.617
 5534SOL    HW217502   1.011   1.191   5.765
 5535SOL     OW17503   0.593   1.460   2.518
 5535SOL    HW117504   0.654   1.503   2.452
 5535SOL    HW217505   0.563   1.528   2.585
 5536SOL     OW17506   3.515   0.576   4.690
 5536SOL    HW117507   3.532   0.664   4.734
 5536SOL    HW217508   3.514   0.589   4.590
 5537SOL     OW17509   3.803   1.513   2.636
 5537SOL    HW117510   3.842   1.601   2.609
 5537SOL    HW217511   3.856   1.438   2.596
 5538SOL     OW17512   4.781   5.515   4.641
 5538SOL    HW117513   4.697   5.520   4.696
 5538SOL    HW217514   4.759   5.477   4.551
 5539SOL     OW17515   1.995   3.066   1.021
 5539SOL    HW117516   1.945   3.037   0.940
 5539SOL    HW217517   1.991   2.994   1.091
 5540SOL     OW17518   4.885   4.835   3.697
 5540SOL    HW117519   4.948   4.906   3.664
 5540SOL    HW217520   4.903   4.815   3.793
 5541SOL     OW17521   4.398   2.050   6.351
 5541SOL    HW117522   4.318   1.990   6.342
 5541SOL    HW217523   4.468   2.004   6.405
 5542SOL     OW17524   3.870   3.889   5.861
 5542SOL    HW117525   3.947   3.865   5.802
 5542SOL    HW217526   3.788   3.840   5.831
 5543SOL     OW17527   6.236   3.947   6.602
 5543SOL    HW117528   6.287   3.902   6.529
 5543SOL    HW217529   6.281   3.931   6.689
 5544SOL     OW17530   5.880   0.959   5.930
 5544SOL    HW117531   5.791   0.987   5.966
 5544SOL    HW217532   5.868   0.912   5.842
 5545SOL     OW17533   4.478   2.060   2.542
 5545SOL    HW117534   4.391   2.050   2.493
 5545SOL    HW217535   4.554   2.048   2.478
 5546SOL     OW17536   1.938   5.007   6.045
 5546SOL    HW117537   2.012   5.047   5.991
 5546SOL    HW217538   1.857   5.065   6.037
 5547SOL     OW17539   3.410   5.480   5.585
 5547SOL    HW117540   3.405   5.384   5.612
 5547SOL    HW217541   3.353   5.494   5.504
 5548SOL     OW17542   5.957   3.611   5.563
 5548SOL    HW117543   5.969   3.697   5.613
 5548SOL    HW217544   6.042   3.560   5.564
 5549SOL     OW17545   3.096   4.970   6.873
 5549SOL    HW117546   3.128   4.913   6.798
 5549SOL    HW217547   3.169   5.032   6.901
 5550SOL     OW17548   2.333   5.992   1.329
 5550SOL    HW117549   2.355   5.899   1.359
 5550SOL    HW217550   2.397   6.056   1.371
 5551SOL     OW17551   1.638   0.985   3.309
 5551SOL    HW117552   1.560   0.974   3.370
 5551SOL    HW217553   1.720   1.004   3.362
 5552SOL     OW17554   7.004   1.726   0.838
 5552SOL    HW117555   0.002   1.651   0.774
 5552SOL    HW217556   6.905   1.735   0.852
 5553SOL     OW17557   4.108   6.686   0.166
 5553SOL    HW117558   4.196   6.666   0.209
 5553SOL    HW217559   4.113   6.664   0.068
 5554SOL     OW17560   2.916   2.266   5.190
 5554SOL    HW117561   3.014   2.279   5.177
 5554SOL    HW217562   2.895   2.168   5.186
 5555SOL     OW17563   0.215   5.360   3.353
 5555SOL    HW117564   0.234   5.262   3.362
 5555SOL    HW217565   0.162   5.391   3.432
 5556SOL     OW17566   0.769   1.997   5.214
 5556SOL    HW117567   0.859   1.976   5.175
 5556SOL    HW217568   0.780   2.031   5.307
 5557SOL     OW17569   2.173   6.315   3.596
 5557SOL    HW117570   2.186   6.226   3.553
 5557SOL    HW217571   2.081   6.349   3.576
 5558SOL     OW17572   5.410   2.644   4.634
 5558SOL    HW117573   5.348   2.589   4.578
 5558SOL    HW217574   5.429   2.595   4.719
 5559SOL     OW17575   1.983   0.452   0.757
 5559SOL    HW117576   1.949   0.370   0.804
 5559SOL    HW217577   1.913   0.523   0.759
 5560SOL     OW17578   0.316   1.221   3.605
 5560SOL    HW117579   0.234   1.277   3.611
 5560SOL    HW217580   0.396   1.278   3.626
 5561SOL     OW17581   1.318   3.303   3.438
 5561SOL    HW117582   1.309   3.370   3.364
 5561SOL    HW217583   1.234   3.301   3.492
 5562SOL     OW17584   2.131   3.086   5.767
 5562SOL    HW117585   2.207   3.128   5.817
 5562SOL    HW217586   2.107   2.999   5.811
 5563SOL     OW17587   4.514   6.492   2.780
 5563SOL    HW117588   4.472   6.402   2.786
 5563SOL    HW217589   4.467   6.546   2.710
 5564SOL     OW17590   5.336   4.013   1.662
 5564SOL    HW117591   5.375   3.957   1.589
 5564SOL    HW217592   5.288   3.954   1.727
 5565SOL     OW17593   3.717   2.388   5.571
 5565SOL    HW117594   3.633   2.429   5.537
 5565SOL    HW217595   3.765   2.343   5.495
 5566SOL     OW17596   2.025   5.172   1.258
 5566SOL    HW117597   2.099   5.235   1.282
 5566SOL    HW217598   1.977   5.144   1.341
 5567SOL     OW17599   1.422   5.505   1.331
 5567SOL    HW117600   1.407   5.406   1.333
 5567SOL    HW217601   1.338   5.550   1.302
 5568SOL     OW17602   4.588   1.217   1.669
 5568SOL    HW117603   4.590   1.212   1.569
 5568SOL    HW217604   4.496   1.244   1.699
 5569SOL     OW17605   3.881   1.684   1.034
 5569SOL    HW117606   3.943   1.617   1.076
 5569SOL    HW217607   3.862   1.757   1.099
 5570SOL     OW17608   6.351   4.441   5.496
 5570SOL    HW117609   6.274   4.453   5.558
 5570SOL    HW217610   6.419   4.381   5.538
 5571SOL     OW17611   6.854   5.562   0.610
 5571SOL    HW117612   6.764   5.585   0.648
 5571SOL    HW217613   6.886   5.477   0.651
 5572SOL     OW17614   4.456   2.451   6.468
 5572SOL    HW117615   4.509   2.476   6.387
 5572SOL    HW217616   4.370   2.502   6.469
 5573SOL     OW17617   0.916   3.730   0.739
 5573SOL    HW117618   0.882   3.761   0.828
 5573SOL    HW217619   0.967   3.644   0.752
 5574SOL     OW17620   0.695   6.172   5.102
 5574SOL    HW117621   0.628   6.114   5.147
 5574SOL    HW217622   0.686   6.163   5.003
 5575SOL     OW17623   0.894   1.121   0.375
 5575SOL    HW117624   0.899   1.206   0.427
 5575SOL    HW217625   0.920   1.044   0.434
 5576SOL     OW17626   5.598   6.317   0.359
 5576SOL    HW117627   5.628   6.402   0.315
 5576SOL    HW217628   5.672   6.250   0.358
 5577SOL     OW17629   1.788   4.271   5.299
 5577SOL    HW117630   1.712   4.208   5.304
 5577SOL    HW217631   1.873   4.221   5.281
 5578SOL     OW17632   4.406   2.912   0.226
 5578SOL    HW117633   4.306   2.915   0.230
 5578SOL    HW217634   4.444   2.942   0.314
 5579SOL     OW17635   5.260   3.793   6.934
 5579SOL    HW117636   5.310   3.746   7.007
 5579SOL    HW217637   5.241   3.729   6.860
 5580SOL     OW17638   5.444   1.073   0.472
 5580SOL    HW117639   5.394   1.067   0.558
 5580SOL    HW217640   5.537   1.105   0.489
 5581SOL     OW17641   2.178   1.167   6.109
 5581SOL    HW117642   2.184   1.245   6.046
 5581SOL    HW217643   2.158   1.200   6.201
 5582SOL     OW17644   3.443   3.508   3.637
 5582SOL    HW117645   3.515   3.444   3.609
 5582SOL    HW217646   3.425   3.572   3.562
 5583SOL     OW17647   3.774   0.270   1.523
 5583SOL    HW117648   3.828   0.351   1.547
 5583SOL    HW217649   3.774   0.207   1.600
 5584SOL     OW17650   6.723   3.534   3.102
 5584SOL    HW117651   6.694   3.552   3.009
 5584SOL    HW217652   6.747   3.620   3.148
 5585SOL     OW17653   6.205   0.411   4.282
 5585SOL    HW117654   6.293   0.412   4.234
 5585SOL    HW217655   6.215   0.364   4.370
 5586SOL     OW17656   2.251   0.952   5.757
 5586SOL    HW117657   2.324   1.002   5.804
 5586SOL    HW217658   2.279   0.857   5.742
 5587SOL     OW17659   3.622   0.505   4.147
 5587SOL    HW117660   3.583   0.524   4.056
 5587SOL    HW217661   3.624   0.406   4.161
 5588SOL     OW17662   2.533   0.045   5.806
 5588SOL    HW117663   2.449   7.018   5.834
 5588SOL    HW217664   2.547   0.032   5.708
 5589SOL     OW17665   4.417   2.838   5.957
 5589SOL    HW117666   4.436   2.936   5.959
 5589SOL    HW217667   4.417   2.807   5.862
 5590SOL     OW17668   0.314   5.624   4.584
 5590SOL    HW117669   0.313   5.691   4.510
 5590SOL    HW217670   0.395   5.641   4.641
 5591SOL     OW17671   5.745   0.400   0.351
 5591SOL    HW117672   5.657   0.430   0.314
 5591SOL    HW217673   5.749   0.420   0.449
 5592SOL     OW17674   1.856   3.025   2.622
 5592SOL    HW117675   1.806   3.089   2.564
 5592SOL    HW217676   1.835   3.042   2.718
 5593SOL     OW17677   1.982   2.471   5.867
 5593SOL    HW117678   2.051   2.533   5.905
 5593SOL    HW217679   1.892   2.512   5.876
 5594SOL     OW17680   2.178   0.652   0.750
 5594SOL    HW117681   2.242   0.616   0.682
 5594SOL    HW217682   2.101   0.588   0.760
 5595SOL     OW17683   0.031   2.323   5.915
 5595SOL    HW117684   0.113   2.288   5.959
 5595SOL    HW217685   0.046   2.417   5.885
 5596SOL     OW17686   5.155   0.412   2.839
 5596SOL    HW117687   5.061   0.440   2.862
 5596SOL    HW217688   5.182   0.454   2.752
 5597SOL     OW17689   6.573   0.994   6.203
 5597SOL    HW117690   6.547   1.074   6.257
 5597SOL    HW217691   6.647   0.945   6.248
 5598SOL     OW17692   6.704   1.788   4.008
 5598SOL    HW117693   6.696   1.755   3.914
 5598SOL    HW217694   6.716   1.888   4.008
 5599SOL     OW17695   4.855   3.768   2.841
 5599SOL    HW117696   4.843   3.806   2.749
 5599SOL    HW217697   4.885   3.673   2.835
 5600SOL     OW17698   2.422   1.343   2.453
 5600SOL    HW117699   2.456   1.316   2.363
 5600SOL    HW217700   2.323   1.360   2.448
 5601SOL     OW17701   5.751   3.249   5.372
 5601SOL    HW117702   5.661   3.239   5.329
 5601SOL    HW217703   5.765   3.344   5.399
 5602SOL     OW17704   0.096   2.248   3.235
 5602SOL    HW117705   0.020   2.197   3.194
 5602SOL    HW217706   0.175   2.245   3.175
 5603SOL     OW17707   4.330   2.331   4.572
 5603SOL    HW117708   4.263   2.330   4.498
 5603SOL    HW217709   4.364   2.238   4.586
 5604SOL     OW17710   0.401   0.158   4.011
 5604SOL    HW117711   0.358   0.221   3.945
 5604SOL    HW217712   0.348   0.157   4.095
 5605SOL     OW17713   2.798   5.910   4.612
 5605SOL    HW117714   2.742   5.892   4.531
 5605SOL    HW217715   2.852   5.829   4.634
 5606SOL     OW17716   4.717   2.130   0.682
 5606SOL    HW117717   4.670   2.215   0.661
 5606SOL    HW217718   4.739   2.126   0.779
 5607SOL     OW17719   6.359   2.687   1.952
 5607SOL    HW117720   6.362   2.747   1.872
 5607SOL    HW217721   6.292   2.722   2.018
 5608SOL     OW17722   4.349   1.005   3.427
 5608SOL    HW117723   4.421   1.073   3.441
 5608SOL    HW217724   4.260   1.046   3.449
 5609SOL     OW17725   6.545   6.735   0.935
 5609SOL    HW117726   6.486   6.712   1.012
 5609SOL    HW217727   6.523   6.675   0.858
 5610SOL     OW17728   5.011   4.469   0.184
 5610SOL    HW117729   4.947   4.544   0.165
 5610SOL    HW217730   5.000   4.398   0.115
 5611SOL     OW17731   6.895   5.072   1.542
 5611SOL    HW117732   6.878   5.098   1.447
 5611SOL    HW217733   6.899   5.154   1.598
 5612SOL     OW17734   2.917   0.894   0.898
 5612SOL    HW117735   2.960   0.810   0.867
 5612SOL    HW217736   2.817   0.887   0.888
 5613SOL     OW17737   6.771   5.595   5.505
 5613SOL    HW117738   6.816   5.684   5.502
 5613SOL    HW217739   6.687   5.599   5.450
 5614SOL     OW17740   6.177   2.033   4.422
 5614SOL    HW117741   6.162   1.935   4.428
 5614SOL    HW217742   6.256   2.052   4.363
 5615SOL     OW17743   0.378   3.346   2.997
 5615SOL    HW117744   0.424   3.265   3.035
 5615SOL    HW217745   0.335   3.398   3.071
 5616SOL     OW17746   1.789   3.077   2.898
 5616SOL    HW117747   1.883   3.105   2.918
 5616SOL    HW217748   1.745   3.043   2.981
 5617SOL     OW17749   2.218   5.162   6.583
 5617SOL    HW117750   2.267   5.111   6.512
 5617SOL    HW217751   2.135   5.202   6.544
 5618SOL     OW17752   6.852   5.661   3.685
 5618SOL    HW117753   6.836   5.615   3.772
 5618SOL    HW217754   6.898   5.748   3.701
 5619SOL     OW17755   3.571   3.153   4.424
 5619SOL    HW117756   3.515   3.173   4.344
 5619SOL    HW217757   3.593   3.055   4.426
 5620SOL     OW17758   4.963   4.593   5.712
 5620SOL    HW117759   4.881   4.549   5.749
 5620SOL    HW217760   4.940   4.643   5.628
 5621SOL     OW17761   1.408   2.215   5.331
 5621SOL    HW117762   1.442   2.122   5.315
 5621SOL    HW217763   1.430   2.273   5.252
 5622SOL     OW17764   5.039   5.900   4.882
 5622SOL    HW117765   4.968   5.850   4.834
 5622SOL    HW217766   5.022   5.999   4.875
 5623SOL     OW17767   5.152   6.274   4.364
 5623SOL    HW117768   5.129   6.368   4.386
 5623SOL    HW217769   5.221   6.240   4.428
 5624SOL     OW17770   6.828   4.904   4.485
 5624SOL    HW117771   6.797   4.887   4.578
 5624SOL    HW217772   6.806   4.826   4.427
 5625SOL     OW17773   1.265   5.875   5.120
 5625SOL    HW117774   1.355   5.874   5.164
 5625SOL    HW217775   1.223   5.965   5.131
 5626SOL     OW17776   1.871   4.141   4.560
 5626SOL    HW117777   1.901   4.091   4.640
 5626SOL    HW217778   1.930   4.221   4.547
 5627SOL     OW17779   1.300   5.327   6.993
 5627SOL    HW117780   1.257   5.336   0.063
 5627SOL    HW217781   1.377   5.391   6.987
 5628SOL     OW17782   2.576   2.823   0.972
 5628SOL    HW117783   2.653   2.766   0.944
 5628SOL    HW217784   2.604   2.919   0.972
 5629SOL     OW17785   5.195   3.678   1.583
 5629SOL    HW117786   5.189   3.582   1.557
 5629SOL    HW217787   5.284   3.715   1.554
 5630SOL     OW17788   2.610   3.854   6.805
 5630SOL    HW117789   2.574   3.801   6.883
 5630SOL    HW217790   2.613   3.796   6.724
 5631SOL     OW17791   4.757   0.957   1.671
 5631SOL    HW117792   4.691   0.997   1.734
 5631SOL    HW217793   4.829   0.911   1.722
 5632SOL     OW17794   5.662   0.066   6.016
 5632SOL    HW117795   5.581   0.086   6.071
 5632SOL    HW217796   5.644   0.092   5.921
 5633SOL     OW17797   0.700   5.342   5.450
 5633SOL    HW117798   0.728   5.247   5.436
 5633SOL    HW217799   0.620   5.345   5.510
 5634SOL     OW17800   2.782   6.791   0.126
 5634SOL    HW117801   2.834   6.862   0.173
 5634SOL    HW217802   2.800   6.702   0.169
 5635SOL     OW17803   2.367   0.388   0.078
 5635SOL    HW117804   2.328   0.324   0.144
 5635SOL    HW217805   2.437   0.342   0.023
 5636SOL     OW17806   6.211   1.671   5.577
 5636SOL    HW117807   6.280   1.640   5.512
 5636SOL    HW217808   6.179   1.594   5.632
 5637SOL     OW17809   5.142   6.738   4.627
 5637SOL    HW117810   5.185   6.784   4.704
 5637SOL    HW217811   5.043   6.755   4.629
 5638SOL     OW17812   5.214   5.144   1.020
 5638SOL    HW117813   5.143   5.127   0.952
 5638SOL    HW217814   5.282   5.206   0.982
 5639SOL     OW17815   0.592   0.503   1.618
 5639SOL    HW117816   0.639   0.481   1.703
 5639SOL    HW217817   0.542   0.589   1.629
 5640SOL     OW17818   2.957   5.829   3.252
 5640SOL    HW117819   2.991   5.882   3.329
 5640SOL    HW217820   2.992   5.735   3.257
 5641SOL     OW17821   0.267   4.092   4.058
 5641SOL    HW117822   0.170   4.112   4.045
 5641SOL    HW217823   0.277   4.021   4.127
 5642SOL     OW17824   1.659   4.444   0.538
 5642SOL    HW117825   1.659   4.348   0.508
 5642SOL    HW217826   1.575   4.488   0.507
 5643SOL     OW17827   4.408   2.071   4.577
 5643SOL    HW117828   4.335   2.004   4.564
 5643SOL    HW217829   4.489   2.044   4.526
 5644SOL     OW17830   4.675   1.528   5.179
 5644SOL    HW117831   4.576   1.532   5.169
 5644SOL    HW217832   4.718   1.584   5.108
 5645SOL     OW17833   5.978   5.591   3.588
 5645SOL    HW117834   5.938   5.507   3.625
 5645SOL    HW217835   5.929   5.670   3.624
 5646SOL     OW17836   0.513   6.540   3.712
 5646SOL    HW117837   0.595   6.567   3.764
 5646SOL    HW217838   0.433   6.542   3.772
 5647SOL     OW17839   6.227   5.523   6.739
 5647SOL    HW117840   6.158   5.528   6.667
 5647SOL    HW217841   6.182   5.511   6.828
 5648SOL     OW17842   1.949   1.796   4.013
 5648SOL    HW117843   1.862   1.807   4.059
 5648SOL    HW217844   1.961   1.869   3.945
 5649SOL     OW17845   0.954   1.038   5.103
 5649SOL    HW117846   1.017   1.112   5.128
 5649SOL    HW217847   0.957   0.966   5.173
 5650SOL     OW17848   6.620   4.413   6.567
 5650SOL    HW117849   6.686   4.475   6.608
 5650SOL    HW217850   6.576   4.358   6.639
 5651SOL     OW17851   7.006   1.152   1.951
 5651SOL    HW117852   0.052   1.125   2.021
 5651SOL    HW217853   6.982   1.248   1.964
 5652SOL     OW17854   4.682   5.417   1.704
 5652SOL    HW117855   4.597   5.432   1.653
 5652SOL    HW217856   4.752   5.383   1.642
 5653SOL     OW17857   0.126   5.814   5.306
 5653SOL    HW117858   0.084   5.879   5.241
 5653SOL    HW217859   0.190   5.756   5.257
 5654SOL     OW17860   6.725   0.344   5.433
 5654SOL    HW117861   6.727   0.261   5.377
 5654SOL    HW217862   6.631   0.362   5.463
 5655SOL     OW17863   0.609   3.584   4.160
 5655SOL    HW117864   0.511   3.595   4.181
 5655SOL    HW217865   0.621   3.510   4.094
 5656SOL     OW17866   3.577   3.656   0.732
 5656SOL    HW117867   3.637   3.590   0.776
 5656SOL    HW217868   3.564   3.631   0.636
 5657SOL     OW17869   3.834   0.160   1.783
 5657SOL    HW117870   3.876   0.076   1.747
 5657SOL    HW217871   3.906   0.225   1.806
 5658SOL     OW17872   3.706   6.938   5.543
 5658SOL    HW117873   3.763   6.999   5.599
 5658SOL    HW217874   3.747   6.928   5.453
 5659SOL     OW17875   3.009   3.747   2.604
 5659SOL    HW117876   3.038   3.837   2.638
 5659SOL    HW217877   2.978   3.691   2.680
 5660SOL     OW17878   4.602   0.345   6.841
 5660SOL    HW117879   4.618   0.257   6.795
 5660SOL    HW217880   4.559   0.328   6.929
 5661SOL     OW17881   0.019   6.137   4.230
 5661SOL    HW117882   6.976   6.061   4.221
 5661SOL    HW217883   0.008   6.179   4.320
 5662SOL     OW17884   2.276   4.740   3.888
 5662SOL    HW117885   2.196   4.741   3.829
 5662SOL    HW217886   2.311   4.833   3.898
 5663SOL     OW17887   0.943   4.007   0.739
 5663SOL    HW117888   0.971   3.923   0.786
 5663SOL    HW217889   0.979   4.008   0.646
 5664SOL     OW17890   6.998   4.696   2.420
 5664SOL    HW117891   6.941   4.636   2.476
 5664SOL    HW217892   6.940   4.761   2.371
 5665SOL     OW17893   2.354   3.138   5.903
 5665SOL    HW117894   2.369   3.226   5.948
 5665SOL    HW217895   2.441   3.090   5.891
 5666SOL     OW17896   4.963   5.577   0.519
 5666SOL    HW117897   4.960   5.630   0.605
 5666SOL    HW217898   4.905   5.621   0.451
 5667SOL     OW17899   6.765   5.115   2.829
 5667SOL    HW117900   6.810   5.167   2.901
 5667SOL    HW217901   6.808   5.025   2.821
 5668SOL     OW17902   5.063   2.257   6.145
 5668SOL    HW117903   5.002   2.294   6.216
 5668SOL    HW217904   5.148   2.310   6.144
 5669SOL     OW17905   0.763   4.768   6.186
 5669SOL    HW117906   0.713   4.808   6.110
 5669SOL    HW217907   0.792   4.675   6.163
 5670SOL     OW17908   0.458   3.386   4.481
 5670SOL    HW117909   0.517   3.349   4.409
 5670SOL    HW217910   0.505   3.378   4.569
 5671SOL     OW17911   2.108   0.584   6.753
 5671SOL    HW117912   2.054   0.507   6.717
 5671SOL    HW217913   2.200   0.552   6.776
 5672SOL     OW17914   5.054   3.975   5.897
 5672SOL    HW117915   5.082   3.943   5.807
 5672SOL    HW217916   5.134   3.997   5.952
 5673SOL     OW17917   0.169   0.390   2.052
 5673SOL    HW117918   0.206   0.415   2.142
 5673SOL    HW217919   0.178   0.291   2.039
 5674SOL     OW17920   6.790   3.261   1.572
 5674SOL    HW117921   6.752   3.347   1.539
 5674SOL    HW217922   6.879   3.278   1.614
 5675SOL     OW17923   4.452   2.545   5.315
 5675SOL    HW117924   4.517   2.539   5.239
 5675SOL    HW217925   4.502   2.548   5.401
 5676SOL     OW17926   2.047   6.986   1.524
 5676SOL    HW117927   2.055   0.002   1.617
 5676SOL    HW217928   2.095   6.898   1.519
 5677SOL     OW17929   6.441   0.828   3.725
 5677SOL    HW117930   6.430   0.898   3.795
 5677SOL    HW217931   6.443   0.870   3.634
 5678SOL     OW17932   3.600   0.153   2.860
 5678SOL    HW117933   3.547   0.238   2.859
 5678SOL    HW217934   3.593   0.110   2.950
 5679SOL     OW17935   2.148   6.710   4.988
 5679SOL    HW117936   2.176   6.707   5.084
 5679SOL    HW217937   2.185   6.792   4.945
 5680SOL     OW17938   1.757   5.688   6.443
 5680SOL    HW117939   1.684   5.687   6.375
 5680SOL    HW217940   1.814   5.607   6.432
 5681SOL     OW17941   1.331   2.119   6.386
 5681SOL    HW117942   1.323   2.216   6.407
 5681SOL    HW217943   1.240   2.080   6.374
 5682SOL     OW17944   1.714   2.497   5.945
 5682SOL    HW117945   1.696   2.559   5.868
 5682SOL    HW217946   1.700   2.546   6.031
 5683SOL     OW17947   3.515   2.939   6.572
 5683SOL    HW117948   3.429   2.912   6.529
 5683SOL    HW217949   3.568   2.857   6.593
 5684SOL     OW17950   3.934   3.559   3.668
 5684SOL    HW117951   3.854   3.584   3.722
 5684SOL    HW217952   3.984   3.486   3.714
 5685SOL     OW17953   0.193   4.853   2.363
 5685SOL    HW117954   0.221   4.837   2.268
 5685SOL    HW217955   0.109   4.803   2.383
 5686SOL     OW17956   3.736   6.843   0.857
 5686SOL    HW117957   3.809   6.830   0.924
 5686SOL    HW217958   3.772   6.831   0.765
 5687SOL     OW17959   5.427   4.312   5.248
 5687SOL    HW117960   5.459   4.234   5.194
 5687SOL    HW217961   5.485   4.391   5.228
 5688SOL     OW17962   5.664   2.242   1.548
 5688SOL    HW117963   5.750   2.204   1.581
 5688SOL    HW217964   5.619   2.176   1.488
 5689SOL     OW17965   4.832   1.378   0.761
 5689SOL    HW117966   4.809   1.309   0.830
 5689SOL    HW217967   4.748   1.420   0.728
 5690SOL     OW17968   4.565   6.019   0.735
 5690SOL    HW117969   4.631   5.944   0.731
 5690SOL    HW217970   4.517   6.016   0.823
 5691SOL     OW17971   2.582   6.744   2.440
 5691SOL    HW117972   2.588   6.825   2.498
 5691SOL    HW217973   2.665   6.689   2.451
 5692SOL     OW17974   6.514   2.492   5.794
 5692SOL    HW117975   6.522   2.410   5.850
 5692SOL    HW217976   6.598   2.504   5.741
 5693SOL     OW17977   4.572   2.595   2.598
 5693SOL    HW117978   4.602   2.618   2.690
 5693SOL    HW217979   4.583   2.675   2.538
 5694SOL     OW17980   0.021   0.938   3.501
 5694SOL    HW117981   7.009   0.987   3.420
 5694SOL    HW217982   0.032   1.004   3.576
 5695SOL     OW17983   1.205   2.366   3.650
 5695SOL    HW117984   1.221   2.437   3.581
 5695SOL    HW217985   1.180   2.409   3.736
 5696SOL     OW17986   2.518   1.473   5.269
 5696SOL    HW117987   2.428   1.432   5.258
 5696SOL    HW217988   2.588   1.411   5.233
 5697SOL     OW17989   6.787   2.443   0.702
 5697SOL    HW117990   6.833   2.411   0.785
 5697SOL    HW217991   6.721   2.514   0.726
 5698SOL     OW17992   0.920   2.870   2.106
 5698SOL    HW117993   0.964   2.791   2.062
 5698SOL    HW217994   0.898   2.938   2.037
 5699SOL     OW17995   6.346   1.114   4.661
 5699SOL    HW117996   6.266   1.170   4.685
 5699SOL    HW217997   6.318   1.019   4.650
 5700SOL     OW17998   1.604   6.171   4.803
 5700SOL    HW117999   1.510   6.185   4.773
 5700SOL    HW218000   1.605   6.099   4.873
 5701SOL     OW18001   0.282   6.035   1.988
 5701SOL    HW118002   0.199   6.003   2.034
 5701SOL    HW218003   0.290   6.134   1.999
 5702SOL     OW18004   1.854   6.242   6.498
 5702SOL    HW118005   1.938   6.286   6.466
 5702SOL    HW218006   1.786   6.243   6.425
 5703SOL     OW18007   4.388   4.591   0.314
 5703SOL    HW118008   4.319   4.612   0.383
 5703SOL    HW218009   4.401   4.492   0.309
 5704SOL     OW18010   4.587   5.519   3.284
 5704SOL    HW118011   4.673   5.472   3.270
 5704SOL    HW218012   4.546   5.489   3.371
 5705SOL     OW18013   6.061   0.327   1.021
 5705SOL    HW118014   6.001   0.390   1.071
 5705SOL    HW218015   6.147   0.374   0.999
 5706SOL     OW18016   1.755   1.491   0.436
 5706SOL    HW118017   1.736   1.578   0.391
 5706SOL    HW218018   1.733   1.416   0.373
 5707SOL     OW18019   1.810   0.495   6.453
 5707SOL    HW118020   1.763   0.570   6.499
 5707SOL    HW218021   1.828   0.520   6.358
 5708SOL     OW18022   4.973   6.690   2.460
 5708SOL    HW118023   5.060   6.684   2.509
 5708SOL    HW218024   4.916   6.611   2.484
 5709SOL     OW18025   0.773   6.562   3.296
 5709SOL    HW118026   0.713   6.530   3.369
 5709SOL    HW218027   0.735   6.537   3.207
 5710SOL     OW18028   3.020   3.292   5.765
 5710SOL    HW118029   3.106   3.336   5.790
 5710SOL    HW218030   3.001   3.309   5.668
 5711SOL     OW18031   5.048   1.241   3.660
 5711SOL    HW118032   5.066   1.148   3.692
 5711SOL    HW218033   4.984   1.286   3.723
 5712SOL     OW18034   6.830   6.939   5.447
 5712SOL    HW118035   6.866   6.966   5.536
 5712SOL    HW218036   6.830   6.839   5.439
 5713SOL     OW18037   0.146   2.699   2.132
 5713SOL    HW118038   0.087   2.769   2.093
 5713SOL    HW218039   0.221   2.678   2.069
 5714SOL     OW18040   1.558   0.499   6.691
 5714SOL    HW118041   1.635   0.563   6.688
 5714SOL    HW218042   1.476   0.548   6.720
 5715SOL     OW18043   1.533   6.378   2.650
 5715SOL    HW118044   1.493   6.324   2.724
 5715SOL    HW218045   1.474   6.456   2.630
 5716SOL     OW18046   1.435   3.869   6.145
 5716SOL    HW118047   1.399   3.874   6.052
 5716SOL    HW218048   1.527   3.907   6.147
 5717SOL     OW18049   0.817   4.399   1.047
 5717SOL    HW118050   0.811   4.431   1.142
 5717SOL    HW218051   0.887   4.451   0.999
 5718SOL     OW18052   1.768   4.947   6.396
 5718SOL    HW118053   1.820   4.888   6.334
 5718SOL    HW218054   1.685   4.900   6.426
 5719SOL     OW18055   3.523   0.479   6.452
 5719SOL    HW118056   3.498   0.549   6.385
 5719SOL    HW218057   3.541   0.393   6.404
 5720SOL     OW18058   0.986   5.402   4.914
 5720SOL    HW118059   0.966   5.304   4.913
 5720SOL    HW218060   0.903   5.454   4.894
 5721SOL     OW18061   0.724   2.968   0.554
 5721SOL    HW118062   0.638   3.013   0.530
 5721SOL    HW218063   0.725   2.876   0.516
 5722SOL     OW18064   5.379   0.530   5.106
 5722SOL    HW118065   5.469   0.570   5.121
 5722SOL    HW218066   5.389   0.444   5.055
 5723SOL     OW18067   3.783   5.495   0.325
 5723SOL    HW118068   3.766   5.510   0.228
 5723SOL    HW218069   3.712   5.437   0.364
 5724SOL     OW18070   5.258   2.480   6.134
 5724SOL    HW118071   5.318   2.541   6.186
 5724SOL    HW218072   5.303   2.455   6.049
 5725SOL     OW18073   5.185   5.350   4.199
 5725SOL    HW118074   5.095   5.333   4.159
 5725SOL    HW218075   5.238   5.410   4.139
 5726SOL     OW18076   5.548   3.779   5.860
 5726SOL    HW118077   5.638   3.746   5.891
 5726SOL    HW218078   5.539   3.876   5.881
 5727SOL     OW18079   5.913   2.100   3.058
 5727SOL    HW118080   5.952   2.168   2.995
 5727SOL    HW218081   5.956   2.110   3.148
 5728SOL     OW18082   6.391   1.478   5.475
 5728SOL    HW118083   6.443   1.465   5.559
 5728SOL    HW218084   6.314   1.414   5.474
 5729SOL     OW18085   6.834   1.932   6.532
 5729SOL    HW118086   6.761   1.892   6.588
 5729SOL    HW218087   6.922   1.917   6.577
 5730SOL     OW18088   3.995   6.109   5.169
 5730SOL    HW118089   4.023   6.196   5.129
 5730SOL    HW218090   3.986   6.119   5.268
 5731SOL     OW18091   1.905   6.765   4.413
 5731SOL    HW118092   1.874   6.693   4.476
 5731SOL    HW218093   2.000   6.749   4.388
 5732SOL     OW18094   6.154   4.532   4.579
 5732SOL    HW118095   6.129   4.537   4.676
 5732SOL    HW218096   6.202   4.615   4.553
 5733SOL     OW18097   3.369   0.907   0.437
 5733SOL    HW118098   3.326   0.958   0.362
 5733SOL    HW218099   3.311   0.831   0.463
 5734SOL     OW18100   1.735   6.899   5.659
 5734SOL    HW118101   1.769   6.972   5.600
 5734SOL    HW218102   1.806   6.873   5.725
 5735SOL     OW18103   4.193   0.765   2.850
 5735SOL    HW118104   4.217   0.675   2.886
 5735SOL    HW218105   4.157   0.756   2.758
 5736SOL     OW18106   4.696   4.439   6.473
 5736SOL    HW118107   4.739   4.463   6.559
 5736SOL    HW218108   4.666   4.522   6.425
 5737SOL     OW18109   5.214   5.733   1.498
 5737SOL    HW118110   5.155   5.769   1.570
 5737SOL    HW218111   5.168   5.657   1.452
 5738SOL     OW18112   3.753   1.232   6.637
 5738SOL    HW118113   3.744   1.136   6.666
 5738SOL    HW218114   3.715   1.291   6.708
 5739SOL     OW18115   2.145   0.135   5.881
 5739SOL    HW118116   2.056   0.156   5.840
 5739SOL    HW218117   2.199   0.219   5.887
 5740SOL     OW18118   5.195   3.557   0.880
 5740SOL    HW118119   5.274   3.539   0.937
 5740SOL    HW218120   5.113   3.519   0.924
 5741SOL     OW18121   0.825   4.056   4.378
 5741SOL    HW118122   0.924   4.052   4.367
 5741SOL    HW218123   0.786   3.966   4.360
 5742SOL     OW18124   3.995   0.191   3.344
 5742SOL    HW118125   3.912   0.166   3.295
 5742SOL    HW218126   3.978   0.270   3.402
 5743SOL     OW18127   3.969   4.191   5.594
 5743SOL    HW118128   3.927   4.177   5.684
 5743SOL    HW218129   3.899   4.185   5.523
 5744SOL     OW18130   5.743   0.139   2.899
 5744SOL    HW118131   5.737   0.216   2.836
 5744SOL    HW218132   5.673   0.149   2.970
 5745SOL     OW18133   2.352   2.688   3.894
 5745SOL    HW118134   2.300   2.643   3.966
 5745SOL    HW218135   2.396   2.619   3.836
 5746SOL     OW18136   3.463   0.655   3.246
 5746SOL    HW118137   3.551   0.620   3.213
 5746SOL    HW218138   3.462   0.654   3.346
 5747SOL     OW18139   1.500   5.807   1.710
 5747SOL    HW118140   1.595   5.781   1.692
 5747SOL    HW218141   1.494   5.906   1.724
 5748SOL     OW18142   0.275   5.738   0.444
 5748SOL    HW118143   0.256   5.641   0.462
 5748SOL    HW218144   0.356   5.746   0.386
 5749SOL     OW18145   1.895   6.678   5.284
 5749SOL    HW118146   1.973   6.620   5.259
 5749SOL    HW218147   1.881   6.748   5.214
 5750SOL     OW18148   6.888   4.338   4.263
 5750SOL    HW118149   6.864   4.279   4.340
 5750SOL    HW218150   6.976   4.383   4.282
 5751SOL     OW18151   2.204   4.099   4.124
 5751SOL    HW118152   2.211   4.028   4.054
 5751SOL    HW218153   2.138   4.070   4.194
 5752SOL     OW18154   5.288   6.869   0.988
 5752SOL    HW118155   5.286   6.775   0.953
 5752SOL    HW218156   5.261   6.932   0.916
 5753SOL     OW18157   2.891   3.906   4.980
 5753SOL    HW118158   2.819   3.844   5.013
 5753SOL    HW218159   2.889   3.990   5.033
 5754SOL     OW18160   1.370   6.297   1.568
 5754SOL    HW118161   1.404   6.371   1.627
 5754SOL    HW218162   1.442   6.270   1.504
 5755SOL     OW18163   2.390   2.349   6.969
 5755SOL    HW118164   2.408   2.251   6.982
 5755SOL    HW218165   2.391   2.369   6.871
 5756SOL     OW18166   6.670   6.869   1.679
 5756SOL    HW118167   6.603   6.807   1.637
 5756SOL    HW218168   6.621   6.943   1.725
 5757SOL     OW18169   6.592   5.991   4.011
 5757SOL    HW118170   6.511   5.940   4.041
 5757SOL    HW218171   6.581   6.016   3.915
 5758SOL     OW18172   1.702   6.774   3.024
 5758SOL    HW118173   1.753   6.823   2.954
 5758SOL    HW218174   1.679   6.682   2.991
 5759SOL     OW18175   4.281   6.880   1.758
 5759SOL    HW118176   4.242   6.937   1.686
 5759SOL    HW218177   4.240   6.789   1.754
 5760SOL     OW18178   6.740   3.503   2.199
 5760SOL    HW118179   6.723   3.588   2.249
 5760SOL    HW218180   6.833   3.503   2.163
 5761SOL     OW18181   5.382   5.719   4.668
 5761SOL    HW118182   5.320   5.741   4.593
 5761SOL    HW218183   5.463   5.776   4.662
 5762SOL     OW18184   5.409   4.358   0.382
 5762SOL    HW118185   5.414   4.359   0.282
 5762SOL    HW218186   5.316   4.335   0.410
 5763SOL     OW18187   5.232   0.039   0.354
 5763SOL    HW118188   5.149   0.095   0.361
 5763SOL    HW218189   5.206   6.963   0.337
 5764SOL     OW18190   4.497   5.445   3.812
 5764SOL    HW118191   4.479   5.364   3.868
 5764SOL    HW218192   4.411   5.491   3.792
 5765SOL     OW18193   6.414   4.991   0.683
 5765SOL    HW118194   6.386   4.897   0.668
 5765SOL    HW218195   6.514   4.998   0.678
 5766SOL     OW18196   1.291   1.589   4.877
 5766SOL    HW118197   1.237   1.667   4.908
 5766SOL    HW218198   1.250   1.551   4.794
 5767SOL     OW18199   1.775   0.817   0.517
 5767SOL    HW118200   1.747   0.787   0.426
 5767SOL    HW218201   1.695   0.821   0.577
 5768SOL     OW18202   0.096   6.891   3.178
 5768SOL    HW118203   0.049   6.969   3.219
 5768SOL    HW218204   0.098   6.902   3.078
 5769SOL     OW18205   2.187   5.234   6.877
 5769SOL    HW118206   2.245   5.314   6.881
 5769SOL    HW218207   2.199   5.187   6.790
 5770SOL     OW18208   1.025   6.121   0.414
 5770SOL    HW118209   1.012   6.199   0.353
 5770SOL    HW218210   1.117   6.084   0.401
 5771SOL     OW18211   2.201   6.021   3.912
 5771SOL    HW118212   2.291   5.979   3.915
 5771SOL    HW218213   2.168   6.037   4.005
 5772SOL     OW18214   4.751   0.661   1.938
 5772SOL    HW118215   4.705   0.671   1.850
 5772SOL    HW218216   4.848   0.640   1.923
 5773SOL     OW18217   4.832   2.009   2.643
 5773SOL    HW118218   4.761   1.973   2.582
 5773SOL    HW218219   4.789   2.057   2.720
 5774SOL     OW18220   1.600   0.205   4.830
 5774SOL    HW118221   1.515   0.258   4.821
 5774SOL    HW218222   1.611   0.147   4.749
 5775SOL     OW18223   0.820   5.913   2.541
 5775SOL    HW118224   0.727   5.948   2.553
 5775SOL    HW218225   0.848   5.865   2.624
 5776SOL     OW18226   1.664   0.609   2.899
 5776SOL    HW118227   1.676   0.611   2.800
 5776SOL    HW218228   1.727   0.675   2.941
 5777SOL     OW18229   1.351   0.157   3.193
 5777SOL    HW118230   1.290   0.091   3.237
 5777SOL    HW218231   1.303   0.200   3.116
 5778SOL     OW18232   1.211   1.313   0.042
 5778SOL    HW118233   1.289   1.375   0.030
 5778SOL    HW218234   1.165   1.300   6.974
 5779SOL     OW18235   4.899   2.448   6.987
 5779SOL    HW118236   4.971   2.417   0.028
 5779SOL    HW218237   4.878   2.377   6.920
 5780SOL     OW18238   6.045   5.463   4.883
 5780SOL    HW118239   5.956   5.495   4.916
 5780SOL    HW218240   6.036   5.429   4.789
 5781SOL     OW18241   6.521   4.471   5.276
 5781SOL    HW118242   6.607   4.446   5.322
 5781SOL    HW218243   6.446   4.466   5.341
 5782SOL     OW18244   0.804   1.439   0.112
 5782SOL    HW118245   0.752   1.514   0.072
 5782SOL    HW218246   0.743   1.384   0.170
 5783SOL     OW18247   1.441   1.710   2.155
 5783SOL    HW118248   1.509   1.714   2.227
 5783SOL    HW218249   1.454   1.787   2.092
 5784SOL     OW18250   0.334   5.843   6.690
 5784SOL    HW118251   0.321   5.747   6.716
 5784SOL    HW218252   0.323   5.901   6.770
 5785SOL     OW18253   2.787   1.929   0.302
 5785SOL    HW118254   2.769   1.919   0.400
 5785SOL    HW218255   2.715   1.884   0.250
 5786SOL     OW18256   6.457   4.138   0.364
 5786SOL    HW118257   6.527   4.203   0.335
 5786SOL    HW218258   6.405   4.176   0.440
 5787SOL     OW18259   2.003   1.551   5.943
 5787SOL    HW118260   2.100   1.545   5.965
 5787SOL    HW218261   1.983   1.642   5.906
 5788SOL     OW18262   2.573   1.338   2.671
 5788SOL    HW118263   2.516   1.326   2.752
 5788SOL    HW218264   2.515   1.359   2.592
 5789SOL     OW18265   3.588   5.046   6.167
 5789SOL    HW118266   3.547   5.079   6.252
 5789SOL    HW218267   3.646   5.118   6.128
 5790SOL     OW18268   0.224   3.492   4.385
 5790SOL    HW118269   0.308   3.438   4.386
 5790SOL    HW218270   0.145   3.431   4.378
 5791SOL     OW18271   3.400   0.080   2.136
 5791SOL    HW118272   3.427   0.078   2.040
 5791SOL    HW218273   3.403   7.007   2.173
 5792SOL     OW18274   0.292   2.455   2.926
 5792SOL    HW118275   0.339   2.408   3.001
 5792SOL    HW218276   0.277   2.392   2.851
 5793SOL     OW18277   5.757   1.459   3.567
 5793SOL    HW118278   5.754   1.402   3.485
 5793SOL    HW218279   5.771   1.555   3.541
 5794SOL     OW18280   3.832   2.245   0.592
 5794SOL    HW118281   3.925   2.227   0.624
 5794SOL    HW218282   3.818   2.200   0.504
 5795SOL     OW18283   6.047   5.348   5.648
 5795SOL    HW118284   5.988   5.424   5.673
 5795SOL    HW218285   6.110   5.328   5.724
 5796SOL     OW18286   3.849   1.090   0.243
 5796SOL    HW118287   3.778   1.077   0.312
 5796SOL    HW218288   3.845   1.184   0.208
 5797SOL     OW18289   4.030   1.627   4.497
 5797SOL    HW118290   4.041   1.631   4.398
 5797SOL    HW218291   4.105   1.676   4.540
 5798SOL     OW18292   0.640   4.156   5.525
 5798SOL    HW118293   0.731   4.132   5.559
 5798SOL    HW218294   0.646   4.184   5.429
 5799SOL     OW18295   5.400   0.991   3.920
 5799SOL    HW118296   5.433   0.940   3.999
 5799SOL    HW218297   5.415   0.937   3.837
 5800SOL     OW18298   5.415   6.162   0.826
 5800SOL    HW118299   5.431   6.167   0.727
 5800SOL    HW218300   5.326   6.203   0.848
 5801SOL     OW18301   1.181   1.941   4.682
 5801SOL    HW118302   1.115   1.944   4.757
 5801SOL    HW218303   1.269   1.975   4.714
 5802SOL     OW18304   0.618   4.530   0.033
 5802SOL    HW118305   0.596   4.487   0.120
 5802SOL    HW218306   0.600   4.628   0.039
 5803SOL     OW18307   1.560   4.723   1.610
 5803SOL    HW118308   1.637   4.686   1.558
 5803SOL    HW218309   1.513   4.792   1.555
 5804SOL     OW18310   6.083   4.303   3.700
 5804SOL    HW118311   6.159   4.334   3.759
 5804SOL    HW218312   5.999   4.349   3.729
 5805SOL     OW18313   4.089   4.632   0.048
 5805SOL    HW118314   4.048   4.550   0.088
 5805SOL    HW218315   4.167   4.606   7.011
 5806SOL     OW18316   0.367   6.372   6.695
 5806SOL    HW118317   0.454   6.421   6.703
 5806SOL    HW218318   0.381   6.276   6.719
 5807SOL     OW18319   1.672   3.853   1.806
 5807SOL    HW118320   1.711   3.780   1.750
 5807SOL    HW218321   1.602   3.816   1.866
 5808SOL     OW18322   5.660   4.221   3.062
 5808SOL    HW118323   5.705   4.230   3.151
 5808SOL    HW218324   5.729   4.224   2.990
 5809SOL     OW18325   0.247   2.604   4.952
 5809SOL    HW118326   0.182   2.636   4.882
 5809SOL    HW218327   0.314   2.543   4.909
 5810SOL     OW18328   2.697   0.642   4.146
 5810SOL    HW118329   2.706   0.645   4.046
 5810SOL    HW218330   2.600   0.648   4.171
 5811SOL     OW18331   2.864   0.384   4.894
 5811SOL    HW118332   2.886   0.391   4.991
 5811SOL    HW218333   2.883   0.471   4.849
 5812SOL     OW18334   5.117   0.329   4.409
 5812SOL    HW118335   5.149   0.383   4.487
 5812SOL    HW218336   5.017   0.330   4.406
 5813SOL     OW18337   1.361   1.534   6.694
 5813SOL    HW118338   1.441   1.595   6.698
 5813SOL    HW218339   1.380   1.460   6.630
 5814SOL     OW18340   5.810   4.237   0.822
 5814SOL    HW118341   5.892   4.201   0.866
 5814SOL    HW218342   5.806   4.205   0.727
 5815SOL     OW18343   4.199   2.316   3.883
 5815SOL    HW118344   4.121   2.271   3.840
 5815SOL    HW218345   4.284   2.272   3.853
 5816SOL     OW18346   4.837   6.308   0.416
 5816SOL    HW118347   4.777   6.386   0.434
 5816SOL    HW218348   4.932   6.340   0.411
 5817SOL     OW18349   5.461   3.114   5.867
 5817SOL    HW118350   5.505   3.108   5.778
 5817SOL    HW218351   5.362   3.111   5.856
 5818SOL     OW18352   6.984   6.165   4.755
 5818SOL    HW118353   0.028   6.091   4.776
 5818SOL    HW218354   6.895   6.144   4.794
 5819SOL     OW18355   4.537   0.478   0.178
 5819SOL    HW118356   4.602   0.495   0.252
 5819SOL    HW218357   4.566   0.397   0.127
 5820SOL     OW18358   4.397   0.027   3.715
 5820SOL    HW118359   4.429   0.109   3.668
 5820SOL    HW218360   4.347   6.988   3.652
 5821SOL     OW18361   1.308   6.908   2.347
 5821SOL    HW118362   1.333   6.821   2.303
 5821SOL    HW218363   1.224   6.897   2.398
 5822SOL     OW18364   0.458   1.791   2.049
 5822SOL    HW118365   0.410   1.703   2.045
 5822SOL    HW218366   0.412   1.851   2.115
 5823SOL     OW18367   1.068   0.809   5.989
 5823SOL    HW118368   1.124   0.786   5.910
 5823SOL    HW218369   0.986   0.858   5.959
 5824SOL     OW18370   0.027   6.221   2.753
 5824SOL    HW118371   6.991   6.151   2.708
 5824SOL    HW218372   7.009   6.240   2.844
 5825SOL     OW18373   2.654   2.135   5.717
 5825SOL    HW118374   2.730   2.074   5.740
 5825SOL    HW218375   2.579   2.121   5.781
 5826SOL     OW18376   0.306   5.595   5.213
 5826SOL    HW118377   0.247   5.557   5.284
 5826SOL    HW218378   0.264   5.581   5.123
 5827SOL     OW18379   1.664   5.230   4.524
 5827SOL    HW118380   1.591   5.206   4.460
 5827SOL    HW218381   1.729   5.155   4.529
 5828SOL     OW18382   0.066   3.158   2.076
 5828SOL    HW118383   0.008   3.234   2.048
 5828SOL    HW218384   0.149   3.194   2.120
 5829SOL     OW18385   2.670   1.828   2.920
 5829SOL    HW118386   2.711   1.746   2.881
 5829SOL    HW218387   2.580   1.842   2.878
 5830SOL     OW18388   3.853   0.472   5.465
 5830SOL    HW118389   3.947   0.499   5.443
 5830SOL    HW218390   3.841   0.374   5.451
 5831SOL     OW18391   7.004   0.460   3.967
 5831SOL    HW118392   6.937   0.532   3.946
 5831SOL    HW218393   6.960   0.370   3.956
 5832SOL     OW18394   4.122   3.962   5.336
 5832SOL    HW118395   4.111   4.059   5.318
 5832SOL    HW218396   4.138   3.948   5.434
 5833SOL     OW18397   3.626   3.213   4.686
 5833SOL    HW118398   3.720   3.221   4.718
 5833SOL    HW218399   3.625   3.210   4.586
 5834SOL     OW18400   6.093   1.920   1.085
 5834SOL    HW118401   6.072   1.946   1.179
 5834SOL    HW218402   6.020   1.861   1.049
 5835SOL     OW18403   5.028   2.807   2.745
 5835SOL    HW118404   5.126   2.827   2.742
 5835SOL    HW218405   4.999   2.767   2.658
 5836SOL     OW18406   2.473   6.678   3.360
 5836SOL    HW118407   2.457   6.738   3.281
 5836SOL    HW218408   2.567   6.644   3.358
 5837SOL     OW18409   4.200   4.667   6.257
 5837SOL    HW118410   4.167   4.581   6.296
 5837SOL    HW218411   4.233   4.726   6.331
 5838SOL     OW18412   2.305   1.380   5.931
 5838SOL    HW118413   2.359   1.409   5.852
 5838SOL    HW218414   2.314   1.447   6.004
 5839SOL     OW18415   0.695   2.982   2.493
 5839SOL    HW118416   0.743   3.021   2.414
 5839SOL    HW218417   0.684   2.884   2.481
 5840SOL     OW18418   1.716   5.137   6.772
 5840SOL    HW118419   1.727   5.208   6.843
 5840SOL    HW218420   1.685   5.052   6.815
 5841SOL     OW18421   5.912   2.744   2.347
 5841SOL    HW118422   5.898   2.842   2.331
 5841SOL    HW218423   5.833   2.708   2.396
 5842SOL     OW18424   4.458   3.434   1.702
 5842SOL    HW118425   4.403   3.505   1.656
 5842SOL    HW218426   4.554   3.462   1.703
 5843SOL     OW18427   2.216   4.021   2.353
 5843SOL    HW118428   2.308   4.060   2.357
 5843SOL    HW218429   2.206   3.951   2.424
 5844SOL     OW18430   0.126   6.990   5.838
 5844SOL    HW118431   0.049   6.986   5.773
 5844SOL    HW218432   0.090   7.004   5.930
 5845SOL     OW18433   1.050   0.431   2.841
 5845SOL    HW118434   1.027   0.504   2.906
 5845SOL    HW218435   1.145   0.441   2.812
 5846SOL     OW18436   6.581   3.125   4.425
 5846SOL    HW118437   6.553   3.126   4.329
 5846SOL    HW218438   6.585   3.030   4.457
 5847SOL     OW18439   2.029   1.701   2.318
 5847SOL    HW118440   2.045   1.690   2.219
 5847SOL    HW218441   2.078   1.628   2.367
 5848SOL     OW18442   2.572   4.525   3.332
 5848SOL    HW118443   2.628   4.548   3.252
 5848SOL    HW218444   2.537   4.610   3.373
 5849SOL     OW18445   6.786   0.828   6.261
 5849SOL    HW118446   6.774   0.785   6.351
 5849SOL    HW218447   6.884   0.837   6.241
 5850SOL     OW18448   1.202   3.181   2.071
 5850SOL    HW118449   1.223   3.084   2.064
 5850SOL    HW218450   1.267   3.225   2.133
 5851SOL     OW18451   4.938   3.508   2.993
 5851SOL    HW118452   4.861   3.455   2.957
 5851SOL    HW218453   4.920   3.533   3.088
 5852SOL     OW18454   5.134   6.324   3.001
 5852SOL    HW118455   5.186   6.365   3.076
 5852SOL    HW218456   5.044   6.366   2.995
 5853SOL     OW18457   3.286   6.187   5.664
 5853SOL    HW118458   3.228   6.108   5.646
 5853SOL    HW218459   3.365   6.158   5.718
 5854SOL     OW18460   6.537   3.509   5.887
 5854SOL    HW118461   6.533   3.411   5.907
 5854SOL    HW218462   6.557   3.559   5.971
 5855SOL     OW18463   0.487   0.572   4.881
 5855SOL    HW118464   0.443   0.512   4.813
 5855SOL    HW218465   0.512   0.518   4.961
 5856SOL     OW18466   2.298   5.378   3.747
 5856SOL    HW118467   2.238   5.301   3.772
 5856SOL    HW218468   2.314   5.376   3.648
 5857SOL     OW18469   5.802   2.830   5.273
 5857SOL    HW118470   5.736   2.805   5.201
 5857SOL    HW218471   5.753   2.855   5.356
 5858SOL     OW18472   2.617   2.380   2.022
 5858SOL    HW118473   2.595   2.386   1.925
 5858SOL    HW218474   2.710   2.344   2.032
 5859SOL     OW18475   5.073   6.588   1.046
 5859SOL    HW118476   5.084   6.570   1.143
 5859SOL    HW218477   5.151   6.550   0.996
 5860SOL     OW18478   2.137   3.746   1.915
 5860SOL    HW118479   2.180   3.657   1.932
 5860SOL    HW218480   2.205   3.808   1.875
 5861SOL     OW18481   5.248   1.439   3.920
 5861SOL    HW118482   5.196   1.379   3.858
 5861SOL    HW218483   5.319   1.386   3.966
 5862SOL     OW18484   4.436   5.268   3.247
 5862SOL    HW118485   4.510   5.333   3.229
 5862SOL    HW218486   4.394   5.290   3.335
 5863SOL     OW18487   3.237   0.640   5.182
 5863SOL    HW118488   3.309   0.670   5.120
 5863SOL    HW218489   3.157   0.612   5.129
 5864SOL     OW18490   4.016   4.027   1.745
 5864SOL    HW118491   3.933   4.072   1.776
 5864SOL    HW218492   4.003   3.927   1.748
 5865SOL     OW18493   5.285   0.377   4.197
 5865SOL    HW118494   5.194   0.420   4.199
 5865SOL    HW218495   5.284   0.296   4.256
 5866SOL     OW18496   3.543   6.318   6.281
 5866SOL    HW118497   3.539   6.418   6.285
 5866SOL    HW218498   3.637   6.287   6.291
 5867SOL     OW18499   0.440   3.111   1.008
 5867SOL    HW118500   0.420   3.128   0.912
 5867SOL    HW218501   0.390   3.030   1.039
 5868SOL     OW18502   6.867   0.642   4.763
 5868SOL    HW118503   6.880   0.710   4.690
 5868SOL    HW218504   6.786   0.667   4.817
 5869SOL     OW18505   1.685   5.555   3.607
 5869SOL    HW118506   1.732   5.490   3.667
 5869SOL    HW218507   1.729   5.556   3.518
 5870SOL     OW18508   4.782   5.606   5.076
 5870SOL    HW118509   4.826   5.652   5.152
 5870SOL    HW218510   4.688   5.582   5.101
 5871SOL     OW18511   4.437   3.478   0.573
 5871SOL    HW118512   4.490   3.560   0.549
 5871SOL    HW218513   4.347   3.505   0.606
 5872SOL     OW18514   4.042   5.156   6.879
 5872SOL    HW118515   3.973   5.113   6.937
 5872SOL    HW218516   4.099   5.217   6.934
 5873SOL     OW18517   2.282   2.715   0.494
 5873SOL    HW118518   2.262   2.641   0.429
 5873SOL    HW218519   2.244   2.692   0.583
 5874SOL     OW18520   3.062   2.666   1.198
 5874SOL    HW118521   3.101   2.574   1.201
 5874SOL    HW218522   3.093   2.713   1.116
 5875SOL     OW18523   3.980   1.545   0.611
 5875SOL    HW118524   4.003   1.546   0.513
 5875SOL    HW218525   3.911   1.475   0.628
 5876SOL     OW18526   3.371   2.968   6.831
 5876SOL    HW118527   3.432   2.942   6.756
 5876SOL    HW218528   3.316   2.890   6.859
 5877SOL     OW18529   6.032   6.649   1.035
 5877SOL    HW118530   5.973   6.722   1.000
 5877SOL    HW218531   6.035   6.574   0.968
 5878SOL     OW18532   5.480   5.956   2.927
 5878SOL    HW118533   5.577   5.956   2.903
 5878SOL    HW218534   5.425   5.935   2.846
 5879SOL     OW18535   3.268   3.065   6.053
 5879SOL    HW118536   3.262   3.159   6.087
 5879SOL    HW218537   3.178   3.036   6.020
 5880SOL     OW18538   4.443   4.156   5.719
 5880SOL    HW118539   4.495   4.071   5.729
 5880SOL    HW218540   4.418   4.190   5.810
 5881SOL     OW18541   1.165   6.403   2.706
 5881SOL    HW118542   1.260   6.373   2.712
 5881SOL    HW218543   1.107   6.326   2.679
 5882SOL     OW18544   0.976   6.854   5.657
 5882SOL    HW118545   0.962   6.768   5.607
 5882SOL    HW218546   0.895   6.912   5.647
 5883SOL     OW18547   0.199   2.413   0.501
 5883SOL    HW118548   0.258   2.491   0.523
 5883SOL    HW218549   0.217   2.383   0.407
 5884SOL     OW18550   6.624   0.749   4.377
 5884SOL    HW118551   6.641   0.657   4.412
 5884SOL    HW218552   6.586   0.806   4.449
 5885SOL     OW18553   0.945   5.715   0.608
 5885SOL    HW118554   0.888   5.690   0.687
 5885SOL    HW218555   1.032   5.753   0.640
 5886SOL     OW18556   1.016   3.344   3.497
 5886SOL    HW118557   1.056   3.392   3.575
 5886SOL    HW218558   0.984   3.410   3.430
 5887SOL     OW18559   2.660   1.843   1.883
 5887SOL    HW118560   2.736   1.899   1.916
 5887SOL    HW218561   2.588   1.903   1.848
 5888SOL     OW18562   2.813   7.005   0.969
 5888SOL    HW118563   2.797   0.021   1.061
 5888SOL    HW218564   2.911   6.987   0.957
 5889SOL     OW18565   6.907   1.680   1.313
 5889SOL    HW118566   6.892   1.588   1.277
 5889SOL    HW218567   6.908   1.677   1.413
 5890SOL     OW18568   1.876   6.761   2.207
 5890SOL    HW118569   1.910   6.712   2.287
 5890SOL    HW218570   1.802   6.823   2.235
 5891SOL     OW18571   3.131   3.450   0.558
 5891SOL    HW118572   3.154   3.531   0.505
 5891SOL    HW218573   3.036   3.456   0.588
 5892SOL     OW18574   0.459   4.457   1.027
 5892SOL    HW118575   0.523   4.530   1.004
 5892SOL    HW218576   0.495   4.369   0.996
 5893SOL     OW18577   1.213   5.058   1.243
 5893SOL    HW118578   1.264   5.044   1.158
 5893SOL    HW218579   1.145   4.986   1.253
 5894SOL     OW18580   0.751   5.813   5.304
 5894SOL    HW118581   0.808   5.894   5.316
 5894SOL    HW218582   0.680   5.811   5.374
 5895SOL     OW18583   6.449   3.092   4.183
 5895SOL    HW118584   6.453   3.163   4.113
 5895SOL    HW218585   6.392   3.017   4.152
 5896SOL     OW18586   5.485   1.030   1.585
 5896SOL    HW118587   5.431   1.107   1.552
 5896SOL    HW218588   5.577   1.036   1.546
 5897SOL     OW18589   4.443   1.737   1.847
 5897SOL    HW118590   4.420   1.686   1.930
 5897SOL    HW218591   4.370   1.803   1.827
 5898SOL     OW18592   2.485   1.859   5.880
 5898SOL    HW118593   2.488   1.788   5.811
 5898SOL    HW218594   2.392   1.896   5.886
 5899SOL     OW18595   0.367   5.254   5.797
 5899SOL    HW118596   0.319   5.314   5.861
 5899SOL    HW218597   0.307   5.235   5.718
 5900SOL     OW18598   0.465   5.242   3.176
 5900SOL    HW118599   0.503   5.150   3.167
 5900SOL    HW218600   0.498   5.299   3.101
 5901SOL     OW18601   0.740   0.671   0.347
 5901SOL    HW118602   0.826   0.699   0.305
 5901SOL    HW218603   0.741   0.573   0.364
 5902SOL     OW18604   5.688   3.464   4.602
 5902SOL    HW118605   5.781   3.461   4.638
 5902SOL    HW218606   5.637   3.385   4.634
 5903SOL     OW18607   5.398   3.124   6.983
 5903SOL    HW118608   5.391   3.029   7.015
 5903SOL    HW218609   5.463   3.129   6.908
 5904SOL     OW18610   1.418   4.437   1.153
 5904SOL    HW118611   1.411   4.360   1.217
 5904SOL    HW218612   1.491   4.498   1.183
 5905SOL     OW18613   5.403   0.965   3.512
 5905SOL    HW118614   5.413   0.868   3.487
 5905SOL    HW218615   5.321   1.002   3.470
 5906SOL     OW18616   5.505   1.777   5.142
 5906SOL    HW118617   5.573   1.707   5.162
 5906SOL    HW218618   5.515   1.808   5.048
 5907SOL     OW18619   1.581   0.429   0.733
 5907SOL    HW118620   1.564   0.518   0.776
 5907SOL    HW218621   1.677   0.423   0.706
 5908SOL     OW18622   4.870   3.772   0.280
 5908SOL    HW118623   4.904   3.805   0.192
 5908SOL    HW218624   4.771   3.781   0.284
 5909SOL     OW18625   0.870   4.209   5.325
 5909SOL    HW118626   0.917   4.274   5.264
 5909SOL    HW218627   0.775   4.200   5.297
 5910SOL     OW18628   1.238   4.094   0.733
 5910SOL    HW118629   1.244   3.994   0.728
 5910SOL    HW218630   1.142   4.122   0.731
 5911SOL     OW18631   0.200   5.669   6.233
 5911SOL    HW118632   0.113   5.658   6.280
 5911SOL    HW218633   0.191   5.738   6.161
 5912SOL     OW18634   5.777   3.565   6.568
 5912SOL    HW118635   5.797   3.479   6.521
 5912SOL    HW218636   5.807   3.642   6.512
 5913SOL     OW18637   2.176   2.769   5.729
 5913SOL    HW118638   2.177   2.726   5.820
 5913SOL    HW218639   2.217   2.707   5.662
 5914SOL     OW18640   2.837   5.602   7.011
 5914SOL    HW118641   2.900   5.662   6.963
 5914SOL    HW218642   2.745   5.642   7.009
 5915SOL     OW18643   5.514   3.195   2.412
 5915SOL    HW118644   5.571   3.254   2.355
 5915SOL    HW218645   5.498   3.108   2.364
 5916SOL     OW18646   4.890   0.437   5.765
 5916SOL    HW118647   4.825   0.484   5.706
 5916SOL    HW218648   4.875   0.338   5.761
 5917SOL     OW18649   3.401   2.867   3.591
 5917SOL    HW118650   3.391   2.855   3.690
 5917SOL    HW218651   3.312   2.858   3.548
 5918SOL     OW18652   1.791   3.762   4.696
 5918SOL    HW118653   1.714   3.714   4.739
 5918SOL    HW218654   1.807   3.722   4.605
 5919SOL     OW18655   2.932   1.942   0.903
 5919SOL    HW118656   2.963   2.000   0.978
 5919SOL    HW218657   2.969   1.850   0.914
 5920SOL     OW18658   3.514   0.069   0.118
 5920SOL    HW118659   3.603   0.028   0.095
 5920SOL    HW218660   3.486   0.039   0.209
 5921SOL     OW18661   3.942   5.170   5.266
 5921SOL    HW118662   3.934   5.167   5.365
 5921SOL    HW218663   3.992   5.252   5.239
 5922SOL     OW18664   6.333   4.748   3.237
 5922SOL    HW118665   6.254   4.806   3.258
 5922SOL    HW218666   6.301   4.662   3.196
 5923SOL     OW18667   6.641   0.678   3.375
 5923SOL    HW118668   6.736   0.694   3.403
 5923SOL    HW218669   6.639   0.615   3.298
 5924SOL     OW18670   5.503   2.538   5.068
 5924SOL    HW118671   5.448   2.520   4.986
 5924SOL    HW218672   5.444   2.573   5.141
 5925SOL     OW18673   4.734   5.959   3.023
 5925SOL    HW118674   4.736   6.059   3.018
 5925SOL    HW218675   4.760   5.921   2.934
 5926SOL     OW18676   3.589   5.261   1.940
 5926SOL    HW118677   3.533   5.185   1.907
 5926SOL    HW218678   3.552   5.347   1.906
 5927SOL     OW18679   2.529   5.223   1.405
 5927SOL    HW118680   2.566   5.194   1.493
 5927SOL    HW218681   2.528   5.145   1.341
 5928SOL     OW18682   2.452   0.873   2.176
 5928SOL    HW118683   2.529   0.902   2.119
 5928SOL    HW218684   2.389   0.949   2.189
 5929SOL     OW18685   0.915   6.262   5.752
 5929SOL    HW118686   0.996   6.302   5.793
 5929SOL    HW218687   0.861   6.333   5.707
 5930SOL     OW18688   6.035   1.428   4.216
 5930SOL    HW118689   6.103   1.436   4.143
 5930SOL    HW218690   6.050   1.342   4.266
 5931SOL     OW18691   6.232   5.107   2.202
 5931SOL    HW118692   6.197   5.138   2.114
 5931SOL    HW218693   6.276   5.183   2.250
 5932SOL     OW18694   2.193   6.455   0.975
 5932SOL    HW118695   2.197   6.521   1.051
 5932SOL    HW218696   2.108   6.402   0.982
 5933SOL     OW18697   0.274   4.035   2.246
 5933SOL    HW118698   0.258   4.069   2.339
 5933SOL    HW218699   0.270   4.111   2.182
 5934SOL     OW18700   4.095   3.682   3.106
 5934SOL    HW118701   4.147   3.734   3.039
 5934SOL    HW218702   4.117   3.714   3.198
 5935SOL     OW18703   3.911   4.067   4.484
 5935SOL    HW118704   4.009   4.085   4.480
 5935SOL    HW218705   3.888   3.990   4.424
 5936SOL     OW18706   4.020   3.991   6.478
 5936SOL    HW118707   3.983   4.083   6.488
 5936SOL    HW218708   3.965   3.927   6.532
 5937SOL     OW18709   0.986   3.554   1.782
 5937SOL    HW118710   0.968   3.483   1.850
 5937SOL    HW218711   1.080   3.587   1.793
 5938SOL     OW18712   1.544   5.153   3.546
 5938SOL    HW118713   1.448   5.173   3.526
 5938SOL    HW218714   1.564   5.176   3.641
 5939SOL     OW18715   3.207   0.646   3.158
 5939SOL    HW118716   3.306   0.653   3.170
 5939SOL    HW218717   3.162   0.655   3.246
 5940SOL     OW18718   3.926   6.668   2.257
 5940SOL    HW118719   3.902   6.623   2.171
 5940SOL    HW218720   3.849   6.722   2.289
 5941SOL     OW18721   6.207   4.523   2.182
 5941SOL    HW118722   6.212   4.424   2.196
 5941SOL    HW218723   6.151   4.542   2.101
 5942SOL     OW18724   4.247   2.964   6.706
 5942SOL    HW118725   4.319   2.907   6.667
 5942SOL    HW218726   4.253   2.963   6.806
 5943SOL     OW18727   2.624   6.228   0.416
 5943SOL    HW118728   2.593   6.247   0.323
 5943SOL    HW218729   2.547   6.237   0.479
 5944SOL     OW18730   5.521   1.343   1.695
 5944SOL    HW118731   5.441   1.329   1.637
 5944SOL    HW218732   5.492   1.369   1.787
 5945SOL     OW18733   6.720   4.637   5.136
 5945SOL    HW118734   6.631   4.593   5.124
 5945SOL    HW218735   6.718   4.694   5.218
 5946SOL     OW18736   3.122   3.925   5.920
 5946SOL    HW118737   3.218   3.944   5.941
 5946SOL    HW218738   3.110   3.922   5.821
 5947SOL     OW18739   4.199   2.988   1.702
 5947SOL    HW118740   4.268   3.058   1.688
 5947SOL    HW218741   4.141   3.013   1.779
 5948SOL     OW18742   3.857   5.193   3.117
 5948SOL    HW118743   3.827   5.120   3.055
 5948SOL    HW218744   3.863   5.156   3.210
 5949SOL     OW18745   3.691   4.595   1.021
 5949SOL    HW118746   3.695   4.636   0.930
 5949SOL    HW218747   3.596   4.579   1.047
 5950SOL     OW18748   5.630   2.180   4.684
 5950SOL    HW118749   5.670   2.234   4.611
 5950SOL    HW218750   5.654   2.083   4.671
 5951SOL     OW18751   1.441   6.520   4.612
 5951SOL    HW118752   1.439   6.619   4.597
 5951SOL    HW218753   1.434   6.501   4.710
 5952SOL     OW18754   6.312   5.949   3.616
 5952SOL    HW118755   6.331   5.900   3.531
 5952SOL    HW218756   6.232   6.008   3.603
 5953SOL     OW18757   0.111   3.296   5.164
 5953SOL    HW118758   0.151   3.229   5.102
 5953SOL    HW218759   0.060   3.249   5.236
 5954SOL     OW18760   6.850   4.707   5.617
 5954SOL    HW118761   6.893   4.789   5.579
 5954SOL    HW218762   6.857   4.632   5.552
 5955SOL     OW18763   5.927   5.792   2.299
 5955SOL    HW118764   5.984   5.855   2.352
 5955SOL    HW218765   5.893   5.720   2.359
 5956SOL     OW18766   4.036   1.965   0.422
 5956SOL    HW118767   3.956   1.984   0.478
 5956SOL    HW218768   4.008   1.917   0.339
 5957SOL     OW18769   4.802   6.713   6.079
 5957SOL    HW118770   4.861   6.781   6.036
 5957SOL    HW218771   4.851   6.672   6.157
 5958SOL     OW18772   6.376   6.522   2.103
 5958SOL    HW118773   6.349   6.554   2.193
 5958SOL    HW218774   6.471   6.490   2.106
 5959SOL     OW18775   3.408   2.071   5.475
 5959SOL    HW118776   3.377   1.979   5.449
 5959SOL    HW218777   3.401   2.132   5.396
 5960SOL     OW18778   3.414   0.352   4.400
 5960SOL    HW118779   3.501   0.334   4.355
 5960SOL    HW218780   3.339   0.308   4.350
 5961SOL     OW18781   3.941   1.046   3.808
 5961SOL    HW118782   3.975   0.952   3.800
 5961SOL    HW218783   3.929   1.069   3.904
 5962SOL     OW18784   5.216   5.264   2.546
 5962SOL    HW118785   5.224   5.277   2.447
 5962SOL    HW218786   5.125   5.292   2.575
 5963SOL     OW18787   3.471   3.931   3.792
 5963SOL    HW118788   3.462   3.939   3.693
 5963SOL    HW218789   3.409   3.995   3.837
 5964SOL     OW18790   6.898   5.418   6.264
 5964SOL    HW118791   6.929   5.461   6.348
 5964SOL    HW218792   6.800   5.400   6.269
 5965SOL     OW18793   1.763   2.123   6.947
 5965SOL    HW118794   1.831   2.195   6.934
 5965SOL    HW218795   1.748   2.075   6.861
 5966SOL     OW18796   2.981   5.480   5.032
 5966SOL    HW118797   2.932   5.567   5.039
 5966SOL    HW218798   2.917   5.407   5.007
 5967SOL     OW18799   4.066   6.294   2.361
 5967SOL    HW118800   3.974   6.327   2.378
 5967SOL    HW218801   4.130   6.371   2.359
 5968SOL     OW18802   6.258   1.903   3.260
 5968SOL    HW118803   6.309   1.818   3.276
 5968SOL    HW218804   6.223   1.904   3.167
 5969SOL     OW18805   6.279   3.041   4.466
 5969SOL    HW118806   6.307   3.074   4.376
 5969SOL    HW218807   6.179   3.039   4.471
 5970SOL     OW18808   0.923   3.770   2.390
 5970SOL    HW118809   0.834   3.806   2.364
 5970SOL    HW218810   0.990   3.790   2.318
 5971SOL     OW18811   1.559   0.237   2.986
 5971SOL    HW118812   1.470   0.208   2.951
 5971SOL    HW218813   1.548   0.319   3.042
 5972SOL     OW18814   4.408   6.443   0.514
 5972SOL    HW118815   4.507   6.456   0.528
 5972SOL    HW218816   4.360   6.460   0.599
 5973SOL     OW18817   1.866   5.017   2.431
 5973SOL    HW118818   1.809   5.086   2.474
 5973SOL    HW218819   1.813   4.968   2.361
 5974SOL     OW18820   5.990   4.122   6.217
 5974SOL    HW118821   5.941   4.042   6.182
 5974SOL    HW218822   6.072   4.136   6.161
 5975SOL     OW18823   4.060   2.613   1.182
 5975SOL    HW118824   4.064   2.535   1.245
 5975SOL    HW218825   4.145   2.665   1.190
 5976SOL     OW18826   3.164   3.041   4.522
 5976SOL    HW118827   3.096   3.009   4.458
 5976SOL    HW218828   3.188   3.136   4.500
 5977SOL     OW18829   1.296   4.316   1.585
 5977SOL    HW118830   1.388   4.341   1.614
 5977SOL    HW218831   1.237   4.304   1.664
 5978SOL     OW18832   4.930   4.341   2.877
 5978SOL    HW118833   4.985   4.262   2.850
 5978SOL    HW218834   4.981   4.425   2.858
 5979SOL     OW18835   6.349   0.241   3.273
 5979SOL    HW118836   6.390   0.283   3.354
 5979SOL    HW218837   6.391   0.152   3.256
 5980SOL     OW18838   4.053   4.366   6.966
 5980SOL    HW118839   4.067   4.289   0.008
 5980SOL    HW218840   4.120   4.361   6.892
 5981SOL     OW18841   7.006   1.972   1.713
 5981SOL    HW118842   7.014   1.961   1.614
 5981SOL    HW218843   6.913   2.000   1.736
 5982SOL     OW18844   6.277   2.024   6.676
 5982SOL    HW118845   6.255   2.055   6.583
 5982SOL    HW218846   6.201   1.971   6.712
 5983SOL     OW18847   2.236   1.495   4.204
 5983SOL    HW118848   2.194   1.441   4.132
 5983SOL    HW218849   2.170   1.511   4.277
 5984SOL     OW18850   0.342   6.530   4.506
 5984SOL    HW118851   0.374   6.578   4.425
 5984SOL    HW218852   0.327   6.433   4.484
 5985SOL     OW18853   5.499   2.196   3.682
 5985SOL    HW118854   5.573   2.136   3.652
 5985SOL    HW218855   5.533   2.289   3.693
 5986SOL     OW18856   3.264   3.165   3.873
 5986SOL    HW118857   3.240   3.186   3.778
 5986SOL    HW218858   3.290   3.250   3.920
 5987SOL     OW18859   4.523   0.748   5.011
 5987SOL    HW118860   4.570   0.823   4.966
 5987SOL    HW218861   4.559   0.661   4.978
 5988SOL     OW18862   3.996   6.958   4.650
 5988SOL    HW118863   3.900   6.946   4.623
 5988SOL    HW218864   4.048   6.877   4.623
 5989SOL     OW18865   2.641   6.275   6.572
 5989SOL    HW118866   2.560   6.262   6.515
 5989SOL    HW218867   2.695   6.351   6.537
 5990SOL     OW18868   3.815   4.239   0.617
 5990SOL    HW118869   3.736   4.206   0.566
 5990SOL    HW218870   3.873   4.162   0.642
 5991SOL     OW18871   4.308   5.012   5.063
 5991SOL    HW118872   4.393   5.061   5.042
 5991SOL    HW218873   4.247   5.016   4.985
 5992SOL     OW18874   3.457   1.017   4.373
 5992SOL    HW118875   3.419   0.990   4.461
 5992SOL    HW218876   3.482   0.936   4.321
 5993SOL     OW18877   3.424   6.606   5.145
 5993SOL    HW118878   3.446   6.513   5.176
 5993SOL    HW218879   3.413   6.606   5.046
 5994SOL     OW18880   6.161   2.457   1.756
 5994SOL    HW118881   6.069   2.443   1.793
 5994SOL    HW218882   6.229   2.444   1.829
 5995SOL     OW18883   0.496   4.850   1.222
 5995SOL    HW118884   0.449   4.770   1.181
 5995SOL    HW218885   0.441   4.932   1.206
 5996SOL     OW18886   0.555   5.852   6.524
 5996SOL    HW118887   0.469   5.849   6.577
 5996SOL    HW218888   0.537   5.820   6.431
 5997SOL     OW18889   0.401   0.131   2.259
 5997SOL    HW118890   0.323   0.194   2.253
 5997SOL    HW218891   0.473   0.162   2.196
 5998SOL     OW18892   5.690   2.620   2.641
 5998SOL    HW118893   5.592   2.610   2.654
 5998SOL    HW218894   5.736   2.532   2.656
 5999SOL     OW18895   0.846   1.947   3.317
 5999SOL    HW118896   0.803   1.857   3.325
 5999SOL    HW218897   0.785   2.008   3.265
 6000SOL     OW18898   3.848   5.418   2.002
 6000SOL    HW118899   3.765   5.362   2.004
 6000SOL    HW218900   3.928   5.357   2.003
 6001SOL     OW18901   0.119   3.422   6.864
 6001SOL    HW118902   0.183   3.440   6.790
 6001SOL    HW218903   0.037   3.478   6.852
 6002SOL     OW18904   0.141   6.480   0.943
 6002SOL    HW118905   0.154   6.548   1.015
 6002SOL    HW218906   0.224   6.426   0.932
 6003SOL     OW18907   5.615   3.523   5.066
 6003SOL    HW118908   5.570   3.532   5.155
 6003SOL    HW218909   5.599   3.432   5.029
 6004SOL     OW18910   0.387   3.840   3.379
 6004SOL    HW118911   0.446   3.916   3.354
 6004SOL    HW218912   0.367   3.843   3.477
 6005SOL     OW18913   4.218   5.294   3.971
 6005SOL    HW118914   4.251   5.378   4.014
 6005SOL    HW218915   4.296   5.238   3.943
 6006SOL     OW18916   3.523   0.337   6.840
 6006SOL    HW118917   3.464   0.417   6.846
 6006SOL    HW218918   3.511   0.280   6.922
 6007SOL     OW18919   5.033   2.993   3.266
 6007SOL    HW118920   5.120   2.952   3.238
 6007SOL    HW218921   4.994   3.045   3.190
 6008SOL     OW18922   3.231   5.567   5.819
 6008SOL    HW118923   3.302   5.510   5.778
 6008SOL    HW218924   3.147   5.514   5.829
 6009SOL     OW18925   2.714   2.024   4.907
 6009SOL    HW118926   2.744   2.050   4.815
 6009SOL    HW218927   2.642   1.955   4.900
 6010SOL     OW18928   1.865   4.398   2.242
 6010SOL    HW118929   1.785   4.444   2.204
 6010SOL    HW218930   1.839   4.348   2.324
 6011SOL     OW18931   5.214   2.297   1.955
 6011SOL    HW118932   5.123   2.336   1.966
 6011SOL    HW218933   5.212   2.225   1.886
 6012SOL     OW18934   6.613   2.055   0.036
 6012SOL    HW118935   6.612   2.065   6.957
 6012SOL    HW218936   6.585   2.141   0.079
 6013SOL     OW18937   6.129   1.897   2.030
 6013SOL    HW118938   6.183   1.834   1.974
 6013SOL    HW218939   6.141   1.990   1.995
 6014SOL     OW18940   5.465   1.512   0.549
 6014SOL    HW118941   5.562   1.498   0.525
 6014SOL    HW218942   5.459   1.577   0.624
 6015SOL     OW18943   6.126   3.061   5.617
 6015SOL    HW118944   6.081   3.063   5.528
 6015SOL    HW218945   6.159   2.968   5.636
 6016SOL     OW18946   0.429   1.308   5.983
 6016SOL    HW118947   0.493   1.241   5.944
 6016SOL    HW218948   0.475   1.360   6.055
 6017SOL     OW18949   5.722   5.469   3.123
 6017SOL    HW118950   5.795   5.461   3.191
 6017SOL    HW218951   5.714   5.383   3.073
 6018SOL     OW18952   3.261   3.210   0.205
 6018SOL    HW118953   3.306   3.126   0.175
 6018SOL    HW218954   3.173   3.187   0.247
 6019SOL     OW18955   4.200   1.625   3.618
 6019SOL    HW118956   4.173   1.644   3.524
 6019SOL    HW218957   4.288   1.578   3.618
 6020SOL     OW18958   3.069   7.015   2.528
 6020SOL    HW118959   3.138   0.066   2.543
 6020SOL    HW218960   3.114   6.925   2.522
 6021SOL     OW18961   4.637   0.416   2.703
 6021SOL    HW118962   4.692   0.332   2.699
 6021SOL    HW218963   4.697   0.495   2.715
 6022SOL     OW18964   4.773   1.238   3.614
 6022SOL    HW118965   4.763   1.201   3.522
 6022SOL    HW218966   4.809   1.168   3.675
 6023SOL     OW18967   6.063   1.057   3.606
 6023SOL    HW118968   6.029   1.056   3.700
 6023SOL    HW218969   6.147   1.111   3.601
 6024SOL     OW18970   0.645   4.616   1.897
 6024SOL    HW118971   0.676   4.606   1.802
 6024SOL    HW218972   0.712   4.670   1.948
 6025SOL     OW18973   4.428   0.398   1.468
 6025SOL    HW118974   4.410   0.493   1.495
 6025SOL    HW218975   4.513   0.393   1.415
 6026SOL     OW18976   0.533   4.696   4.342
 6026SOL    HW118977   0.481   4.612   4.357
 6026SOL    HW218978   0.521   4.757   4.421
 6027SOL     OW18979   2.000   4.065   6.049
 6027SOL    HW118980   2.014   4.134   5.978
 6027SOL    HW218981   1.964   4.108   6.131
 6028SOL     OW18982   1.313   3.871   0.039
 6028SOL    HW118983   1.294   3.805   0.112
 6028SOL    HW218984   1.260   3.954   0.054
 6029SOL     OW18985   2.306   6.481   0.105
 6029SOL    HW118986   2.303   6.408   0.173
 6029SOL    HW218987   2.261   6.563   0.142
 6030SOL     OW18988   2.375   0.711   3.467
 6030SOL    HW118989   2.353   0.663   3.382
 6030SOL    HW218990   2.399   0.806   3.445
 6031SOL     OW18991   4.856   5.718   5.308
 6031SOL    HW118992   4.803   5.796   5.342
 6031SOL    HW218993   4.953   5.737   5.319
 6032SOL     OW18994   1.877   3.409   2.466
 6032SOL    HW118995   1.818   3.338   2.503
 6032SOL    HW218996   1.973   3.386   2.482
 6033SOL     OW18997   2.183   2.404   3.328
 6033SOL    HW118998   2.154   2.328   3.386
 6033SOL    HW218999   2.208   2.371   3.237
 6034SOL     OW19000   2.551   4.807   4.504
 6034SOL    HW119001   2.603   4.771   4.582
 6034SOL    HW219002   2.614   4.846   4.437
 6035SOL     OW19003   5.219   0.881   4.365
 6035SOL    HW119004   5.231   0.950   4.294
 6035SOL    HW219005   5.139   0.824   4.343
 6036SOL     OW19006   0.099   0.050   5.233
 6036SOL    HW119007   0.082   0.099   5.319
 6036SOL    HW219008   0.039   0.086   5.162
 6037SOL     OW19009   4.862   4.820   6.404
 6037SOL    HW119010   4.869   4.877   6.323
 6037SOL    HW219011   4.855   4.724   6.377
 6038SOL     OW19012   0.178   3.064   6.428
 6038SOL    HW119013   0.213   3.033   6.516
 6038SOL    HW219014   0.225   3.148   6.401
 6039SOL     OW19015   3.443   3.422   2.666
 6039SOL    HW119016   3.522   3.431   2.725
 6039SOL    HW219017   3.459   3.471   2.580
 6040SOL     OW19018   0.306   1.587   6.376
 6040SOL    HW119019   0.262   1.537   6.450
 6040SOL    HW219020   0.346   1.523   6.310
 6041SOL     OW19021   1.461   2.008   6.616
 6041SOL    HW119022   1.390   1.975   6.677
 6041SOL    HW219023   1.425   2.081   6.559
 6042SOL     OW19024   5.662   5.073   2.452
 6042SOL    HW119025   5.609   5.094   2.370
 6042SOL    HW219026   5.614   5.108   2.533
 6043SOL     OW19027   1.200   5.104   5.119
 6043SOL    HW119028   1.153   5.159   5.050
 6043SOL    HW219029   1.271   5.050   5.075
 6044SOL     OW19030   0.052   1.807   1.084
 6044SOL    HW119031   7.000   1.782   1.149
 6044SOL    HW219032   0.023   1.784   0.991
 6045SOL     OW19033   5.321   5.456   0.646
 6045SOL    HW119034   5.420   5.445   0.640
 6045SOL    HW219035   5.297   5.501   0.732
 6046SOL     OW19036   2.967   2.375   0.851
 6046SOL    HW119037   2.987   2.329   0.938
 6046SOL    HW219038   3.016   2.329   0.777
 6047SOL     OW19039   5.949   1.027   4.399
 6047SOL    HW119040   6.041   1.065   4.382
 6047SOL    HW219041   5.900   1.021   4.312
 6048SOL     OW19042   3.473   0.161   3.165
 6048SOL    HW119043   3.419   0.080   3.190
 6048SOL    HW219044   3.415   0.242   3.170
 6049SOL     OW19045   4.459   3.137   6.417
 6049SOL    HW119046   4.543   3.149   6.470
 6049SOL    HW219047   4.482   3.127   6.320
 6050SOL     OW19048   4.051   4.167   5.960
 6050SOL    HW119049   3.966   4.160   5.908
 6050SOL    HW219050   4.087   4.076   5.978
 6051SOL     OW19051   2.141   2.527   2.803
 6051SOL    HW119052   2.135   2.449   2.741
 6051SOL    HW219053   2.053   2.573   2.807
 6052SOL     OW19054   6.668   0.390   0.137
 6052SOL    HW119055   6.669   0.488   0.114
 6052SOL    HW219056   6.598   0.344   0.081
 6053SOL     OW19057   3.522   0.450   0.123
 6053SOL    HW119058   3.622   0.450   0.128
 6053SOL    HW219059   3.485   0.406   0.205
 6054SOL     OW19060   2.267   4.146   1.309
 6054SOL    HW119061   2.296   4.092   1.231
 6054SOL    HW219062   2.280   4.093   1.393
 6055SOL     OW19063   5.562   0.837   5.476
 6055SOL    HW119064   5.571   0.845   5.575
 6055SOL    HW219065   5.470   0.862   5.448
 6056SOL     OW19066   4.172   1.492   5.646
 6056SOL    HW119067   4.251   1.438   5.615
 6056SOL    HW219068   4.156   1.475   5.743
 6057SOL     OW19069   4.701   1.478   4.632
 6057SOL    HW119070   4.793   1.515   4.624
 6057SOL    HW219071   4.637   1.552   4.654
 6058SOL     OW19072   5.807   2.859   3.431
 6058SOL    HW119073   5.835   2.938   3.486
 6058SOL    HW219074   5.772   2.787   3.490
 6059SOL     OW19075   4.652   5.277   6.215
 6059SOL    HW119076   4.635   5.208   6.286
 6059SOL    HW219077   4.565   5.299   6.170
 6060SOL     OW19078   3.431   4.211   6.084
 6060SOL    HW119079   3.352   4.264   6.115
 6060SOL    HW219080   3.498   4.272   6.041
 6061SOL     OW19081   3.308   2.392   6.903
 6061SOL    HW119082   3.389   2.350   6.944
 6061SOL    HW219083   3.333   2.438   6.818
 6062SOL     OW19084   2.428   1.528   4.672
 6062SOL    HW119085   2.490   1.552   4.746
 6062SOL    HW219086   2.475   1.467   4.608
 6063SOL     OW19087   4.195   0.988   6.207
 6063SOL    HW119088   4.199   1.055   6.133
 6063SOL    HW219089   4.112   1.002   6.260
 6064SOL     OW19090   1.817   5.469   2.916
 6064SOL    HW119091   1.911   5.495   2.940
 6064SOL    HW219092   1.814   5.371   2.897
 6065SOL     OW19093   6.307   6.625   1.068
 6065SOL    HW119094   6.209   6.628   1.048
 6065SOL    HW219095   6.334   6.531   1.088
 6066SOL     OW19096   5.095   1.401   1.521
 6066SOL    HW119097   5.061   1.444   1.438
 6066SOL    HW219098   5.025   1.339   1.557
 6067SOL     OW19099   6.060   1.895   6.454
 6067SOL    HW119100   6.121   1.974   6.463
 6067SOL    HW219101   5.970   1.926   6.423
 6068SOL     OW19102   5.015   3.219   4.970
 6068SOL    HW119103   4.952   3.153   4.929
 6068SOL    HW219104   4.967   3.273   5.038
 6069SOL     OW19105   6.822   3.822   6.300
 6069SOL    HW119106   6.841   3.746   6.362
 6069SOL    HW219107   6.905   3.847   6.251
 6070SOL     OW19108   3.499   2.340   6.631
 6070SOL    HW119109   3.565   2.300   6.568
 6070SOL    HW219110   3.444   2.268   6.672
 6071SOL     OW19111   4.024   5.767   5.780
 6071SOL    HW119112   3.977   5.685   5.814
 6071SOL    HW219113   4.048   5.826   5.857
 6072SOL     OW19114   1.025   1.427   1.872
 6072SOL    HW119115   1.061   1.383   1.955
 6072SOL    HW219116   0.975   1.509   1.897
 6073SOL     OW19117   6.012   3.106   0.608
 6073SOL    HW119118   6.089   3.128   0.548
 6073SOL    HW219119   5.991   3.009   0.602
 6074SOL     OW19120   0.740   0.039   4.591
 6074SOL    HW119121   0.686   0.108   4.542
 6074SOL    HW219122   0.756   6.981   4.532
 6075SOL     OW19123   6.527   2.688   6.823
 6075SOL    HW119124   6.550   2.724   6.913
 6075SOL    HW219125   6.428   2.694   6.809
 6076SOL     OW19126   2.463   6.883   5.140
 6076SOL    HW119127   2.392   6.933   5.092
 6076SOL    HW219128   2.552   6.901   5.097
 6077SOL     OW19129   4.945   5.728   2.303
 6077SOL    HW119130   4.949   5.651   2.239
 6077SOL    HW219131   5.025   5.725   2.364
 6078SOL     OW19132   3.438   4.952   3.510
 6078SOL    HW119133   3.517   4.998   3.470
 6078SOL    HW219134   3.392   5.015   3.573
 6079SOL     OW19135   2.419   3.591   6.848
 6079SOL    HW119136   2.474   3.609   6.767
 6079SOL    HW219137   2.432   3.664   6.915
 6080SOL     OW19138   6.747   1.840   0.875
 6080SOL    HW119139   6.714   1.839   0.969
 6080SOL    HW219140   6.727   1.929   0.834
 6081SOL     OW19141   6.266   3.737   4.422
 6081SOL    HW119142   6.168   3.737   4.441
 6081SOL    HW219143   6.316   3.709   4.504
 6082SOL     OW19144   3.432   0.612   2.952
 6082SOL    HW119145   3.522   0.623   2.910
 6082SOL    HW219146   3.416   0.687   3.017
 6083SOL     OW19147   1.363   5.356   6.170
 6083SOL    HW119148   1.405   5.442   6.199
 6083SOL    HW219149   1.374   5.287   6.242
 6084SOL     OW19150   6.947   5.038   4.226
 6084SOL    HW119151   6.980   4.976   4.297
 6084SOL    HW219152   6.903   5.117   4.269
 6085SOL     OW19153   6.913   4.163   0.493
 6085SOL    HW119154   6.867   4.146   0.405
 6085SOL    HW219155   6.864   4.115   0.566
 6086SOL     OW19156   3.700   1.206   4.621
 6086SOL    HW119157   3.791   1.243   4.605
 6086SOL    HW219158   3.660   1.248   4.702
 6087SOL     OW19159   5.614   6.883   0.201
 6087SOL    HW119160   5.687   6.910   0.139
 6087SOL    HW219161   5.554   6.817   0.156
 6088SOL     OW19162   6.993   6.240   4.486
 6088SOL    HW119163   6.905   6.263   4.446
 6088SOL    HW219164   6.982   6.220   4.583
 6089SOL     OW19165   0.536   3.436   1.519
 6089SOL    HW119166   0.620   3.444   1.465
 6089SOL    HW219167   0.463   3.400   1.461
 6090SOL     OW19168   0.951   6.086   5.998
 6090SOL    HW119169   0.974   6.009   5.939
 6090SOL    HW219170   0.920   6.163   5.942
 6091SOL     OW19171   0.484   1.285   1.892
 6091SOL    HW119172   0.565   1.320   1.940
 6091SOL    HW219173   0.485   1.185   1.893
 6092SOL     OW19174   2.605   0.798   2.798
 6092SOL    HW119175   2.631   0.702   2.806
 6092SOL    HW219176   2.579   0.818   2.703
 6093SOL     OW19177   1.769   2.928   1.737
 6093SOL    HW119178   1.769   3.024   1.764
 6093SOL    HW219179   1.833   2.877   1.795
 6094SOL     OW19180   1.962   1.506   1.631
 6094SOL    HW119181   2.044   1.451   1.648
 6094SOL    HW219182   1.974   1.557   1.545
 6095SOL     OW19183   4.977   2.621   0.216
 6095SOL    HW119184   4.889   2.619   0.169
 6095SOL    HW219185   4.982   2.702   0.275
 6096SOL     OW19186   5.500   0.896   4.175
 6096SOL    HW119187   5.548   0.959   4.236
 6096SOL    HW219188   5.505   0.803   4.213
 6097SOL     OW19189   2.320   0.548   2.668
 6097SOL    HW119190   2.260   0.469   2.653
 6097SOL    HW219191   2.271   0.632   2.647
 6098SOL     OW19192   1.888   2.228   6.166
 6098SOL    HW119193   1.984   2.244   6.191
 6098SOL    HW219194   1.857   2.299   6.103
 6099SOL     OW19195   5.817   5.821   5.381
 6099SOL    HW119196   5.845   5.876   5.303
 6099SOL    HW219197   5.898   5.791   5.432
 6100SOL     OW19198   6.646   3.679   6.107
 6100SOL    HW119199   6.700   3.732   6.172
 6100SOL    HW219200   6.572   3.736   6.071
 6101SOL     OW19201   6.657   2.215   5.838
 6101SOL    HW119202   6.585   2.147   5.853
 6101SOL    HW219203   6.688   2.250   5.926
 6102SOL     OW19204   2.911   0.818   4.427
 6102SOL    HW119205   2.924   0.820   4.328
 6102SOL    HW219206   2.875   0.729   4.455
 6103SOL     OW19207   0.155   0.391   3.550
 6103SOL    HW119208   0.096   0.453   3.602
 6103SOL    HW219209   0.210   0.445   3.485
 6104SOL     OW19210   5.866   2.079   6.624
 6104SOL    HW119211   5.769   2.060   6.637
 6104SOL    HW219212   5.920   2.020   6.683
 6105SOL     OW19213   3.479   6.362   5.227
 6105SOL    HW119214   3.509   6.268   5.209
 6105SOL    HW219215   3.480   6.380   5.325
 6106SOL     OW19216   2.975   5.030   6.026
 6106SOL    HW119217   2.926   5.065   6.105
 6106SOL    HW219218   2.933   5.065   5.942
 6107SOL     OW19219   2.201   4.750   4.441
 6107SOL    HW119220   2.274   4.793   4.495
 6107SOL    HW219221   2.239   4.673   4.391
 6108SOL     OW19222   1.024   1.622   3.833
 6108SOL    HW119223   1.054   1.708   3.874
 6108SOL    HW219224   1.060   1.614   3.740
 6109SOL     OW19225   5.272   2.402   0.296
 6109SOL    HW119226   5.279   2.498   0.267
 6109SOL    HW219227   5.185   2.364   0.262
 6110SOL     OW19228   2.892   2.816   6.281
 6110SOL    HW119229   2.988   2.788   6.274
 6110SOL    HW219230   2.878   2.866   6.366
 6111SOL     OW19231   0.929   4.874   2.660
 6111SOL    HW119232   1.018   4.835   2.683
 6111SOL    HW219233   0.907   4.855   2.565
 6112SOL     OW19234   1.807   2.010   3.107
 6112SOL    HW119235   1.882   1.944   3.108
 6112SOL    HW219236   1.721   1.962   3.094
 6113SOL     OW19237   1.096   0.704   6.811
 6113SOL    HW119238   1.089   0.655   6.724
 6113SOL    HW219239   1.035   0.784   6.809
 6114SOL     OW19240   5.617   5.550   6.958
 6114SOL    HW119241   5.568   5.594   0.013
 6114SOL    HW219242   5.571   5.465   6.934
 6115SOL     OW19243   4.734   5.390   3.027
 6115SOL    HW119244   4.801   5.442   2.974
 6115SOL    HW219245   4.772   5.370   3.118
 6116SOL     OW19246   2.877   1.056   1.546
 6116SOL    HW119247   2.968   1.050   1.506
 6116SOL    HW219248   2.861   1.148   1.582
 6117SOL     OW19249   5.982   0.031   4.515
 6117SOL    HW119250   5.996   0.001   4.420
 6117SOL    HW219251   5.953   6.973   4.570
 6118SOL     OW19252   6.647   1.832   2.107
 6118SOL    HW119253   6.682   1.853   2.198
 6118SOL    HW219254   6.672   1.904   2.043
 6119SOL     OW19255   0.420   4.584   4.703
 6119SOL    HW119256   0.350   4.653   4.720
 6119SOL    HW219257   0.390   4.496   4.741
 6120SOL     OW19258   2.913   6.498   3.936
 6120SOL    HW119259   2.835   6.462   3.988
 6120SOL    HW219260   2.886   6.582   3.889
 6121SOL     OW19261   0.286   2.753   3.979
 6121SOL    HW119262   0.361   2.788   4.035
 6121SOL    HW219263   0.243   2.830   3.931
 6122SOL     OW19264   3.633   6.161   2.796
 6122SOL    HW119265   3.568   6.183   2.723
 6122SOL    HW219266   3.596   6.088   2.852
 6123SOL     OW19267   0.019   0.698   1.107
 6123SOL    HW119268   0.049   0.794   1.108
 6123SOL    HW219269   6.990   0.678   1.192
 6124SOL     OW19270   4.267   0.028   5.109
 6124SOL    HW119271   4.251   7.005   5.020
 6124SOL    HW219272   4.179   0.043   5.155
 6125SOL     OW19273   2.622   5.785   1.405
 6125SOL    HW119274   2.663   5.861   1.355
 6125SOL    HW219275   2.596   5.816   1.496
 6126SOL     OW19276   5.155   5.700   4.349
 6126SOL    HW119277   5.083   5.658   4.293
 6126SOL    HW219278   5.140   5.799   4.353
 6127SOL     OW19279   3.191   0.005   1.489
 6127SOL    HW119280   3.264   6.957   1.488
 6127SOL    HW219281   3.102   6.980   1.487
 6128SOL     OW19282   0.119   3.485   0.755
 6128SOL    HW119283   0.052   3.508   0.685
 6128SOL    HW219284   0.210   3.515   0.725
 6129SOL     OW19285   6.454   3.849   3.095
 6129SOL    HW119286   6.390   3.910   3.143
 6129SOL    HW219287   6.415   3.758   3.090
 6130SOL     OW19288   6.041   2.788   4.258
 6130SOL    HW119289   6.008   2.829   4.343
 6130SOL    HW219290   5.973   2.803   4.186
 6131SOL     OW19291   6.637   1.283   5.674
 6131SOL    HW119292   6.637   1.383   5.678
 6131SOL    HW219293   6.720   1.252   5.627
 6132SOL     OW19294   3.992   1.728   0.801
 6132SOL    HW119295   3.942   1.712   0.887
 6132SOL    HW219296   3.959   1.665   0.731
 6133SOL     OW19297   0.771   3.217   1.748
 6133SOL    HW119298   0.853   3.263   1.714
 6133SOL    HW219299   0.720   3.279   1.808
 6134SOL     OW19300   3.509   3.330   6.712
 6134SOL    HW119301   3.518   3.429   6.725
 6134SOL    HW219302   3.573   3.283   6.773
 6135SOL     OW19303   6.901   6.907   1.540
 6135SOL    HW119304   6.808   6.911   1.577
 6135SOL    HW219305   6.898   6.913   1.440
 6136SOL     OW19306   0.698   1.226   2.604
 6136SOL    HW119307   0.769   1.270   2.658
 6136SOL    HW219308   0.641   1.296   2.561
 6137SOL     OW19309   3.922   0.449   5.950
 6137SOL    HW119310   3.854   0.475   5.881
 6137SOL    HW219311   3.974   0.529   5.978
 6138SOL     OW19312   3.659   6.605   2.737
 6138SOL    HW119313   3.685   6.699   2.756
 6138SOL    HW219314   3.741   6.549   2.724
 6139SOL     OW19315   1.960   3.449   5.213
 6139SOL    HW119316   1.893   3.479   5.281
 6139SOL    HW219317   1.934   3.358   5.178
 6140SOL     OW19318   0.580   6.912   1.741
 6140SOL    HW119319   0.492   6.903   1.788
 6140SOL    HW219320   0.627   6.994   1.773
 6141SOL     OW19321   6.636   5.899   4.777
 6141SOL    HW119322   6.543   5.899   4.814
 6141SOL    HW219323   6.676   5.990   4.788
 6142SOL     OW19324   6.578   4.293   0.630
 6142SOL    HW119325   6.616   4.210   0.672
 6142SOL    HW219326   6.485   4.307   0.662
 6143SOL     OW19327   6.317   5.007   6.166
 6143SOL    HW119328   6.246   4.960   6.219
 6143SOL    HW219329   6.341   4.951   6.087
 6144SOL     OW19330   0.244   4.378   2.854
 6144SOL    HW119331   0.325   4.388   2.798
 6144SOL    HW219332   0.257   4.427   2.941
 6145SOL     OW19333   4.792   5.510   3.787
 6145SOL    HW119334   4.810   5.591   3.731
 6145SOL    HW219335   4.694   5.497   3.796
 6146SOL     OW19336   4.477   1.251   3.347
 6146SOL    HW119337   4.472   1.324   3.415
 6146SOL    HW219338   4.573   1.229   3.330
 6147SOL     OW19339   2.423   4.907   3.069
 6147SOL    HW119340   2.388   4.845   3.139
 6147SOL    HW219341   2.397   4.873   2.978
 6148SOL     OW19342   6.696   6.271   4.479
 6148SOL    HW119343   6.641   6.188   4.470
 6148SOL    HW219344   6.667   6.337   4.409
 6149SOL     OW19345   3.798   4.864   3.229
 6149SOL    HW119346   3.821   4.949   3.276
 6149SOL    HW219347   3.717   4.878   3.172
 6150SOL     OW19348   4.622   5.419   6.802
 6150SOL    HW119349   4.579   5.452   6.718
 6150SOL    HW219350   4.663   5.496   6.851
 6151SOL     OW19351   5.502   3.229   5.015
 6151SOL    HW119352   5.509   3.139   4.973
 6151SOL    HW219353   5.489   3.219   5.114
 6152SOL     OW19354   5.308   5.213   5.856
 6152SOL    HW119355   5.336   5.120   5.835
 6152SOL    HW219356   5.346   5.239   5.945
 6153SOL     OW19357   4.559   3.855   1.359
 6153SOL    HW119358   4.498   3.931   1.381
 6153SOL    HW219359   4.608   3.828   1.442
 6154SOL     OW19360   5.860   1.625   2.342
 6154SOL    HW119361   5.926   1.568   2.392
 6154SOL    HW219362   5.910   1.692   2.286
 6155SOL     OW19363   1.042   3.615   4.607
 6155SOL    HW119364   1.142   3.620   4.611
 6155SOL    HW219365   1.006   3.595   4.699
 6156SOL     OW19366   4.949   6.256   2.683
 6156SOL    HW119367   4.981   6.190   2.615
 6156SOL    HW219368   5.014   6.333   2.688
 6157SOL     OW19369   2.036   2.803   3.402
 6157SOL    HW119370   1.961   2.820   3.338
 6157SOL    HW219371   2.052   2.704   3.409
 6158SOL     OW19372   4.740   0.643   6.559
 6158SOL    HW119373   4.641   0.631   6.566
 6158SOL    HW219374   4.785   0.561   6.593
 6159SOL     OW19375   5.150   1.376   0.011
 6159SOL    HW119376   5.131   1.341   0.103
 6159SOL    HW219377   5.152   1.476   0.013
 6160SOL     OW19378   5.702   5.557   0.816
 6160SOL    HW119379   5.789   5.537   0.771
 6160SOL    HW219380   5.720   5.598   0.905
 6161SOL     OW19381   5.919   1.163   5.616
 6161SOL    HW119382   5.920   1.184   5.518
 6161SOL    HW219383   5.944   1.068   5.630
 6162SOL     OW19384   1.281   5.313   4.369
 6162SOL    HW119385   1.286   5.374   4.447
 6162SOL    HW219386   1.367   5.318   4.317
 6163SOL     OW19387   5.243   4.678   1.068
 6163SOL    HW119388   5.295   4.759   1.095
 6163SOL    HW219389   5.160   4.706   1.020
 6164SOL     OW19390   1.998   2.299   1.201
 6164SOL    HW119391   2.022   2.291   1.298
 6164SOL    HW219392   1.967   2.393   1.183
 6165SOL     OW19393   4.051   5.942   0.266
 6165SOL    HW119394   4.070   5.845   0.277
 6165SOL    HW219395   3.979   5.970   0.329
 6166SOL     OW19396   3.289   1.335   5.681
 6166SOL    HW119397   3.236   1.416   5.705
 6166SOL    HW219398   3.278   1.316   5.583
 6167SOL     OW19399   0.702   4.874   2.230
 6167SOL    HW119400   0.746   4.828   2.153
 6167SOL    HW219401   0.641   4.810   2.277
 6168SOL     OW19402   0.449   3.666   1.649
 6168SOL    HW119403   0.365   3.649   1.599
 6168SOL    HW219404   0.524   3.616   1.606
 6169SOL     OW19405   2.004   3.834   1.694
 6169SOL    HW119406   2.016   3.930   1.667
 6169SOL    HW219407   2.047   3.818   1.783
 6170SOL     OW19408   0.654   3.599   5.444
 6170SOL    HW119409   0.715   3.627   5.519
 6170SOL    HW219410   0.595   3.524   5.476
 6171SOL     OW19411   0.502   0.629   0.882
 6171SOL    HW119412   0.544   0.627   0.973
 6171SOL    HW219413   0.574   0.640   0.813
 6172SOL     OW19414   0.580   2.420   3.209
 6172SOL    HW119415   0.640   2.424   3.130
 6172SOL    HW219416   0.622   2.365   3.281
 6173SOL     OW19417   6.921   5.947   3.012
 6173SOL    HW119418   6.916   5.887   2.932
 6173SOL    HW219419   6.848   5.923   3.076
 6174SOL     OW19420   5.255   4.860   3.083
 6174SOL    HW119421   5.205   4.829   3.001
 6174SOL    HW219422   5.286   4.954   3.069
 6175SOL     OW19423   3.901   0.513   4.915
 6175SOL    HW119424   3.947   0.552   4.835
 6175SOL    HW219425   3.908   0.577   4.991
 6176SOL     OW19426   3.923   3.760   5.313
 6176SOL    HW119427   3.990   3.824   5.276
 6176SOL    HW219428   3.899   3.693   5.242
 6177SOL     OW19429   5.730   1.529   1.708
 6177SOL    HW119430   5.761   1.436   1.723
 6177SOL    HW219431   5.639   1.528   1.666
 6178SOL     OW19432   5.033   3.545   2.200
 6178SOL    HW119433   4.994   3.497   2.121
 6178SOL    HW219434   5.013   3.493   2.283
 6179SOL     OW19435   6.694   4.778   1.872
 6179SOL    HW119436   6.776   4.806   1.822
 6179SOL    HW219437   6.665   4.687   1.841
 6180SOL     OW19438   2.760   5.151   0.629
 6180SOL    HW119439   2.835   5.131   0.693
 6180SOL    HW219440   2.797   5.161   0.537
 6181SOL     OW19441   4.529   5.021   6.023
 6181SOL    HW119442   4.476   4.950   5.976
 6181SOL    HW219443   4.502   5.024   6.120
 6182SOL     OW19444   3.472   3.406   0.259
 6182SOL    HW119445   3.508   3.452   0.178
 6182SOL    HW219446   3.389   3.356   0.234
 6183SOL     OW19447   1.195   1.958   0.789
 6183SOL    HW119448   1.212   2.038   0.847
 6183SOL    HW219449   1.280   1.934   0.742
 6184SOL     OW19450   2.714   1.109   6.180
 6184SOL    HW119451   2.717   1.112   6.080
 6184SOL    HW219452   2.764   1.187   6.217
 6185SOL     OW19453   3.224   2.862   5.077
 6185SOL    HW119454   3.154   2.854   5.148
 6185SOL    HW219455   3.313   2.840   5.117
 6186SOL     OW19456   6.456   2.098   2.112
 6186SOL    HW119457   6.447   2.011   2.063
 6186SOL    HW219458   6.494   2.167   2.051
 6187SOL     OW19459   4.859   2.623   5.543
 6187SOL    HW119460   4.911   2.670   5.613
 6187SOL    HW219461   4.843   2.528   5.571
 6188SOL     OW19462   2.033   1.796   5.789
 6188SOL    HW119463   1.970   1.864   5.825
 6188SOL    HW219464   2.030   1.798   5.689
 6189SOL     OW19465   3.814   5.666   2.078
 6189SOL    HW119466   3.858   5.691   2.164
 6189SOL    HW219467   3.836   5.571   2.056
 6190SOL     OW19468   6.644   3.208   5.841
 6190SOL    HW119469   6.647   3.134   5.908
 6190SOL    HW219470   6.733   3.254   5.838
 6191SOL     OW19471   2.325   3.602   6.065
 6191SOL    HW119472   2.391   3.650   6.122
 6191SOL    HW219473   2.246   3.661   6.047
 6192SOL     OW19474   2.140   2.033   0.077
 6192SOL    HW119475   2.094   2.118   0.053
 6192SOL    HW219476   2.235   2.036   0.046
 6193SOL     OW19477   5.419   5.344   6.979
 6193SOL    HW119478   5.345   5.340   0.026
 6193SOL    HW219479   5.381   5.358   6.888
 6194SOL     OW19480   6.806   0.442   6.454
 6194SOL    HW119481   6.903   0.449   6.474
 6194SOL    HW219482   6.793   0.396   6.366
 6195SOL     OW19483   5.938   0.674   4.753
 6195SOL    HW119484   5.934   0.766   4.792
 6195SOL    HW219485   5.903   0.609   4.821
 6196SOL     OW19486   5.175   4.496   2.981
 6196SOL    HW119487   5.217   4.500   3.072
 6196SOL    HW219488   5.217   4.422   2.928
 6197SOL     OW19489   2.429   5.209   1.988
 6197SOL    HW119490   2.419   5.263   1.904
 6197SOL    HW219491   2.355   5.142   1.994
 6198SOL     OW19492   5.678   6.283   6.425
 6198SOL    HW119493   5.680   6.369   6.476
 6198SOL    HW219494   5.610   6.290   6.352
 6199SOL     OW19495   0.629   6.990   0.427
 6199SOL    HW119496   0.593   6.954   0.341
 6199SOL    HW219497   0.699   6.928   0.462
 6200SOL     OW19498   1.350   1.479   2.268
 6200SOL    HW119499   1.344   1.561   2.211
 6200SOL    HW219500   1.410   1.412   2.224
 6201SOL     OW19501   6.789   4.071   3.873
 6201SOL    HW119502   6.758   4.156   3.914
 6201SOL    HW219503   6.886   4.057   3.893
 6202SOL     OW19504   6.585   1.988   3.339
 6202SOL    HW119505   6.521   2.056   3.373
 6202SOL    HW219506   6.543   1.897   3.343
 6203SOL     OW19507   6.704   5.581   1.855
 6203SOL    HW119508   6.669   5.620   1.770
 6203SOL    HW219509   6.784   5.634   1.884
 6204SOL     OW19510   1.454   6.469   5.243
 6204SOL    HW119511   1.511   6.427   5.172
 6204SOL    HW219512   1.442   6.567   5.223
 6205SOL     OW19513   4.856   3.892   2.330
 6205SOL    HW119514   4.898   3.852   2.248
 6205SOL    HW219515   4.804   3.974   2.304
 6206SOL     OW19516   5.042   1.902   3.529
 6206SOL    HW119517   5.046   1.889   3.628
 6206SOL    HW219518   4.947   1.893   3.499
 6207SOL     OW19519   1.151   5.769   4.514
 6207SOL    HW119520   1.210   5.838   4.473
 6207SOL    HW219521   1.055   5.791   4.494
 6208SOL     OW19522   3.672   3.142   5.754
 6208SOL    HW119523   3.619   3.093   5.822
 6208SOL    HW219524   3.744   3.083   5.718
 6209SOL     OW19525   3.410   4.566   1.070
 6209SOL    HW119526   3.385   4.628   0.996
 6209SOL    HW219527   3.357   4.590   1.152
 6210SOL     OW19528   4.988   3.320   3.384
 6210SOL    HW119529   5.088   3.325   3.391
 6210SOL    HW219530   4.951   3.276   3.465
 6211SOL     OW19531   5.175   5.508   5.106
 6211SOL    HW119532   5.102   5.475   5.047
 6211SOL    HW219533   5.220   5.587   5.064
 6212SOL     OW19534   2.528   5.464   5.589
 6212SOL    HW119535   2.449   5.404   5.580
 6212SOL    HW219536   2.573   5.449   5.677
 6213SOL     OW19537   4.718   6.322   0.787
 6213SOL    HW119538   4.732   6.351   0.881
 6213SOL    HW219539   4.640   6.259   0.783
 6214SOL     OW19540   5.707   6.226   5.207
 6214SOL    HW119541   5.619   6.267   5.230
 6214SOL    HW219542   5.767   6.228   5.286
 6215SOL     OW19543   5.322   3.111   6.153
 6215SOL    HW119544   5.314   3.041   6.223
 6215SOL    HW219545   5.237   3.116   6.100
 6216SOL     OW19546   5.277   2.544   3.540
 6216SOL    HW119547   5.294   2.636   3.507
 6216SOL    HW219548   5.282   2.479   3.464
 6217SOL     OW19549   1.100   4.766   2.429
 6217SOL    HW119550   1.142   4.676   2.435
 6217SOL    HW219551   1.172   4.835   2.421
 6218SOL     OW19552   4.747   6.332   0.160
 6218SOL    HW119553   4.746   6.244   0.111
 6218SOL    HW219554   4.780   6.318   0.253
 6219SOL     OW19555   0.941   0.885   5.360
 6219SOL    HW119556   0.846   0.854   5.361
 6219SOL    HW219557   0.976   0.889   5.453
 6220SOL     OW19558   3.612   1.042   0.614
 6220SOL    HW119559   3.642   1.017   0.706
 6220SOL    HW219560   3.625   0.964   0.553
 6221SOL     OW19561   6.998   6.146   6.634
 6221SOL    HW119562   0.030   6.229   6.653
 6221SOL    HW219563   7.008   6.122   6.538
 6222SOL     OW19564   5.970   1.144   2.259
 6222SOL    HW119565   5.926   1.160   2.347
 6222SOL    HW219566   5.942   1.055   2.223
 6223SOL     OW19567   0.329   4.817   3.576
 6223SOL    HW119568   0.260   4.792   3.644
 6223SOL    HW219569   0.344   4.739   3.515
 6224SOL     OW19570   4.220   1.840   6.383
 6224SOL    HW119571   4.140   1.866   6.438
 6224SOL    HW219572   4.215   1.743   6.361
 6225SOL     OW19573   3.924   0.598   6.845
 6225SOL    HW119574   3.927   0.501   6.821
 6225SOL    HW219575   3.828   0.628   6.848
 6226SOL     OW19576   1.649   1.062   4.197
 6226SOL    HW119577   1.642   1.050   4.098
 6226SOL    HW219578   1.629   0.975   4.243
 6227SOL     OW19579   2.994   4.428   5.763
 6227SOL    HW119580   2.942   4.412   5.679
 6227SOL    HW219581   3.079   4.374   5.760
 6228SOL     OW19582   1.970   2.548   3.685
 6228SOL    HW119583   1.964   2.595   3.773
 6228SOL    HW219584   1.878   2.530   3.650
 6229SOL     OW19585   0.252   3.648   5.082
 6229SOL    HW119586   0.159   3.619   5.063
 6229SOL    HW219587   0.287   3.600   5.162
 6230SOL     OW19588   0.086   1.408   2.171
 6230SOL    HW119589   0.163   1.453   2.126
 6230SOL    HW219590   0.000   1.449   2.139
 6231SOL     OW19591   5.791   4.170   0.570
 6231SOL    HW119592   5.817   4.089   0.516
 6231SOL    HW219593   5.692   4.169   0.585
 6232SOL     OW19594   5.905   0.287   0.155
 6232SOL    HW119595   5.884   0.340   0.073
 6232SOL    HW219596   5.852   0.322   0.232
 6233SOL     OW19597   0.289   3.328   2.178
 6233SOL    HW119598   0.283   3.347   2.277
 6233SOL    HW219599   0.329   3.407   2.132
 6234SOL     OW19600   6.664   6.517   4.327
 6234SOL    HW119601   6.762   6.528   4.347
 6234SOL    HW219602   6.620   6.607   4.330
 6235SOL     OW19603   6.584   1.030   2.606
 6235SOL    HW119604   6.675   1.026   2.565
 6235SOL    HW219605   6.546   0.937   2.614
 6236SOL     OW19606   0.710   4.688   0.937
 6236SOL    HW119607   0.695   4.608   0.879
 6236SOL    HW219608   0.695   4.772   0.885
 6237SOL     OW19609   3.851   0.131   0.891
 6237SOL    HW119610   3.807   0.219   0.879
 6237SOL    HW219611   3.905   0.131   0.975
 6238SOL     OW19612   2.827   6.465   4.239
 6238SOL    HW119613   2.857   6.433   4.328
 6238SOL    HW219614   2.824   6.387   4.175
 6239SOL     OW19615   5.086   0.472   2.484
 6239SOL    HW119616   5.104   0.441   2.391
 6239SOL    HW219617   5.163   0.529   2.515
 6240SOL     OW19618   3.212   3.564   4.883
 6240SOL    HW119619   3.238   3.469   4.894
 6240SOL    HW219620   3.279   3.612   4.827
 6241SOL     OW19621   2.718   6.440   3.642
 6241SOL    HW119622   2.682   6.356   3.601
 6241SOL    HW219623   2.818   6.441   3.633
 6242SOL     OW19624   2.873   2.030   2.873
 6242SOL    HW119625   2.805   1.973   2.918
 6242SOL    HW219626   2.834   2.070   2.790
 6243SOL     OW19627   5.804   1.516   6.316
 6243SOL    HW119628   5.821   1.615   6.322
 6243SOL    HW219629   5.705   1.500   6.314
 6244SOL     OW19630   4.235   5.174   2.958
 6244SOL    HW119631   4.218   5.247   3.024
 6244SOL    HW219632   4.317   5.195   2.905
 6245SOL     OW19633   1.099   4.278   2.254
 6245SOL    HW119634   1.139   4.228   2.331
 6245SOL    HW219635   1.000   4.283   2.267
 6246SOL     OW19636   1.099   6.766   5.016
 6246SOL    HW119637   1.045   6.689   5.050
 6246SOL    HW219638   1.038   6.835   4.977
 6247SOL     OW19639   6.879   5.515   3.477
 6247SOL    HW119640   6.878   5.566   3.563
 6247SOL    HW219641   6.787   5.483   3.456
 6248SOL     OW19642   4.072   2.811   6.978
 6248SOL    HW119643   4.153   2.756   6.998
 6248SOL    HW219644   3.996   2.750   6.955
 6249SOL     OW19645   6.815   2.533   1.044
 6249SOL    HW119646   6.826   2.458   1.109
 6249SOL    HW219647   6.746   2.597   1.078
 6250SOL     OW19648   7.000   0.130   0.649
 6250SOL    HW119649   6.934   0.126   0.724
 6250SOL    HW219650   7.020   0.038   0.616
 6251SOL     OW19651   3.020   6.906   4.402
 6251SOL    HW119652   3.060   6.847   4.332
 6251SOL    HW219653   2.969   6.852   4.468
 6252SOL     OW19654   2.631   5.367   6.575
 6252SOL    HW119655   2.578   5.289   6.608
 6252SOL    HW219656   2.568   5.436   6.538
 6253SOL     OW19657   2.891   5.077   4.752
 6253SOL    HW119658   2.968   5.067   4.815
 6253SOL    HW219659   2.893   5.004   4.685
 6254SOL     OW19660   0.454   5.652   0.730
 6254SOL    HW119661   0.484   5.726   0.670
 6254SOL    HW219662   0.415   5.691   0.814
 6255SOL     OW19663   0.909   1.833   0.796
 6255SOL    HW119664   0.818   1.858   0.830
 6255SOL    HW219665   0.972   1.827   0.873
 6256SOL     OW19666   4.959   5.746   3.107
 6256SOL    HW119667   4.873   5.792   3.132
 6256SOL    HW219668   5.024   5.752   3.182
 6257SOL     OW19669   4.025   4.393   1.245
 6257SOL    HW119670   4.041   4.487   1.218
 6257SOL    HW219671   4.038   4.383   1.344
 6258SOL     OW19672   4.490   0.385   5.704
 6258SOL    HW119673   4.490   0.285   5.697
 6258SOL    HW219674   4.577   0.420   5.672
 6259SOL     OW19675   2.289   6.919   5.564
 6259SOL    HW119676   2.316   6.918   5.660
 6259SOL    HW219677   2.289   7.013   5.530
 6260SOL     OW19678   1.840   0.988   0.275
 6260SOL    HW119679   1.802   1.017   0.362
 6260SOL    HW219680   1.809   0.896   0.254
 6261SOL     OW19681   4.279   6.708   1.363
 6261SOL    HW119682   4.333   6.788   1.388
 6261SOL    HW219683   4.268   6.703   1.264
 6262SOL     OW19684   6.023   6.255   1.921
 6262SOL    HW119685   6.043   6.307   2.005
 6262SOL    HW219686   5.925   6.243   1.912
 6263SOL     OW19687   0.245   6.271   4.458
 6263SOL    HW119688   0.146   6.272   4.474
 6263SOL    HW219689   0.273   6.178   4.436
 6264SOL     OW19690   0.688   0.145   1.435
 6264SOL    HW119691   0.634   0.080   1.382
 6264SOL    HW219692   0.633   0.226   1.454
 6265SOL     OW19693   4.282   2.000   0.281
 6265SOL    HW119694   4.369   1.969   0.318
 6265SOL    HW219695   4.210   1.988   0.350
 6266SOL     OW19696   3.313   5.550   3.984
 6266SOL    HW119697   3.223   5.506   3.976
 6266SOL    HW219698   3.332   5.601   3.900
 6267SOL     OW19699   1.240   6.769   5.326
 6267SOL    HW119700   1.320   6.764   5.266
 6267SOL    HW219701   1.173   6.701   5.298
 6268SOL     OW19702   3.449   0.604   2.344
 6268SOL    HW119703   3.531   0.616   2.289
 6268SOL    HW219704   3.414   0.693   2.373
 6269SOL     OW19705   4.934   6.725   1.679
 6269SOL    HW119706   4.976   6.638   1.656
 6269SOL    HW219707   4.985   6.767   1.755
 6270SOL     OW19708   1.794   6.339   0.138
 6270SOL    HW119709   1.841   6.264   0.092
 6270SOL    HW219710   1.759   6.404   0.070
 6271SOL     OW19711   6.309   3.343   6.647
 6271SOL    HW119712   6.335   3.265   6.590
 6271SOL    HW219713   6.213   3.365   6.632
 6272SOL     OW19714   5.620   0.200   6.722
 6272SOL    HW119715   5.696   0.226   6.662
 6272SOL    HW219716   5.598   0.277   6.782
 6273SOL     OW19717   0.184   6.963   1.567
 6273SOL    HW119718   0.161   0.032   1.606
 6273SOL    HW219719   0.127   6.892   1.610
 6274SOL     OW19720   3.325   5.716   5.096
 6274SOL    HW119721   3.256   5.648   5.071
 6274SOL    HW219722   3.408   5.669   5.125
 6275SOL     OW19723   2.175   6.228   0.721
 6275SOL    HW119724   2.209   6.197   0.810
 6275SOL    HW219725   2.116   6.158   0.681
 6276SOL     OW19726   1.959   5.026   2.921
 6276SOL    HW119727   1.910   5.085   2.986
 6276SOL    HW219728   2.017   4.962   2.971
 6277SOL     OW19729   5.216   2.519   1.415
 6277SOL    HW119730   5.211   2.613   1.449
 6277SOL    HW219731   5.304   2.479   1.440
 6278SOL     OW19732   3.017   0.362   5.440
 6278SOL    HW119733   2.989   0.367   5.536
 6278SOL    HW219734   3.098   0.418   5.425
 6279SOL     OW19735   3.386   6.157   1.626
 6279SOL    HW119736   3.370   6.234   1.565
 6279SOL    HW219737   3.400   6.074   1.572
 6280SOL     OW19738   0.036   1.838   6.931
 6280SOL    HW119739   0.059   1.743   6.910
 6280SOL    HW219740   6.965   1.843   6.972
 6281SOL     OW19741   6.290   3.922   4.809
 6281SOL    HW119742   6.379   3.963   4.789
 6281SOL    HW219743   6.222   3.955   4.744
 6282SOL     OW19744   0.275   3.305   6.374
 6282SOL    HW119745   0.371   3.289   6.351
 6282SOL    HW219746   0.222   3.313   6.290
 6283SOL     OW19747   1.248   6.163   5.531
 6283SOL    HW119748   1.168   6.201   5.484
 6283SOL    HW219749   1.223   6.078   5.576
 6284SOL     OW19750   2.479   4.051   6.948
 6284SOL    HW119751   2.542   4.004   6.886
 6284SOL    HW219752   2.532   4.106   7.014
 6285SOL     OW19753   1.700   3.342   2.920
 6285SOL    HW119754   1.706   3.300   3.010
 6285SOL    HW219755   1.711   3.271   2.850
 6286SOL     OW19756   0.945   2.837   5.302
 6286SOL    HW119757   0.918   2.741   5.306
 6286SOL    HW219758   0.904   2.887   5.379
 6287SOL     OW19759   4.156   4.826   5.179
 6287SOL    HW119760   4.062   4.842   5.148
 6287SOL    HW219761   4.215   4.898   5.143
 6288SOL     OW19762   3.630   3.339   6.427
 6288SOL    HW119763   3.680   3.253   6.434
 6288SOL    HW219764   3.556   3.341   6.493
 6289SOL     OW19765   2.727   4.640   6.213
 6289SOL    HW119766   2.748   4.639   6.115
 6289SOL    HW219767   2.682   4.554   6.238
 6290SOL     OW19768   5.745   5.401   5.335
 6290SOL    HW119769   5.695   5.316   5.317
 6290SOL    HW219770   5.712   5.441   5.420
 6291SOL     OW19771   3.360   3.200   3.401
 6291SOL    HW119772   3.457   3.226   3.401
 6291SOL    HW219773   3.322   3.217   3.311
 6292SOL     OW19774   1.896   2.706   4.284
 6292SOL    HW119775   1.881   2.708   4.383
 6292SOL    HW219776   1.850   2.784   4.241
 6293SOL     OW19777   4.941   0.859   6.665
 6293SOL    HW119778   4.943   0.930   6.594
 6293SOL    HW219779   4.928   0.770   6.621
 6294SOL     OW19780   2.520   1.047   3.836
 6294SOL    HW119781   2.455   1.025   3.908
 6294SOL    HW219782   2.545   0.963   3.787
 6295SOL     OW19783   5.641   4.810   5.436
 6295SOL    HW119784   5.709   4.872   5.474
 6295SOL    HW219785   5.661   4.716   5.466
 6296SOL     OW19786   6.989   2.947   6.339
 6296SOL    HW119787   6.962   2.880   6.409
 6296SOL    HW219788   0.051   2.996   6.370
 6297SOL     OW19789   6.001   0.561   4.348
 6297SOL    HW119790   6.031   0.635   4.409
 6297SOL    HW219791   6.076   0.495   4.336
 6298SOL     OW19792   5.917   4.544   0.578
 6298SOL    HW119793   5.823   4.538   0.545
 6298SOL    HW219794   5.927   4.626   0.635
 6299SOL     OW19795   4.363   2.400   2.774
 6299SOL    HW119796   4.299   2.375   2.701
 6299SOL    HW219797   4.422   2.473   2.742
 6300SOL     OW19798   4.069   0.919   5.931
 6300SOL    HW119799   4.145   0.908   5.868
 6300SOL    HW219800   4.013   0.997   5.903
 6301SOL     OW19801   3.471   6.907   0.317
 6301SOL    HW119802   3.560   6.936   0.352
 6301SOL    HW219803   3.479   6.816   0.277
 6302SOL     OW19804   2.880   1.082   5.253
 6302SOL    HW119805   2.898   1.152   5.321
 6302SOL    HW219806   2.950   1.011   5.259
 6303SOL     OW19807   1.117   6.309   6.161
 6303SOL    HW119808   1.069   6.228   6.126
 6303SOL    HW219809   1.055   6.387   6.159
 6304SOL     OW19810   4.092   1.103   2.873
 6304SOL    HW119811   4.062   1.196   2.855
 6304SOL    HW219812   4.154   1.073   2.801
 6305SOL     OW19813   0.018   5.300   4.899
 6305SOL    HW119814   6.987   5.313   4.814
 6305SOL    HW219815   6.989   5.344   4.974
 6306SOL     OW19816   6.648   4.619   4.056
 6306SOL    HW119817   6.710   4.691   4.024
 6306SOL    HW219818   6.627   4.557   3.981
 6307SOL     OW19819   4.110   3.429   3.247
 6307SOL    HW119820   4.056   3.476   3.178
 6307SOL    HW219821   4.098   3.474   3.335
 6308SOL     OW19822   0.330   2.615   6.523
 6308SOL    HW119823   0.243   2.660   6.544
 6308SOL    HW219824   0.333   2.526   6.569
 6309SOL     OW19825   1.373   6.768   5.080
 6309SOL    HW119826   1.411   6.852   5.043
 6309SOL    HW219827   1.273   6.775   5.085
 6310SOL     OW19828   1.937   0.134   3.163
 6310SOL    HW119829   1.985   0.213   3.125
 6310SOL    HW219830   1.870   0.101   3.096
 6311SOL     OW19831   5.514   1.166   5.612
 6311SOL    HW119832   5.439   1.101   5.616
 6311SOL    HW219833   5.594   1.126   5.657
 6312SOL     OW19834   2.954   6.687   6.573
 6312SOL    HW119835   2.874   6.734   6.610
 6312SOL    HW219836   3.037   6.725   6.614
 6313SOL     OW19837   5.368   6.095   3.573
 6313SOL    HW119838   5.275   6.124   3.593
 6313SOL    HW219839   5.372   6.056   3.481
 6314SOL     OW19840   2.606   0.092   1.591
 6314SOL    HW119841   2.533   0.156   1.616
 6314SOL    HW219842   2.569   0.020   1.533
 6315SOL     OW19843   2.241   2.899   4.025
 6315SOL    HW119844   2.276   2.932   4.113
 6315SOL    HW219845   2.315   2.856   3.974
 6316SOL     OW19846   5.465   2.153   4.966
 6316SOL    HW119847   5.500   2.135   5.058
 6316SOL    HW219848   5.532   2.123   4.898
 6317SOL     OW19849   4.922   4.564   2.038
 6317SOL    HW119850   4.950   4.515   2.120
 6317SOL    HW219851   4.998   4.619   2.004
 6318SOL     OW19852   6.241   0.900   6.173
 6318SOL    HW119853   6.142   0.895   6.165
 6318SOL    HW219854   6.275   0.980   6.123
 6319SOL     OW19855   5.272   2.490   4.447
 6319SOL    HW119856   5.189   2.542   4.426
 6319SOL    HW219857   5.342   2.508   4.378
 6320SOL     OW19858   0.238   1.312   4.040
 6320SOL    HW119859   0.215   1.349   4.130
 6320SOL    HW219860   0.203   1.218   4.033
 6321SOL     OW19861   5.610   2.190   0.741
 6321SOL    HW119862   5.512   2.191   0.718
 6321SOL    HW219863   5.631   2.269   0.799
 6322SOL     OW19864   2.023   0.690   1.266
 6322SOL    HW119865   2.028   0.758   1.193
 6322SOL    HW219866   1.960   0.722   1.337
 6323SOL     OW19867   2.947   2.993   1.530
 6323SOL    HW119868   2.905   3.064   1.473
 6323SOL    HW219869   3.025   3.032   1.579
 6324SOL     OW19870   4.741   1.108   0.941
 6324SOL    HW119871   4.831   1.065   0.931
 6324SOL    HW219872   4.731   1.141   1.035
 6325SOL     OW19873   1.186   2.341   2.736
 6325SOL    HW119874   1.133   2.402   2.677
 6325SOL    HW219875   1.160   2.355   2.831
 6326SOL     OW19876   5.481   5.389   5.729
 6326SOL    HW119877   5.415   5.319   5.755
 6326SOL    HW219878   5.457   5.428   5.640
 6327SOL     OW19879   6.791   1.717   3.528
 6327SOL    HW119880   6.776   1.684   3.434
 6327SOL    HW219881   6.784   1.816   3.530
 6328SOL     OW19882   4.586   3.377   6.073
 6328SOL    HW119883   4.611   3.391   5.977
 6328SOL    HW219884   4.611   3.457   6.127
 6329SOL     OW19885   1.736   2.502   5.533
 6329SOL    HW119886   1.662   2.485   5.468
 6329SOL    HW219887   1.787   2.417   5.548
 6330SOL     OW19888   5.943   0.555   3.701
 6330SOL    HW119889   6.033   0.569   3.660
 6330SOL    HW219890   5.930   0.619   3.776
 6331SOL     OW19891   6.762   3.349   4.453
 6331SOL    HW119892   6.836   3.346   4.520
 6331SOL    HW219893   6.692   3.282   4.478
 6332SOL     OW19894   1.750   1.818   0.912
 6332SOL    HW119895   1.706   1.782   0.830
 6332SOL    HW219896   1.718   1.911   0.929
 6333SOL     OW19897   5.026   0.316   0.801
 6333SOL    HW119898   5.107   0.264   0.827
 6333SOL    HW219899   5.051   0.413   0.791
 6334SOL     OW19900   3.150   1.418   2.311
 6334SOL    HW119901   3.141   1.450   2.217
 6334SOL    HW219902   3.152   1.319   2.313
 6335SOL     OW19903   5.407   0.813   0.378
 6335SOL    HW119904   5.365   0.803   0.469
 6335SOL    HW219905   5.443   0.906   0.368
 6336SOL     OW19906   0.188   3.647   6.155
 6336SOL    HW119907   0.265   3.587   6.179
 6336SOL    HW219908   0.206   3.691   6.067
 6337SOL     OW19909   4.485   5.421   5.378
 6337SOL    HW119910   4.497   5.520   5.370
 6337SOL    HW219911   4.563   5.381   5.426
 6338SOL     OW19912   3.048   1.640   3.601
 6338SOL    HW119913   3.065   1.679   3.692
 6338SOL    HW219914   3.023   1.714   3.538
 6339SOL     OW19915   1.267   4.356   3.344
 6339SOL    HW119916   1.283   4.397   3.434
 6339SOL    HW219917   1.255   4.257   3.354
 6340SOL     OW19918   2.339   3.946   1.476
 6340SOL    HW119919   2.422   4.001   1.474
 6340SOL    HW219920   2.353   3.863   1.423
 6341SOL     OW19921   0.798   4.634   3.891
 6341SOL    HW119922   0.707   4.593   3.888
 6341SOL    HW219923   0.815   4.671   3.983
 6342SOL     OW19924   2.042   1.130   1.869
 6342SOL    HW119925   2.109   1.167   1.933
 6342SOL    HW219926   1.950   1.148   1.902
 6343SOL     OW19927   2.850   5.921   0.164
 6343SOL    HW119928   2.838   5.915   0.064
 6343SOL    HW219929   2.937   5.965   0.184
 6344SOL     OW19930   6.310   2.175   3.727
 6344SOL    HW119931   6.368   2.200   3.805
 6344SOL    HW219932   6.217   2.208   3.743
 6345SOL     OW19933   5.884   3.363   1.960
 6345SOL    HW119934   5.948   3.290   1.982
 6345SOL    HW219935   5.813   3.328   1.899
 6346SOL     OW19936   0.159   4.424   5.617
 6346SOL    HW119937   0.069   4.406   5.578
 6346SOL    HW219938   0.229   4.379   5.562
 6347SOL     OW19939   2.940   2.211   2.680
 6347SOL    HW119940   3.013   2.185   2.744
 6347SOL    HW219941   2.978   2.216   2.588
 6348SOL     OW19942   0.415   1.843   5.538
 6348SOL    HW119943   0.373   1.820   5.450
 6348SOL    HW219944   0.461   1.762   5.575
 6349SOL     OW19945   0.134   0.424   0.126
 6349SOL    HW119946   0.172   0.409   0.217
 6349SOL    HW219947   0.142   0.340   0.072
 6350SOL     OW19948   0.887   4.039   1.739
 6350SOL    HW119949   0.904   4.099   1.817
 6350SOL    HW219950   0.950   4.061   1.665
 6351SOL     OW19951   5.769   3.478   3.174
 6351SOL    HW119952   5.714   3.396   3.189
 6351SOL    HW219953   5.832   3.490   3.251
 6352SOL     OW19954   2.351   0.300   4.265
 6352SOL    HW119955   2.366   0.370   4.336
 6352SOL    HW219956   2.293   0.228   4.302
 6353SOL     OW19957   2.575   5.661   6.560
 6353SOL    HW119958   2.670   5.639   6.582
 6353SOL    HW219959   2.571   5.698   6.467
 6354SOL     OW19960   4.674   4.184   2.760
 6354SOL    HW119961   4.755   4.212   2.812
 6354SOL    HW219962   4.592   4.214   2.809
 6355SOL     OW19963   2.820   4.795   0.598
 6355SOL    HW119964   2.793   4.699   0.585
 6355SOL    HW219965   2.741   4.848   0.626
 6356SOL     OW19966   5.055   4.802   6.623
 6356SOL    HW119967   4.976   4.825   6.566
 6356SOL    HW219968   5.124   4.756   6.568
 6357SOL     OW19969   5.931   1.914   1.842
 6357SOL    HW119970   5.968   1.840   1.787
 6357SOL    HW219971   5.994   1.936   1.916
 6358SOL     OW19972   1.732   2.551   0.040
 6358SOL    HW119973   1.820   2.594   0.059
 6358SOL    HW219974   1.663   2.586   0.103
 6359SOL     OW19975   5.430   6.447   0.686
 6359SOL    HW119976   5.500   6.504   0.730
 6359SOL    HW219977   5.365   6.414   0.754
 6360SOL     OW19978   0.378   2.220   3.099
 6360SOL    HW119979   0.437   2.266   3.164
 6360SOL    HW219980   0.401   2.123   3.095
 6361SOL     OW19981   0.649   0.543   6.568
 6361SOL    HW119982   0.669   0.522   6.664
 6361SOL    HW219983   0.632   0.459   6.518
 6362SOL     OW19984   0.865   5.412   6.790
 6362SOL    HW119985   0.861   5.390   6.693
 6362SOL    HW219986   0.797   5.481   6.812
 6363SOL     OW19987   2.875   5.145   3.827
 6363SOL    HW119988   2.810   5.120   3.899
 6363SOL    HW219989   2.838   5.118   3.738
 6364SOL     OW19990   2.414   2.191   5.240
 6364SOL    HW119991   2.474   2.202   5.161
 6364SOL    HW219992   2.468   2.195   5.324
 6365SOL     OW19993   5.826   5.794   3.664
 6365SOL    HW119994   5.912   5.839   3.641
 6365SOL    HW219995   5.762   5.861   3.702
 6366SOL     OW19996   6.262   6.579   5.079
 6366SOL    HW119997   6.358   6.583   5.050
 6366SOL    HW219998   6.233   6.484   5.086
 6367SOL     OW19999   3.134   2.181   2.855
 6367SOL    HW120000   3.106   2.247   2.924
 6367SOL    HW220001   3.216   2.133   2.886
 6368SOL     OW20002   4.946   3.579   4.582
 6368SOL    HW120003   4.914   3.622   4.666
 6368SOL    HW220004   5.041   3.548   4.594
 6369SOL     OW20005   3.335   6.454   5.767
 6369SOL    HW120006   3.404   6.476   5.836
 6369SOL    HW220007   3.329   6.355   5.756
 6370SOL     OW20008   5.254   3.967   3.889
 6370SOL    HW120009   5.163   3.966   3.849
 6370SOL    HW220010   5.249   3.941   3.986
 6371SOL     OW20011   5.160   4.177   1.538
 6371SOL    HW120012   5.064   4.157   1.557
 6371SOL    HW220013   5.217   4.106   1.578
 6372SOL     OW20014   6.994   1.099   2.849
 6372SOL    HW120015   0.063   1.102   2.894
 6372SOL    HW220016   7.007   1.112   2.750
 6373SOL     OW20017   5.413   3.975   1.248
 6373SOL    HW120018   5.429   3.936   1.158
 6373SOL    HW220019   5.357   4.057   1.240
 6374SOL     OW20020   4.558   2.951   0.485
 6374SOL    HW120021   4.625   2.908   0.545
 6374SOL    HW220022   4.533   3.041   0.522
 6375SOL     OW20023   6.909   2.818   2.434
 6375SOL    HW120024   6.925   2.813   2.532
 6375SOL    HW220025   6.914   2.726   2.394
 6376SOL     OW20026   3.766   0.965   5.609
 6376SOL    HW120027   3.699   0.896   5.634
 6376SOL    HW220028   3.847   0.921   5.570
 6377SOL     OW20029   0.080   0.174   6.565
 6377SOL    HW120030   0.075   0.175   6.665
 6377SOL    HW220031   0.138   0.098   6.535
 6378SOL     OW20032   5.453   5.523   3.229
 6378SOL    HW120033   5.448   5.610   3.180
 6378SOL    HW220034   5.465   5.448   3.163
 6379SOL     OW20035   2.774   5.439   6.121
 6379SOL    HW120036   2.764   5.525   6.070
 6379SOL    HW220037   2.693   5.426   6.179
 6380SOL     OW20038   1.342   3.395   5.018
 6380SOL    HW120039   1.400   3.328   5.065
 6380SOL    HW220040   1.249   3.359   5.011
 6381SOL     OW20041   4.607   3.778   0.216
 6381SOL    HW120042   4.515   3.753   0.246
 6381SOL    HW220043   4.614   3.768   0.117
 6382SOL     OW20044   2.898   1.623   1.407
 6382SOL    HW120045   2.870   1.629   1.502
 6382SOL    HW220046   2.839   1.682   1.351
 6383SOL     OW20047   1.799   1.845   2.688
 6383SOL    HW120048   1.719   1.902   2.674
 6383SOL    HW220049   1.852   1.839   2.603
 6384SOL     OW20050   6.752   2.464   2.041
 6384SOL    HW120051   6.829   2.511   1.997
 6384SOL    HW220052   6.680   2.530   2.061
 6385SOL     OW20053   0.327   3.313   1.291
 6385SOL    HW120054   0.387   3.233   1.288
 6385SOL    HW220055   0.344   3.370   1.210
 6386SOL     OW20056   1.831   3.274   0.640
 6386SOL    HW120057   1.878   3.194   0.600
 6386SOL    HW220058   1.872   3.358   0.604
 6387SOL     OW20059   6.291   0.497   0.398
 6387SOL    HW120060   6.330   0.513   0.308
 6387SOL    HW220061   6.193   0.478   0.389
 6388SOL     OW20062   6.292   5.211   2.912
 6388SOL    HW120063   6.284   5.285   2.979
 6388SOL    HW220064   6.290   5.250   2.820
 6389SOL     OW20065   1.811   0.563   0.108
 6389SOL    HW120066   1.794   0.465   0.119
 6389SOL    HW220067   1.902   0.585   0.145
 6390SOL     OW20068   6.315   1.071   6.738
 6390SOL    HW120069   6.320   0.973   6.717
 6390SOL    HW220070   6.407   1.103   6.763
 6391SOL     OW20071   1.241   1.088   5.224
 6391SOL    HW120072   1.207   1.109   5.315
 6391SOL    HW220073   1.299   1.164   5.191
 6392SOL     OW20074   3.379   5.726   3.780
 6392SOL    HW120075   3.323   5.782   3.841
 6392SOL    HW220076   3.454   5.781   3.742
 6393SOL     OW20077   6.103   6.247   1.179
 6393SOL    HW120078   6.066   6.335   1.209
 6393SOL    HW220079   6.194   6.234   1.219
 6394SOL     OW20080   0.720   5.086   0.993
 6394SOL    HW120081   0.724   5.022   1.070
 6394SOL    HW220082   0.813   5.107   0.963
 6395SOL     OW20083   1.600   4.384   3.166
 6395SOL    HW120084   1.601   4.303   3.225
 6395SOL    HW220085   1.508   4.423   3.165
 6396SOL     OW20086   6.397   3.834   0.089
 6396SOL    HW120087   6.471   3.767   0.084
 6396SOL    HW220088   6.428   3.920   0.048
 6397SOL     OW20089   5.599   2.187   3.317
 6397SOL    HW120090   5.661   2.156   3.390
 6397SOL    HW220091   5.541   2.110   3.289
 6398SOL     OW20092   0.776   6.741   1.092
 6398SOL    HW120093   0.796   6.724   1.189
 6398SOL    HW220094   0.830   6.680   1.035
 6399SOL     OW20095   2.300   0.269   6.203
 6399SOL    HW120096   2.270   0.206   6.275
 6399SOL    HW220097   2.324   0.217   6.121
 6400SOL     OW20098   1.524   5.790   2.887
 6400SOL    HW120099   1.457   5.864   2.884
 6400SOL    HW220100   1.610   5.821   2.845
 6401SOL     OW20101   3.874   5.080   3.359
 6401SOL    HW120102   3.822   5.059   3.441
 6401SOL    HW220103   3.972   5.083   3.382
 6402SOL     OW20104   2.184   4.843   4.822
 6402SOL    HW120105   2.241   4.799   4.891
 6402SOL    HW220106   2.242   4.895   4.759
 6403SOL     OW20107   5.115   6.646   4.906
 6403SOL    HW120108   5.058   6.630   4.987
 6403SOL    HW220109   5.175   6.724   4.923
 6404SOL     OW20110   3.559   0.316   2.414
 6404SOL    HW120111   3.580   0.232   2.364
 6404SOL    HW220112   3.460   0.330   2.416
 6405SOL     OW20113   5.414   1.536   3.010
 6405SOL    HW120114   5.344   1.593   3.051
 6405SOL    HW220115   5.503   1.581   3.018
 6406SOL     OW20116   1.119   3.059   2.605
 6406SOL    HW120117   1.100   3.062   2.703
 6406SOL    HW220118   1.078   2.977   2.565
 6407SOL     OW20119   2.300   6.358   3.335
 6407SOL    HW120120   2.367   6.414   3.287
 6407SOL    HW220121   2.228   6.330   3.270
 6408SOL     OW20122   7.002   0.053   0.281
 6408SOL    HW120123   6.956   6.986   0.266
 6408SOL    HW220124   6.943   0.113   0.336
 6409SOL     OW20125   6.470   5.107   3.629
 6409SOL    HW120126   6.402   5.088   3.558
 6409SOL    HW220127   6.490   5.022   3.679
 6410SOL     OW20128   3.265   1.841   5.445
 6410SOL    HW120129   3.261   1.807   5.352
 6410SOL    HW220130   3.179   1.886   5.469
 6411SOL     OW20131   0.394   2.215   2.724
 6411SOL    HW120132   0.409   2.192   2.820
 6411SOL    HW220133   0.297   2.207   2.702
 6412SOL     OW20134   3.460   0.672   6.987
 6412SOL    HW120135   3.497   0.618   0.043
 6412SOL    HW220136   3.445   0.766   7.017
 6413SOL     OW20137   4.238   4.956   4.042
 6413SOL    HW120138   4.264   4.965   3.946
 6413SOL    HW220139   4.316   4.981   4.100
 6414SOL     OW20140   1.002   0.067   6.640
 6414SOL    HW120141   1.078   0.060   6.705
 6414SOL    HW220142   1.034   0.043   6.548
 6415SOL     OW20143   1.133   2.795   3.520
 6415SOL    HW120144   1.098   2.766   3.609
 6415SOL    HW220145   1.110   2.891   3.504
 6416SOL     OW20146   2.924   0.338   6.583
 6416SOL    HW120147   2.865   0.414   6.609
 6416SOL    HW220148   3.001   0.372   6.528
 6417SOL     OW20149   4.883   1.617   1.066
 6417SOL    HW120150   4.799   1.572   1.036
 6417SOL    HW220151   4.897   1.701   1.013
 6418SOL     OW20152   4.290   4.748   1.211
 6418SOL    HW120153   4.274   4.682   1.137
 6418SOL    HW220154   4.249   4.713   1.295
 6419SOL     OW20155   0.737   6.417   6.399
 6419SOL    HW120156   0.644   6.452   6.401
 6419SOL    HW220157   0.801   6.491   6.417
 6420SOL     OW20158   1.223   3.174   3.879
 6420SOL    HW120159   1.167   3.257   3.872
 6420SOL    HW220160   1.164   3.094   3.876
 6421SOL     OW20161   4.892   0.167   1.886
 6421SOL    HW120162   4.928   0.167   1.980
 6421SOL    HW220163   4.967   0.155   1.822
 6422SOL     OW20164   6.764   2.692   4.338
 6422SOL    HW120165   6.683   2.642   4.309
 6422SOL    HW220166   6.843   2.660   4.286
 6423SOL     OW20167   2.259   4.489   4.376
 6423SOL    HW120168   2.288   4.437   4.457
 6423SOL    HW220169   2.288   4.441   4.293
 6424SOL     OW20170   0.834   3.831   4.905
 6424SOL    HW120171   0.865   3.782   4.823
 6424SOL    HW220172   0.854   3.776   4.986
 6425SOL     OW20173   0.457   6.225   2.460
 6425SOL    HW120174   0.365   6.218   2.497
 6425SOL    HW220175   0.486   6.135   2.426
 6426SOL     OW20176   4.567   4.529   4.819
 6426SOL    HW120177   4.560   4.549   4.721
 6426SOL    HW220178   4.476   4.526   4.860
 6427SOL     OW20179   2.885   3.493   3.746
 6427SOL    HW120180   2.907   3.399   3.722
 6427SOL    HW220181   2.895   3.551   3.665
 6428SOL     OW20182   4.716   2.703   0.338
 6428SOL    HW120183   4.751   2.796   0.334
 6428SOL    HW220184   4.627   2.698   0.292
 6429SOL     OW20185   2.302   0.619   5.123
 6429SOL    HW120186   2.277   0.693   5.184
 6429SOL    HW220187   2.285   0.646   5.028
 6430SOL     OW20188   6.920   0.306   5.220
 6430SOL    HW120189   6.880   0.398   5.216
 6430SOL    HW220190   6.850   0.240   5.247
 6431SOL     OW20191   4.180   5.198   2.581
 6431SOL    HW120192   4.188   5.297   2.576
 6431SOL    HW220193   4.271   5.156   2.579
 6432SOL     OW20194   3.810   4.422   6.867
 6432SOL    HW120195   3.827   4.508   6.818
 6432SOL    HW220196   3.892   4.396   6.918
 6433SOL     OW20197   2.389   5.681   6.901
 6433SOL    HW120198   2.316   5.733   6.946
 6433SOL    HW220199   2.361   5.586   6.890
 6434SOL     OW20200   3.025   6.036   5.691
 6434SOL    HW120201   3.032   5.938   5.708
 6434SOL    HW220202   2.951   6.053   5.625
 6435SOL     OW20203   5.335   0.472   0.899
 6435SOL    HW120204   5.368   0.446   0.808
 6435SOL    HW220205   5.310   0.390   0.950
 6436SOL     OW20206   0.421   3.848   3.981
 6436SOL    HW120207   0.359   3.786   4.028
 6436SOL    HW220208   0.373   3.932   3.956
 6437SOL     OW20209   0.787   1.230   5.533
 6437SOL    HW120210   0.879   1.238   5.571
 6437SOL    HW220211   0.740   1.153   5.577
 6438SOL     OW20212   0.665   5.579   6.858
 6438SOL    HW120213   0.634   5.669   6.890
 6438SOL    HW220214   0.627   5.508   6.918
 6439SOL     OW20215   5.793   0.781   3.426
 6439SOL    HW120216   5.891   0.782   3.442
 6439SOL    HW220217   5.762   0.686   3.413
 6440SOL     OW20218   2.513   0.611   5.930
 6440SOL    HW120219   2.577   0.533   5.927
 6440SOL    HW220220   2.506   0.643   6.025
 6441SOL     OW20221   0.198   1.008   3.075
 6441SOL    HW120222   0.272   0.984   3.138
 6441SOL    HW220223   0.235   1.030   2.985
 6442SOL     OW20224   2.701   2.384   5.825
 6442SOL    HW120225   2.712   2.311   5.756
 6442SOL    HW220226   2.632   2.449   5.793
 6443SOL     OW20227   4.111   2.317   0.894
 6443SOL    HW120228   4.125   2.414   0.875
 6443SOL    HW220229   4.059   2.306   0.978
 6444SOL     OW20230   0.102   3.009   5.372
 6444SOL    HW120231   0.153   3.051   5.448
 6444SOL    HW220232   0.081   2.914   5.394
 6445SOL     OW20233   2.882   3.656   3.061
 6445SOL    HW120234   2.798   3.635   3.112
 6445SOL    HW220235   2.876   3.616   2.970
 6446SOL     OW20236   2.030   1.730   6.815
 6446SOL    HW120237   1.997   1.782   6.893
 6446SOL    HW220238   2.122   1.697   6.833
 6447SOL     OW20239   5.931   4.826   1.340
 6447SOL    HW120240   5.891   4.809   1.430
 6447SOL    HW220241   6.025   4.859   1.351
 6448SOL     OW20242   4.648   5.643   1.850
 6448SOL    HW120243   4.654   5.605   1.942
 6448SOL    HW220244   4.652   5.569   1.783
 6449SOL     OW20245   2.445   5.369   1.709
 6449SOL    HW120246   2.431   5.411   1.620
 6449SOL    HW220247   2.408   5.428   1.781
 6450SOL     OW20248   0.418   3.729   1.183
 6450SOL    HW120249   0.517   3.741   1.178
 6450SOL    HW220250   0.379   3.799   1.242
 6451SOL     OW20251   3.333   2.377   1.045
 6451SOL    HW120252   3.297   2.410   1.133
 6451SOL    HW220253   3.279   2.298   1.015
 6452SOL     OW20254   5.267   3.563   3.166
 6452SOL    HW120255   5.210   3.584   3.086
 6452SOL    HW220256   5.358   3.534   3.135
 6453SOL     OW20257   3.568   6.840   1.103
 6453SOL    HW120258   3.600   6.807   1.192
 6453SOL    HW220259   3.645   6.882   1.054
 6454SOL     OW20260   6.130   2.881   2.598
 6454SOL    HW120261   6.198   2.811   2.577
 6454SOL    HW220262   6.086   2.912   2.514
 6455SOL     OW20263   6.420   4.100   3.539
 6455SOL    HW120264   6.464   4.160   3.605
 6455SOL    HW220265   6.413   4.147   3.451
 6456SOL     OW20266   6.812   1.395   3.108
 6456SOL    HW120267   6.849   1.366   3.196
 6456SOL    HW220268   6.816   1.318   3.044
 6457SOL     OW20269   4.740   6.927   1.923
 6457SOL    HW120270   4.666   6.932   1.856
 6457SOL    HW220271   4.784   7.016   1.932
 6458SOL     OW20272   1.027   5.018   3.473
 6458SOL    HW120273   1.034   4.947   3.403
 6458SOL    HW220274   0.965   4.989   3.545
 6459SOL     OW20275   6.583   2.832   2.703
 6459SOL    HW120276   6.552   2.899   2.635
 6459SOL    HW220277   6.505   2.779   2.736
 6460SOL     OW20278   0.114   6.069   5.627
 6460SOL    HW120279   0.051   6.053   5.703
 6460SOL    HW220280   0.169   5.988   5.611
 6461SOL     OW20281   2.988   4.485   0.834
 6461SOL    HW120282   2.912   4.549   0.847
 6461SOL    HW220283   2.977   4.437   0.746
 6462SOL     OW20284   1.700   4.267   4.990
 6462SOL    HW120285   1.698   4.168   5.006
 6462SOL    HW220286   1.678   4.285   4.894
 6463SOL     OW20287   4.579   1.194   1.394
 6463SOL    HW120288   4.586   1.095   1.407
 6463SOL    HW220289   4.593   1.216   1.298
 6464SOL     OW20290   1.272   6.346   4.154
 6464SOL    HW120291   1.216   6.398   4.089
 6464SOL    HW220292   1.270   6.392   4.244
 6465SOL     OW20293   4.981   2.488   2.960
 6465SOL    HW120294   5.020   2.580   2.973
 6465SOL    HW220295   4.946   2.454   3.048
 6466SOL     OW20296   0.051   3.772   0.288
 6466SOL    HW120297   0.107   3.733   0.215
 6466SOL    HW220298   0.084   3.864   0.310
 6467SOL     OW20299   3.283   1.233   0.941
 6467SOL    HW120300   3.245   1.321   0.968
 6467SOL    HW220301   3.229   1.195   0.865
 6468SOL     OW20302   3.068   0.225   0.328
 6468SOL    HW120303   3.131   0.225   0.250
 6468SOL    HW220304   3.005   0.148   0.319
 6469SOL     OW20305   3.393   1.855   3.629
 6469SOL    HW120306   3.415   1.759   3.611
 6469SOL    HW220307   3.347   1.863   3.717
 6470SOL     OW20308   6.414   2.470   6.414
 6470SOL    HW120309   6.331   2.433   6.456
 6470SOL    HW220310   6.491   2.459   6.478
 6471SOL     OW20311   0.403   6.000   4.675
 6471SOL    HW120312   0.366   5.951   4.753
 6471SOL    HW220313   0.498   6.026   4.695
 6472SOL     OW20314   0.095   5.985   2.210
 6472SOL    HW120315   0.145   5.985   2.297
 6472SOL    HW220316   0.083   5.891   2.178
 6473SOL     OW20317   1.815   1.327   3.891
 6473SOL    HW120318   1.759   1.293   3.815
 6473SOL    HW220319   1.808   1.427   3.896
 6474SOL     OW20320   4.102   6.152   4.353
 6474SOL    HW120321   4.202   6.145   4.360
 6474SOL    HW220322   4.064   6.182   4.440
 6475SOL     OW20323   5.645   5.170   3.013
 6475SOL    HW120324   5.655   5.098   2.944
 6475SOL    HW220325   5.614   5.254   2.969
 6476SOL     OW20326   4.068   1.897   6.623
 6476SOL    HW120327   4.145   1.921   6.682
 6476SOL    HW220328   3.986   1.947   6.652
 6477SOL     OW20329   7.018   6.037   1.041
 6477SOL    HW120330   0.049   6.072   1.119
 6477SOL    HW220331   6.922   6.027   1.066
 6478SOL     OW20332   3.229   5.487   1.752
 6478SOL    HW120333   3.167   5.412   1.774
 6478SOL    HW220334   3.243   5.491   1.653
 6479SOL     OW20335   3.455   6.301   3.944
 6479SOL    HW120336   3.404   6.284   3.860
 6479SOL    HW220337   3.411   6.254   4.020
 6480SOL     OW20338   3.001   1.182   6.421
 6480SOL    HW120339   3.061   1.182   6.501
 6480SOL    HW220340   3.052   1.150   6.341
 6481SOL     OW20341   3.370   2.617   1.554
 6481SOL    HW120342   3.326   2.673   1.483
 6481SOL    HW220343   3.300   2.577   1.613
 6482SOL     OW20344   6.687   3.074   5.158
 6482SOL    HW120345   6.688   3.068   5.058
 6482SOL    HW220346   6.755   3.141   5.187
 6483SOL     OW20347   1.198   5.779   4.873
 6483SOL    HW120348   1.219   5.821   4.961
 6483SOL    HW220349   1.181   5.681   4.885
 6484SOL     OW20350   2.645   0.801   3.712
 6484SOL    HW120351   2.569   0.736   3.710
 6484SOL    HW220352   2.718   0.765   3.771
 6485SOL     OW20353   1.756   6.605   4.580
 6485SOL    HW120354   1.758   6.508   4.606
 6485SOL    HW220355   1.761   6.662   4.662
 6486SOL     OW20356   1.605   5.313   3.325
 6486SOL    HW120357   1.690   5.276   3.290
 6486SOL    HW220358   1.581   5.266   3.410
 6487SOL     OW20359   0.208   4.673   4.094
 6487SOL    HW120360   0.306   4.693   4.099
 6487SOL    HW220361   0.162   4.712   4.174
 6488SOL     OW20362   5.074   5.642   4.644
 6488SOL    HW120363   5.127   5.627   4.727
 6488SOL    HW220364   4.997   5.578   4.641
 6489SOL     OW20365   4.184   3.109   6.066
 6489SOL    HW120366   4.084   3.107   6.054
 6489SOL    HW220367   4.208   3.056   6.147
 6490SOL     OW20368   1.856   1.571   6.665
 6490SOL    HW120369   1.807   1.491   6.701
 6490SOL    HW220370   1.927   1.598   6.729
 6491SOL     OW20371   1.309   0.156   0.803
 6491SOL    HW120372   1.288   0.247   0.838
 6491SOL    HW220373   1.275   0.087   0.868
 6492SOL     OW20374   3.460   4.156   4.544
 6492SOL    HW120375   3.461   4.247   4.586
 6492SOL    HW220376   3.449   4.087   4.615
 6493SOL     OW20377   1.377   4.583   6.515
 6493SOL    HW120378   1.463   4.543   6.550
 6493SOL    HW220379   1.361   4.552   6.422
 6494SOL     OW20380   6.243   6.261   1.620
 6494SOL    HW120381   6.342   6.267   1.602
 6494SOL    HW220382   6.228   6.225   1.712
 6495SOL     OW20383   0.020   0.168   3.519
 6495SOL    HW120384   0.061   0.259   3.516
 6495SOL    HW220385   0.090   0.099   3.504
 6496SOL     OW20386   4.484   0.138   2.241
 6496SOL    HW120387   4.535   0.208   2.193
 6496SOL    HW220388   4.507   0.048   2.204
 6497SOL     OW20389   0.114   1.382   0.786
 6497SOL    HW120390   0.047   1.433   0.732
 6497SOL    HW220391   0.191   1.441   0.809
 6498SOL     OW20392   0.947   4.247   4.093
 6498SOL    HW120393   0.849   4.247   4.114
 6498SOL    HW220394   0.982   4.154   4.100
 6499SOL     OW20395   6.140   4.077   4.330
 6499SOL    HW120396   6.135   4.066   4.231
 6499SOL    HW220397   6.193   4.158   4.353
 6500SOL     OW20398   1.588   3.559   2.525
 6500SOL    HW120399   1.637   3.569   2.612
 6500SOL    HW220400   1.651   3.570   2.449
 6501SOL     OW20401   6.414   2.023   0.958
 6501SOL    HW120402   6.435   1.980   0.871
 6501SOL    HW220403   6.482   1.996   1.027
 6502SOL     OW20404   6.107   3.801   1.985
 6502SOL    HW120405   6.121   3.705   2.008
 6502SOL    HW220406   6.011   3.825   1.999
 6503SOL     OW20407   6.638   2.886   5.537
 6503SOL    HW120408   6.570   2.938   5.588
 6503SOL    HW220409   6.723   2.882   5.589
 6504SOL     OW20410   4.856   6.540   6.611
 6504SOL    HW120411   4.895   6.592   6.687
 6504SOL    HW220412   4.758   6.526   6.627
 6505SOL     OW20413   5.632   6.120   6.935
 6505SOL    HW120414   5.612   6.022   6.933
 6505SOL    HW220415   5.715   6.136   6.989
 6506SOL     OW20416   0.473   2.987   3.029
 6506SOL    HW120417   0.554   2.937   2.997
 6506SOL    HW220418   0.391   2.946   2.989
 6507SOL     OW20419   2.930   5.213   6.634
 6507SOL    HW120420   2.897   5.236   6.542
 6507SOL    HW220421   3.026   5.186   6.629
 6508SOL     OW20422   1.448   6.683   1.502
 6508SOL    HW120423   1.440   6.769   1.452
 6508SOL    HW220424   1.539   6.645   1.489
 6509SOL     OW20425   3.523   1.598   5.434
 6509SOL    HW120426   3.595   1.540   5.396
 6509SOL    HW220427   3.442   1.542   5.453
 6510SOL     OW20428   4.431   5.882   5.571
 6510SOL    HW120429   4.363   5.824   5.524
 6510SOL    HW220430   4.471   5.831   5.647
 6511SOL     OW20431   4.016   1.573   6.560
 6511SOL    HW120432   3.951   1.602   6.489
 6511SOL    HW220433   3.975   1.588   6.650
 6512SOL     OW20434   3.139   0.755   1.252
 6512SOL    HW120435   3.164   0.844   1.213
 6512SOL    HW220436   3.105   0.768   1.345
 6513SOL     OW20437   2.778   5.424   4.676
 6513SOL    HW120438   2.830   5.359   4.733
 6513SOL    HW220439   2.757   5.382   4.588
 6514SOL     OW20440   5.828   0.528   4.968
 6514SOL    HW120441   5.773   0.533   5.051
 6514SOL    HW220442   5.834   0.433   4.938
 6515SOL     OW20443   2.102   5.026   2.023
 6515SOL    HW120444   2.072   5.069   2.108
 6515SOL    HW220445   2.027   4.971   1.986
 6516SOL     OW20446   0.316   2.901   1.468
 6516SOL    HW120447   0.218   2.921   1.477
 6516SOL    HW220448   0.369   2.971   1.515
 6517SOL     OW20449   0.043   2.620   6.553
 6517SOL    HW120450   6.998   2.696   6.558
 6517SOL    HW220451   0.028   2.559   6.631
 6518SOL     OW20452   0.545   1.140   2.814
 6518SOL    HW120453   0.544   1.229   2.858
 6518SOL    HW220454   0.574   1.150   2.718
 6519SOL     OW20455   0.871   1.499   3.292
 6519SOL    HW120456   0.794   1.517   3.230
 6519SOL    HW220457   0.872   1.402   3.316
 6520SOL     OW20458   6.946   5.694   6.654
 6520SOL    HW120459   6.893   5.609   6.659
 6520SOL    HW220460   6.887   5.768   6.621
 6521SOL     OW20461   1.194   2.990   4.383
 6521SOL    HW120462   1.261   2.917   4.365
 6521SOL    HW220463   1.223   3.043   4.462
 6522SOL     OW20464   2.790   4.072   5.366
 6522SOL    HW120465   2.711   4.038   5.316
 6522SOL    HW220466   2.855   4.113   5.302
 6523SOL     OW20467   6.056   0.051   0.156
 6523SOL    HW120468   6.148   0.079   0.127
 6523SOL    HW220469   5.993   0.129   0.148
 6524SOL     OW20470   2.493   2.014   1.710
 6524SOL    HW120471   2.546   2.084   1.662
 6524SOL    HW220472   2.396   2.039   1.709
 6525SOL     OW20473   1.265   5.179   3.557
 6525SOL    HW120474   1.241   5.266   3.600
 6525SOL    HW220475   1.181   5.132   3.529
 6526SOL     OW20476   0.406   6.868   0.789
 6526SOL    HW120477   0.372   6.932   0.721
 6526SOL    HW220478   0.336   6.852   0.859
 6527SOL     OW20479   0.579   2.445   0.639
 6527SOL    HW120480   0.640   2.398   0.576
 6527SOL    HW220481   0.632   2.481   0.716
 6528SOL     OW20482   6.147   1.023   5.670
 6528SOL    HW120483   6.109   1.113   5.692
 6528SOL    HW220484   6.220   1.001   5.735
 6529SOL     OW20485   6.839   1.494   2.183
 6529SOL    HW120486   6.881   1.554   2.251
 6529SOL    HW220487   6.772   1.435   2.227
 6530SOL     OW20488   0.581   2.441   2.245
 6530SOL    HW120489   0.649   2.500   2.200
 6530SOL    HW220490   0.505   2.497   2.277
 6531SOL     OW20491   4.309   3.372   6.113
 6531SOL    HW120492   4.404   3.340   6.117
 6531SOL    HW220493   4.248   3.294   6.101
 6532SOL     OW20494   1.236   0.838   1.041
 6532SOL    HW120495   1.270   0.915   1.095
 6532SOL    HW220496   1.244   0.860   0.944
 6533SOL     OW20497   4.569   4.200   6.709
 6533SOL    HW120498   4.563   4.242   6.800
 6533SOL    HW220499   4.657   4.224   6.667
 6534SOL     OW20500   5.805   4.607   2.144
 6534SOL    HW120501   5.845   4.642   2.228
 6534SOL    HW220502   5.707   4.592   2.157
 6535SOL     OW20503   5.855   3.268   4.361
 6535SOL    HW120504   5.837   3.268   4.460
 6535SOL    HW220505   5.912   3.189   4.338
 6536SOL     OW20506   0.463   2.694   5.482
 6536SOL    HW120507   0.481   2.700   5.580
 6536SOL    HW220508   0.391   2.626   5.465
 6537SOL     OW20509   6.280   4.501   5.091
 6537SOL    HW120510   6.254   4.589   5.053
 6537SOL    HW220511   6.360   4.511   5.149
 6538SOL     OW20512   2.150   3.764   4.966
 6538SOL    HW120513   2.211   3.712   5.026
 6538SOL    HW220514   2.190   3.854   4.948
 6539SOL     OW20515   6.172   1.025   6.968
 6539SOL    HW120516   6.218   1.053   6.884
 6539SOL    HW220517   6.215   1.069   0.027
 6540SOL     OW20518   3.976   2.568   5.987
 6540SOL    HW120519   3.944   2.553   5.893
 6540SOL    HW220520   3.960   2.663   6.013
 6541SOL     OW20521   5.902   1.567   5.265
 6541SOL    HW120522   5.950   1.480   5.261
 6541SOL    HW220523   5.959   1.639   5.228
 6542SOL     OW20524   1.519   3.228   4.525
 6542SOL    HW120525   1.587   3.156   4.540
 6542SOL    HW220526   1.522   3.293   4.601
 6543SOL     OW20527   3.664   2.037   4.887
 6543SOL    HW120528   3.594   2.106   4.868
 6543SOL    HW220529   3.753   2.081   4.898
 6544SOL     OW20530   0.805   0.146   1.726
 6544SOL    HW120531   0.792   0.242   1.748
 6544SOL    HW220532   0.769   0.128   1.634
 6545SOL     OW20533   4.501   6.868   1.138
 6545SOL    HW120534   4.444   6.906   1.065
 6545SOL    HW220535   4.452   6.877   1.225
 6546SOL     OW20536   5.239   4.611   6.491
 6546SOL    HW120537   5.314   4.650   6.546
 6546SOL    HW220538   5.258   4.515   6.474
 6547SOL     OW20539   5.436   6.268   6.806
 6547SOL    HW120540   5.363   6.315   6.855
 6547SOL    HW220541   5.473   6.195   6.863
 6548SOL     OW20542   0.795   2.871   6.099
 6548SOL    HW120543   0.885   2.914   6.107
 6548SOL    HW220544   0.783   2.835   6.006
 6549SOL     OW20545   5.179   6.621   2.098
 6549SOL    HW120546   5.084   6.638   2.072
 6549SOL    HW220547   5.191   6.644   2.195
 6550SOL     OW20548   6.586   6.935   3.038
 6550SOL    HW120549   6.542   6.991   3.109
 6550SOL    HW220550   6.685   6.942   3.046
 6551SOL     OW20551   3.047   3.606   1.512
 6551SOL    HW120552   2.955   3.643   1.509
 6551SOL    HW220553   3.043   3.507   1.526
 6552SOL     OW20554   2.190   6.764   0.517
 6552SOL    HW120555   2.259   6.829   0.549
 6552SOL    HW220556   2.119   6.752   0.586
 6553SOL     OW20557   7.010   1.146   2.568
 6553SOL    HW120558   0.061   1.203   2.525
 6553SOL    HW220559   6.928   1.147   2.510
 6554SOL     OW20560   2.825   1.045   4.534
 6554SOL    HW120561   2.841   0.953   4.499
 6554SOL    HW220562   2.752   1.088   4.481
 6555SOL     OW20563   6.240   2.111   5.058
 6555SOL    HW120564   6.182   2.033   5.081
 6555SOL    HW220565   6.243   2.175   5.136
 6556SOL     OW20566   6.100   3.304   3.276
 6556SOL    HW120567   6.181   3.315   3.219
 6556SOL    HW220568   6.046   3.227   3.243
 6557SOL     OW20569   1.238   6.623   2.282
 6557SOL    HW120570   1.234   6.590   2.188
 6557SOL    HW220571   1.149   6.660   2.309
 6558SOL     OW20572   5.868   5.225   0.370
 6558SOL    HW120573   5.955   5.274   0.375
 6558SOL    HW220574   5.876   5.150   0.304
 6559SOL     OW20575   6.793   3.514   6.335
 6559SOL    HW120576   6.696   3.495   6.319
 6559SOL    HW220577   6.818   3.484   6.427
 6560SOL     OW20578   4.432   4.780   0.723
 6560SOL    HW120579   4.363   4.831   0.671
 6560SOL    HW220580   4.501   4.843   0.758
 6561SOL     OW20581   3.951   5.164   0.445
 6561SOL    HW120582   3.957   5.170   0.545
 6561SOL    HW220583   4.008   5.234   0.404
 6562SOL     OW20584   5.623   2.432   0.879
 6562SOL    HW120585   5.532   2.461   0.908
 6562SOL    HW220586   5.672   2.509   0.839
 6563SOL     OW20587   5.206   6.793   5.423
 6563SOL    HW120588   5.133   6.859   5.407
 6563SOL    HW220589   5.226   6.745   5.337
 6564SOL     OW20590   6.916   3.806   2.431
 6564SOL    HW120591   6.943   3.801   2.527
 6564SOL    HW220592   6.990   3.770   2.374
 6565SOL     OW20593   6.315   6.576   2.369
 6565SOL    HW120594   6.342   6.672   2.375
 6565SOL    HW220595   6.217   6.568   2.388
 6566SOL     OW20596   3.639   5.550   2.534
 6566SOL    HW120597   3.594   5.593   2.457
 6566SOL    HW220598   3.657   5.618   2.605
 6567SOL     OW20599   4.489   0.668   1.581
 6567SOL    HW120600   4.478   0.679   1.482
 6567SOL    HW220601   4.583   0.641   1.602
 6568SOL     OW20602   3.991   1.499   2.046
 6568SOL    HW120603   4.051   1.543   2.114
 6568SOL    HW220604   3.990   1.553   1.962
 6569SOL     OW20605   0.943   3.109   5.803
 6569SOL    HW120606   0.867   3.168   5.831
 6569SOL    HW220607   1.019   3.164   5.771
 6570SOL     OW20608   4.047   0.019   2.037
 6570SOL    HW120609   3.958   7.001   2.013
 6570SOL    HW220610   4.058   0.108   1.994
 6571SOL     OW20611   2.400   4.699   3.615
 6571SOL    HW120612   2.445   4.749   3.690
 6571SOL    HW220613   2.391   4.602   3.640
 6572SOL     OW20614   0.162   4.801   3.831
 6572SOL    HW120615   0.085   4.739   3.812
 6572SOL    HW220616   0.206   4.775   3.917
 6573SOL     OW20617   1.582   0.938   2.983
 6573SOL    HW120618   1.682   0.946   2.975
 6573SOL    HW220619   1.553   0.980   3.069
 6574SOL     OW20620   1.995   6.507   3.000
 6574SOL    HW120621   1.971   6.468   2.911
 6574SOL    HW220622   2.055   6.586   2.987
 6575SOL     OW20623   6.960   0.341   2.664
 6575SOL    HW120624   6.997   0.249   2.675
 6575SOL    HW220625   6.876   0.337   2.610
 6576SOL     OW20626   3.532   4.946   0.294
 6576SOL    HW120627   3.611   4.894   0.264
 6576SOL    HW220628   3.560   5.040   0.316
 6577SOL     OW20629   1.866   2.499   4.011
 6577SOL    HW120630   1.781   2.551   4.020
 6577SOL    HW220631   1.944   2.560   4.027
 6578SOL     OW20632   1.367   5.065   1.025
 6578SOL    HW120633   1.346   4.968   1.010
 6578SOL    HW220634   1.379   5.110   0.937
 6579SOL     OW20635   6.987   1.096   3.726
 6579SOL    HW120636   6.894   1.090   3.762
 6579SOL    HW220637   0.030   1.053   3.790
 6580SOL     OW20638   1.022   0.330   0.054
 6580SOL    HW120639   1.115   0.349   0.021
 6580SOL    HW220640   1.017   0.351   0.152
 6581SOL     OW20641   1.649   1.660   0.192
 6581SOL    HW120642   1.600   1.719   0.128
 6581SOL    HW220643   1.743   1.649   0.162
 6582SOL     OW20644   6.600   0.221   2.908
 6582SOL    HW120645   6.598   0.129   2.868
 6582SOL    HW220646   6.579   0.288   2.837
 6583SOL     OW20647   4.330   0.165   6.179
 6583SOL    HW120648   4.311   0.263   6.173
 6583SOL    HW220649   4.256   0.114   6.136
 6584SOL     OW20650   3.808   2.573   1.044
 6584SOL    HW120651   3.739   2.503   1.060
 6584SOL    HW220652   3.890   2.551   1.096
 6585SOL     OW20653   6.257   0.154   0.752
 6585SOL    HW120654   6.169   0.114   0.777
 6585SOL    HW220655   6.309   0.174   0.835
 6586SOL     OW20656   6.225   2.257   6.028
 6586SOL    HW120657   6.277   2.173   6.039
 6586SOL    HW220658   6.274   2.333   6.071
 6587SOL     OW20659   1.254   4.527   5.443
 6587SOL    HW120660   1.241   4.611   5.390
 6587SOL    HW220661   1.326   4.540   5.510
 6588SOL     OW20662   0.377   3.112   0.746
 6588SOL    HW120663   0.287   3.148   0.723
 6588SOL    HW220664   0.425   3.086   0.662
 6589SOL     OW20665   6.379   1.110   1.373
 6589SOL    HW120666   6.463   1.073   1.414
 6589SOL    HW220667   6.308   1.039   1.372
 6590SOL     OW20668   0.693   0.734   5.375
 6590SOL    HW120669   0.609   0.682   5.388
 6590SOL    HW220670   0.749   0.691   5.304
 6591SOL     OW20671   5.194   5.419   4.474
 6591SOL    HW120672   5.209   5.395   4.378
 6591SOL    HW220673   5.141   5.503   4.480
 6592SOL     OW20674   5.005   0.242   3.249
 6592SOL    HW120675   5.016   0.342   3.251
 6592SOL    HW220676   5.095   0.199   3.254
 6593SOL     OW20677   2.805   2.152   2.238
 6593SOL    HW120678   2.851   2.064   2.224
 6593SOL    HW220679   2.836   2.217   2.169
 6594SOL     OW20680   3.809   1.665   5.890
 6594SOL    HW120681   3.877   1.737   5.874
 6594SOL    HW220682   3.847   1.577   5.862
 6595SOL     OW20683   2.224   2.334   4.690
 6595SOL    HW120684   2.134   2.305   4.721
 6595SOL    HW220685   2.294   2.295   4.749
 6596SOL     OW20686   5.168   5.661   2.489
 6596SOL    HW120687   5.154   5.698   2.581
 6596SOL    HW220688   5.151   5.563   2.490
 6597SOL     OW20689   0.985   5.383   1.413
 6597SOL    HW120690   0.998   5.428   1.502
 6597SOL    HW220691   1.005   5.448   1.340
 6598SOL     OW20692   1.801   4.541   4.157
 6598SOL    HW120693   1.707   4.510   4.174
 6598SOL    HW220694   1.863   4.463   4.164
 6599SOL     OW20695   5.889   5.899   6.816
 6599SOL    HW120696   5.858   5.969   6.751
 6599SOL    HW220697   5.976   5.926   6.855
 6600SOL     OW20698   4.886   0.827   5.567
 6600SOL    HW120699   4.967   0.875   5.601
 6600SOL    HW220700   4.864   0.752   5.629
 6601SOL     OW20701   1.153   2.841   3.035
 6601SOL    HW120702   1.068   2.810   3.078
 6601SOL    HW220703   1.154   2.814   2.939
 6602SOL     OW20704   2.331   0.200   1.325
 6602SOL    HW120705   2.392   0.236   1.254
 6602SOL    HW220706   2.381   0.134   1.381
 6603SOL     OW20707   0.614   3.256   4.270
 6603SOL    HW120708   0.662   3.175   4.239
 6603SOL    HW220709   0.629   3.331   4.205
 6604SOL     OW20710   2.588   0.611   1.993
 6604SOL    HW120711   2.580   0.620   2.092
 6604SOL    HW220712   2.682   0.584   1.969
 6605SOL     OW20713   6.013   5.810   1.674
 6605SOL    HW120714   5.978   5.854   1.757
 6605SOL    HW220715   6.046   5.719   1.697
 6606SOL     OW20716   1.311   4.072   3.389
 6606SOL    HW120717   1.324   4.037   3.482
 6606SOL    HW220718   1.400   4.080   3.344
 6607SOL     OW20719   5.870   4.603   4.293
 6607SOL    HW120720   5.916   4.679   4.340
 6607SOL    HW220721   5.927   4.521   4.300
 6608SOL     OW20722   6.874   6.877   6.912
 6608SOL    HW120723   6.883   6.976   6.900
 6608SOL    HW220724   6.916   6.831   6.834
 6609SOL     OW20725   4.997   2.058   5.970
 6609SOL    HW120726   5.009   2.137   6.030
 6609SOL    HW220727   5.025   1.975   6.018
 6610SOL     OW20728   2.374   5.952   0.652
 6610SOL    HW120729   2.443   5.951   0.724
 6610SOL    HW220730   2.315   6.032   0.664
 6611SOL     OW20731   4.769   2.462   3.493
 6611SOL    HW120732   4.796   2.485   3.399
 6611SOL    HW220733   4.844   2.482   3.555
 6612SOL     OW20734   6.017   2.096   6.192
 6612SOL    HW120735   6.079   2.157   6.142
 6612SOL    HW220736   5.960   2.046   6.127
 6613SOL     OW20737   5.428   0.825   6.390
 6613SOL    HW120738   5.523   0.796   6.395
 6613SOL    HW220739   5.380   0.796   6.473
 6614SOL     OW20740   4.401   5.846   1.758
 6614SOL    HW120741   4.463   5.884   1.690
 6614SOL    HW220742   4.441   5.856   1.849
 6615SOL     OW20743   3.075   5.626   0.192
 6615SOL    HW120744   3.008   5.586   0.129
 6615SOL    HW220745   3.028   5.686   0.257
 6616SOL     OW20746   4.455   0.441   6.356
 6616SOL    HW120747   4.483   0.489   6.273
 6616SOL    HW220748   4.486   0.492   6.437
 6617SOL     OW20749   4.075   0.535   3.186
 6617SOL    HW120750   4.103   0.472   3.259
 6617SOL    HW220751   4.024   0.611   3.226
 6618SOL     OW20752   0.697   1.536   3.116
 6618SOL    HW120753   0.673   1.633   3.113
 6618SOL    HW220754   0.632   1.483   3.061
 6619SOL     OW20755   4.445   0.161   4.064
 6619SOL    HW120756   4.524   0.156   4.125
 6619SOL    HW220757   4.453   0.089   3.994
 6620SOL     OW20758   1.034   3.959   3.754
 6620SOL    HW120759   1.110   3.990   3.697
 6620SOL    HW220760   0.985   4.038   3.790
 6621SOL     OW20761   3.597   2.954   4.763
 6621SOL    HW120762   3.504   2.918   4.750
 6621SOL    HW220763   3.599   3.050   4.734
 6622SOL     OW20764   6.311   5.753   0.834
 6622SOL    HW120765   6.338   5.773   0.928
 6622SOL    HW220766   6.322   5.835   0.778
 6623SOL     OW20767   3.368   4.067   5.334
 6623SOL    HW120768   3.382   4.133   5.260
 6623SOL    HW220769   3.272   4.039   5.335
 6624SOL     OW20770   0.828   2.388   4.866
 6624SOL    HW120771   0.817   2.388   4.767
 6624SOL    HW220772   0.807   2.478   4.903
 6625SOL     OW20773   6.280   3.240   5.753
 6625SOL    HW120774   6.223   3.177   5.701
 6625SOL    HW220775   6.252   3.334   5.734
 6626SOL     OW20776   2.832   0.035   4.690
 6626SOL    HW120777   2.825   6.956   4.679
 6626SOL    HW220778   2.889   0.073   4.618
 6627SOL     OW20779   1.303   5.939   4.330
 6627SOL    HW120780   1.334   6.009   4.394
 6627SOL    HW220781   1.307   5.974   4.237
 6628SOL     OW20782   4.961   5.707   4.164
 6628SOL    HW120783   5.008   5.789   4.196
 6628SOL    HW220784   4.996   5.682   4.074
 6629SOL     OW20785   4.929   5.763   6.656
 6629SOL    HW120786   5.004   5.720   6.704
 6629SOL    HW220787   4.952   5.771   6.559
 6630SOL     OW20788   2.954   1.283   2.054
 6630SOL    HW120789   2.871   1.299   2.000
 6630SOL    HW220790   3.028   1.254   1.993
 6631SOL     OW20791   1.176   5.389   5.757
 6631SOL    HW120792   1.085   5.408   5.721
 6631SOL    HW220793   1.202   5.295   5.735
 6632SOL     OW20794   1.350   0.580   1.065
 6632SOL    HW120795   1.333   0.677   1.050
 6632SOL    HW220796   1.380   0.565   1.160
 6633SOL     OW20797   3.175   5.143   6.270
 6633SOL    HW120798   3.161   5.053   6.312
 6633SOL    HW220799   3.163   5.134   6.171
 6634SOL     OW20800   5.351   1.963   5.761
 6634SOL    HW120801   5.417   2.017   5.813
 6634SOL    HW220802   5.268   2.017   5.747
 6635SOL     OW20803   4.660   4.541   2.596
 6635SOL    HW120804   4.610   4.621   2.563
 6635SOL    HW220805   4.680   4.553   2.694
 6636SOL     OW20806   2.845   0.167   2.532
 6636SOL    HW120807   2.836   0.203   2.439
 6636SOL    HW220808   2.887   0.076   2.528
 6637SOL     OW20809   1.798   0.677   0.790
 6637SOL    HW120810   1.813   0.764   0.744
 6637SOL    HW220811   1.776   0.693   0.886
 6638SOL     OW20812   3.129   4.045   3.578
 6638SOL    HW120813   3.196   4.092   3.521
 6638SOL    HW220814   3.121   3.950   3.549
 6639SOL     OW20815   4.373   2.574   0.677
 6639SOL    HW120816   4.297   2.604   0.736
 6639SOL    HW220817   4.343   2.495   0.623
 6640SOL     OW20818   0.470   2.891   5.274
 6640SOL    HW120819   0.377   2.884   5.237
 6640SOL    HW220820   0.481   2.825   5.349
 6641SOL     OW20821   4.269   1.687   1.007
 6641SOL    HW120822   4.210   1.627   0.953
 6641SOL    HW220823   4.215   1.764   1.040
 6642SOL     OW20824   2.001   5.312   0.702
 6642SOL    HW120825   1.946   5.239   0.744
 6642SOL    HW220826   2.045   5.277   0.620
 6643SOL     OW20827   5.333   6.329   0.258
 6643SOL    HW120828   5.363   6.411   0.307
 6643SOL    HW220829   5.412   6.272   0.235
 6644SOL     OW20830   1.946   6.596   2.398
 6644SOL    HW120831   2.005   6.544   2.460
 6644SOL    HW220832   1.851   6.571   2.414
 6645SOL     OW20833   5.956   2.833   0.654
 6645SOL    HW120834   6.016   2.786   0.719
 6645SOL    HW220835   5.861   2.818   0.681
 6646SOL     OW20836   4.125   1.021   0.196
 6646SOL    HW120837   4.166   1.018   0.105
 6646SOL    HW220838   4.031   1.055   0.190
 6647SOL     OW20839   4.922   5.284   1.072
 6647SOL    HW120840   4.945   5.288   0.974
 6647SOL    HW220841   4.968   5.206   1.114
 6648SOL     OW20842   3.525   6.481   4.414
 6648SOL    HW120843   3.436   6.452   4.379
 6648SOL    HW220844   3.530   6.462   4.512
 6649SOL     OW20845   5.781   2.980   6.502
 6649SOL    HW120846   5.768   2.907   6.569
 6649SOL    HW220847   5.878   2.991   6.483
 6650SOL     OW20848   4.073   0.955   5.399
 6650SOL    HW120849   4.052   0.869   5.446
 6650SOL    HW220850   4.013   1.027   5.433
 6651SOL     OW20851   1.146   1.834   0.021
 6651SOL    HW120852   1.218   1.778   0.061
 6651SOL    HW220853   1.081   1.861   0.092
 6652SOL     OW20854   0.874   4.251   0.170
 6652SOL    HW120855   0.785   4.212   0.148
 6652SOL    HW220856   0.922   4.276   0.086
 6653SOL     OW20857   4.983   2.895   0.338
 6653SOL    HW120858   4.912   2.939   0.283
 6653SOL    HW220859   5.073   2.927   0.309
 6654SOL     OW20860   0.386   4.713   2.913
 6654SOL    HW120861   0.407   4.689   2.818
 6654SOL    HW220862   0.305   4.772   2.916
 6655SOL     OW20863   6.800   5.331   1.728
 6655SOL    HW120864   6.765   5.240   1.750
 6655SOL    HW220865   6.728   5.399   1.743
 6656SOL     OW20866   4.218   1.535   2.604
 6656SOL    HW120867   4.290   1.486   2.653
 6656SOL    HW220868   4.167   1.471   2.547
 6657SOL     OW20869   5.304   2.266   4.649
 6657SOL    HW120870   5.210   2.240   4.671
 6657SOL    HW220871   5.303   2.332   4.573
 6658SOL     OW20872   6.298   0.315   5.282
 6658SOL    HW120873   6.232   0.246   5.312
 6658SOL    HW220874   6.250   0.398   5.254
 6659SOL     OW20875   1.461   5.228   1.814
 6659SOL    HW120876   1.419   5.248   1.902
 6659SOL    HW220877   1.545   5.175   1.827
 6660SOL     OW20878   1.433   5.567   2.705
 6660SOL    HW120879   1.458   5.643   2.765
 6660SOL    HW220880   1.511   5.542   2.648
 6661SOL     OW20881   3.055   6.688   4.184
 6661SOL    HW120882   3.128   6.624   4.160
 6661SOL    HW220883   2.969   6.638   4.192
 6662SOL     OW20884   2.222   0.425   1.901
 6662SOL    HW120885   2.188   0.481   1.825
 6662SOL    HW220886   2.235   0.484   1.982
 6663SOL     OW20887   1.357   5.789   6.356
 6663SOL    HW120888   1.337   5.840   6.272
 6663SOL    HW220889   1.278   5.733   6.380
 6664SOL     OW20890   2.286   0.631   2.065
 6664SOL    HW120891   2.273   0.678   1.978
 6664SOL    HW220892   2.354   0.681   2.120
 6665SOL     OW20893   3.006   0.003   5.953
 6665SOL    HW120894   3.049   0.061   6.023
 6665SOL    HW220895   3.077   6.981   5.896
 6666SOL     OW20896   6.294   5.527   5.004
 6666SOL    HW120897   6.364   5.576   4.953
 6666SOL    HW220898   6.209   5.526   4.952
 6667SOL     OW20899   0.109   6.614   5.389
 6667SOL    HW120900   0.194   6.562   5.384
 6667SOL    HW220901   0.089   6.636   5.485
 6668SOL     OW20902   6.901   5.972   1.421
 6668SOL    HW120903   6.971   6.030   1.378
 6668SOL    HW220904   6.851   6.025   1.490
 6669SOL     OW20905   2.911   1.642   1.929
 6669SOL    HW120906   2.882   1.600   2.016
 6669SOL    HW220907   2.922   1.741   1.942
 6670SOL     OW20908   2.991   1.800   6.916
 6670SOL    HW120909   2.977   1.778   6.819
 6670SOL    HW220910   3.068   1.862   6.925
 6671SOL     OW20911   4.793   6.533   0.635
 6671SOL    HW120912   4.832   6.593   0.705
 6671SOL    HW220913   4.798   6.438   0.665
 6672SOL     OW20914   1.579   2.677   0.245
 6672SOL    HW120915   1.562   2.763   0.196
 6672SOL    HW220916   1.537   2.682   0.336
 6673SOL     OW20917   5.342   3.377   3.970
 6673SOL    HW120918   5.434   3.365   3.931
 6673SOL    HW220919   5.317   3.474   3.968
 6674SOL     OW20920   0.517   2.809   6.421
 6674SOL    HW120921   0.449   2.737   6.428
 6674SOL    HW220922   0.473   2.899   6.425
 6675SOL     OW20923   4.410   2.352   6.962
 6675SOL    HW120924   4.383   2.321   6.871
 6675SOL    HW220925   4.365   2.296   0.012
 6676SOL     OW20926   1.560   4.118   3.300
 6676SOL    HW120927   1.617   4.112   3.382
 6676SOL    HW220928   1.585   4.045   3.237
 6677SOL     OW20929   0.774   0.813   6.974
 6677SOL    HW120930   0.682   0.776   6.979
 6677SOL    HW220931   0.809   0.830   0.047
 6678SOL     OW20932   1.753   3.896   0.608
 6678SOL    HW120933   1.815   3.870   0.681
 6678SOL    HW220934   1.777   3.846   0.524
 6679SOL     OW20935   2.830   0.665   3.868
 6679SOL    HW120936   2.838   0.581   3.814
 6679SOL    HW220937   2.918   0.713   3.868
 6680SOL     OW20938   4.573   6.793   0.394
 6680SOL    HW120939   4.540   6.828   0.482
 6680SOL    HW220940   4.668   6.763   0.404
 6681SOL     OW20941   4.820   5.227   1.516
 6681SOL    HW120942   4.886   5.264   1.451
 6681SOL    HW220943   4.849   5.136   1.544
 6682SOL     OW20944   2.557   5.166   0.032
 6682SOL    HW120945   2.631   5.119   7.003
 6682SOL    HW220946   2.591   5.253   0.068
 6683SOL     OW20947   6.048   3.362   6.619
 6683SOL    HW120948   6.035   3.352   6.521
 6683SOL    HW220949   5.979   3.423   6.656
 6684SOL     OW20950   3.440   0.238   1.672
 6684SOL    HW120951   3.473   0.175   1.602
 6684SOL    HW220952   3.516   0.293   1.706
 6685SOL     OW20953   3.887   3.370   6.673
 6685SOL    HW120954   3.915   3.333   6.584
 6685SOL    HW220955   3.919   3.309   6.746
 6686SOL     OW20956   6.243   5.572   3.561
 6686SOL    HW120957   6.249   5.606   3.467
 6686SOL    HW220958   6.157   5.603   3.602
 6687SOL     OW20959   6.738   2.243   1.251
 6687SOL    HW120960   6.800   2.184   1.302
 6687SOL    HW220961   6.735   2.333   1.294
 6688SOL     OW20962   4.202   4.204   0.761
 6688SOL    HW120963   4.190   4.291   0.713
 6688SOL    HW220964   4.191   4.218   0.860
 6689SOL     OW20965   3.830   4.146   5.812
 6689SOL    HW120966   3.801   4.065   5.863
 6689SOL    HW220967   3.752   4.188   5.767
 6690SOL     OW20968   1.421   0.767   6.327
 6690SOL    HW120969   1.373   0.781   6.241
 6690SOL    HW220970   1.382   0.688   6.374
 6691SOL     OW20971   1.785   1.079   2.530
 6691SOL    HW120972   1.692   1.071   2.494
 6691SOL    HW220973   1.782   1.126   2.618
 6692SOL     OW20974   4.348   4.510   1.821
 6692SOL    HW120975   4.292   4.500   1.739
 6692SOL    HW220976   4.383   4.420   1.848
 6693SOL     OW20977   4.809   1.923   4.694
 6693SOL    HW120978   4.907   1.912   4.712
 6693SOL    HW220979   4.758   1.912   4.779
 6694SOL     OW20980   3.515   5.329   1.533
 6694SOL    HW120981   3.420   5.360   1.535
 6694SOL    HW220982   3.575   5.406   1.514
 6695SOL     OW20983   3.073   2.346   0.242
 6695SOL    HW120984   3.040   2.420   0.183
 6695SOL    HW220985   3.111   2.385   0.326
 6696SOL     OW20986   4.107   3.765   3.613
 6696SOL    HW120987   4.129   3.807   3.702
 6696SOL    HW220988   4.056   3.681   3.627
 6697SOL     OW20989   5.292   2.268   2.593
 6697SOL    HW120990   5.204   2.223   2.575
 6697SOL    HW220991   5.366   2.202   2.582
 6698SOL     OW20992   3.297   3.654   1.640
 6698SOL    HW120993   3.207   3.646   1.596
 6698SOL    HW220994   3.358   3.706   1.581
 6699SOL     OW20995   1.772   5.713   6.046
 6699SOL    HW120996   1.768   5.803   6.090
 6699SOL    HW220997   1.685   5.695   5.998
 6700SOL     OW20998   5.775   0.241   0.731
 6700SOL    HW120999   5.856   0.254   0.674
 6700SOL    HW221000   5.725   0.328   0.738
 6701SOL     OW21001   6.346   6.982   1.521
 6701SOL    HW121002   6.260   6.973   1.572
 6701SOL    HW221003   6.366   6.895   1.475
 6702SOL     OW21004   1.927   2.125   1.004
 6702SOL    HW121005   1.993   2.108   0.931
 6702SOL    HW221006   1.969   2.183   1.074
 6703SOL     OW21007   1.227   1.461   6.347
 6703SOL    HW121008   1.282   1.407   6.410
 6703SOL    HW221009   1.269   1.460   6.256
 6704SOL     OW21010   3.530   1.572   4.329
 6704SOL    HW121011   3.542   1.475   4.349
 6704SOL    HW221012   3.442   1.603   4.364
 6705SOL     OW21013   6.113   3.307   1.212
 6705SOL    HW121014   6.121   3.220   1.262
 6705SOL    HW221015   6.088   3.380   1.276
 6706SOL     OW21016   1.295   6.177   0.895
 6706SOL    HW121017   1.389   6.181   0.863
 6706SOL    HW221018   1.278   6.090   0.942
 6707SOL     OW21019   5.843   0.310   2.471
 6707SOL    HW121020   5.873   0.390   2.419
 6707SOL    HW221021   5.799   0.245   2.409
 6708SOL     OW21022   6.249   4.720   1.725
 6708SOL    HW121023   6.168   4.661   1.732
 6708SOL    HW221024   6.233   4.791   1.657
 6709SOL     OW21025   1.181   4.275   1.833
 6709SOL    HW121026   1.087   4.257   1.862
 6709SOL    HW221027   1.240   4.280   1.913
 6710SOL     OW21028   4.724   1.163   1.900
 6710SOL    HW121029   4.822   1.166   1.922
 6710SOL    HW221030   4.710   1.195   1.806
 6711SOL     OW21031   4.754   6.270   6.233
 6711SOL    HW121032   4.820   6.218   6.287
 6711SOL    HW221033   4.682   6.209   6.201
 6712SOL     OW21034   6.240   3.579   0.478
 6712SOL    HW121035   6.194   3.522   0.546
 6712SOL    HW221036   6.173   3.614   0.412
 6713SOL     OW21037   1.344   0.957   3.774
 6713SOL    HW121038   1.261   1.009   3.754
 6713SOL    HW221039   1.340   0.922   3.867
 6714SOL     OW21040   6.084   1.384   1.084
 6714SOL    HW121041   6.053   1.443   1.158
 6714SOL    HW221042   6.069   1.429   0.996
 6715SOL     OW21043   1.900   0.841   1.489
 6715SOL    HW121044   1.855   0.759   1.523
 6715SOL    HW221045   1.843   0.884   1.419
 6716SOL     OW21046   6.542   5.611   2.068
 6716SOL    HW121047   6.540   5.529   2.126
 6716SOL    HW221048   6.597   5.594   1.987
 6717SOL     OW21049   3.326   2.568   6.695
 6717SOL    HW121050   3.253   2.525   6.643
 6717SOL    HW221051   3.291   2.650   6.741
 6718SOL     OW21052   4.477   1.474   1.410
 6718SOL    HW121053   4.479   1.375   1.428
 6718SOL    HW221054   4.383   1.502   1.393
 6719SOL     OW21055   1.787   6.902   0.284
 6719SOL    HW121056   1.832   6.902   0.374
 6719SOL    HW221057   1.839   6.959   0.221
 6720SOL     OW21058   2.889   0.871   5.502
 6720SOL    HW121059   2.972   0.861   5.446
 6720SOL    HW221060   2.867   0.968   5.511
 6721SOL     OW21061   0.264   0.345   0.352
 6721SOL    HW121062   0.266   0.248   0.326
 6721SOL    HW221063   0.335   0.362   0.421
 6722SOL     OW21064   0.206   3.003   0.362
 6722SOL    HW121065   0.243   3.070   0.297
 6722SOL    HW221066   0.148   3.050   0.429
 6723SOL     OW21067   2.171   1.001   6.671
 6723SOL    HW121068   2.104   0.985   6.744
 6723SOL    HW221069   2.222   1.085   6.690
 6724SOL     OW21070   2.469   2.850   6.266
 6724SOL    HW121071   2.485   2.923   6.332
 6724SOL    HW221072   2.544   2.848   6.199
 6725SOL     OW21073   6.007   3.048   3.221
 6725SOL    HW121074   5.974   3.001   3.303
 6725SOL    HW221075   6.106   3.044   3.218
 6726SOL     OW21076   0.531   1.639   5.137
 6726SOL    HW121077   0.526   1.545   5.102
 6726SOL    HW221078   0.485   1.644   5.225
 6727SOL     OW21079   1.018   4.891   5.277
 6727SOL    HW121080   0.968   4.897   5.191
 6727SOL    HW221081   0.998   4.972   5.333
 6728SOL     OW21082   4.024   2.125   3.759
 6728SOL    HW121083   3.988   2.031   3.761
 6728SOL    HW221084   4.048   2.149   3.665
 6729SOL     OW21085   6.109   2.294   0.713
 6729SOL    HW121086   6.097   2.306   0.811
 6729SOL    HW221087   6.020   2.304   0.667
 6730SOL     OW21088   1.452   0.944   1.601
 6730SOL    HW121089   1.541   0.963   1.641
 6730SOL    HW221090   1.454   0.856   1.554
 6731SOL     OW21091   1.953   6.441   1.398
 6731SOL    HW121092   1.986   6.450   1.492
 6731SOL    HW221093   2.022   6.478   1.335
 6732SOL     OW21094   5.386   4.101   4.388
 6732SOL    HW121095   5.303   4.085   4.441
 6732SOL    HW221096   5.441   4.172   4.431
 6733SOL     OW21097   3.848   5.463   6.902
 6733SOL    HW121098   3.919   5.530   6.882
 6733SOL    HW221099   3.760   5.497   6.871
 6734SOL     OW21100   5.095   2.362   5.296
 6734SOL    HW121101   5.018   2.416   5.263
 6734SOL    HW221102   5.137   2.314   5.220
 6735SOL     OW21103   5.882   3.897   4.386
 6735SOL    HW121104   5.957   3.929   4.329
 6735SOL    HW221105   5.902   3.805   4.419
 6736SOL     OW21106   2.976   4.381   0.571
 6736SOL    HW121107   2.877   4.390   0.563
 6736SOL    HW221108   3.015   4.352   0.483
 6737SOL     OW21109   0.896   2.915   1.122
 6737SOL    HW121110   0.947   2.868   1.195
 6737SOL    HW221111   0.812   2.953   1.160
 6738SOL     OW21112   1.203   5.756   3.619
 6738SOL    HW121113   1.302   5.743   3.628
 6738SOL    HW221114   1.159   5.668   3.601
 6739SOL     OW21115   6.877   6.208   2.998
 6739SOL    HW121116   6.778   6.212   3.015
 6739SOL    HW221117   6.906   6.113   2.992
 6740SOL     OW21118   6.334   6.603   4.322
 6740SOL    HW121119   6.396   6.643   4.254
 6740SOL    HW221120   6.314   6.672   4.392
 6741SOL     OW21121   4.640   2.267   6.042
 6741SOL    HW121122   4.637   2.176   6.082
 6741SOL    HW221123   4.583   2.269   5.960
 6742SOL     OW21124   5.829   5.298   3.622
 6742SOL    HW121125   5.848   5.211   3.577
 6742SOL    HW221126   5.745   5.337   3.584
 6743SOL     OW21127   3.929   4.247   6.529
 6743SOL    HW121128   3.884   4.320   6.477
 6743SOL    HW221129   3.884   4.237   6.618
 6744SOL     OW21130   6.951   6.125   5.848
 6744SOL    HW121131   6.942   6.042   5.903
 6744SOL    HW221132   7.002   6.194   5.901
 6745SOL     OW21133   0.045   6.227   3.617
 6745SOL    HW121134   0.052   6.316   3.661
 6745SOL    HW221135   6.975   6.218   3.574
 6746SOL     OW21136   1.915   1.236   2.331
 6746SOL    HW121137   1.864   1.317   2.304
 6746SOL    HW221138   1.871   1.193   2.410
 6747SOL     OW21139   6.475   6.543   6.330
 6747SOL    HW121140   6.388   6.589   6.345
 6747SOL    HW221141   6.502   6.496   6.415
 6748SOL     OW21142   2.590   1.799   3.728
 6748SOL    HW121143   2.668   1.751   3.769
 6748SOL    HW221144   2.622   1.850   3.647
 6749SOL     OW21145   3.653   3.990   1.130
 6749SOL    HW121146   3.604   3.921   1.077
 6749SOL    HW221147   3.751   3.971   1.127
 6750SOL     OW21148   2.770   1.661   4.124
 6750SOL    HW121149   2.779   1.641   4.027
 6750SOL    HW221150   2.673   1.666   4.149
 6751SOL     OW21151   4.429   0.466   3.516
 6751SOL    HW121152   4.518   0.510   3.506
 6751SOL    HW221153   4.403   0.425   3.429
 6752SOL     OW21154   1.719   6.843   3.453
 6752SOL    HW121155   1.729   6.820   3.549
 6752SOL    HW221156   1.625   6.872   3.435
 6753SOL     OW21157   3.618   2.233   5.787
 6753SOL    HW121158   3.636   2.258   5.882
 6753SOL    HW221159   3.652   2.305   5.727
 6754SOL     OW21160   6.012   0.762   1.121
 6754SOL    HW121161   6.005   0.767   1.022
 6754SOL    HW221162   5.980   0.848   1.161
 6755SOL     OW21163   3.156   4.659   1.178
 6755SOL    HW121164   3.147   4.600   1.258
 6755SOL    HW221165   3.084   4.636   1.112
 6756SOL     OW21166   3.403   0.751   5.854
 6756SOL    HW121167   3.396   0.664   5.805
 6756SOL    HW221168   3.499   0.780   5.857
 6757SOL     OW21169   4.111   1.612   1.664
 6757SOL    HW121170   4.029   1.631   1.719
 6757SOL    HW221171   4.155   1.529   1.700
 6758SOL     OW21172   5.716   2.971   1.495
 6758SOL    HW121173   5.648   2.904   1.464
 6758SOL    HW221174   5.783   2.926   1.554
 6759SOL     OW21175   6.933   2.813   3.158
 6759SOL    HW121176   6.844   2.857   3.169
 6759SOL    HW221177   7.005   2.879   3.177
 6760SOL     OW21178   6.350   3.770   2.689
 6760SOL    HW121179   6.319   3.688   2.738
 6760SOL    HW221180   6.394   3.742   2.604
 6761SOL     OW21181   5.040   2.685   4.665
 6761SOL    HW121182   4.973   2.752   4.698
 6761SOL    HW221183   5.111   2.731   4.614
 6762SOL     OW21184   0.577   4.293   4.308
 6762SOL    HW121185   0.568   4.196   4.331
 6762SOL    HW221186   0.510   4.346   4.359
 6763SOL     OW21187   5.399   5.176   5.300
 6763SOL    HW121188   5.366   5.086   5.331
 6763SOL    HW221189   5.376   5.188   5.204
 6764SOL     OW21190   1.968   5.758   2.484
 6764SOL    HW121191   1.999   5.672   2.525
 6764SOL    HW221192   1.963   5.747   2.385
 6765SOL     OW21193   6.472   4.287   3.783
 6765SOL    HW121194   6.487   4.224   3.859
 6765SOL    HW221195   6.386   4.335   3.797
 6766SOL     OW21196   4.708   5.823   6.314
 6766SOL    HW121197   4.650   5.792   6.389
 6766SOL    HW221198   4.696   5.763   6.235
 6767SOL     OW21199   3.383   0.557   0.802
 6767SOL    HW121200   3.404   0.488   0.870
 6767SOL    HW221201   3.404   0.648   0.839
 6768SOL     OW21202   2.366   0.696   5.729
 6768SOL    HW121203   2.360   0.618   5.667
 6768SOL    HW221204   2.416   0.670   5.811
 6769SOL     OW21205   3.226   2.160   0.920
 6769SOL    HW121206   3.162   2.102   0.870
 6769SOL    HW221207   3.314   2.160   0.873
 6770SOL     OW21208   6.941   0.802   1.735
 6770SOL    HW121209   6.989   0.876   1.688
 6770SOL    HW221210   7.008   0.744   1.782
 6771SOL     OW21211   4.490   2.522   3.236
 6771SOL    HW121212   4.497   2.422   3.237
 6771SOL    HW221213   4.407   2.550   3.283
 6772SOL     OW21214   3.364   0.923   3.343
 6772SOL    HW121215   3.401   0.956   3.429
 6772SOL    HW221216   3.438   0.886   3.286
 6773SOL     OW21217   6.734   5.144   1.301
 6773SOL    HW121218   6.757   5.240   1.283
 6773SOL    HW221219   6.683   5.107   1.224
 6774SOL     OW21220   0.752   2.793   5.837
 6774SOL    HW121221   0.660   2.766   5.810
 6774SOL    HW221222   0.803   2.824   5.756
 6775SOL     OW21223   2.486   3.242   1.662
 6775SOL    HW121224   2.555   3.179   1.699
 6775SOL    HW221225   2.460   3.308   1.732
 6776SOL     OW21226   4.323   4.599   6.913
 6776SOL    HW121227   4.397   4.588   6.979
 6776SOL    HW221228   4.310   4.514   6.862
 6777SOL     OW21229   4.098   4.089   6.808
 6777SOL    HW121230   4.101   4.165   6.743
 6777SOL    HW221231   4.181   4.091   6.864
 6778SOL     OW21232   6.833   4.523   1.687
 6778SOL    HW121233   6.801   4.428   1.684
 6778SOL    HW221234   6.781   4.578   1.622
 6779SOL     OW21235   6.740   4.510   5.886
 6779SOL    HW121236   6.722   4.603   5.853
 6779SOL    HW221237   6.820   4.510   5.945
 6780SOL     OW21238   0.705   2.097   3.133
 6780SOL    HW121239   0.710   2.055   3.042
 6780SOL    HW221240   0.710   2.196   3.124
 6781SOL     OW21241   5.549   0.228   4.751
 6781SOL    HW121242   5.555   0.253   4.655
 6781SOL    HW221243   5.573   0.132   4.762
 6782SOL     OW21244   6.984   0.355   2.948
 6782SOL    HW121245   6.970   0.342   2.850
 6782SOL    HW221246   6.914   0.306   2.999
 6783SOL     OW21247   6.769   0.725   6.503
 6783SOL    HW121248   6.818   0.750   6.586
 6783SOL    HW221249   6.776   0.626   6.489
 6784SOL     OW21250   3.422   3.829   0.398
 6784SOL    HW121251   3.420   3.740   0.443
 6784SOL    HW221252   3.331   3.850   0.361
 6785SOL     OW21253   5.105   4.632   2.776
 6785SOL    HW121254   5.181   4.601   2.719
 6785SOL    HW221255   5.115   4.593   2.868
 6786SOL     OW21256   1.388   1.717   0.077
 6786SOL    HW121257   1.404   1.629   0.032
 6786SOL    HW221258   1.442   1.788   0.032
 6787SOL     OW21259   1.451   2.639   0.486
 6787SOL    HW121260   1.397   2.676   0.561
 6787SOL    HW221261   1.525   2.582   0.523
 6788SOL     OW21262   2.353   3.594   1.649
 6788SOL    HW121263   2.382   3.680   1.692
 6788SOL    HW221264   2.364   3.520   1.715
 6789SOL     OW21265   0.100   6.587   2.737
 6789SOL    HW121266   0.163   6.606   2.813
 6789SOL    HW221267   0.006   6.591   2.770
 6790SOL     OW21268   0.771   4.287   0.710
 6790SOL    HW121269   0.750   4.266   0.615
 6790SOL    HW221270   0.869   4.272   0.727
 6791SOL     OW21271   4.023   2.517   1.538
 6791SOL    HW121272   4.109   2.565   1.553
 6791SOL    HW221273   3.972   2.562   1.464
 6792SOL     OW21274   6.751   6.015   5.705
 6792SOL    HW121275   6.826   6.055   5.757
 6792SOL    HW221276   6.733   6.071   5.624
 6793SOL     OW21277   0.948   2.237   0.284
 6793SOL    HW121278   0.892   2.211   0.205
 6793SOL    HW221279   1.043   2.247   0.256
 6794SOL     OW21280   5.211   1.600   5.383
 6794SOL    HW121281   5.150   1.626   5.457
 6794SOL    HW221282   5.254   1.681   5.344
 6795SOL     OW21283   2.465   6.234   1.060
 6795SOL    HW121284   2.488   6.156   1.118
 6795SOL    HW221285   2.432   6.201   0.972
 6796SOL     OW21286   6.165   0.920   2.732
 6796SOL    HW121287   6.257   0.906   2.770
 6796SOL    HW221288   6.105   0.846   2.763
 6797SOL     OW21289   5.146   3.398   1.521
 6797SOL    HW121290   5.152   3.434   1.428
 6797SOL    HW221291   5.099   3.309   1.520
 6798SOL     OW21292   5.572   6.253   2.827
 6798SOL    HW121293   5.599   6.345   2.799
 6798SOL    HW221294   5.615   6.231   2.915
 6799SOL     OW21295   6.836   6.057   6.831
 6799SOL    HW121296   6.899   6.100   6.766
 6799SOL    HW221297   6.858   6.088   6.924
 6800SOL     OW21298   2.071   4.259   1.182
 6800SOL    HW121299   2.146   4.226   1.240
 6800SOL    HW221300   1.987   4.212   1.208
 6801SOL     OW21301   1.239   1.057   2.695
 6801SOL    HW121302   1.159   1.009   2.659
 6801SOL    HW221303   1.221   1.156   2.696
 6802SOL     OW21304   3.114   6.237   0.357
 6802SOL    HW121305   3.085   6.287   0.275
 6802SOL    HW221306   3.121   6.140   0.335
 6803SOL     OW21307   4.940   2.636   6.614
 6803SOL    HW121308   5.023   2.626   6.668
 6803SOL    HW221309   4.869   2.575   6.650
 6804SOL     OW21310   2.722   5.399   3.640
 6804SOL    HW121311   2.741   5.302   3.631
 6804SOL    HW221312   2.757   5.447   3.559
 6805SOL     OW21313   5.694   5.634   5.202
 6805SOL    HW121314   5.722   5.713   5.256
 6805SOL    HW221315   5.732   5.551   5.241
 6806SOL     OW21316   5.669   1.031   3.395
 6806SOL    HW121317   5.572   1.013   3.413
 6806SOL    HW221318   5.720   0.945   3.400
 6807SOL     OW21319   2.931   2.875   0.983
 6807SOL    HW121320   2.897   2.969   0.985
 6807SOL    HW221321   3.031   2.875   0.977
 6808SOL     OW21322   0.277   2.490   5.426
 6808SOL    HW121323   0.302   2.450   5.338
 6808SOL    HW221324   0.194   2.446   5.460
 6809SOL     OW21325   1.469   3.307   0.970
 6809SOL    HW121326   1.409   3.277   1.044
 6809SOL    HW221327   1.564   3.290   0.995
 6810SOL     OW21328   1.797   0.032   1.923
 6810SOL    HW121329   1.766   6.958   1.915
 6810SOL    HW221330   1.720   0.091   1.948
 6811SOL     OW21331   4.962   3.822   0.003
 6811SOL    HW121332   5.040   3.879   6.996
 6811SOL    HW221333   4.947   3.751   6.953
 6812SOL     OW21334   3.529   3.700   3.389
 6812SOL    HW121335   3.527   3.643   3.307
 6812SOL    HW221336   3.449   3.761   3.388
 6813SOL     OW21337   5.098   2.080   2.620
 6813SOL    HW121338   5.000   2.060   2.623
 6813SOL    HW221339   5.149   1.996   2.604
 6814SOL     OW21340   2.997   2.933   0.566
 6814SOL    HW121341   3.031   2.869   0.635
 6814SOL    HW221342   2.963   3.016   0.611
 6815SOL     OW21343   3.487   0.442   1.384
 6815SOL    HW121344   3.566   0.381   1.373
 6815SOL    HW221345   3.419   0.420   1.314
 6816SOL     OW21346   0.470   6.487   6.339
 6816SOL    HW121347   0.464   6.387   6.338
 6816SOL    HW221348   0.408   6.524   6.270
 6817SOL     OW21349   7.020   1.691   5.032
 6817SOL    HW121350   0.032   1.785   5.022
 6817SOL    HW221351   6.926   1.684   4.997
 6818SOL     OW21352   2.686   5.216   1.790
 6818SOL    HW121353   2.738   5.195   1.873
 6818SOL    HW221354   2.591   5.231   1.813
 6819SOL     OW21355   4.564   1.427   4.403
 6819SOL    HW121356   4.627   1.377   4.344
 6819SOL    HW221357   4.605   1.438   4.494
 6820SOL     OW21358   1.093   5.509   2.874
 6820SOL    HW121359   1.151   5.457   2.811
 6820SOL    HW221360   1.099   5.468   2.965
 6821SOL     OW21361   3.042   1.326   5.209
 6821SOL    HW121362   3.124   1.313   5.264
 6821SOL    HW221363   3.033   1.423   5.186
 6822SOL     OW21364   5.770   2.510   5.651
 6822SOL    HW121365   5.802   2.428   5.603
 6822SOL    HW221366   5.679   2.533   5.618
 6823SOL     OW21367   3.692   3.512   3.825
 6823SOL    HW121368   3.716   3.464   3.910
 6823SOL    HW221369   3.647   3.448   3.762
 6824SOL     OW21370   0.978   3.237   6.278
 6824SOL    HW121371   0.991   3.157   6.219
 6824SOL    HW221372   0.888   3.277   6.260
 6825SOL     OW21373   5.219   6.271   2.504
 6825SOL    HW121374   5.209   6.313   2.594
 6825SOL    HW221375   5.151   6.309   2.442
 6826SOL     OW21376   2.217   4.050   3.012
 6826SOL    HW121377   2.252   4.075   2.922
 6826SOL    HW221378   2.130   4.095   3.028
 6827SOL     OW21379   4.706   6.069   0.091
 6827SOL    HW121380   4.752   6.004   0.030
 6827SOL    HW221381   4.736   6.053   0.185
 6828SOL     OW21382   2.570   1.611   1.943
 6828SOL    HW121383   2.614   1.693   1.908
 6828SOL    HW221384   2.478   1.604   1.904
 6829SOL     OW21385   4.606   0.062   4.280
 6829SOL    HW121386   4.684   0.034   4.336
 6829SOL    HW221387   4.522   0.024   4.320
 6830SOL     OW21388   5.571   1.451   3.756
 6830SOL    HW121389   5.643   1.452   3.687
 6830SOL    HW221390   5.575   1.366   3.807
 6831SOL     OW21391   1.143   0.242   6.292
 6831SOL    HW121392   1.084   0.319   6.315
 6831SOL    HW221393   1.232   0.253   6.337
 6832SOL     OW21394   3.032   3.842   1.357
 6832SOL    HW121395   3.042   3.812   1.452
 6832SOL    HW221396   3.111   3.898   1.332
 6833SOL     OW21397   4.471   4.853   0.221
 6833SOL    HW121398   4.396   4.918   0.209
 6833SOL    HW221399   4.434   4.763   0.244
 6834SOL     OW21400   5.217   6.851   1.948
 6834SOL    HW121401   5.216   6.774   2.011
 6834SOL    HW221402   5.159   6.925   1.983
 6835SOL     OW21403   4.556   0.017   5.146
 6835SOL    HW121404   4.587   6.974   5.074
 6835SOL    HW221405   4.468   0.056   5.119
 6836SOL     OW21406   3.274   5.523   0.328
 6836SOL    HW121407   3.210   5.550   0.256
 6836SOL    HW221408   3.230   5.534   0.417
 6837SOL     OW21409   1.173   2.128   2.354
 6837SOL    HW121410   1.136   2.144   2.446
 6837SOL    HW221411   1.174   2.029   2.336
 6838SOL     OW21412   1.967   6.272   1.030
 6838SOL    HW121413   1.898   6.224   0.976
 6838SOL    HW221414   2.016   6.206   1.087
 6839SOL     OW21415   5.012   0.702   6.864
 6839SOL    HW121416   4.997   0.757   6.946
 6839SOL    HW221417   4.997   0.758   6.782
 6840SOL     OW21418   2.457   1.754   5.321
 6840SOL    HW121419   2.487   1.658   5.322
 6840SOL    HW221420   2.537   1.814   5.320
 6841SOL     OW21421   5.245   3.692   6.417
 6841SOL    HW121422   5.344   3.695   6.434
 6841SOL    HW221423   5.229   3.688   6.318
 6842SOL     OW21424   2.862   4.603   1.195
 6842SOL    HW121425   2.774   4.589   1.242
 6842SOL    HW221426   2.845   4.617   1.098
 6843SOL     OW21427   5.666   6.550   0.218
 6843SOL    HW121428   5.599   6.606   0.170
 6843SOL    HW221429   5.712   6.606   0.287
 6844SOL     OW21430   5.392   0.951   4.589
 6844SOL    HW121431   5.354   0.938   4.497
 6844SOL    HW221432   5.485   0.915   4.591
 6845SOL     OW21433   6.158   3.327   2.822
 6845SOL    HW121434   6.068   3.370   2.813
 6845SOL    HW221435   6.203   3.324   2.733
 6846SOL     OW21436   3.084   4.264   6.936
 6846SOL    HW121437   3.058   4.167   6.945
 6846SOL    HW221438   3.176   4.277   6.971
 6847SOL     OW21439   0.138   3.883   5.177
 6847SOL    HW121440   0.105   3.859   5.268
 6847SOL    HW221441   0.190   3.807   5.139
 6848SOL     OW21442   5.092   4.168   3.693
 6848SOL    HW121443   5.036   4.085   3.700
 6848SOL    HW221444   5.050   4.241   3.747
 6849SOL     OW21445   3.591   3.916   5.678
 6849SOL    HW121446   3.586   3.841   5.744
 6849SOL    HW221447   3.682   3.918   5.638
 6850SOL     OW21448   4.671   2.582   2.859
 6850SOL    HW121449   4.650   2.621   2.949
 6850SOL    HW221450   4.770   2.576   2.847
 6851SOL     OW21451   1.053   2.846   2.467
 6851SOL    HW121452   1.112   2.798   2.403
 6851SOL    HW221453   0.992   2.781   2.513
 6852SOL     OW21454   2.783   5.569   1.119
 6852SOL    HW121455   2.725   5.493   1.149
 6852SOL    HW221456   2.738   5.617   1.043
 6853SOL     OW21457   5.091   3.914   6.239
 6853SOL    HW121458   5.139   3.940   6.323
 6853SOL    HW221459   5.136   3.957   6.161
 6854SOL     OW21460   5.650   0.081   5.633
 6854SOL    HW121461   5.646   0.137   5.716
 6854SOL    HW221462   5.746   0.067   5.607
 6855SOL     OW21463   4.258   6.041   4.025
 6855SOL    HW121464   4.318   6.121   4.032
 6855SOL    HW221465   4.165   6.071   4.003
 6856SOL     OW21466   0.478   2.068   5.677
 6856SOL    HW121467   0.463   1.976   5.641
 6856SOL    HW221468   0.519   2.126   5.606
 6857SOL     OW21469   0.982   3.195   6.850
 6857SOL    HW121470   1.056   3.232   6.906
 6857SOL    HW221471   1.015   3.182   6.756
 6858SOL     OW21472   3.483   4.438   1.657
 6858SOL    HW121473   3.390   4.470   1.637
 6858SOL    HW221474   3.525   4.498   1.724
 6859SOL     OW21475   0.720   1.001   1.757
 6859SOL    HW121476   0.793   1.064   1.783
 6859SOL    HW221477   0.698   1.014   1.660
 6860SOL     OW21478   6.712   4.709   1.540
 6860SOL    HW121479   6.699   4.806   1.560
 6860SOL    HW221480   6.655   4.683   1.462
 6861SOL     OW21481   4.609   3.600   6.255
 6861SOL    HW121482   4.707   3.612   6.268
 6861SOL    HW221483   4.576   3.529   6.317
 6862SOL     OW21484   0.501   4.939   5.693
 6862SOL    HW121485   0.413   4.917   5.651
 6862SOL    HW221486   0.493   4.934   5.792
 6863SOL     OW21487   6.740   6.141   5.152
 6863SOL    HW121488   6.733   6.099   5.242
 6863SOL    HW221489   6.670   6.212   5.142
 6864SOL     OW21490   2.326   4.564   5.543
 6864SOL    HW121491   2.349   4.490   5.480
 6864SOL    HW221492   2.357   4.541   5.635
 6865SOL     OW21493   1.213   0.423   5.334
 6865SOL    HW121494   1.188   0.518   5.318
 6865SOL    HW221495   1.138   0.376   5.381
 6866SOL     OW21496   6.203   4.897   2.375
 6866SOL    HW121497   6.259   4.918   2.455
 6866SOL    HW221498   6.202   4.976   2.314
 6867SOL     OW21499   1.808   3.795   1.139
 6867SOL    HW121500   1.777   3.700   1.145
 6867SOL    HW221501   1.851   3.822   1.225
 6868SOL     OW21502   2.293   6.084   5.169
 6868SOL    HW121503   2.257   6.115   5.081
 6868SOL    HW221504   2.382   6.040   5.154
 6869SOL     OW21505   4.435   0.815   5.899
 6869SOL    HW121506   4.511   0.771   5.947
 6869SOL    HW221507   4.420   0.906   5.937
 6870SOL     OW21508   0.343   3.587   0.677
 6870SOL    HW121509   0.304   3.677   0.658
 6870SOL    HW221510   0.401   3.591   0.758
 6871SOL     OW21511   7.008   4.081   2.721
 6871SOL    HW121512   0.069   4.071   2.778
 6871SOL    HW221513   6.928   4.097   2.779
 6872SOL     OW21514   0.701   2.667   2.144
 6872SOL    HW121515   0.671   2.736   2.078
 6872SOL    HW221516   0.791   2.691   2.179
 6873SOL     OW21517   1.180   4.369   3.829
 6873SOL    HW121518   1.086   4.344   3.807
 6873SOL    HW221519   1.218   4.302   3.893
 6874SOL     OW21520   6.444   5.879   3.346
 6874SOL    HW121521   6.491   5.960   3.308
 6874SOL    HW221522   6.505   5.832   3.409
 6875SOL     OW21523   2.098   2.107   2.171
 6875SOL    HW121524   2.021   2.045   2.183
 6875SOL    HW221525   2.173   2.058   2.126
 6876SOL     OW21526   3.011   0.126   3.682
 6876SOL    HW121527   3.055   0.203   3.636
 6876SOL    HW221528   3.080   0.067   3.723
 6877SOL     OW21529   3.062   4.210   1.696
 6877SOL    HW121530   3.162   4.197   1.695
 6877SOL    HW221531   3.020   4.145   1.759
 6878SOL     OW21532   2.324   2.015   3.323
 6878SOL    HW121533   2.258   2.065   3.267
 6878SOL    HW221534   2.417   2.039   3.295
 6879SOL     OW21535   2.222   2.526   0.132
 6879SOL    HW121536   2.263   2.456   0.074
 6879SOL    HW221537   2.230   2.499   0.228
 6880SOL     OW21538   1.193   6.872   6.004
 6880SOL    HW121539   1.292   6.868   5.992
 6880SOL    HW221540   1.154   6.933   5.935
 6881SOL     OW21541   1.516   3.175   1.636
 6881SOL    HW121542   1.560   3.232   1.705
 6881SOL    HW221543   1.557   3.193   1.546
 6882SOL     OW21544   2.795   1.190   0.407
 6882SOL    HW121545   2.699   1.165   0.411
 6882SOL    HW221546   2.804   1.288   0.386
 6883SOL     OW21547   5.626   1.041   6.001
 6883SOL    HW121548   5.527   1.051   5.989
 6883SOL    HW221549   5.674   1.108   5.945
 6884SOL     OW21550   1.546   3.889   3.153
 6884SOL    HW121551   1.581   3.798   3.173
 6884SOL    HW221552   1.530   3.897   3.055
 6885SOL     OW21553   4.878   5.013   3.961
 6885SOL    HW121554   4.890   5.109   3.937
 6885SOL    HW221555   4.781   4.993   3.977
 6886SOL     OW21556   6.685   1.371   5.019
 6886SOL    HW121557   6.615   1.398   5.085
 6886SOL    HW221558   6.644   1.316   4.946
 6887SOL     OW21559   4.699   5.680   6.841
 6887SOL    HW121560   4.629   5.747   6.866
 6887SOL    HW221561   4.789   5.725   6.840
 6888SOL     OW21562   5.096   4.650   6.261
 6888SOL    HW121563   5.003   4.615   6.255
 6888SOL    HW221564   5.136   4.624   6.349
 6889SOL     OW21565   2.019   2.348   5.626
 6889SOL    HW121566   1.998   2.408   5.703
 6889SOL    HW221567   1.955   2.272   5.624
 6890SOL     OW21568   3.888   5.983   3.235
 6890SOL    HW121569   3.788   5.984   3.227
 6890SOL    HW221570   3.920   5.890   3.250
 6891SOL     OW21571   2.341   2.880   1.505
 6891SOL    HW121572   2.441   2.883   1.504
 6891SOL    HW221573   2.306   2.963   1.549
 6892SOL     OW21574   3.109   1.076   3.631
 6892SOL    HW121575   3.108   1.003   3.562
 6892SOL    HW221576   3.018   1.116   3.639
 6893SOL     OW21577   5.668   3.307   0.364
 6893SOL    HW121578   5.669   3.396   0.409
 6893SOL    HW221579   5.582   3.296   0.314
 6894SOL     OW21580   4.986   4.344   1.331
 6894SOL    HW121581   4.913   4.316   1.394
 6894SOL    HW221582   4.980   4.290   1.247
 6895SOL     OW21583   2.037   5.886   0.907
 6895SOL    HW121584   2.049   5.846   0.998
 6895SOL    HW221585   1.954   5.942   0.905
 6896SOL     OW21586   2.983   1.510   3.923
 6896SOL    HW121587   3.046   1.457   3.867
 6896SOL    HW221588   3.022   1.601   3.939
 6897SOL     OW21589   4.786   4.055   5.149
 6897SOL    HW121590   4.703   4.023   5.104
 6897SOL    HW221591   4.834   4.118   5.089
 6898SOL     OW21592   3.371   1.071   1.816
 6898SOL    HW121593   3.434   1.098   1.743
 6898SOL    HW221594   3.357   0.972   1.812
 6899SOL     OW21595   4.780   6.233   2.894
 6899SOL    HW121596   4.718   6.312   2.897
 6899SOL    HW221597   4.847   6.247   2.821
 6900SOL     OW21598   0.116   4.733   5.766
 6900SOL    HW121599   0.186   4.697   5.828
 6900SOL    HW221600   0.055   4.659   5.739
 6901SOL     OW21601   4.555   5.074   6.366
 6901SOL    HW121602   4.579   4.983   6.400
 6901SOL    HW221603   4.460   5.095   6.391
 6902SOL     OW21604   6.399   5.955   5.312
 6902SOL    HW121605   6.344   5.926   5.234
 6902SOL    HW221606   6.392   6.054   5.323
 6903SOL     OW21607   3.290   4.894   5.322
 6903SOL    HW121608   3.251   4.815   5.370
 6903SOL    HW221609   3.246   4.977   5.354
 6904SOL     OW21610   6.811   6.657   5.436
 6904SOL    HW121611   6.718   6.658   5.398
 6904SOL    HW221612   6.868   6.596   5.383
 6905SOL     OW21613   5.873   5.052   6.865
 6905SOL    HW121614   5.950   5.020   6.921
 6905SOL    HW221615   5.876   5.151   6.859
 6906SOL     OW21616   3.065   1.252   3.018
 6906SOL    HW121617   3.155   1.248   3.062
 6906SOL    HW221618   3.013   1.170   3.041
 6907SOL     OW21619   6.502   2.553   1.760
 6907SOL    HW121620   6.439   2.589   1.829
 6907SOL    HW221621   6.476   2.459   1.737
 6908SOL     OW21622   2.564   4.889   6.712
 6908SOL    HW121623   2.626   4.872   6.789
 6908SOL    HW221624   2.563   4.809   6.652
 6909SOL     OW21625   5.311   4.939   2.167
 6909SOL    HW121626   5.257   4.877   2.223
 6909SOL    HW221627   5.251   5.005   2.122
 6910SOL     OW21628   1.488   2.597   2.779
 6910SOL    HW121629   1.412   2.564   2.835
 6910SOL    HW221630   1.478   2.695   2.764
 6911SOL     OW21631   4.192   6.946   4.837
 6911SOL    HW121632   4.123   6.946   4.764
 6911SOL    HW221633   4.281   6.923   4.798
 6912SOL     OW21634   2.572   3.289   6.629
 6912SOL    HW121635   2.660   3.319   6.594
 6912SOL    HW221636   2.574   3.287   6.729
 6913SOL     OW21637   5.188   6.431   4.735
 6913SOL    HW121638   5.136   6.352   4.768
 6913SOL    HW221639   5.162   6.512   4.788
 6914SOL     OW21640   6.288   4.199   2.511
 6914SOL    HW121641   6.256   4.208   2.606
 6914SOL    HW221642   6.366   4.137   2.508
 6915SOL     OW21643   1.025   2.531   2.158
 6915SOL    HW121644   0.988   2.542   2.066
 6915SOL    HW221645   1.025   2.435   2.183
 6916SOL     OW21646   5.616   1.489   5.672
 6916SOL    HW121647   5.546   1.453   5.610
 6916SOL    HW221648   5.689   1.532   5.620
 6917SOL     OW21649   4.160   6.100   1.979
 6917SOL    HW121650   4.218   6.136   2.053
 6917SOL    HW221651   4.097   6.032   2.017
 6918SOL     OW21652   0.186   2.630   3.139
 6918SOL    HW121653   0.271   2.676   3.113
 6918SOL    HW221654   0.130   2.616   3.058
 6919SOL     OW21655   6.388   6.073   3.038
 6919SOL    HW121656   6.419   5.979   3.055
 6919SOL    HW221657   6.372   6.118   3.125
 6920SOL     OW21658   5.378   6.760   5.907
 6920SOL    HW121659   5.456   6.778   5.847
 6920SOL    HW221660   5.300   6.730   5.852
 6921SOL     OW21661   3.855   0.397   3.922
 6921SOL    HW121662   3.954   0.387   3.931
 6921SOL    HW221663   3.834   0.479   3.870
 6922SOL     OW21664   1.832   6.284   5.213
 6922SOL    HW121665   1.909   6.312   5.270
 6922SOL    HW221666   1.847   6.191   5.179
 6923SOL     OW21667   5.892   6.326   2.241
 6923SOL    HW121668   5.868   6.235   2.208
 6923SOL    HW221669   5.977   6.356   2.196
 6924SOL     OW21670   2.960   5.506   0.681
 6924SOL    HW121671   2.930   5.441   0.751
 6924SOL    HW221672   2.884   5.526   0.619
 6925SOL     OW21673   4.809   5.811   5.704
 6925SOL    HW121674   4.765   5.849   5.623
 6925SOL    HW221675   4.893   5.862   5.723
 6926SOL     OW21676   2.130   1.809   0.319
 6926SOL    HW121677   2.055   1.762   0.275
 6926SOL    HW221678   2.098   1.896   0.357
 6927SOL     OW21679   3.534   1.509   0.018
 6927SOL    HW121680   3.499   1.601   7.019
 6927SOL    HW221681   3.519   1.488   0.115
 6928SOL     OW21682   4.881   5.691   1.078
 6928SOL    HW121683   4.839   5.756   1.014
 6928SOL    HW221684   4.880   5.731   1.170
 6929SOL     OW21685   5.271   5.995   1.756
 6929SOL    HW121686   5.199   5.945   1.707
 6929SOL    HW221687   5.244   6.092   1.764
 6930SOL     OW21688   0.968   0.957   0.646
 6930SOL    HW121689   0.952   0.945   0.744
 6930SOL    HW221690   1.009   0.874   0.608
 6931SOL     OW21691   1.593   1.808   1.226
 6931SOL    HW121692   1.681   1.854   1.211
 6931SOL    HW221693   1.608   1.722   1.274
 6932SOL     OW21694   4.663   5.436   1.102
 6932SOL    HW121695   4.756   5.402   1.088
 6932SOL    HW221696   4.639   5.500   1.029
 6933SOL     OW21697   3.487   6.875   6.192
 6933SOL    HW121698   3.538   6.819   6.257
 6933SOL    HW221699   3.424   6.936   6.241
 6934SOL     OW21700   5.134   3.606   6.170
 6934SOL    HW121701   5.061   3.666   6.137
 6934SOL    HW221702   5.163   3.545   6.097
 6935SOL     OW21703   4.203   5.844   2.759
 6935SOL    HW121704   4.221   5.754   2.799
 6935SOL    HW221705   4.262   5.857   2.679
 6936SOL     OW21706   0.138   2.163   4.171
 6936SOL    HW121707   0.109   2.256   4.195
 6936SOL    HW221708   0.238   2.160   4.167
 6937SOL     OW21709   5.647   6.204   0.997
 6937SOL    HW121710   5.573   6.186   0.933
 6937SOL    HW221711   5.707   6.124   1.001
 6938SOL     OW21712   0.568   1.680   4.240
 6938SOL    HW121713   0.630   1.691   4.318
 6938SOL    HW221714   0.485   1.734   4.255
 6939SOL     OW21715   6.498   5.439   3.106
 6939SOL    HW121716   6.500   5.456   3.007
 6939SOL    HW221717   6.526   5.521   3.154
 6940SOL     OW21718   4.335   6.663   0.325
 6940SOL    HW121719   4.422   6.707   0.347
 6940SOL    HW221720   4.338   6.567   0.353
 6941SOL     OW21721   2.933   3.619   2.385
 6941SOL    HW121722   2.892   3.535   2.419
 6941SOL    HW221723   2.981   3.666   2.459
 6942SOL     OW21724   6.065   6.804   1.880
 6942SOL    HW121725   5.994   6.824   1.948
 6942SOL    HW221726   6.084   6.706   1.880
 6943SOL     OW21727   4.247   4.805   0.485
 6943SOL    HW121728   4.306   4.885   0.490
 6943SOL    HW221729   4.170   4.815   0.548
 6944SOL     OW21730   0.920   4.976   6.296
 6944SOL    HW121731   0.903   5.057   6.240
 6944SOL    HW221732   0.872   4.898   6.256
 6945SOL     OW21733   6.754   2.226   0.971
 6945SOL    HW121734   6.704   2.243   1.056
 6945SOL    HW221735   6.845   2.190   0.992
 6946SOL     OW21736   3.676   6.086   1.923
 6946SOL    HW121737   3.763   6.109   1.966
 6946SOL    HW221738   3.652   5.991   1.944
 6947SOL     OW21739   4.037   5.090   6.485
 6947SOL    HW121740   4.021   4.994   6.506
 6947SOL    HW221741   4.105   5.128   6.548
 6948SOL     OW21742   0.735   6.193   1.158
 6948SOL    HW121743   0.832   6.181   1.139
 6948SOL    HW221744   0.682   6.127   1.103
 6949SOL     OW21745   2.708   2.371   3.134
 6949SOL    HW121746   2.655   2.290   3.158
 6949SOL    HW221747   2.647   2.449   3.120
 6950SOL     OW21748   1.984   0.229   4.570
 6950SOL    HW121749   1.966   0.214   4.472
 6950SOL    HW221750   1.907   0.195   4.624
 6951SOL     OW21751   6.492   5.799   6.544
 6951SOL    HW121752   6.444   5.862   6.484
 6951SOL    HW221753   6.463   5.813   6.639
 6952SOL     OW21754   2.365   4.758   2.836
 6952SOL    HW121755   2.324   4.672   2.804
 6952SOL    HW221756   2.435   4.787   2.771
 6953SOL     OW21757   4.878   6.670   0.411
 6953SOL    HW121758   4.851   6.637   0.501
 6953SOL    HW221759   4.946   6.609   0.372
 6954SOL     OW21760   0.131   3.648   1.713
 6954SOL    HW121761   0.163   3.560   1.748
 6954SOL    HW221762   0.153   3.657   1.616
 6955SOL     OW21763   4.799   0.580   2.200
 6955SOL    HW121764   4.778   0.624   2.113
 6955SOL    HW221765   4.877   0.626   2.243
 6956SOL     OW21766   5.163   5.640   2.969
 6956SOL    HW121767   5.177   5.545   2.943
 6956SOL    HW221768   5.069   5.653   3.001
 6957SOL     OW21769   6.169   6.234   7.019
 6957SOL    HW121770   6.184   6.135   0.007
 6957SOL    HW221771   6.210   6.268   6.934
 6958SOL     OW21772   3.448   3.455   4.396
 6958SOL    HW121773   3.398   3.369   4.382
 6958SOL    HW221774   3.463   3.499   4.308
 6959SOL     OW21775   1.686   3.926   2.764
 6959SOL    HW121776   1.744   3.936   2.845
 6959SOL    HW221777   1.744   3.920   2.683
 6960SOL     OW21778   2.388   4.063   1.081
 6960SOL    HW121779   2.324   4.034   1.009
 6960SOL    HW221780   2.472   4.010   1.073
 6961SOL     OW21781   5.059   1.372   4.842
 6961SOL    HW121782   5.052   1.361   4.941
 6961SOL    HW221783   5.107   1.295   4.802
 6962SOL     OW21784   4.150   5.815   1.039
 6962SOL    HW121785   4.078   5.879   1.011
 6962SOL    HW221786   4.208   5.859   1.107
 6963SOL     OW21787   5.669   4.894   0.052
 6963SOL    HW121788   5.745   4.948   0.089
 6963SOL    HW221789   5.702   4.803   0.028
 6964SOL     OW21790   3.460   0.273   5.561
 6964SOL    HW121791   3.535   0.256   5.497
 6964SOL    HW221792   3.456   0.198   5.628
 6965SOL     OW21793   1.582   1.702   6.744
 6965SOL    HW121794   1.642   1.759   6.688
 6965SOL    HW221795   1.628   1.616   6.765
 6966SOL     OW21796   0.702   0.815   2.429
 6966SOL    HW121797   0.687   0.790   2.333
 6966SOL    HW221798   0.736   0.735   2.479
 6967SOL     OW21799   3.545   1.503   5.739
 6967SOL    HW121800   3.465   1.459   5.698
 6967SOL    HW221801   3.527   1.602   5.746
 6968SOL     OW21802   2.605   0.782   3.118
 6968SOL    HW121803   2.661   0.712   3.075
 6968SOL    HW221804   2.591   0.858   3.054
 6969SOL     OW21805   3.634   1.935   1.205
 6969SOL    HW121806   3.728   1.906   1.222
 6969SOL    HW221807   3.572   1.859   1.226
 6970SOL     OW21808   3.825   3.890   5.545
 6970SOL    HW121809   3.919   3.882   5.577
 6970SOL    HW221810   3.815   3.841   5.458
 6971SOL     OW21811   5.359   4.986   1.376
 6971SOL    HW121812   5.307   4.926   1.436
 6971SOL    HW221813   5.450   5.001   1.413
 6972SOL     OW21814   5.457   3.757   2.257
 6972SOL    HW121815   5.383   3.823   2.245
 6972SOL    HW221816   5.545   3.805   2.261
 6973SOL     OW21817   0.937   2.468   3.325
 6973SOL    HW121818   0.924   2.526   3.245
 6973SOL    HW221819   0.850   2.455   3.372
 6974SOL     OW21820   2.881   3.519   2.828
 6974SOL    HW121821   2.848   3.529   2.734
 6974SOL    HW221822   2.902   3.423   2.846
 6975SOL     OW21823   2.301   6.600   4.666
 6975SOL    HW121824   2.209   6.582   4.700
 6975SOL    HW221825   2.364   6.609   4.743
 6976SOL     OW21826   5.377   4.157   5.743
 6976SOL    HW121827   5.377   4.251   5.779
 6976SOL    HW221828   5.333   4.156   5.653
 6977SOL     OW21829   3.944   4.140   1.513
 6977SOL    HW121830   3.964   4.081   1.435
 6977SOL    HW221831   3.983   4.101   1.596
 6978SOL     OW21832   5.096   3.069   1.222
 6978SOL    HW121833   5.115   2.971   1.211
 6978SOL    HW221834   5.014   3.081   1.278
 6979SOL     OW21835   1.521   2.753   1.328
 6979SOL    HW121836   1.579   2.829   1.356
 6979SOL    HW221837   1.427   2.772   1.356
 6980SOL     OW21838   1.702   1.397   3.408
 6980SOL    HW121839   1.762   1.392   3.328
 6980SOL    HW221840   1.617   1.348   3.389
 6981SOL     OW21841   3.456   3.783   6.121
 6981SOL    HW121842   3.547   3.741   6.120
 6981SOL    HW221843   3.459   3.870   6.071
 6982SOL     OW21844   0.990   0.701   3.727
 6982SOL    HW121845   0.937   0.703   3.642
 6982SOL    HW221846   0.942   0.754   3.797
 6983SOL     OW21847   4.851   1.698   5.309
 6983SOL    HW121848   4.785   1.623   5.322
 6983SOL    HW221849   4.893   1.690   5.218
 6984SOL     OW21850   1.519   1.928   2.641
 6984SOL    HW121851   1.456   2.000   2.671
 6984SOL    HW221852   1.472   1.867   2.578
 6985SOL     OW21853   6.473   4.971   6.844
 6985SOL    HW121854   6.474   4.974   6.744
 6985SOL    HW221855   6.383   4.942   6.875
 6986SOL     OW21856   3.376   7.006   6.735
 6986SOL    HW121857   3.382   6.915   6.693
 6986SOL    HW221858   3.408   7.002   6.830
 6987SOL     OW21859   0.215   1.582   5.602
 6987SOL    HW121860   0.175   1.588   5.693
 6987SOL    HW221861   0.162   1.637   5.538
 6988SOL     OW21862   1.919   0.067   6.150
 6988SOL    HW121863   1.982   0.121   6.095
 6988SOL    HW221864   1.826   0.077   6.115
 6989SOL     OW21865   6.455   4.860   2.513
 6989SOL    HW121866   6.396   4.880   2.592
 6989SOL    HW221867   6.544   4.903   2.527
 6990SOL     OW21868   3.889   2.749   1.756
 6990SOL    HW121869   3.818   2.683   1.782
 6990SOL    HW221870   3.972   2.700   1.729
 6991SOL     OW21871   5.418   4.369   3.113
 6991SOL    HW121872   5.506   4.323   3.127
 6991SOL    HW221873   5.429   4.467   3.126
 6992SOL     OW21874   6.898   5.819   0.185
 6992SOL    HW121875   6.952   5.736   0.198
 6992SOL    HW221876   6.832   5.828   0.260
 6993SOL     OW21877   6.329   0.398   1.470
 6993SOL    HW121878   6.288   0.404   1.561
 6993SOL    HW221879   6.269   0.345   1.410
 6994SOL     OW21880   1.587   0.500   4.153
 6994SOL    HW121881   1.589   0.400   4.154
 6994SOL    HW221882   1.520   0.532   4.086
 6995SOL     OW21883   0.180   3.999   0.391
 6995SOL    HW121884   0.256   4.038   0.444
 6995SOL    HW221885   0.173   4.045   0.303
 6996SOL     OW21886   1.076   0.761   0.499
 6996SOL    HW121887   1.100   0.664   0.501
 6996SOL    HW221888   1.034   0.784   0.411
 6997SOL     OW21889   6.938   4.983   4.872
 6997SOL    HW121890   6.875   4.905   4.875
 6997SOL    HW221891   6.995   4.984   4.954
 6998SOL     OW21892   0.740   1.687   1.403
 6998SOL    HW121893   0.653   1.642   1.423
 6998SOL    HW221894   0.734   1.735   1.315
 6999SOL     OW21895   1.184   2.340   6.178
 6999SOL    HW121896   1.124   2.278   6.127
 6999SOL    HW221897   1.129   2.399   6.237
 7000SOL     OW21898   5.944   0.469   2.027
 7000SOL    HW121899   5.965   0.388   2.082
 7000SOL    HW221900   6.028   0.500   1.981
 7001SOL     OW21901   1.114   1.741   5.268
 7001SOL    HW121902   1.059   1.796   5.205
 7001SOL    HW221903   1.210   1.747   5.243
 7002SOL     OW21904   1.560   5.191   3.800
 7002SOL    HW121905   1.559   5.144   3.888
 7002SOL    HW221906   1.621   5.270   3.805
 7003SOL     OW21907   5.175   5.196   1.495
 7003SOL    HW121908   5.108   5.231   1.430
 7003SOL    HW221909   5.243   5.141   1.447
 7004SOL     OW21910   1.135   5.350   0.472
 7004SOL    HW121911   1.066   5.303   0.527
 7004SOL    HW221912   1.198   5.283   0.432
 7005SOL     OW21913   0.988   0.329   6.791
 7005SOL    HW121914   0.997   0.307   6.888
 7005SOL    HW221915   0.987   0.245   6.738
 7006SOL     OW21916   6.649   6.323   3.245
 7006SOL    HW121917   6.654   6.408   3.297
 7006SOL    HW221918   6.694   6.250   3.297
 7007SOL     OW21919   4.377   0.826   5.229
 7007SOL    HW121920   4.429   0.815   5.145
 7007SOL    HW221921   4.279   0.820   5.208
 7008SOL     OW21922   6.489   4.393   4.119
 7008SOL    HW121923   6.576   4.438   4.098
 7008SOL    HW221924   6.478   4.313   4.059
 7009SOL     OW21925   4.019   6.775   1.920
 7009SOL    HW121926   4.077   6.700   1.888
 7009SOL    HW221927   4.075   6.846   1.962
 7010SOL     OW21928   6.102   4.209   3.013
 7010SOL    HW121929   6.077   4.268   3.090
 7010SOL    HW221930   6.092   4.114   3.041
 7011SOL     OW21931   3.810   6.646   0.657
 7011SOL    HW121932   3.783   6.550   0.647
 7011SOL    HW221933   3.907   6.650   0.682
 7012SOL     OW21934   1.419   2.256   1.219
 7012SOL    HW121935   1.396   2.348   1.186
 7012SOL    HW221936   1.503   2.260   1.273
 7013SOL     OW21937   2.781   0.602   6.586
 7013SOL    HW121938   2.724   0.684   6.582
 7013SOL    HW221939   2.843   0.608   6.664
 7014SOL     OW21940   5.679   3.278   1.045
 7014SOL    HW121941   5.771   3.244   1.065
 7014SOL    HW221942   5.668   3.289   0.947
 7015SOL     OW21943   5.985   4.728   2.351
 7015SOL    HW121944   5.972   4.725   2.450
 7015SOL    HW221945   6.069   4.778   2.329
 7016SOL     OW21946   3.325   5.352   0.808
 7016SOL    HW121947   3.406   5.307   0.770
 7016SOL    HW221948   3.298   5.304   0.892
 7017SOL     OW21949   2.934   4.803   3.179
 7017SOL    HW121950   2.933   4.784   3.081
 7017SOL    HW221951   3.025   4.832   3.207
 7018SOL     OW21952   5.261   3.404   4.249
 7018SOL    HW121953   5.285   3.394   4.153
 7018SOL    HW221954   5.341   3.435   4.300
 7019SOL     OW21955   4.622   5.542   2.160
 7019SOL    HW121956   4.665   5.617   2.211
 7019SOL    HW221957   4.594   5.470   2.223
 7020SOL     OW21958   0.297   3.520   0.035
 7020SOL    HW121959   0.346   3.436   0.014
 7020SOL    HW221960   0.211   3.523   7.003
 7021SOL     OW21961   1.408   2.785   4.628
 7021SOL    HW121962   1.502   2.768   4.657
 7021SOL    HW221963   1.398   2.881   4.600
 7022SOL     OW21964   4.368   0.696   0.162
 7022SOL    HW121965   4.433   0.622   0.146
 7022SOL    HW221966   4.284   0.678   0.110
 7023SOL     OW21967   0.513   2.407   1.483
 7023SOL    HW121968   0.455   2.380   1.560
 7023SOL    HW221969   0.469   2.482   1.433
 7024SOL     OW21970   3.567   3.104   3.153
 7024SOL    HW121971   3.547   3.007   3.159
 7024SOL    HW221972   3.491   3.151   3.107
 7025SOL     OW21973   3.732   0.599   0.596
 7025SOL    HW121974   3.654   0.621   0.656
 7025SOL    HW221975   3.749   0.677   0.535
 7026SOL     OW21976   3.809   2.054   2.203
 7026SOL    HW121977   3.741   2.063   2.275
 7026SOL    HW221978   3.775   2.096   2.119
 7027SOL     OW21979   2.510   6.239   3.461
 7027SOL    HW121980   2.487   6.234   3.559
 7027SOL    HW221981   2.435   6.283   3.412
 7028SOL     OW21982   2.655   6.923   4.006
 7028SOL    HW121983   2.729   6.893   3.946
 7028SOL    HW221984   2.653   6.865   4.087
 7029SOL     OW21985   3.309   3.768   5.545
 7029SOL    HW121986   3.329   3.750   5.448
 7029SOL    HW221987   3.372   3.837   5.580
 7030SOL     OW21988   0.582   2.042   5.008
 7030SOL    HW121989   0.637   2.012   5.086
 7030SOL    HW221990   0.643   2.061   4.930
 7031SOL     OW21991   4.373   6.240   0.759
 7031SOL    HW121992   4.283   6.200   0.778
 7031SOL    HW221993   4.433   6.170   0.722
 7032SOL     OW21994   4.346   0.573   4.021
 7032SOL    HW121995   4.317   0.641   3.954
 7032SOL    HW221996   4.267   0.545   4.077
 7033SOL     OW21997   1.466   2.837   4.153
 7033SOL    HW121998   1.439   2.915   4.097
 7033SOL    HW221999   1.494   2.869   4.243
 7034SOL     OW22000   6.629   2.846   3.477
 7034SOL    HW122001   6.635   2.754   3.438
 7034SOL    HW222002   6.656   2.914   3.407
 7035SOL     OW22003   2.468   6.935   1.434
 7035SOL    HW122004   2.496   6.879   1.512
 7035SOL    HW222005   2.472   6.882   1.350
 7036SOL     OW22006   0.144   2.031   2.575
 7036SOL    HW122007   0.067   2.079   2.617
 7036SOL    HW222008   0.111   1.973   2.501
 7037SOL     OW22009   0.711   1.254   5.980
 7037SOL    HW122010   0.770   1.224   6.055
 7037SOL    HW222011   0.738   1.347   5.953
 7038SOL     OW22012   2.485   4.427   5.739
 7038SOL    HW122013   2.470   4.361   5.813
 7038SOL    HW222014   2.550   4.497   5.771
 7039SOL     OW22015   0.614   5.650   3.633
 7039SOL    HW122016   0.545   5.634   3.704
 7039SOL    HW222017   0.581   5.720   3.569
 7040SOL     OW22018   4.428   2.205   5.241
 7040SOL    HW122019   4.466   2.163   5.323
 7040SOL    HW222020   4.477   2.171   5.160
 7041SOL     OW22021   1.382   1.502   3.650
 7041SOL    HW122022   1.395   1.584   3.594
 7041SOL    HW222023   1.395   1.526   3.747
 7042SOL     OW22024   4.521   5.553   4.748
 7042SOL    HW122025   4.475   5.616   4.685
 7042SOL    HW222026   4.512   5.587   4.841
 7043SOL     OW22027   2.406   4.502   3.924
 7043SOL    HW122028   2.412   4.475   3.828
 7043SOL    HW222029   2.344   4.580   3.933
 7044SOL     OW22030   4.983   0.566   4.882
 7044SOL    HW122031   5.020   0.482   4.922
 7044SOL    HW222032   5.008   0.644   4.939
 7045SOL     OW22033   5.853   5.360   2.765
 7045SOL    HW122034   5.860   5.332   2.670
 7045SOL    HW222035   5.944   5.376   2.803
 7046SOL     OW22036   3.080   2.188   3.960
 7046SOL    HW122037   2.993   2.173   3.913
 7046SOL    HW222038   3.063   2.231   4.049
 7047SOL     OW22039   0.349   0.848   0.807
 7047SOL    HW122040   0.364   0.768   0.865
 7047SOL    HW222041   0.434   0.870   0.759
 7048SOL     OW22042   5.817   6.291   4.965
 7048SOL    HW122043   5.916   6.288   4.971
 7048SOL    HW222044   5.778   6.278   5.056
 7049SOL     OW22045   4.132   1.007   2.320
 7049SOL    HW122046   4.115   0.912   2.293
 7049SOL    HW222047   4.047   1.059   2.310
 7050SOL     OW22048   3.525   4.884   0.798
 7050SOL    HW122049   3.595   4.819   0.768
 7050SOL    HW222050   3.536   4.902   0.895
 7051SOL     OW22051   6.757   6.628   1.204
 7051SOL    HW122052   6.791   6.720   1.223
 7051SOL    HW222053   6.698   6.629   1.124
 7052SOL     OW22054   5.584   6.758   3.215
 7052SOL    HW122055   5.549   6.849   3.189
 7052SOL    HW222056   5.683   6.757   3.205
 7053SOL     OW22057   1.942   3.920   4.027
 7053SOL    HW122058   1.907   4.007   4.062
 7053SOL    HW222059   2.039   3.930   4.004
 7054SOL     OW22060   0.168   6.819   0.909
 7054SOL    HW122061   0.153   6.910   0.946
 7054SOL    HW222062   0.173   6.752   0.984
 7055SOL     OW22063   2.782   0.255   0.240
 7055SOL    HW122064   2.829   0.322   0.183
 7055SOL    HW222065   2.804   0.272   0.336
 7056SOL     OW22066   6.961   5.405   1.209
 7056SOL    HW122067   6.882   5.412   1.148
 7056SOL    HW222068   7.006   5.494   1.216
 7057SOL     OW22069   3.136   5.559   4.456
 7057SOL    HW122070   3.108   5.484   4.516
 7057SOL    HW222071   3.226   5.593   4.486
 7058SOL     OW22072   5.613   2.052   6.258
 7058SOL    HW122073   5.583   2.143   6.233
 7058SOL    HW222074   5.713   2.051   6.269
 7059SOL     OW22075   1.582   1.365   4.880
 7059SOL    HW122076   1.668   1.340   4.835
 7059SOL    HW222077   1.506   1.316   4.836
 7060SOL     OW22078   3.547   6.475   2.243
 7060SOL    HW122079   3.545   6.378   2.268
 7060SOL    HW222080   3.576   6.484   2.147
 7061SOL     OW22081   0.556   2.232   2.085
 7061SOL    HW122082   0.489   2.254   2.015
 7061SOL    HW222083   0.582   2.315   2.134
 7062SOL     OW22084   4.300   1.796   4.228
 7062SOL    HW122085   4.370   1.746   4.277
 7062SOL    HW222086   4.218   1.739   4.219
 7063SOL     OW22087   0.608   6.390   2.322
 7063SOL    HW122088   0.544   6.348   2.386
 7063SOL    HW222089   0.592   6.354   2.230
 7064SOL     OW22090   4.844   1.784   6.161
 7064SOL    HW122091   4.921   1.822   6.212
 7064SOL    HW222092   4.878   1.739   6.079
 7065SOL     OW22093   3.667   4.614   5.318
 7065SOL    HW122094   3.575   4.579   5.339
 7065SOL    HW222095   3.733   4.540   5.324
 7066SOL     OW22096   4.688   0.749   6.835
 7066SOL    HW122097   4.591   0.761   6.812
 7066SOL    HW222098   4.737   0.715   6.755
 7067SOL     OW22099   1.457   3.331   6.812
 7067SOL    HW122100   1.388   3.315   6.742
 7067SOL    HW222101   1.543   3.357   6.768
 7068SOL     OW22102   5.665   4.417   4.255
 7068SOL    HW122103   5.717   4.501   4.273
 7068SOL    HW222104   5.719   4.356   4.197
 7069SOL     OW22105   6.029   1.918   5.680
 7069SOL    HW122106   6.079   1.839   5.643
 7069SOL    HW222107   6.090   1.997   5.684
 7070SOL     OW22108   0.552   6.347   4.605
 7070SOL    HW122109   0.505   6.266   4.569
 7070SOL    HW222110   0.503   6.429   4.577
 7071SOL     OW22111   4.808   6.101   6.523
 7071SOL    HW122112   4.819   6.128   6.618
 7071SOL    HW222113   4.710   6.090   6.503
 7072SOL     OW22114   1.612   4.401   6.562
 7072SOL    HW122115   1.686   4.345   6.524
 7072SOL    HW222116   1.614   4.394   6.662
 7073SOL     OW22117   3.858   0.419   3.044
 7073SOL    HW122118   3.785   0.486   3.042
 7073SOL    HW222119   3.942   0.462   3.077
 7074SOL     OW22120   6.589   3.664   3.852
 7074SOL    HW122121   6.680   3.704   3.855
 7074SOL    HW222122   6.520   3.736   3.861
 7075SOL     OW22123   3.234   4.886   5.042
 7075SOL    HW122124   3.208   4.831   5.122
 7075SOL    HW222125   3.156   4.943   5.014
 7076SOL     OW22126   6.015   3.130   2.026
 7076SOL    HW122127   6.091   3.112   2.087
 7076SOL    HW222128   6.025   3.076   1.942
 7077SOL     OW22129   2.341   4.468   2.876
 7077SOL    HW122130   2.434   4.481   2.909
 7077SOL    HW222131   2.343   4.416   2.791
 7078SOL     OW22132   5.049   6.586   0.759
 7078SOL    HW122133   5.122   6.649   0.730
 7078SOL    HW222134   5.010   6.618   0.846
 7079SOL     OW22135   1.285   6.738   4.087
 7079SOL    HW122136   1.309   6.797   4.010
 7079SOL    HW222137   1.252   6.650   4.052
 7080SOL     OW22138   3.842   1.875   4.550
 7080SOL    HW122139   3.900   1.821   4.488
 7080SOL    HW222140   3.747   1.845   4.541
 7081SOL     OW22141   1.434   7.002   0.411
 7081SOL    HW122142   1.485   0.047   0.467
 7081SOL    HW222143   1.430   6.914   0.459
 7082SOL     OW22144   6.902   3.622   1.603
 7082SOL    HW122145   6.842   3.695   1.637
 7082SOL    HW222146   6.992   3.630   1.647
 7083SOL     OW22147   6.909   1.945   2.103
 7083SOL    HW122148   6.867   1.855   2.092
 7083SOL    HW222149   7.006   1.940   2.080
 7084SOL     OW22150   0.501   5.803   5.047
 7084SOL    HW122151   0.494   5.705   5.061
 7084SOL    HW222152   0.524   5.848   5.133
 7085SOL     OW22153   6.950   2.335   2.483
 7085SOL    HW122154   6.938   2.320   2.385
 7085SOL    HW222155   6.887   2.406   2.514
 7086SOL     OW22156   5.890   0.300   6.686
 7086SOL    HW122157   5.949   0.220   6.699
 7086SOL    HW222158   5.932   0.361   6.619
 7087SOL     OW22159   5.258   3.525   2.633
 7087SOL    HW122160   5.210   3.478   2.558
 7087SOL    HW222161   5.344   3.563   2.598
 7088SOL     OW22162   5.795   1.860   4.948
 7088SOL    HW122163   5.811   1.808   4.864
 7088SOL    HW222164   5.700   1.889   4.953
 7089SOL     OW22165   3.051   5.043   2.899
 7089SOL    HW122166   3.120   5.026   2.969
 7089SOL    HW222167   3.084   5.006   2.811
 7090SOL     OW22168   2.848   1.185   0.900
 7090SOL    HW122169   2.914   1.202   0.974
 7090SOL    HW222170   2.874   1.100   0.852
 7091SOL     OW22171   0.831   0.407   0.704
 7091SOL    HW122172   0.821   0.374   0.798
 7091SOL    HW222173   0.835   0.330   0.641
 7092SOL     OW22174   4.194   2.595   6.595
 7092SOL    HW122175   4.200   2.685   6.639
 7092SOL    HW222176   4.180   2.607   6.497
 7093SOL     OW22177   3.403   4.061   1.466
 7093SOL    HW122178   3.463   4.128   1.423
 7093SOL    HW222179   3.371   4.097   1.554
 7094SOL     OW22180   1.876   6.617   5.609
 7094SOL    HW122181   1.882   6.519   5.590
 7094SOL    HW222182   1.967   6.652   5.634
 7095SOL     OW22183   3.150   4.693   5.434
 7095SOL    HW122184   3.061   4.679   5.389
 7095SOL    HW222185   3.137   4.706   5.532
 7096SOL     OW22186   6.758   0.848   1.218
 7096SOL    HW122187   6.774   0.841   1.317
 7096SOL    HW222188   6.690   0.919   1.200
 7097SOL     OW22189   5.520   0.454   2.248
 7097SOL    HW122190   5.492   0.373   2.300
 7097SOL    HW222191   5.610   0.439   2.208
 7098SOL     OW22192   1.939   6.885   4.760
 7098SOL    HW122193   2.018   6.946   4.756
 7098SOL    HW222194   1.958   6.810   4.823
 7099SOL     OW22195   3.288   1.983   3.925
 7099SOL    HW122196   3.218   2.046   3.959
 7099SOL    HW222197   3.359   2.035   3.877
 7100SOL     OW22198   0.544   3.635   0.898
 7100SOL    HW122199   0.514   3.715   0.949
 7100SOL    HW222200   0.607   3.581   0.954
 7101SOL     OW22201   2.724   6.339   5.051
 7101SOL    HW122202   2.727   6.338   4.951
 7101SOL    HW222203   2.808   6.297   5.087
 7102SOL     OW22204   5.271   0.628   1.225
 7102SOL    HW122205   5.230   0.540   1.248
 7102SOL    HW222206   5.199   0.698   1.221
 7103SOL     OW22207   5.124   5.270   2.087
 7103SOL    HW122208   5.034   5.311   2.101
 7103SOL    HW222209   5.113   5.178   2.049
 7104SOL     OW22210   5.352   3.029   2.977
 7104SOL    HW122211   5.305   2.958   3.030
 7104SOL    HW222212   5.451   3.017   2.985
 7105SOL     OW22213   3.391   4.107   4.177
 7105SOL    HW122214   3.405   4.160   4.094
 7105SOL    HW222215   3.466   4.124   4.241
 7106SOL     OW22216   3.519   2.822   0.902
 7106SOL    HW122217   3.584   2.827   0.977
 7106SOL    HW222218   3.558   2.767   0.828
 7107SOL     OW22219   4.144   0.608   0.004
 7107SOL    HW122220   4.114   0.568   0.091
 7107SOL    HW222221   4.074   0.592   6.954
 7108SOL     OW22222   2.645   6.644   2.941
 7108SOL    HW122223   2.681   6.574   2.879
 7108SOL    HW222224   2.692   6.731   2.926
 7109SOL     OW22225   1.529   0.532   0.074
 7109SOL    HW122226   1.629   0.534   0.074
 7109SOL    HW222227   1.495   0.520   7.001
 7110SOL     OW22228   3.355   6.733   4.348
 7110SOL    HW122229   3.436   6.787   4.370
 7110SOL    HW222230   3.333   6.744   4.251
 7111SOL     OW22231   1.185   1.178   3.744
 7111SOL    HW122232   1.094   1.176   3.785
 7111SOL    HW222233   1.191   1.252   3.677
 7112SOL     OW22234   2.387   4.333   4.555
 7112SOL    HW122235   2.423   4.376   4.638
 7112SOL    HW222236   2.455   4.269   4.519
 7113SOL     OW22237   3.080   5.105   5.035
 7113SOL    HW122238   2.994   5.055   5.047
 7113SOL    HW222239   3.087   5.176   5.106
 7114SOL     OW22240   4.431   5.484   1.555
 7114SOL    HW122241   4.443   5.483   1.455
 7114SOL    HW222242   4.339   5.516   1.577
 7115SOL     OW22243   5.744   4.623   0.004
 7115SOL    HW122244   5.786   4.598   0.092
 7115SOL    HW222245   5.756   4.547   6.959
 7116SOL     OW22246   5.779   4.297   3.629
 7116SOL    HW122247   5.814   4.342   3.547
 7116SOL    HW222248   5.713   4.357   3.674
 7117SOL     OW22249   5.899   6.773   4.082
 7117SOL    HW122250   5.809   6.731   4.085
 7117SOL    HW222251   5.894   6.860   4.033
 7118SOL     OW22252   3.883   4.338   5.341
 7118SOL    HW122253   3.844   4.272   5.277
 7118SOL    HW222254   3.980   4.318   5.355
 7119SOL     OW22255   5.117   0.743   5.037
 7119SOL    HW122256   5.153   0.741   5.130
 7119SOL    HW222257   5.191   0.727   4.972
 7120SOL     OW22258   5.343   1.370   1.271
 7120SOL    HW122259   5.315   1.394   1.178
 7120SOL    HW222260   5.325   1.447   1.333
 7121SOL     OW22261   0.928   6.583   3.738
 7121SOL    HW122262   0.940   6.490   3.703
 7121SOL    HW222263   1.018   6.621   3.760
 7122SOL     OW22264   2.795   6.595   5.911
 7122SOL    HW122265   2.803   6.503   5.950
 7122SOL    HW222266   2.784   6.662   5.984
 7123SOL     OW22267   6.210   4.749   5.059
 7123SOL    HW122268   6.146   4.760   5.135
 7123SOL    HW222269   6.205   4.830   5.000
 7124SOL     OW22270   1.380   2.393   1.836
 7124SOL    HW122271   1.388   2.493   1.840
 7124SOL    HW222272   1.428   2.359   1.755
 7125SOL     OW22273   0.793   0.329   2.235
 7125SOL    HW122274   0.726   0.298   2.168
 7125SOL    HW222275   0.755   0.406   2.287
 7126SOL     OW22276   3.983   6.312   1.349
 7126SOL    HW122277   3.894   6.320   1.394
 7126SOL    HW222278   4.052   6.359   1.403
 7127SOL     OW22279   3.404   6.034   5.434
 7127SOL    HW122280   3.491   6.003   5.473
 7127SOL    HW222281   3.392   6.131   5.451
 7128SOL     OW22282   3.592   4.288   6.712
 7128SOL    HW122283   3.644   4.203   6.723
 7128SOL    HW222284   3.642   4.363   6.755
 7129SOL     OW22285   6.704   1.699   0.368
 7129SOL    HW122286   6.757   1.665   0.446
 7129SOL    HW222287   6.764   1.750   0.307
 7130SOL     OW22288   3.026   0.134   4.525
 7130SOL    HW122289   3.108   0.175   4.565
 7130SOL    HW222290   3.051   0.053   4.473
 7131SOL     OW22291   3.606   1.016   2.234
 7131SOL    HW122292   3.517   1.005   2.189
 7131SOL    HW222293   3.666   0.940   2.208
 7132SOL     OW22294   5.078   4.056   6.781
 7132SOL    HW122295   5.034   3.973   6.747
 7132SOL    HW222296   5.039   4.136   6.734
 7133SOL     OW22297   3.603   5.562   3.650
 7133SOL    HW122298   3.642   5.579   3.741
 7133SOL    HW222299   3.510   5.597   3.647
 7134SOL     OW22300   5.698   6.135   1.665
 7134SOL    HW122301   5.660   6.110   1.576
 7134SOL    HW222302   5.793   6.165   1.654
 7135SOL     OW22303   2.108   3.266   2.092
 7135SOL    HW122304   2.098   3.285   2.190
 7135SOL    HW222305   2.138   3.349   2.045
 7136SOL     OW22306   3.050   1.834   1.770
 7136SOL    HW122307   2.977   1.781   1.728
 7136SOL    HW222308   3.013   1.895   1.840
 7137SOL     OW22309   2.957   2.002   1.289
 7137SOL    HW122310   2.991   1.978   1.380
 7137SOL    HW222311   2.903   1.926   1.253
 7138SOL     OW22312   2.299   0.884   1.477
 7138SOL    HW122313   2.301   0.785   1.470
 7138SOL    HW222314   2.208   0.913   1.509
 7139SOL     OW22315   4.990   5.547   2.070
 7139SOL    HW122316   5.084   5.564   2.100
 7139SOL    HW222317   4.988   5.466   2.012
 7140SOL     OW22318   6.073   4.151   0.938
 7140SOL    HW122319   6.114   4.064   0.965
 7140SOL    HW222320   6.105   4.176   0.847
 7141SOL     OW22321   4.017   6.267   1.032
 7141SOL    HW122322   3.932   6.270   0.981
 7141SOL    HW222323   3.999   6.289   1.128
 7142SOL     OW22324   3.111   0.735   4.664
 7142SOL    HW122325   3.069   0.808   4.610
 7142SOL    HW222326   3.134   0.658   4.603
 7143SOL     OW22327   2.270   4.280   6.632
 7143SOL    HW122328   2.329   4.354   6.663
 7143SOL    HW222329   2.325   4.197   6.618
 7144SOL     OW22330   6.988   1.240   4.286
 7144SOL    HW122331   0.040   1.307   4.270
 7144SOL    HW222332   6.919   1.248   4.214
 7145SOL     OW22333   4.780   1.812   0.436
 7145SOL    HW122334   4.822   1.721   0.428
 7145SOL    HW222335   4.841   1.880   0.395
 7146SOL     OW22336   2.265   1.339   5.165
 7146SOL    HW122337   2.216   1.425   5.151
 7146SOL    HW222338   2.282   1.295   5.077
 7147SOL     OW22339   5.366   5.096   3.065
 7147SOL    HW122340   5.463   5.120   3.056
 7147SOL    HW222341   5.309   5.173   3.037
 7148SOL     OW22342   6.031   6.503   1.306
 7148SOL    HW122343   5.994   6.520   1.398
 7148SOL    HW222344   5.964   6.530   1.238
 7149SOL     OW22345   6.829   4.658   3.266
 7149SOL    HW122346   6.840   4.645   3.365
 7149SOL    HW222347   6.894   4.599   3.218
 7150SOL     OW22348   4.188   3.403   6.992
 7150SOL    HW122349   4.273   3.389   6.942
 7150SOL    HW222350   4.206   3.404   0.070
 7151SOL     OW22351   3.401   0.351   0.983
 7151SOL    HW122352   3.341   0.395   1.050
 7151SOL    HW222353   3.455   0.281   1.028
 7152SOL     OW22354   6.736   1.011   6.774
 7152SOL    HW122355   6.686   1.034   6.690
 7152SOL    HW222356   6.789   0.928   6.760
 7153SOL     OW22357   4.048   6.200   1.728
 7153SOL    HW122358   4.093   6.159   1.807
 7153SOL    HW222359   4.045   6.134   1.653
 7154SOL     OW22360   4.543   1.321   2.280
 7154SOL    HW122361   4.454   1.279   2.263
 7154SOL    HW222362   4.536   1.383   2.358
 7155SOL     OW22363   3.304   1.741   1.718
 7155SOL    HW122364   3.367   1.775   1.647
 7155SOL    HW222365   3.222   1.798   1.718
 7156SOL     OW22366   5.654   3.248   1.824
 7156SOL    HW122367   5.609   3.304   1.754
 7156SOL    HW222368   5.603   3.163   1.837
 7157SOL     OW22369   6.106   4.134   6.946
 7157SOL    HW122370   6.190   4.096   6.908
 7157SOL    HW222371   6.076   4.078   0.004
 7158SOL     OW22372   5.895   7.002   3.918
 7158SOL    HW122373   5.832   0.060   3.917
 7158SOL    HW222374   5.917   6.976   3.824
 7159SOL     OW22375   6.633   4.939   4.251
 7159SOL    HW122376   6.637   4.969   4.156
 7159SOL    HW222377   6.725   4.916   4.282
 7160SOL     OW22378   5.832   6.562   2.592
 7160SOL    HW122379   5.749   6.578   2.539
 7160SOL    HW222380   5.828   6.472   2.635
 7161SOL     OW22381   3.665   3.254   3.345
 7161SOL    HW122382   3.764   3.246   3.356
 7161SOL    HW222383   3.635   3.189   3.275
 7162SOL     OW22384   6.932   4.890   1.752
 7162SOL    HW122385   7.019   4.849   1.725
 7162SOL    HW222386   6.894   4.941   1.675
 7163SOL     OW22387   1.145   1.858   2.559
 7163SOL    HW122388   1.138   1.955   2.580
 7163SOL    HW222389   1.192   1.846   2.471
 7164SOL     OW22390   1.686   0.740   6.323
 7164SOL    HW122391   1.589   0.764   6.323
 7164SOL    HW222392   1.709   0.692   6.238
 7165SOL     OW22393   5.613   6.989   0.448
 7165SOL    HW122394   5.597   6.975   0.350
 7165SOL    HW222395   5.703   0.010   0.461
 7166SOL     OW22396   5.387   0.405   5.751
 7166SOL    HW122397   5.434   0.475   5.698
 7166SOL    HW222398   5.290   0.401   5.724
 7167SOL     OW22399   5.914   2.145   4.986
 7167SOL    HW122400   5.843   2.079   4.961
 7167SOL    HW222401   5.969   2.166   4.905
 7168SOL     OW22402   2.480   0.840   2.526
 7168SOL    HW122403   2.563   0.893   2.506
 7168SOL    HW222404   2.490   0.748   2.489
 7169SOL     OW22405   1.797   4.770   5.016
 7169SOL    HW122406   1.827   4.676   5.030
 7169SOL    HW222407   1.852   4.812   4.944
 7170SOL     OW22408   4.550   0.300   1.895
 7170SOL    HW122409   4.612   0.299   1.973
 7170SOL    HW222410   4.456   0.316   1.926
 7171SOL     OW22411   5.620   5.145   0.767
 7171SOL    HW122412   5.625   5.047   0.787
 7171SOL    HW222413   5.699   5.191   0.807
 7172SOL     OW22414   2.009   1.357   5.335
 7172SOL    HW122415   2.027   1.438   5.280
 7172SOL    HW222416   1.983   1.281   5.276
 7173SOL     OW22417   6.120   5.922   6.973
 7173SOL    HW122418   6.096   5.900   0.048
 7173SOL    HW222419   6.141   5.838   6.923
 7174SOL     OW22420   5.324   4.733   1.613
 7174SOL    HW122421   5.283   4.644   1.631
 7174SOL    HW222422   5.388   4.726   1.536
 7175SOL     OW22423   6.033   3.722   5.063
 7175SOL    HW122424   5.944   3.723   5.018
 7175SOL    HW222425   6.040   3.801   5.124
 7176SOL     OW22426   0.560   1.342   3.931
 7176SOL    HW122427   0.491   1.345   4.003
 7176SOL    HW222428   0.634   1.406   3.951
 7177SOL     OW22429   1.780   5.704   5.752
 7177SOL    HW122430   1.682   5.723   5.746
 7177SOL    HW222431   1.795   5.605   5.757
 7178SOL     OW22432   0.121   0.663   5.539
 7178SOL    HW122433   0.134   0.607   5.457
 7178SOL    HW222434   0.194   0.644   5.604
 7179SOL     OW22435   2.484   4.862   5.899
 7179SOL    HW122436   2.507   4.941   5.955
 7179SOL    HW222437   2.409   4.886   5.836
 7180SOL     OW22438   1.899   4.854   1.289
 7180SOL    HW122439   1.993   4.837   1.260
 7180SOL    HW222440   1.841   4.776   1.265
 7181SOL     OW22441   2.449   1.475   5.725
 7181SOL    HW122442   2.416   1.554   5.674
 7181SOL    HW222443   2.422   1.391   5.678
 7182SOL     OW22444   0.463   2.911   4.083
 7182SOL    HW122445   0.546   2.893   4.031
 7182SOL    HW222446   0.481   2.980   4.153
 7183SOL     OW22447   2.057   6.405   1.670
 7183SOL    HW122448   2.014   6.328   1.718
 7183SOL    HW222449   2.019   6.491   1.704
 7184SOL     OW22450   5.907   1.176   3.436
 7184SOL    HW122451   5.825   1.124   3.414
 7184SOL    HW222452   5.964   1.123   3.499
 7185SOL     OW22453   5.026   1.187   5.573
 7185SOL    HW122454   5.029   1.284   5.599
 7185SOL    HW222455   4.945   1.170   5.518
 7186SOL     OW22456   0.251   0.064   0.327
 7186SOL    HW122457   0.270   0.022   0.416
 7186SOL    HW222458   0.152   0.066   0.313
 7187SOL     OW22459   2.885   3.555   4.569
 7187SOL    HW122460   2.880   3.564   4.668
 7187SOL    HW222461   2.804   3.594   4.527
 7188SOL     OW22462   4.252   4.863   6.915
 7188SOL    HW122463   4.257   4.764   6.927
 7188SOL    HW222464   4.275   4.908   7.001
 7189SOL     OW22465   6.438   3.015   5.282
 7189SOL    HW122466   6.442   3.007   5.381
 7189SOL    HW222467   6.530   3.028   5.246
 7190SOL     OW22468   6.043   5.669   0.983
 7190SOL    HW122469   6.070   5.757   1.024
 7190SOL    HW222470   6.120   5.631   0.933
 7191SOL     OW22471   0.893   4.298   3.043
 7191SOL    HW122472   0.951   4.369   3.083
 7191SOL    HW222473   0.801   4.334   3.028
 7192SOL     OW22474   2.049   4.470   6.340
 7192SOL    HW122475   1.980   4.401   6.364
 7192SOL    HW222476   2.048   4.485   6.242
 7193SOL     OW22477   2.923   1.899   2.301
 7193SOL    HW122478   2.827   1.870   2.304
 7193SOL    HW222479   2.975   1.848   2.370
 7194SOL     OW22480   2.497   2.414   0.337
 7194SOL    HW122481   2.510   2.413   0.436
 7194SOL    HW222482   2.564   2.353   0.294
 7195SOL     OW22483   0.032   3.668   6.967
 7195SOL    HW122484   0.080   3.744   6.924
 7195SOL    HW222485   6.956   3.691   6.979
 7196SOL     OW22486   3.163   4.003   2.689
 7196SOL    HW122487   3.165   4.032   2.593
 7196SOL    HW222488   3.228   4.058   2.742
 7197SOL     OW22489   1.555   3.827   5.238
 7197SOL    HW122490   1.616   3.784   5.171
 7197SOL    HW222491   1.498   3.757   5.280
 7198SOL     OW22492   0.041   0.470   0.442
 7198SOL    HW122493   0.111   0.400   0.438
 7198SOL    HW222494   7.004   0.457   0.523
 7199SOL     OW22495   0.391   0.276   2.560
 7199SOL    HW122496   0.377   0.373   2.579
 7199SOL    HW222497   0.327   0.246   2.490
 7200SOL     OW22498   1.778   2.094   0.713
 7200SOL    HW122499   1.713   2.061   0.781
 7200SOL    HW222500   1.870   2.091   0.752
 7201SOL     OW22501   6.603   5.475   4.176
 7201SOL    HW122502   6.505   5.476   4.157
 7201SOL    HW222503   6.638   5.381   4.170
 7202SOL     OW22504   5.192   7.019   6.170
 7202SOL    HW122505   5.202   0.008   6.071
 7202SOL    HW222506   5.214   6.925   6.198
 7203SOL     OW22507   0.548   1.024   1.964
 7203SOL    HW122508   0.586   0.992   2.050
 7203SOL    HW222509   0.613   1.007   1.890
 7204SOL     OW22510   6.316   1.039   0.416
 7204SOL    HW122511   6.392   1.076   0.470
 7204SOL    HW222512   6.346   0.955   0.370
 7205SOL     OW22513   1.650   2.712   4.680
 7205SOL    HW122514   1.702   2.739   4.761
 7205SOL    HW222515   1.586   2.639   4.705
 7206SOL     OW22516   1.297   1.784   1.198
 7206SOL    HW122517   1.388   1.804   1.161
 7206SOL    HW222518   1.306   1.732   1.282
 7207SOL     OW22519   1.783   2.243   4.186
 7207SOL    HW122520   1.873   2.284   4.192
 7207SOL    HW222521   1.778   2.165   4.248
 7208SOL     OW22522   3.801   0.733   4.504
 7208SOL    HW122523   3.719   0.704   4.454
 7208SOL    HW222524   3.779   0.812   4.561
 7209SOL     OW22525   2.144   2.374   2.564
 7209SOL    HW122526   2.084   2.450   2.539
 7209SOL    HW222527   2.224   2.374   2.506
 7210SOL     OW22528   2.875   2.033   3.222
 7210SOL    HW122529   2.911   2.089   3.149
 7210SOL    HW222530   2.932   1.951   3.232
 7211SOL     OW22531   2.614   6.291   5.330
 7211SOL    HW122532   2.596   6.288   5.231
 7211SOL    HW222533   2.618   6.386   5.360
 7212SOL     OW22534   6.251   5.605   5.996
 7212SOL    HW122535   6.304   5.625   5.914
 7212SOL    HW222536   6.217   5.512   5.992
 7213SOL     OW22537   3.690   0.002   0.443
 7213SOL    HW122538   3.652   0.027   0.532
 7213SOL    HW222539   3.700   0.084   0.386
 7214SOL     OW22540   6.884   1.278   6.081
 7214SOL    HW122541   6.896   1.213   6.007
 7214SOL    HW222542   6.970   1.325   6.098
 7215SOL     OW22543   6.768   2.467   3.657
 7215SOL    HW122544   6.732   2.502   3.744
 7215SOL    HW222545   6.865   2.489   3.650
 7216SOL     OW22546   3.055   6.512   2.432
 7216SOL    HW122547   3.136   6.532   2.376
 7216SOL    HW222548   3.068   6.549   2.524
 7217SOL     OW22549   0.941   4.673   3.670
 7217SOL    HW122550   0.866   4.666   3.736
 7217SOL    HW222551   1.017   4.722   3.712
 7218SOL     OW22552   0.111   2.750   4.330
 7218SOL    HW122553   0.080   2.845   4.320
 7218SOL    HW222554   0.055   2.704   4.398
 7219SOL     OW22555   3.206   6.505   1.602
 7219SOL    HW122556   3.282   6.557   1.642
 7219SOL    HW222557   3.120   6.554   1.618
 7220SOL     OW22558   6.650   3.921   4.785
 7220SOL    HW122559   6.617   4.015   4.793
 7220SOL    HW222560   6.719   3.904   4.855
 7221SOL     OW22561   3.024   6.137   4.656
 7221SOL    HW122562   3.070   6.094   4.579
 7221SOL    HW222563   2.946   6.081   4.684
 7222SOL     OW22564   5.993   6.473   3.204
 7222SOL    HW122565   5.990   6.459   3.105
 7222SOL    HW222566   5.920   6.420   3.247
 7223SOL     OW22567   2.303   2.136   0.920
 7223SOL    HW122568   2.385   2.096   0.878
 7223SOL    HW222569   2.296   2.232   0.895
 7224SOL     OW22570   4.376   2.440   4.108
 7224SOL    HW122571   4.297   2.458   4.049
 7224SOL    HW222572   4.346   2.393   4.191
 7225SOL     OW22573   2.311   6.267   0.269
 7225SOL    HW122574   2.310   6.305   0.361
 7225SOL    HW222575   2.221   6.231   0.247
 7226SOL     OW22576   5.947   0.614   0.574
 7226SOL    HW122577   5.923   0.711   0.572
 7226SOL    HW222578   6.046   0.605   0.576
 7227SOL     OW22579   3.025   1.019   2.281
 7227SOL    HW122580   3.106   1.076   2.298
 7227SOL    HW222581   3.008   1.015   2.182
 7228SOL     OW22582   0.115   1.590   3.151
 7228SOL    HW122583   0.195   1.568   3.096
 7228SOL    HW222584   0.034   1.593   3.091
 7229SOL     OW22585   0.027   6.715   4.533
 7229SOL    HW122586   0.100   6.702   4.600
 7229SOL    HW222587   0.053   6.789   4.471
 7230SOL     OW22588   2.713   5.045   4.019
 7230SOL    HW122589   2.705   4.954   3.979
 7230SOL    HW222590   2.686   5.042   4.115
 7231SOL     OW22591   3.436   0.047   0.957
 7231SOL    HW122592   3.426   0.032   0.858
 7231SOL    HW222593   3.460   6.981   1.001
 7232SOL     OW22594   4.795   6.564   2.694
 7232SOL    HW122595   4.810   6.663   2.702
 7232SOL    HW222596   4.717   6.538   2.751
 7233SOL     OW22597   6.196   2.149   5.599
 7233SOL    HW122598   6.264   2.077   5.615
 7233SOL    HW222599   6.237   2.238   5.616
 7234SOL     OW22600   5.087   4.133   2.776
 7234SOL    HW122601   5.164   4.071   2.789
 7234SOL    HW222602   5.004   4.080   2.756
 7235SOL     OW22603   6.239   5.883   1.484
 7235SOL    HW122604   6.296   5.803   1.504
 7235SOL    HW222605   6.144   5.862   1.506
 7236SOL     OW22606   1.690   2.530   2.933
 7236SOL    HW122607   1.623   2.567   2.869
 7236SOL    HW222608   1.701   2.432   2.917
 7237SOL     OW22609   4.832   6.883   6.831
 7237SOL    HW122610   4.874   6.796   6.803
 7237SOL    HW222611   4.751   6.864   6.887
 7238SOL     OW22612   4.658   2.586   0.058
 7238SOL    HW122613   4.591   2.526   0.103
 7238SOL    HW222614   4.736   2.532   0.027
 7239SOL     OW22615   0.638   3.229   2.607
 7239SOL    HW122616   0.663   3.149   2.554
 7239SOL    HW222617   0.708   3.299   2.597
 7240SOL     OW22618   6.696   2.239   6.803
 7240SOL    HW122619   6.621   2.178   6.775
 7240SOL    HW222620   6.783   2.192   6.790
 7241SOL     OW22621   2.053   0.532   0.390
 7241SOL    HW122622   2.141   0.545   0.436
 7241SOL    HW222623   2.055   0.448   0.337
 7242SOL     OW22624   0.005   6.001   5.157
 7242SOL    HW122625   6.943   6.051   5.128
 7242SOL    HW222626   0.081   6.065   5.168
 7243SOL     OW22627   6.863   3.536   6.683
 7243SOL    HW122628   6.764   3.527   6.685
 7243SOL    HW222629   6.888   3.632   6.696
 7244SOL     OW22630   0.594   6.681   0.594
 7244SOL    HW122631   0.676   6.738   0.581
 7244SOL    HW222632   0.527   6.732   0.648
 7245SOL     OW22633   1.591   2.255   5.813
 7245SOL    HW122634   1.511   2.214   5.858
 7245SOL    HW222635   1.625   2.332   5.868
 7246SOL     OW22636   2.362   0.311   4.629
 7246SOL    HW122637   2.420   0.386   4.599
 7246SOL    HW222638   2.417   0.242   4.676
 7247SOL     OW22639   3.243   2.218   5.599
 7247SOL    HW122640   3.319   2.166   5.560
 7247SOL    HW222641   3.221   2.295   5.539
 7248SOL     OW22642   2.772   0.389   4.228
 7248SOL    HW122643   2.695   0.335   4.196
 7248SOL    HW222644   2.750   0.487   4.220
 7249SOL     OW22645   4.277   4.943   1.735
 7249SOL    HW122646   4.287   4.848   1.705
 7249SOL    HW222647   4.295   4.949   1.833
 7250SOL     OW22648   5.437   4.961   5.871
 7250SOL    HW122649   5.439   4.883   5.809
 7250SOL    HW222650   5.455   4.929   5.964
 7251SOL     OW22651   0.552   0.163   5.952
 7251SOL    HW122652   0.502   0.246   5.925
 7251SOL    HW222653   0.642   0.164   5.909
 7252SOL     OW22654   2.987   3.818   2.149
 7252SOL    HW122655   2.914   3.849   2.210
 7252SOL    HW222656   3.018   3.728   2.178
 7253SOL     OW22657   1.914   6.577   6.143
 7253SOL    HW122658   1.976   6.642   6.101
 7253SOL    HW222659   1.862   6.529   6.072
 7254SOL     OW22660   5.639   5.374   3.917
 7254SOL    HW122661   5.611   5.400   3.825
 7254SOL    HW222662   5.648   5.274   3.922
 7255SOL     OW22663   4.649   3.439   6.760
 7255SOL    HW122664   4.676   3.501   6.687
 7255SOL    HW222665   4.661   3.483   6.849
 7256SOL     OW22666   4.054   6.149   5.753
 7256SOL    HW122667   4.042   6.225   5.690
 7256SOL    HW222668   4.140   6.161   5.803
 7257SOL     OW22669   0.036   2.002   4.984
 7257SOL    HW122670   7.010   2.046   5.060
 7257SOL    HW222671   0.128   2.040   4.974
 7258SOL     OW22672   5.597   2.130   2.232
 7258SOL    HW122673   5.682   2.117   2.181
 7258SOL    HW222674   5.539   2.196   2.184
 7259SOL     OW22675   1.295   3.418   2.512
 7259SOL    HW122676   1.224   3.447   2.575
 7259SOL    HW222677   1.384   3.452   2.544
 7260SOL     OW22678   5.075   2.272   1.174
 7260SOL    HW122679   5.062   2.364   1.209
 7260SOL    HW222680   5.079   2.207   1.250
 7261SOL     OW22681   0.469   4.222   1.450
 7261SOL    HW122682   0.549   4.166   1.469
 7261SOL    HW222683   0.475   4.309   1.500
 7262SOL     OW22684   5.349   1.152   6.531
 7262SOL    HW122685   5.291   1.100   6.594
 7262SOL    HW222686   5.328   1.124   6.437
 7263SOL     OW22687   0.067   6.282   0.324
 7263SOL    HW122688   0.146   6.221   0.325
 7263SOL    HW222689   7.004   6.229   0.340
 7264SOL     OW22690   5.437   0.904   1.056
 7264SOL    HW122691   5.528   0.863   1.064
 7264SOL    HW222692   5.430   0.981   1.120
 7265SOL     OW22693   5.931   4.717   5.131
 7265SOL    HW122694   5.959   4.785   5.199
 7265SOL    HW222695   5.857   4.754   5.075
 7266SOL     OW22696   6.580   0.587   3.651
 7266SOL    HW122697   6.557   0.674   3.695
 7266SOL    HW222698   6.616   0.605   3.559
 7267SOL     OW22699   6.536   6.916   5.210
 7267SOL    HW122700   6.505   6.992   5.154
 7267SOL    HW222701   6.623   6.882   5.174
 7268SOL     OW22702   0.150   5.764   4.053
 7268SOL    HW122703   0.109   5.673   4.058
 7268SOL    HW222704   0.080   5.831   4.031
 7269SOL     OW22705   1.845   6.121   5.931
 7269SOL    HW122706   1.768   6.180   5.903
 7269SOL    HW222707   1.815   6.060   6.004
 7270SOL     OW22708   0.201   1.792   4.026
 7270SOL    HW122709   0.143   1.806   3.946
 7270SOL    HW222710   0.254   1.708   4.014
 7271SOL     OW22711   1.488   5.105   4.053
 7271SOL    HW122712   1.390   5.121   4.037
 7271SOL    HW222713   1.523   5.172   4.118
 7272SOL     OW22714   6.291   5.719   2.052
 7272SOL    HW122715   6.234   5.650   2.096
 7272SOL    HW222716   6.387   5.693   2.060
 7273SOL     OW22717   5.024   3.454   6.979
 7273SOL    HW122718   4.988   3.533   6.929
 7273SOL    HW222719   5.065   3.389   6.915
 7274SOL     OW22720   0.064   4.433   6.886
 7274SOL    HW122721   0.147   4.447   6.831
 7274SOL    HW222722   0.020   4.348   6.859
 7275SOL     OW22723   0.301   6.062   2.747
 7275SOL    HW122724   0.294   5.986   2.812
 7275SOL    HW222725   0.343   6.141   2.792
 7276SOL     OW22726   5.749   0.504   3.434
 7276SOL    HW122727   5.787   0.500   3.527
 7276SOL    HW222728   5.792   0.432   3.379
 7277SOL     OW22729   4.773   0.848   5.315
 7277SOL    HW122730   4.685   0.881   5.349
 7277SOL    HW222731   4.842   0.859   5.386
 7278SOL     OW22732   3.255   3.997   1.243
 7278SOL    HW122733   3.250   4.042   1.332
 7278SOL    HW222734   3.330   3.930   1.245
 7279SOL     OW22735   4.465   5.844   6.899
 7279SOL    HW122736   4.444   5.935   6.936
 7279SOL    HW222737   4.450   5.843   6.801
 7280SOL     OW22738   6.627   0.235   3.815
 7280SOL    HW122739   6.573   0.305   3.860
 7280SOL    HW222740   6.696   0.278   3.756
 7281SOL     OW22741   3.197   1.987   6.979
 7281SOL    HW122742   3.162   2.046   6.906
 7281SOL    HW222743   3.200   2.038   0.045
 7282SOL     OW22744   5.994   5.362   2.524
 7282SOL    HW122745   5.979   5.299   2.448
 7282SOL    HW222746   6.080   5.340   2.570
 7283SOL     OW22747   2.748   1.628   3.157
 7283SOL    HW122748   2.733   1.709   3.100
 7283SOL    HW222749   2.845   1.622   3.180
 7284SOL     OW22750   0.601   3.377   5.948
 7284SOL    HW122751   0.508   3.347   5.927
 7284SOL    HW222752   0.661   3.355   5.871
 7285SOL     OW22753   5.566   3.568   2.021
 7285SOL    HW122754   5.498   3.632   2.059
 7285SOL    HW222755   5.519   3.489   1.982
 7286SOL     OW22756   2.723   1.774   0.929
 7286SOL    HW122757   2.635   1.806   0.895
 7286SOL    HW222758   2.794   1.841   0.908
 7287SOL     OW22759   6.946   2.179   6.426
 7287SOL    HW122760   6.926   2.090   6.468
 7287SOL    HW222761   7.011   2.228   6.484
 7288SOL     OW22762   3.357   0.922   0.068
 7288SOL    HW122763   3.274   0.937   0.121
 7288SOL    HW222764   3.404   1.009   0.055
 7289SOL     OW22765   6.205   1.604   3.480
 7289SOL    HW122766   6.158   1.681   3.438
 7289SOL    HW222767   6.145   1.524   3.478
 7290SOL     OW22768   3.816   6.923   5.302
 7290SOL    HW122769   3.735   6.886   5.255
 7290SOL    HW222770   3.849   7.004   5.254
 7291SOL     OW22771   1.587   6.759   1.025
 7291SOL    HW122772   1.617   6.664   1.024
 7291SOL    HW222773   1.605   6.801   0.936
 7292SOL     OW22774   2.720   1.263   4.312
 7292SOL    HW122775   2.676   1.176   4.288
 7292SOL    HW222776   2.784   1.288   4.239
 7293SOL     OW22777   1.642   1.841   5.592
 7293SOL    HW122778   1.677   1.905   5.660
 7293SOL    HW222779   1.663   1.747   5.620
 7294SOL     OW22780   2.475   4.966   0.328
 7294SOL    HW122781   2.433   5.015   0.252
 7294SOL    HW222782   2.557   4.918   0.295
 7295SOL     OW22783   0.948   2.310   0.932
 7295SOL    HW122784   0.969   2.392   0.879
 7295SOL    HW222785   0.866   2.266   0.894
 7296SOL     OW22786   2.640   5.351   1.179
 7296SOL    HW122787   2.545   5.342   1.151
 7296SOL    HW222788   2.657   5.294   1.258
 7297SOL     OW22789   3.519   5.680   1.217
 7297SOL    HW122790   3.529   5.602   1.154
 7297SOL    HW222791   3.424   5.685   1.248
 7298SOL     OW22792   4.701   4.510   5.384
 7298SOL    HW122793   4.688   4.431   5.324
 7298SOL    HW222794   4.779   4.494   5.444
 7299SOL     OW22795   0.361   1.835   0.481
 7299SOL    HW122796   0.276   1.876   0.512
 7299SOL    HW222797   0.425   1.829   0.557
 7300SOL     OW22798   6.390   5.795   2.413
 7300SOL    HW122799   6.400   5.867   2.344
 7300SOL    HW222800   6.385   5.837   2.504
 7301SOL     OW22801   6.609   0.949   4.589
 7301SOL    HW122802   6.686   1.011   4.572
 7301SOL    HW222803   6.528   1.002   4.615
 7302SOL     OW22804   1.064   1.505   6.037
 7302SOL    HW122805   0.980   1.546   6.073
 7302SOL    HW222806   1.065   1.514   5.937
 7303SOL     OW22807   4.539   0.554   6.136
 7303SOL    HW122808   4.616   0.492   6.123
 7303SOL    HW222809   4.568   0.648   6.117
 7304SOL     OW22810   3.960   4.453   0.514
 7304SOL    HW122811   3.983   4.508   0.594
 7304SOL    HW222812   3.916   4.368   0.543
 7305SOL     OW22813   4.955   0.845   0.631
 7305SOL    HW122814   4.905   0.907   0.572
 7305SOL    HW222815   4.912   0.755   0.630
 7306SOL     OW22816   5.410   2.359   1.639
 7306SOL    HW122817   5.505   2.330   1.630
 7306SOL    HW222818   5.399   2.412   1.723
 7307SOL     OW22819   2.520   0.372   2.347
 7307SOL    HW122820   2.515   0.472   2.354
 7307SOL    HW222821   2.596   0.347   2.286
 7308SOL     OW22822   0.093   4.133   5.466
 7308SOL    HW122823   0.165   4.197   5.496
 7308SOL    HW222824   0.121   4.040   5.488
 7309SOL     OW22825   5.088   6.073   0.209
 7309SOL    HW122826   5.133   5.984   0.218
 7309SOL    HW222827   5.107   6.128   0.291
 7310SOL     OW22828   1.963   3.847   1.385
 7310SOL    HW122829   2.061   3.841   1.364
 7310SOL    HW222830   1.948   3.825   1.482
 7311SOL     OW22831   3.508   2.026   2.244
 7311SOL    HW122832   3.545   2.069   2.161
 7311SOL    HW222833   3.472   1.935   2.222
 7312SOL     OW22834   6.991   3.458   6.154
 7312SOL    HW122835   0.021   3.544   6.161
 7312SOL    HW222836   6.911   3.462   6.213
 7313SOL     OW22837   3.496   2.067   6.441
 7313SOL    HW122838   3.513   2.002   6.515
 7313SOL    HW222839   3.564   2.141   6.446
 7314SOL     OW22840   6.492   3.587   5.194
 7314SOL    HW122841   6.529   3.616   5.106
 7314SOL    HW222842   6.509   3.489   5.207
 7315SOL     OW22843   6.589   0.443   2.731
 7315SOL    HW122844   6.610   0.534   2.766
 7315SOL    HW222845   6.633   0.431   2.642
 7316SOL     OW22846   2.801   3.895   6.177
 7316SOL    HW122847   2.819   3.801   6.149
 7316SOL    HW222848   2.813   3.903   6.276
 7317SOL     OW22849   4.808   0.965   2.480
 7317SOL    HW122850   4.838   0.957   2.385
 7317SOL    HW222851   4.719   0.921   2.490
 7318SOL     OW22852   1.004   1.373   0.997
 7318SOL    HW122853   1.029   1.470   0.998
 7318SOL    HW222854   1.081   1.320   0.963
 7319SOL     OW22855   6.178   4.177   6.020
 7319SOL    HW122856   6.189   4.085   5.984
 7319SOL    HW222857   6.147   4.238   5.947
 7320SOL     OW22858   6.269   3.571   1.656
 7320SOL    HW122859   6.318   3.598   1.739
 7320SOL    HW222860   6.211   3.646   1.626
 7321SOL     OW22861   2.941   6.125   5.025
 7321SOL    HW122862   2.890   6.116   4.939
 7321SOL    HW222863   2.976   6.035   5.052
 7322SOL     OW22864   0.113   2.486   3.361
 7322SOL    HW122865   0.146   2.546   3.288
 7322SOL    HW222866   0.124   2.391   3.334
 7323SOL     OW22867   2.185   1.803   1.801
 7323SOL    HW122868   2.226   1.712   1.793
 7323SOL    HW222869   2.117   1.802   1.875
 7324SOL     OW22870   4.688   6.224   2.572
 7324SOL    HW122871   4.619   6.249   2.639
 7324SOL    HW222872   4.777   6.262   2.599
 7325SOL     OW22873   3.680   6.618   7.007
 7325SOL    HW122874   3.592   6.576   6.989
 7325SOL    HW222875   3.750   6.574   6.951
 7326SOL     OW22876   3.124   6.426   5.264
 7326SOL    HW122877   3.211   6.395   5.226
 7326SOL    HW222878   3.113   6.391   5.357
 7327SOL     OW22879   6.660   2.585   5.377
 7327SOL    HW122880   6.684   2.677   5.346
 7327SOL    HW222881   6.692   2.518   5.309
 7328SOL     OW22882   3.423   1.144   6.042
 7328SOL    HW122883   3.508   1.114   6.000
 7328SOL    HW222884   3.350   1.144   5.974
 7329SOL     OW22885   4.928   4.102   1.679
 7329SOL    HW122886   4.836   4.066   1.696
 7329SOL    HW222887   4.995   4.051   1.733
 7330SOL     OW22888   2.824   2.185   0.219
 7330SOL    HW122889   2.890   2.251   0.256
 7330SOL    HW222890   2.824   2.103   0.276
 7331SOL     OW22891   5.730   6.943   2.158
 7331SOL    HW122892   5.657   6.967   2.094
 7331SOL    HW222893   5.818   6.949   2.111
 7332SOL     OW22894   2.011   6.033   0.613
 7332SOL    HW122895   1.919   6.000   0.638
 7332SOL    HW222896   2.056   5.965   0.555
 7333SOL     OW22897   0.112   3.621   3.527
 7333SOL    HW122898   0.085   3.624   3.431
 7333SOL    HW222899   0.158   3.707   3.551
 7334SOL     OW22900   3.460   6.303   6.613
 7334SOL    HW122901   3.422   6.274   6.525
 7334SOL    HW222902   3.388   6.350   6.666
 7335SOL     OW22903   1.899   2.653   2.834
 7335SOL    HW122904   1.919   2.712   2.912
 7335SOL    HW222905   1.810   2.610   2.847
 7336SOL     OW22906   1.400   6.699   3.155
 7336SOL    HW122907   1.435   6.791   3.139
 7336SOL    HW222908   1.477   6.637   3.175
 7337SOL     OW22909   0.440   2.957   1.800
 7337SOL    HW122910   0.405   3.030   1.742
 7337SOL    HW222911   0.500   2.898   1.747
 7338SOL     OW22912   6.137   3.017   1.400
 7338SOL    HW122913   6.195   2.939   1.377
 7338SOL    HW222914   6.056   3.017   1.341
 7339SOL     OW22915   5.104   6.160   3.676
 7339SOL    HW122916   5.013   6.198   3.657
 7339SOL    HW222917   5.150   6.217   3.744
 7340SOL     OW22918   2.066   0.867   1.058
 7340SOL    HW122919   2.129   0.933   1.100
 7340SOL    HW222920   1.995   0.915   1.007
 7341SOL     OW22921   6.553   2.823   0.063
 7341SOL    HW122922   6.552   2.747   0.128
 7341SOL    HW222923   6.598   2.902   0.104
 7342SOL     OW22924   6.772   1.714   1.787
 7342SOL    HW122925   6.788   1.809   1.811
 7342SOL    HW222926   6.674   1.698   1.774
 7343SOL     OW22927   4.829   3.332   0.090
 7343SOL    HW122928   4.870   3.390   0.019
 7343SOL    HW222929   4.889   3.253   0.106
 7344SOL     OW22930   0.556   0.043   6.195
 7344SOL    HW122931   0.556   0.113   6.123
 7344SOL    HW222932   0.471   7.011   6.190
 7345SOL     OW22933   4.187   3.303   5.204
 7345SOL    HW122934   4.167   3.296   5.302
 7345SOL    HW222935   4.102   3.293   5.152
 7346SOL     OW22936   3.675   5.749   2.748
 7346SOL    HW122937   3.647   5.668   2.799
 7346SOL    HW222938   3.615   5.826   2.773
 7347SOL     OW22939   0.531   1.853   0.681
 7347SOL    HW122940   0.568   1.875   0.771
 7347SOL    HW222941   0.580   1.905   0.611
 7348SOL     OW22942   1.584   3.962   3.823
 7348SOL    HW122943   1.573   3.921   3.732
 7348SOL    HW222944   1.563   4.059   3.819
 7349SOL     OW22945   4.367   0.490   2.283
 7349SOL    HW122946   4.331   0.446   2.366
 7349SOL    HW222947   4.457   0.528   2.303
 7350SOL     OW22948   2.866   1.948   5.756
 7350SOL    HW122949   2.919   1.936   5.672
 7350SOL    HW222950   2.819   1.862   5.778
 7351SOL     OW22951   5.689   5.883   3.262
 7351SOL    HW122952   5.685   5.819   3.339
 7351SOL    HW222953   5.604   5.935   3.258
 7352SOL     OW22954   0.361   1.297   2.477
 7352SOL    HW122955   0.431   1.360   2.511
 7352SOL    HW222956   0.277   1.348   2.458
 7353SOL     OW22957   0.331   0.411   6.471
 7353SOL    HW122958   0.382   0.343   6.524
 7353SOL    HW222959   0.384   0.496   6.466
 7354SOL     OW22960   1.662   1.358   5.136
 7354SOL    HW122961   1.668   1.261   5.159
 7354SOL    HW222962   1.614   1.368   5.049
 7355SOL     OW22963   0.705   1.630   6.781
 7355SOL    HW122964   0.615   1.623   6.825
 7355SOL    HW222965   0.717   1.552   6.719
 7356SOL     OW22966   3.809   3.484   6.250
 7356SOL    HW122967   3.906   3.464   6.263
 7356SOL    HW222968   3.755   3.430   6.315
 7357SOL     OW22969   2.827   5.665   2.467
 7357SOL    HW122970   2.731   5.694   2.478
 7357SOL    HW222971   2.838   5.573   2.505
 7358SOL     OW22972   6.864   3.724   2.801
 7358SOL    HW122973   6.834   3.813   2.835
 7358SOL    HW222974   6.785   3.663   2.793
 7359SOL     OW22975   4.382   2.318   5.782
 7359SOL    HW122976   4.337   2.319   5.693
 7359SOL    HW222977   4.313   2.302   5.853
 7360SOL     OW22978   2.501   3.205   5.398
 7360SOL    HW122979   2.429   3.207   5.468
 7360SOL    HW222980   2.474   3.145   5.323
 7361SOL     OW22981   5.361   0.940   2.828
 7361SOL    HW122982   5.429   0.907   2.763
 7361SOL    HW222983   5.320   0.863   2.876
 7362SOL     OW22984   2.608   5.739   6.287
 7362SOL    HW122985   2.524   5.709   6.242
 7362SOL    HW222986   2.588   5.817   6.346
 7363SOL     OW22987   4.708   0.935   1.406
 7363SOL    HW122988   4.786   0.980   1.362
 7363SOL    HW222989   4.732   0.915   1.501
 7364SOL     OW22990   4.198   0.329   2.153
 7364SOL    HW122991   4.281   0.375   2.185
 7364SOL    HW222992   4.123   0.348   2.217
 7365SOL     OW22993   0.752   5.821   1.723
 7365SOL    HW122994   0.795   5.901   1.682
 7365SOL    HW222995   0.805   5.792   1.803
 7366SOL     OW22996   2.407   6.493   5.654
 7366SOL    HW122997   2.376   6.402   5.684
 7366SOL    HW222998   2.422   6.492   5.555
 7367SOL     OW22999   3.658   2.653   0.397
 7367SOL    HW123000   3.738   2.677   0.342
 7367SOL    HW223001   3.633   2.558   0.379
 7368SOL     OW23002   3.900   3.004   2.581
 7368SOL    HW123003   3.982   3.047   2.545
 7368SOL    HW223004   3.829   3.002   2.510
 7369SOL     OW23005   3.878   2.917   1.314
 7369SOL    HW123006   3.875   2.818   1.331
 7369SOL    HW223007   3.848   2.936   1.220
 7370SOL     OW23008   2.844   2.181   6.223
 7370SOL    HW123009   2.758   2.134   6.205
 7370SOL    HW223010   2.878   2.222   6.137
 7371SOL     OW23011   3.357   6.547   3.741
 7371SOL    HW123012   3.447   6.547   3.786
 7371SOL    HW223013   3.369   6.559   3.643
 7372SOL     OW23014   4.433   6.883   4.720
 7372SOL    HW123015   4.505   6.953   4.722
 7372SOL    HW223016   4.474   6.795   4.697
 7373SOL     OW23017   5.656   2.167   5.167
 7373SOL    HW123018   5.740   2.141   5.120
 7373SOL    HW223019   5.675   2.246   5.226
 7374SOL     OW23020   1.893   1.822   4.515
 7374SOL    HW123021   1.970   1.884   4.529
 7374SOL    HW223022   1.815   1.852   4.570
 7375SOL     OW23023   2.213   2.549   1.881
 7375SOL    HW123024   2.256   2.471   1.835
 7375SOL    HW223025   2.276   2.586   1.949
 7376SOL     OW23026   1.286   2.789   1.439
 7376SOL    HW123027   1.241   2.706   1.471
 7376SOL    HW223028   1.310   2.846   1.518
 7377SOL     OW23029   4.175   4.953   0.746
 7377SOL    HW123030   4.126   5.039   0.733
 7377SOL    HW223031   4.128   4.899   0.815
 7378SOL     OW23032   1.402   0.025   4.990
 7378SOL    HW123033   1.339   0.086   5.038
 7378SOL    HW223034   1.495   0.040   5.023
 7379SOL     OW23035   3.118   0.694   2.004
 7379SOL    HW123036   3.022   0.696   1.975
 7379SOL    HW223037   3.149   0.786   2.025
 7380SOL     OW23038   6.761   4.245   3.641
 7380SOL    HW123039   6.756   4.169   3.707
 7380SOL    HW223040   6.734   4.212   3.551
 7381SOL     OW23041   3.814   3.060   0.610
 7381SOL    HW123042   3.762   3.102   0.537
 7381SOL    HW223043   3.889   3.006   0.571
 7382SOL     OW23044   6.902   2.045   5.834
 7382SOL    HW123045   6.822   2.102   5.813
 7382SOL    HW223046   6.872   1.965   5.886
 7383SOL     OW23047   2.555   5.691   1.924
 7383SOL    HW123048   2.595   5.725   1.839
 7383SOL    HW223049   2.622   5.632   1.970
 7384SOL     OW23050   6.787   0.220   1.528
 7384SOL    HW123051   6.689   0.211   1.545
 7384SOL    HW223052   6.835   0.141   1.567
 7385SOL     OW23053   2.675   4.987   2.989
 7385SOL    HW123054   2.603   4.971   3.057
 7385SOL    HW223055   2.749   5.038   3.031
 7386SOL     OW23056   6.206   2.686   6.508
 7386SOL    HW123057   6.130   2.650   6.455
 7386SOL    HW223058   6.292   2.651   6.472
 7387SOL     OW23059   0.127   5.496   5.407
 7387SOL    HW123060   0.045   5.459   5.362
 7387SOL    HW223061   0.117   5.488   5.506
 7388SOL     OW23062   1.291   4.711   2.113
 7388SOL    HW123063   1.346   4.667   2.042
 7388SOL    HW223064   1.194   4.687   2.099
 7389SOL     OW23065   6.769   3.597   0.654
 7389SOL    HW123066   6.858   3.608   0.611
 7389SOL    HW223067   6.706   3.553   0.590
 7390SOL     OW23068   2.924   1.910   2.011
 7390SOL    HW123069   2.981   1.852   2.068
 7390SOL    HW223070   2.970   1.998   1.996
 7391SOL     OW23071   4.092   3.471   2.648
 7391SOL    HW123072   4.154   3.394   2.665
 7391SOL    HW223073   4.005   3.436   2.615
 7392SOL     OW23074   3.405   5.832   6.874
 7392SOL    HW123075   3.364   5.886   6.801
 7392SOL    HW223076   3.502   5.857   6.884
 7393SOL     OW23077   6.020   4.478   3.287
 7393SOL    HW123078   6.084   4.449   3.359
 7393SOL    HW223079   6.010   4.577   3.288
 7394SOL     OW23080   1.882   2.916   6.048
 7394SOL    HW123081   1.919   3.007   6.063
 7394SOL    HW223082   1.861   2.904   5.951
 7395SOL     OW23083   1.980   2.871   1.194
 7395SOL    HW123084   1.917   2.809   1.146
 7395SOL    HW223085   2.024   2.821   1.269
 7396SOL     OW23086   2.509   6.522   1.722
 7396SOL    HW123087   2.467   6.486   1.805
 7396SOL    HW223088   2.457   6.602   1.691
 7397SOL     OW23089   4.875   3.619   4.301
 7397SOL    HW123090   4.812   3.551   4.262
 7397SOL    HW223091   4.909   3.585   4.389
 7398SOL     OW23092   0.927   5.599   3.232
 7398SOL    HW123093   0.915   5.619   3.329
 7398SOL    HW223094   0.936   5.500   3.219
 7399SOL     OW23095   6.360   3.299   5.016
 7399SOL    HW123096   6.415   3.292   5.099
 7399SOL    HW223097   6.272   3.255   5.031
 7400SOL     OW23098   5.226   2.497   5.504
 7400SOL    HW123099   5.196   2.592   5.508
 7400SOL    HW223100   5.185   2.452   5.424
 7401SOL     OW23101   1.742   2.739   3.596
 7401SOL    HW123102   1.755   2.640   3.593
 7401SOL    HW223103   1.754   2.772   3.689
 7402SOL     OW23104   3.195   4.367   6.118
 7402SOL    HW123105   3.121   4.306   6.144
 7402SOL    HW223106   3.183   4.455   6.165
 7403SOL     OW23107   1.369   2.865   2.760
 7403SOL    HW123108   1.401   2.927   2.688
 7403SOL    HW223109   1.275   2.838   2.740
 7404SOL     OW23110   2.841   3.887   1.720
 7404SOL    HW123111   2.762   3.941   1.750
 7404SOL    HW223112   2.925   3.933   1.750
 7405SOL     OW23113   2.821   5.286   4.947
 7405SOL    HW123114   2.801   5.202   4.896
 7405SOL    HW223115   2.752   5.298   5.019
 7406SOL     OW23116   0.820   1.564   5.120
 7406SOL    HW123117   0.836   1.576   5.218
 7406SOL    HW223118   0.728   1.594   5.097
 7407SOL     OW23119   1.272   6.648   6.136
 7407SOL    HW123120   1.232   6.600   6.214
 7407SOL    HW223121   1.216   6.728   6.113
 7408SOL     OW23122   3.450   4.166   5.099
 7408SOL    HW123123   3.372   4.116   5.059
 7408SOL    HW223124   3.517   4.185   5.027
 7409SOL     OW23125   5.296   4.347   0.126
 7409SOL    HW123126   5.208   4.318   0.163
 7409SOL    HW223127   5.328   4.281   0.058
 7410SOL     OW23128   0.597   0.301   0.337
 7410SOL    HW123129   0.564   0.356   0.413
 7410SOL    HW223130   0.633   0.214   0.372
 7411SOL     OW23131   1.774   0.678   6.668
 7411SOL    HW123132   1.834   0.695   6.746
 7411SOL    HW223133   1.799   0.740   6.593
 7412SOL     OW23134   3.783   6.289   0.934
 7412SOL    HW123135   3.777   6.315   0.838
 7412SOL    HW223136   3.691   6.288   0.973
 7413SOL     OW23137   4.704   4.384   3.600
 7413SOL    HW123138   4.770   4.457   3.612
 7413SOL    HW223139   4.670   4.384   3.506
 7414SOL     OW23140   1.695   1.603   4.427
 7414SOL    HW123141   1.735   1.525   4.379
 7414SOL    HW223142   1.765   1.646   4.484
 7415SOL     OW23143   2.894   5.664   5.859
 7415SOL    HW123144   2.944   5.738   5.905
 7415SOL    HW223145   2.830   5.704   5.793
 7416SOL     OW23146   2.122   1.401   2.434
 7416SOL    HW123147   2.083   1.357   2.353
 7416SOL    HW223148   2.048   1.431   2.494
 7417SOL     OW23149   1.806   1.835   2.331
 7417SOL    HW123150   1.783   1.785   2.248
 7417SOL    HW223151   1.896   1.805   2.364
 7418SOL     OW23152   2.131   4.525   6.950
 7418SOL    HW123153   2.203   4.589   6.976
 7418SOL    HW223154   2.095   4.482   0.012
 7419SOL     OW23155   6.321   3.810   3.850
 7419SOL    HW123156   6.248   3.878   3.841
 7419SOL    HW223157   6.352   3.807   3.945
 7420SOL     OW23158   6.723   5.984   1.191
 7420SOL    HW123159   6.626   5.979   1.212
 7420SOL    HW223160   6.776   5.949   1.268
 7421SOL     OW23161   4.108   3.743   1.479
 7421SOL    HW123162   4.110   3.828   1.426
 7421SOL    HW223163   4.053   3.756   1.561
 7422SOL     OW23164   6.466   4.087   2.030
 7422SOL    HW123165   6.373   4.076   2.065
 7422SOL    HW223166   6.491   4.184   2.032
 7423SOL     OW23167   5.936   3.024   5.432
 7423SOL    HW123168   5.940   2.973   5.347
 7423SOL    HW223169   5.879   3.105   5.420
 7424SOL     OW23170   6.995   1.854   5.295
 7424SOL    HW123171   6.904   1.812   5.292
 7424SOL    HW223172   0.041   1.787   5.331
 7425SOL     OW23173   5.455   0.087   0.200
 7425SOL    HW123174   5.378   0.081   0.264
 7425SOL    HW223175   5.499   7.018   0.191
 7426SOL     OW23176   3.566   2.003   5.668
 7426SOL    HW123177   3.513   2.011   5.583
 7426SOL    HW223178   3.563   2.090   5.717
 7427SOL     OW23179   3.462   0.926   3.979
 7427SOL    HW123180   3.491   0.866   3.904
 7427SOL    HW223181   3.542   0.973   4.017
 7428SOL     OW23182   4.753   0.570   5.339
 7428SOL    HW123183   4.736   0.664   5.309
 7428SOL    HW223184   4.688   0.508   5.295
 7429SOL     OW23185   1.005   6.172   2.779
 7429SOL    HW123186   0.999   6.107   2.855
 7429SOL    HW223187   1.035   6.124   2.696
 7430SOL     OW23188   6.825   4.188   1.823
 7430SOL    HW123189   6.763   4.114   1.797
 7430SOL    HW223190   6.918   4.154   1.829
 7431SOL     OW23191   1.796   2.213   3.692
 7431SOL    HW123192   1.802   2.119   3.658
 7431SOL    HW223193   1.811   2.214   3.791
 7432SOL     OW23194   1.707   0.422   3.455
 7432SOL    HW123195   1.752   0.348   3.505
 7432SOL    HW223196   1.735   0.419   3.359
 7433SOL     OW23197   3.430   6.734   6.646
 7433SOL    HW123198   3.514   6.761   6.598
 7433SOL    HW223199   3.442   6.642   6.684
 7434SOL     OW23200   4.862   6.191   5.672
 7434SOL    HW123201   4.804   6.126   5.721
 7434SOL    HW223202   4.830   6.201   5.578
 7435SOL     OW23203   4.342   6.155   1.777
 7435SOL    HW123204   4.305   6.126   1.865
 7435SOL    HW223205   4.280   6.126   1.704
 7436SOL     OW23206   4.568   4.645   6.341
 7436SOL    HW123207   4.480   4.685   6.316
 7436SOL    HW223208   4.622   4.629   6.258
 7437SOL     OW23209   3.109   6.035   1.781
 7437SOL    HW123210   3.176   6.063   1.713
 7437SOL    HW223211   3.080   6.114   1.836
 7438SOL     OW23212   1.782   0.505   0.512
 7438SOL    HW123213   1.876   0.521   0.481
 7438SOL    HW223214   1.751   0.584   0.566
 7439SOL     OW23215   1.512   5.330   5.108
 7439SOL    HW123216   1.571   5.313   5.187
 7439SOL    HW223217   1.419   5.302   5.130
 7440SOL     OW23218   6.058   3.287   3.763
 7440SOL    HW123219   5.966   3.280   3.724
 7440SOL    HW223220   6.125   3.289   3.689
 7441SOL     OW23221   5.962   6.889   3.670
 7441SOL    HW123222   5.990   6.816   3.732
 7441SOL    HW223223   5.889   6.856   3.611
 7442SOL     OW23224   5.764   1.205   6.649
 7442SOL    HW123225   5.853   1.159   6.648
 7442SOL    HW223226   5.778   1.303   6.637
 7443SOL     OW23227   0.031   5.285   1.635
 7443SOL    HW123228   7.004   5.326   1.713
 7443SOL    HW223229   0.120   5.249   1.665
 7444SOL     OW23230   6.488   1.230   6.293
 7444SOL    HW123231   6.514   1.314   6.244
 7444SOL    HW223232   6.394   1.240   6.327
 7445SOL     OW23233   4.056   0.269   1.153
 7445SOL    HW123234   4.136   0.234   1.201
 7445SOL    HW223235   3.975   0.218   1.183
 7446SOL     OW23236   5.064   2.283   0.596
 7446SOL    HW123237   5.019   2.348   0.534
 7446SOL    HW223238   5.008   2.271   0.678
 7447SOL     OW23239   6.972   4.516   6.310
 7447SOL    HW123240   6.874   4.507   6.330
 7447SOL    HW223241   0.003   4.448   6.361
 7448SOL     OW23242   5.205   6.472   5.395
 7448SOL    HW123243   5.148   6.542   5.439
 7448SOL    HW223244   5.257   6.513   5.321
 7449SOL     OW23245   0.398   5.453   0.268
 7449SOL    HW123246   0.486   5.471   0.312
 7449SOL    HW223247   0.383   5.520   0.196
 7450SOL     OW23248   5.126   2.743   5.441
 7450SOL    HW123249   5.027   2.733   5.440
 7450SOL    HW223250   5.150   2.840   5.438
 7451SOL     OW23251   5.521   5.246   2.675
 7451SOL    HW123252   5.537   5.344   2.662
 7451SOL    HW223253   5.423   5.227   2.666
 7452SOL     OW23254   6.482   6.127   4.337
 7452SOL    HW123255   6.550   6.100   4.268
 7452SOL    HW223256   6.407   6.175   4.292
 7453SOL     OW23257   5.019   5.171   6.646
 7453SOL    HW123258   4.920   5.179   6.646
 7453SOL    HW223259   5.052   5.165   6.552
 7454SOL     OW23260   2.792   1.492   0.368
 7454SOL    HW123261   2.838   1.528   0.287
 7454SOL    HW223262   2.723   1.558   0.399
 7455SOL     OW23263   6.215   3.090   2.221
 7455SOL    HW123264   6.307   3.077   2.182
 7455SOL    HW223265   6.211   3.180   2.266
 7456SOL     OW23266   2.675   1.942   5.280
 7456SOL    HW123267   2.666   2.023   5.337
 7456SOL    HW223268   2.753   1.953   5.218
 7457SOL     OW23269   3.027   0.279   4.141
 7457SOL    HW123270   2.952   0.330   4.181
 7457SOL    HW223271   3.081   0.339   4.082
 7458SOL     OW23272   1.203   0.410   5.721
 7458SOL    HW123273   1.204   0.313   5.697
 7458SOL    HW223274   1.297   0.440   5.741
 7459SOL     OW23275   6.362   1.066   2.235
 7459SOL    HW123276   6.264   1.088   2.229
 7459SOL    HW223277   6.410   1.106   2.157
 7460SOL     OW23278   1.580   6.495   7.006
 7460SOL    HW123279   1.574   6.408   6.959
 7460SOL    HW223280   1.520   6.494   0.066
 7461SOL     OW23281   6.325   6.219   5.250
 7461SOL    HW123282   6.287   6.225   5.158
 7461SOL    HW223283   6.270   6.275   5.312
 7462SOL     OW23284   1.634   5.038   1.285
 7462SOL    HW123285   1.680   5.121   1.316
 7462SOL    HW223286   1.699   4.977   1.242
 7463SOL     OW23287   3.308   4.137   0.584
 7463SOL    HW123288   3.224   4.140   0.637
 7463SOL    HW223289   3.380   4.189   0.631
 7464SOL     OW23290   6.670   6.520   5.036
 7464SOL    HW123291   6.656   6.481   5.127
 7464SOL    HW223292   6.762   6.559   5.031
 7465SOL     OW23293   2.790   5.496   0.367
 7465SOL    HW123294   2.723   5.534   0.304
 7465SOL    HW223295   2.788   5.396   0.361
 7466SOL     OW23296   0.952   0.635   6.388
 7466SOL    HW123297   0.874   0.629   6.450
 7466SOL    HW223298   0.941   0.713   6.327
 7467SOL     OW23299   0.529   2.379   6.141
 7467SOL    HW123300   0.563   2.427   6.222
 7467SOL    HW223301   0.551   2.282   6.148
 7468SOL     OW23302   4.991   2.570   3.977
 7468SOL    HW123303   5.013   2.618   3.892
 7468SOL    HW223304   5.018   2.627   4.055
 7469SOL     OW23305   6.405   1.886   0.041
 7469SOL    HW123306   6.482   1.938   0.003
 7469SOL    HW223307   6.325   1.946   0.048
 7470SOL     OW23308   5.521   4.164   3.947
 7470SOL    HW123309   5.439   4.177   4.003
 7470SOL    HW223310   5.603   4.181   4.001
 7471SOL     OW23311   5.052   6.127   6.049
 7471SOL    HW123312   5.049   6.034   6.012
 7471SOL    HW223313   5.019   6.127   6.143
 7472SOL     OW23314   6.206   1.289   5.445
 7472SOL    HW123315   6.137   1.272   5.374
 7472SOL    HW223316   6.247   1.202   5.473
 7473SOL     OW23317   5.106   6.612   3.792
 7473SOL    HW123318   5.149   6.610   3.883
 7473SOL    HW223319   5.015   6.652   3.800
 7474SOL     OW23320   6.235   2.397   6.617
 7474SOL    HW123321   6.140   2.419   6.637
 7474SOL    HW223322   6.281   2.366   6.700
 7475SOL     OW23323   4.371   2.357   2.010
 7475SOL    HW123324   4.271   2.345   2.005
 7475SOL    HW223325   4.409   2.290   2.074
 7476SOL     OW23326   2.140   2.106   2.924
 7476SOL    HW123327   2.195   2.173   2.974
 7476SOL    HW223328   2.196   2.028   2.899
 7477SOL     OW23329   0.464   3.267   5.114
 7477SOL    HW123330   0.397   3.219   5.057
 7477SOL    HW223331   0.556   3.237   5.089
 7478SOL     OW23332   5.508   3.584   5.313
 7478SOL    HW123333   5.597   3.577   5.358
 7478SOL    HW223334   5.439   3.611   5.380
 7479SOL     OW23335   5.254   3.051   0.479
 7479SOL    HW123336   5.177   3.072   0.539
 7479SOL    HW223337   5.250   3.109   0.398
 7480SOL     OW23338   2.125   4.908   2.518
 7480SOL    HW123339   2.158   4.987   2.571
 7480SOL    HW223340   2.041   4.933   2.471
 7481SOL     OW23341   6.369   4.637   6.775
 7481SOL    HW123342   6.318   4.551   6.777
 7481SOL    HW223343   6.386   4.664   6.680
 7482SOL     OW23344   4.438   2.197   2.945
 7482SOL    HW123345   4.394   2.257   2.878
 7482SOL    HW223346   4.422   2.101   2.918
 7483SOL     OW23347   4.556   2.609   4.825
 7483SOL    HW123348   4.534   2.513   4.844
 7483SOL    HW223349   4.528   2.666   4.902
 7484SOL     OW23350   1.781   5.441   4.714
 7484SOL    HW123351   1.858   5.502   4.694
 7484SOL    HW223352   1.755   5.392   4.630
 7485SOL     OW23353   2.889   6.914   3.604
 7485SOL    HW123354   2.791   6.912   3.587
 7485SOL    HW223355   2.916   7.007   3.632
 7486SOL     OW23356   0.681   5.953   0.124
 7486SOL    HW123357   0.730   6.036   0.097
 7486SOL    HW223358   0.746   5.885   0.159
 7487SOL     OW23359   4.085   0.901   3.064
 7487SOL    HW123360   4.087   0.985   3.010
 7487SOL    HW223361   4.118   0.824   3.008
 7488SOL     OW23362   1.320   6.172   4.499
 7488SOL    HW123363   1.296   6.263   4.465
 7488SOL    HW223364   1.419   6.164   4.509
 7489SOL     OW23365   6.426   3.521   6.828
 7489SOL    HW123366   6.403   3.436   6.781
 7489SOL    HW223367   6.348   3.550   6.884
 7490SOL     OW23368   1.512   1.906   1.952
 7490SOL    HW123369   1.478   2.000   1.954
 7490SOL    HW223370   1.474   1.859   1.872
 7491SOL     OW23371   4.626   2.655   0.607
 7491SOL    HW123372   4.632   2.648   0.507
 7491SOL    HW223373   4.548   2.602   0.639
 7492SOL     OW23374   1.975   1.078   4.367
 7492SOL    HW123375   1.986   1.134   4.285
 7492SOL    HW223376   2.060   1.029   4.387
 7493SOL     OW23377   6.586   3.330   5.231
 7493SOL    HW123378   6.581   3.355   5.328
 7493SOL    HW223379   6.608   3.233   5.222
 7494SOL     OW23380   5.595   1.189   3.948
 7494SOL    HW123381   5.688   1.157   3.926
 7494SOL    HW223382   5.529   1.120   3.919
 7495SOL     OW23383   2.129   2.832   4.566
 7495SOL    HW123384   2.178   2.860   4.649
 7495SOL    HW223385   2.041   2.792   4.592
 7496SOL     OW23386   5.591   3.387   3.824
 7496SOL    HW123387   5.564   3.416   3.732
 7496SOL    HW223388   5.681   3.343   3.820
 7497SOL     OW23389   1.791   6.228   1.362
 7497SOL    HW123390   1.857   6.297   1.331
 7497SOL    HW223391   1.835   6.139   1.367
 7498SOL     OW23392   2.433   0.554   4.043
 7498SOL    HW123393   2.437   0.542   3.943
 7498SOL    HW223394   2.386   0.476   4.084
 7499SOL     OW23395   4.114   1.713   3.363
 7499SOL    HW123396   4.034   1.765   3.391
 7499SOL    HW223397   4.132   1.729   3.266
 7500SOL     OW23398   3.593   5.924   3.650
 7500SOL    HW123399   3.687   5.895   3.633
 7500SOL    HW223400   3.586   5.961   3.742
 7501SOL     OW23401   5.693   3.133   4.045
 7501SOL    HW123402   5.786   3.156   4.075
 7501SOL    HW223403   5.630   3.205   4.075
 7502SOL     OW23404   3.855   0.117   4.005
 7502SOL    HW123405   3.851   0.209   3.968
 7502SOL    HW223406   3.820   0.052   3.938
 7503SOL     OW23407   1.952   6.256   0.473
 7503SOL    HW123408   1.972   6.340   0.522
 7503SOL    HW223409   1.969   6.178   0.533
 7504SOL     OW23410   0.740   6.278   1.991
 7504SOL    HW123411   0.684   6.275   1.908
 7504SOL    HW223412   0.680   6.273   2.071
 7505SOL     OW23413   0.622   1.689   5.645
 7505SOL    HW123414   0.718   1.713   5.658
 7505SOL    HW223415   0.615   1.603   5.595
 7506SOL     OW23416   3.752   2.109   3.519
 7506SOL    HW123417   3.710   2.131   3.430
 7506SOL    HW223418   3.721   2.175   3.587
 7507SOL     OW23419   6.810   2.965   4.185
 7507SOL    HW123420   6.735   2.903   4.209
 7507SOL    HW223421   6.777   3.059   4.185
 7508SOL     OW23422   1.701   5.594   0.413
 7508SOL    HW123423   1.771   5.604   0.483
 7508SOL    HW223424   1.738   5.619   0.324
 7509SOL     OW23425   5.538   3.619   0.378
 7509SOL    HW123426   5.450   3.578   0.402
 7509SOL    HW223427   5.591   3.636   0.462
 7510SOL     OW23428   3.978   3.220   3.659
 7510SOL    HW123429   4.037   3.297   3.683
 7510SOL    HW223430   3.962   3.163   3.739
 7511SOL     OW23431   2.755   6.167   3.558
 7511SOL    HW123432   2.795   6.080   3.529
 7511SOL    HW223433   2.657   6.167   3.538
 7512SOL     OW23434   3.107   0.828   6.552
 7512SOL    HW123435   3.175   0.758   6.574
 7512SOL    HW223436   3.041   0.791   6.487
 7513SOL     OW23437   2.060   2.137   3.225
 7513SOL    HW123438   2.021   2.166   3.312
 7513SOL    HW223439   1.986   2.125   3.158
 7514SOL     OW23440   1.736   5.032   3.991
 7514SOL    HW123441   1.759   4.935   4.002
 7514SOL    HW223442   1.642   5.047   4.021
 7515SOL     OW23443   6.777   4.073   4.998
 7515SOL    HW123444   6.874   4.075   4.974
 7515SOL    HW223445   6.760   4.135   5.075
 7516SOL     OW23446   0.705   5.451   5.944
 7516SOL    HW123447   0.692   5.381   6.015
 7516SOL    HW223448   0.687   5.412   5.854
 7517SOL     OW23449   1.421   2.425   0.045
 7517SOL    HW123450   1.465   2.474   6.990
 7517SOL    HW223451   1.483   2.355   0.080
 7518SOL     OW23452   4.706   2.831   3.639
 7518SOL    HW123453   4.737   2.810   3.732
 7518SOL    HW223454   4.621   2.783   3.620
 7519SOL     OW23455   5.417   0.086   4.478
 7519SOL    HW123456   5.324   0.073   4.445
 7519SOL    HW223457   5.434   0.183   4.494
 7520SOL     OW23458   1.310   1.552   2.533
 7520SOL    HW123459   1.280   1.644   2.560
 7520SOL    HW223460   1.326   1.550   2.435
 7521SOL     OW23461   4.705   2.031   4.450
 7521SOL    HW123462   4.712   2.127   4.479
 7521SOL    HW223463   4.728   1.972   4.527
 7522SOL     OW23464   0.863   0.410   4.705
 7522SOL    HW123465   0.896   0.391   4.613
 7522SOL    HW223466   0.885   0.333   4.765
 7523SOL     OW23467   5.171   0.912   6.037
 7523SOL    HW123468   5.092   0.952   6.084
 7523SOL    HW223469   5.197   0.827   6.083
 7524SOL     OW23470   0.333   2.826   4.550
 7524SOL    HW123471   0.330   2.919   4.585
 7524SOL    HW223472   0.240   2.792   4.538
 7525SOL     OW23473   4.128   6.698   6.659
 7525SOL    HW123474   4.132   6.795   6.679
 7525SOL    HW223475   4.081   6.684   6.572
 7526SOL     OW23476   2.365   2.802   1.775
 7526SOL    HW123477   2.322   2.758   1.853
 7526SOL    HW223478   2.300   2.805   1.698
 7527SOL     OW23479   3.482   5.955   4.166
 7527SOL    HW123480   3.450   5.862   4.148
 7527SOL    HW223481   3.403   6.017   4.165
 7528SOL     OW23482   5.194   2.277   6.642
 7528SOL    HW123483   5.262   2.217   6.600
 7528SOL    HW223484   5.239   2.359   6.678
 7529SOL     OW23485   5.377   2.074   3.909
 7529SOL    HW123486   5.412   2.139   3.842
 7529SOL    HW223487   5.344   2.123   3.990
 7530SOL     OW23488   6.504   1.627   1.888
 7530SOL    HW123489   6.521   1.623   1.987
 7530SOL    HW223490   6.538   1.544   1.845
 7531SOL     OW23491   4.904   3.237   3.143
 7531SOL    HW123492   4.926   3.282   3.229
 7531SOL    HW223493   4.907   3.305   3.069
 7532SOL     OW23494   4.339   6.158   6.238
 7532SOL    HW123495   4.330   6.254   6.210
 7532SOL    HW223496   4.433   6.128   6.223
 7533SOL     OW23497   4.500   2.586   1.591
 7533SOL    HW123498   4.530   2.655   1.657
 7533SOL    HW223499   4.565   2.582   1.515
 7534SOL     OW23500   4.763   6.400   4.449
 7534SOL    HW123501   4.694   6.455   4.402
 7534SOL    HW223502   4.784   6.441   4.538
 7535SOL     OW23503   1.771   6.821   5.075
 7535SOL    HW123504   1.769   6.918   5.049
 7535SOL    HW223505   1.713   6.769   5.012
 7536SOL     OW23506   5.476   5.974   3.974
 7536SOL    HW123507   5.417   6.055   3.969
 7536SOL    HW223508   5.451   5.920   4.054
 7537SOL     OW23509   1.857   5.074   1.791
 7537SOL    HW123510   1.880   5.149   1.852
 7537SOL    HW223511   1.924   5.000   1.802
 7538SOL     OW23512   1.785   2.651   1.517
 7538SOL    HW123513   1.869   2.654   1.570
 7538SOL    HW223514   1.712   2.697   1.568
 7539SOL     OW23515   1.463   5.335   3.087
 7539SOL    HW123516   1.495   5.422   3.050
 7539SOL    HW223517   1.482   5.331   3.185
 7540SOL     OW23518   4.884   6.083   4.648
 7540SOL    HW123519   4.873   6.133   4.562
 7540SOL    HW223520   4.794   6.064   4.688
 7541SOL     OW23521   0.563   4.172   6.568
 7541SOL    HW123522   0.628   4.170   6.492
 7541SOL    HW223523   0.612   4.179   6.654
 7542SOL     OW23524   6.771   5.698   5.175
 7542SOL    HW123525   6.839   5.768   5.151
 7542SOL    HW223526   6.679   5.733   5.158
 7543SOL     OW23527   2.898   0.734   5.104
 7543SOL    HW123528   2.820   0.786   5.138
 7543SOL    HW223529   2.879   0.636   5.111
 7544SOL     OW23530   0.662   2.877   4.420
 7544SOL    HW123531   0.569   2.911   4.432
 7544SOL    HW223532   0.711   2.937   4.358
 7545SOL     OW23533   0.234   5.838   6.017
 7545SOL    HW123534   0.138   5.842   5.987
 7545SOL    HW223535   0.285   5.777   5.957
 7546SOL     OW23536   4.772   2.339   1.597
 7546SOL    HW123537   4.802   2.248   1.569
 7546SOL    HW223538   4.684   2.333   1.644
 7547SOL     OW23539   4.777   0.816   1.130
 7547SOL    HW123540   4.770   0.716   1.126
 7547SOL    HW223541   4.724   0.857   1.056
 7548SOL     OW23542   4.320   2.203   6.725
 7548SOL    HW123543   4.294   2.108   6.741
 7548SOL    HW223544   4.261   2.242   6.654
 7549SOL     OW23545   3.602   2.683   6.656
 7549SOL    HW123546   3.671   2.611   6.667
 7549SOL    HW223547   3.512   2.642   6.644
 7550SOL     OW23548   1.803   4.548   3.622
 7550SOL    HW123549   1.805   4.516   3.528
 7550SOL    HW223550   1.801   4.648   3.623
 7551SOL     OW23551   5.150   3.074   5.423
 7551SOL    HW123552   5.178   3.169   5.434
 7551SOL    HW223553   5.197   3.034   5.344
 7552SOL     OW23554   1.398   5.868   4.664
 7552SOL    HW123555   1.334   5.803   4.705
 7552SOL    HW223556   1.391   5.956   4.712
 7553SOL     OW23557   5.897   5.874   6.135
 7553SOL    HW123558   5.840   5.808   6.086
 7553SOL    HW223559   5.894   5.854   6.233
 7554SOL     OW23560   5.132   0.931   0.304
 7554SOL    HW123561   5.213   0.874   0.319
 7554SOL    HW223562   5.137   0.972   0.213
 7555SOL     OW23563   3.422   5.958   6.012
 7555SOL    HW123564   3.348   5.924   5.953
 7555SOL    HW223565   3.419   5.910   6.099
 7556SOL     OW23566   1.122   1.702   0.351
 7556SOL    HW123567   1.060   1.764   0.303
 7556SOL    HW223568   1.113   1.610   0.314
 7557SOL     OW23569   4.519   6.975   0.193
 7557SOL    HW123570   4.539   6.926   0.277
 7557SOL    HW223571   4.536   6.916   0.114
 7558SOL     OW23572   1.400   2.883   3.648
 7558SOL    HW123573   1.361   2.905   3.559
 7558SOL    HW223574   1.332   2.836   3.704
 7559SOL     OW23575   3.854   2.365   5.325
 7559SOL    HW123576   3.834   2.323   5.236
 7559SOL    HW223577   3.859   2.464   5.314
 7560SOL     OW23578   6.322   0.122   0.076
 7560SOL    HW123579   6.313   0.037   0.023
 7560SOL    HW223580   6.393   0.110   0.146
 7561SOL     OW23581   5.658   3.321   5.671
 7561SOL    HW123582   5.748   3.284   5.692
 7561SOL    HW223583   5.616   3.359   5.754
 7562SOL     OW23584   1.167   5.101   4.737
 7562SOL    HW123585   1.233   5.087   4.663
 7562SOL    HW223586   1.168   5.197   4.764
 7563SOL     OW23587   2.746   6.258   2.902
 7563SOL    HW123588   2.767   6.221   2.992
 7563SOL    HW223589   2.651   6.235   2.878
 7564SOL     OW23590   4.276   0.580   4.986
 7564SOL    HW123591   4.267   0.499   4.929
 7564SOL    HW223592   4.373   0.605   4.994
 7565SOL     OW23593   5.921   4.358   5.755
 7565SOL    HW123594   5.897   4.396   5.666
 7565SOL    HW223595   5.983   4.280   5.741
 7566SOL     OW23596   5.223   4.796   2.376
 7566SOL    HW123597   5.256   4.718   2.429
 7566SOL    HW223598   5.127   4.781   2.351
 7567SOL     OW23599   1.123   1.401   5.022
 7567SOL    HW123600   1.197   1.453   4.978
 7567SOL    HW223601   1.035   1.442   4.998
 7568SOL     OW23602   5.581   5.402   1.901
 7568SOL    HW123603   5.515   5.341   1.856
 7568SOL    HW223604   5.665   5.351   1.920
 7569SOL     OW23605   4.087   4.555   6.584
 7569SOL    HW123606   4.170   4.504   6.565
 7569SOL    HW223607   4.067   4.551   6.682
 7570SOL     OW23608   0.110   2.308   3.806
 7570SOL    HW123609   0.064   2.389   3.770
 7570SOL    HW223610   0.173   2.335   3.879
 7571SOL     OW23611   5.404   3.795   3.004
 7571SOL    HW123612   5.447   3.708   3.026
 7571SOL    HW223613   5.305   3.788   3.013
 7572SOL     OW23614   4.978   6.539   3.052
 7572SOL    HW123615   4.920   6.618   3.032
 7572SOL    HW223616   5.068   6.570   3.080
 7573SOL     OW23617   5.710   0.556   5.791
 7573SOL    HW123618   5.805   0.578   5.772
 7573SOL    HW223619   5.700   0.531   5.887
 7574SOL     OW23620   5.774   1.469   4.249
 7574SOL    HW123621   5.735   1.547   4.201
 7574SOL    HW223622   5.869   1.456   4.221
 7575SOL     OW23623   6.039   6.457   0.856
 7575SOL    HW123624   6.108   6.385   0.862
 7575SOL    HW223625   5.992   6.451   0.768
 7576SOL     OW23626   4.859   2.611   0.726
 7576SOL    HW123627   4.771   2.630   0.681
 7576SOL    HW223628   4.927   2.678   0.694
 7577SOL     OW23629   6.932   6.507   0.189
 7577SOL    HW123630   6.882   6.429   0.227
 7577SOL    HW223631   6.944   6.494   0.091
 7578SOL     OW23632   0.954   5.222   2.429
 7578SOL    HW123633   0.981   5.228   2.333
 7578SOL    HW223634   0.890   5.146   2.441
 7579SOL     OW23635   6.654   1.912   1.386
 7579SOL    HW123636   6.637   1.980   1.457
 7579SOL    HW223637   6.750   1.883   1.390
 7580SOL     OW23638   1.888   4.871   3.582
 7580SOL    HW123639   1.976   4.853   3.538
 7580SOL    HW223640   1.824   4.910   3.516
 7581SOL     OW23641   0.688   0.933   1.044
 7581SOL    HW123642   0.687   1.022   1.090
 7581SOL    HW223643   0.638   0.866   1.099
 7582SOL     OW23644   4.302   1.450   3.936
 7582SOL    HW123645   4.211   1.489   3.927
 7582SOL    HW223646   4.371   1.518   3.912
 7583SOL     OW23647   5.433   3.874   3.263
 7583SOL    HW123648   5.379   3.957   3.277
 7583SOL    HW223649   5.428   3.845   3.168
 7584SOL     OW23650   0.968   6.703   2.326
 7584SOL    HW123651   0.985   6.780   2.265
 7584SOL    HW223652   0.899   6.644   2.285
 7585SOL     OW23653   0.914   2.380   6.934
 7585SOL    HW123654   0.905   2.288   6.973
 7585SOL    HW223655   0.980   2.378   6.859
 7586SOL     OW23656   1.645   0.223   2.072
 7586SOL    HW123657   1.590   0.253   1.995
 7586SOL    HW223658   1.667   0.302   2.130
 7587SOL     OW23659   3.041   1.352   0.697
 7587SOL    HW123660   3.054   1.257   0.722
 7587SOL    HW223661   2.966   1.391   0.751
 7588SOL     OW23662   1.305   2.621   4.167
 7588SOL    HW123663   1.246   2.626   4.248
 7588SOL    HW223664   1.378   2.688   4.175
 7589SOL     OW23665   7.008   1.465   3.339
 7589SOL    HW123666   0.033   1.516   3.412
 7589SOL    HW223667   0.052   1.451   3.264
 7590SOL     OW23668   6.067   1.318   6.782
 7590SOL    HW123669   6.052   1.229   6.738
 7590SOL    HW223670   5.979   1.354   6.813
 7591SOL     OW23671   4.872   2.891   6.717
 7591SOL    HW123672   4.887   2.816   6.653
 7591SOL    HW223673   4.773   2.907   6.727
 7592SOL     OW23674   6.083   4.503   4.824
 7592SOL    HW123675   6.004   4.453   4.860
 7592SOL    HW223676   6.119   4.564   4.895
 7593SOL     OW23677   6.840   2.475   6.135
 7593SOL    HW123678   6.908   2.495   6.206
 7593SOL    HW223679   6.850   2.380   6.106
 7594SOL     OW23680   0.949   4.665   1.324
 7594SOL    HW123681   0.989   4.659   1.416
 7594SOL    HW223682   0.979   4.749   1.280
 7595SOL     OW23683   6.898   3.338   5.905
 7595SOL    HW123684   6.898   3.321   6.003
 7595SOL    HW223685   6.910   3.436   5.888
 7596SOL     OW23686   3.271   0.316   5.001
 7596SOL    HW123687   3.314   0.245   4.945
 7596SOL    HW223688   3.280   0.405   4.955
 7597SOL     OW23689   1.938   6.357   2.766
 7597SOL    HW123690   1.883   6.311   2.696
 7597SOL    HW223691   2.020   6.395   2.725
 7598SOL     OW23692   6.051   0.712   2.945
 7598SOL    HW123693   6.145   0.717   2.979
 7598SOL    HW223694   5.987   0.722   3.021
 7599SOL     OW23695   4.812   3.028   1.317
 7599SOL    HW123696   4.786   3.085   1.240
 7599SOL    HW223697   4.782   2.934   1.300
 7600SOL     OW23698   1.674   1.249   3.668
 7600SOL    HW123699   1.710   1.324   3.611
 7600SOL    HW223700   1.608   1.196   3.615
 7601SOL     OW23701   3.444   5.046   1.864
 7601SOL    HW123702   3.403   4.981   1.927
 7601SOL    HW223703   3.530   5.009   1.828
 7602SOL     OW23704   0.010   2.798   0.386
 7602SOL    HW123705   6.967   2.872   0.407
 7602SOL    HW223706   0.103   2.834   0.382
 7603SOL     OW23707   2.319   6.907   6.163
 7603SOL    HW123708   2.307   6.967   6.242
 7603SOL    HW223709   2.387   6.837   6.183
 7604SOL     OW23710   1.592   1.943   5.052
 7604SOL    HW123711   1.580   1.935   5.151
 7604SOL    HW223712   1.635   1.859   5.017
 7605SOL     OW23713   0.657   0.488   0.059
 7605SOL    HW123714   0.657   0.573   0.112
 7605SOL    HW223715   0.640   0.410   0.119
 7606SOL     OW23716   5.723   2.641   4.518
 7606SOL    HW123717   5.739   2.542   4.514
 7606SOL    HW223718   5.729   2.672   4.612
 7607SOL     OW23719   3.878   6.050   0.511
 7607SOL    HW123720   3.787   6.085   0.531
 7607SOL    HW223721   3.887   5.957   0.546
 7608SOL     OW23722   5.350   2.386   6.417
 7608SOL    HW123723   5.263   2.433   6.412
 7608SOL    HW223724   5.337   2.296   6.459
 7609SOL     OW23725   0.251   3.344   3.965
 7609SOL    HW123726   0.268   3.248   3.983
 7609SOL    HW223727   0.156   3.356   3.935
 7610SOL     OW23728   3.551   5.078   6.686
 7610SOL    HW123729   3.622   5.129   6.735
 7610SOL    HW223730   3.531   4.993   6.734
 7611SOL     OW23731   4.860   3.678   1.597
 7611SOL    HW123732   4.959   3.696   1.596
 7611SOL    HW223733   4.811   3.760   1.568
 7612SOL     OW23734   3.782   2.115   3.044
 7612SOL    HW123735   3.821   2.023   3.046
 7612SOL    HW223736   3.803   2.158   2.956
 7613SOL     OW23737   0.691   2.179   1.693
 7613SOL    HW123738   0.786   2.175   1.723
 7613SOL    HW223739   0.688   2.172   1.593
 7614SOL     OW23740   5.071   3.135   0.925
 7614SOL    HW123741   5.075   3.161   1.021
 7614SOL    HW223742   4.988   3.082   0.909
 7615SOL     OW23743   5.746   3.780   5.515
 7615SOL    HW123744   5.807   3.703   5.535
 7615SOL    HW223745   5.738   3.838   5.596
 7616SOL     OW23746   6.091   0.199   3.116
 7616SOL    HW123747   6.185   0.215   3.146
 7616SOL    HW223748   6.060   0.278   3.063
 7617SOL     OW23749   4.974   5.029   2.939
 7617SOL    HW123750   4.930   5.010   3.027
 7617SOL    HW223751   5.064   4.986   2.938
 7618SOL     OW23752   1.223   2.441   0.423
 7618SOL    HW123753   1.167   2.511   0.379
 7618SOL    HW223754   1.312   2.480   0.446
 7619SOL     OW23755   0.257   2.287   4.583
 7619SOL    HW123756   0.323   2.257   4.651
 7619SOL    HW223757   0.283   2.378   4.550
 7620SOL     OW23758   3.599   4.452   0.576
 7620SOL    HW123759   3.566   4.532   0.527
 7620SOL    HW223760   3.629   4.383   0.510
 7621SOL     OW23761   0.296   6.081   0.834
 7621SOL    HW123762   0.211   6.085   0.782
 7621SOL    HW223763   0.318   6.173   0.868
 7622SOL     OW23764   4.170   4.204   0.149
 7622SOL    HW123765   4.169   4.115   0.195
 7622SOL    HW223766   4.251   4.256   0.177
 7623SOL     OW23767   4.043   4.804   0.936
 7623SOL    HW123768   4.014   4.777   1.028
 7623SOL    HW223769   4.027   4.729   0.872
 7624SOL     OW23770   0.404   2.666   2.797
 7624SOL    HW123771   0.322   2.716   2.825
 7624SOL    HW223772   0.404   2.575   2.839
 7625SOL     OW23773   5.449   2.269   0.075
 7625SOL    HW123774   5.391   2.299   0.150
 7625SOL    HW223775   5.449   2.169   0.072
 7626SOL     OW23776   6.558   0.759   5.502
 7626SOL    HW123777   6.653   0.769   5.473
 7626SOL    HW223778   6.552   0.688   5.572
 7627SOL     OW23779   3.456   2.091   0.733
 7627SOL    HW123780   3.551   2.062   0.721
 7627SOL    HW223781   3.397   2.037   0.673
 7628SOL     OW23782   4.187   3.143   1.173
 7628SOL    HW123783   4.170   3.241   1.166
 7628SOL    HW223784   4.114   3.094   1.125
 7629SOL     OW23785   6.183   3.657   4.152
 7629SOL    HW123786   6.118   3.611   4.212
 7629SOL    HW223787   6.276   3.633   4.180
 7630SOL     OW23788   1.276   6.806   5.628
 7630SOL    HW123789   1.233   6.823   5.539
 7630SOL    HW223790   1.219   6.742   5.680
 7631SOL     OW23791   1.906   0.210   5.556
 7631SOL    HW123792   1.891   0.216   5.655
 7631SOL    HW223793   1.818   0.204   5.509
 7632SOL     OW23794   4.505   5.241   1.169
 7632SOL    HW123795   4.557   5.323   1.144
 7632SOL    HW223796   4.536   5.208   1.258
 7633SOL     OW23797   5.967   0.135   1.472
 7633SOL    HW123798   6.057   0.166   1.442
 7633SOL    HW223799   5.956   0.038   1.450
 7634SOL     OW23800   1.345   1.349   1.257
 7634SOL    HW123801   1.276   1.404   1.303
 7634SOL    HW223802   1.386   1.285   1.321
 7635SOL     OW23803   2.536   4.910   4.921
 7635SOL    HW123804   2.570   4.930   5.014
 7635SOL    HW223805   2.465   4.840   4.926
 7636SOL     OW23806   0.009   4.153   4.091
 7636SOL    HW123807   6.998   4.061   4.068
 7636SOL    HW223808   6.991   4.179   4.180
 7637SOL     OW23809   0.904   6.232   3.553
 7637SOL    HW123810   0.805   6.219   3.543
 7637SOL    HW223811   0.948   6.143   3.560
 7638SOL     OW23812   1.401   5.216   1.372
 7638SOL    HW123813   1.482   5.159   1.387
 7638SOL    HW223814   1.339   5.170   1.309
 7639SOL     OW23815   0.068   0.733   0.464
 7639SOL    HW123816   0.057   0.747   0.366
 7639SOL    HW223817   0.074   0.635   0.483
 7640SOL     OW23818   3.519   1.954   6.697
 7640SOL    HW123819   3.437   2.000   6.731
 7640SOL    HW223820   3.586   1.946   6.772
 7641SOL     OW23821   6.908   4.020   3.145
 7641SOL    HW123822   6.862   3.984   3.225
 7641SOL    HW223823   6.993   4.066   3.173
 7642SOL     OW23824   5.803   1.282   2.796
 7642SOL    HW123825   5.733   1.295   2.725
 7642SOL    HW223826   5.760   1.279   2.886
 7643SOL     OW23827   5.390   1.991   3.117
 7643SOL    HW123828   5.393   1.971   3.019
 7643SOL    HW223829   5.341   2.077   3.133
 7644SOL     OW23830   4.844   3.170   2.512
 7644SOL    HW123831   4.810   3.108   2.582
 7644SOL    HW223832   4.845   3.122   2.424
 7645SOL     OW23833   3.765   3.293   5.213
 7645SOL    HW123834   3.674   3.312   5.176
 7645SOL    HW223835   3.798   3.205   5.179
 7646SOL     OW23836   0.820   3.068   3.200
 7646SOL    HW123837   0.842   2.991   3.140
 7646SOL    HW223838   0.838   3.043   3.295
 7647SOL     OW23839   0.735   2.712   4.638
 7647SOL    HW123840   0.827   2.676   4.622
 7647SOL    HW223841   0.711   2.774   4.564
 7648SOL     OW23842   2.351   1.915   2.978
 7648SOL    HW123843   2.362   1.876   3.069
 7648SOL    HW223844   2.334   1.842   2.912
 7649SOL     OW23845   0.901   1.048   4.816
 7649SOL    HW123846   0.885   1.080   4.909
 7649SOL    HW223847   0.824   1.074   4.757
 7650SOL     OW23848   4.936   1.316   1.041
 7650SOL    HW123849   5.019   1.295   1.093
 7650SOL    HW223850   4.956   1.388   0.974
 7651SOL     OW23851   2.150   5.124   4.545
 7651SOL    HW123852   2.132   5.179   4.627
 7651SOL    HW223853   2.209   5.047   4.569
 7652SOL     OW23854   5.732   2.445   4.965
 7652SOL    HW123855   5.709   2.400   4.879
 7652SOL    HW223856   5.649   2.453   5.021
 7653SOL     OW23857   1.003   1.662   6.846
 7653SOL    HW123858   1.027   1.739   6.904
 7653SOL    HW223859   0.905   1.660   6.830
 7654SOL     OW23860   5.568   2.957   4.733
 7654SOL    HW123861   5.556   2.952   4.634
 7654SOL    HW223862   5.565   2.865   4.772
 7655SOL     OW23863   3.203   0.282   3.544
 7655SOL    HW123864   3.263   0.209   3.511
 7655SOL    HW223865   3.144   0.313   3.469
 7656SOL     OW23866   6.438   3.023   5.653
 7656SOL    HW123867   6.439   2.957   5.727
 7656SOL    HW223868   6.374   3.097   5.675
 7657SOL     OW23869   1.909   3.487   4.546
 7657SOL    HW123870   1.948   3.529   4.629
 7657SOL    HW223871   1.967   3.411   4.517
 7658SOL     OW23872   3.021   0.302   0.953
 7658SOL    HW123873   3.024   0.400   0.976
 7658SOL    HW223874   2.925   0.273   0.945
 7659SOL     OW23875   4.382   4.131   6.135
 7659SOL    HW123876   4.372   4.137   6.234
 7659SOL    HW223877   4.372   4.036   6.106
 7660SOL     OW23878   6.418   5.630   4.606
 7660SOL    HW123879   6.476   5.556   4.571
 7660SOL    HW223880   6.449   5.717   4.569
 7661SOL     OW23881   4.637   2.462   6.223
 7661SOL    HW123882   4.575   2.528   6.179
 7661SOL    HW223883   4.666   2.394   6.156
 7662SOL     OW23884   0.766   2.397   3.013
 7662SOL    HW123885   0.850   2.345   3.031
 7662SOL    HW223886   0.735   2.378   2.920
 7663SOL     OW23887   5.478   5.875   5.995
 7663SOL    HW123888   5.419   5.853   6.073
 7663SOL    HW223889   5.430   5.854   5.910
 7664SOL     OW23890   3.934   0.977   3.293
 7664SOL    HW123891   3.966   0.951   3.384
 7664SOL    HW223892   3.986   0.927   3.224
 7665SOL     OW23893   5.295   2.186   4.144
 7665SOL    HW123894   5.335   2.211   4.232
 7665SOL    HW223895   5.217   2.245   4.124
 7666SOL     OW23896   6.161   6.232   4.137
 7666SOL    HW123897   6.223   6.206   4.063
 7666SOL    HW223898   6.111   6.315   4.111
 7667SOL     OW23899   4.578   6.917   2.142
 7667SOL    HW123900   4.487   6.898   2.106
 7667SOL    HW223901   4.644   6.918   2.067
 7668SOL     OW23902   2.705   4.912   0.968
 7668SOL    HW123903   2.795   4.915   1.010
 7668SOL    HW223904   2.635   4.912   1.040
 7669SOL     OW23905   4.162   0.631   5.955
 7669SOL    HW123906   4.181   0.675   6.043
 7669SOL    HW223907   4.223   0.552   5.943
 7670SOL     OW23908   0.752   6.759   0.298
 7670SOL    HW123909   0.824   6.741   0.366
 7670SOL    HW223910   0.795   6.776   0.209
 7671SOL     OW23911   5.529   6.769   2.654
 7671SOL    HW123912   5.472   6.832   2.707
 7671SOL    HW223913   5.617   6.811   2.635
 7672SOL     OW23914   6.875   4.875   2.899
 7672SOL    HW123915   6.819   4.792   2.901
 7672SOL    HW223916   6.876   4.917   2.990
 7673SOL     OW23917   1.511   6.250   2.884
 7673SOL    HW123918   1.418   6.212   2.875
 7673SOL    HW223919   1.578   6.179   2.862
 7674SOL     OW23920   4.015   1.074   4.076
 7674SOL    HW123921   3.940   1.062   4.141
 7674SOL    HW223922   4.094   1.115   4.122
 7675SOL     OW23923   3.523   6.665   3.499
 7675SOL    HW123924   3.546   6.657   3.403
 7675SOL    HW223925   3.604   6.649   3.555
 7676SOL     OW23926   3.030   2.582   6.026
 7676SOL    HW123927   3.037   2.654   5.958
 7676SOL    HW223928   2.978   2.505   5.989
 7677SOL     OW23929   6.778   4.257   1.056
 7677SOL    HW123930   6.768   4.213   1.145
 7677SOL    HW223931   6.872   4.246   1.023
 7678SOL     OW23932   1.780   2.080   5.343
 7678SOL    HW123933   1.809   2.096   5.249
 7678SOL    HW223934   1.696   2.025   5.344
 7679SOL     OW23935   1.944   5.223   5.636
 7679SOL    HW123936   1.948   5.136   5.586
 7679SOL    HW223937   1.943   5.299   5.572
 7680SOL     OW23938   1.460   0.202   5.843
 7680SOL    HW123939   1.475   0.290   5.798
 7680SOL    HW223940   1.451   0.130   5.774
 7681SOL     OW23941   2.958   2.339   6.646
 7681SOL    HW123942   2.912   2.345   6.557
 7681SOL    HW223943   2.954   2.245   6.680
 7682SOL     OW23944   3.486   1.709   2.679
 7682SOL    HW123945   3.398   1.665   2.662
 7682SOL    HW223946   3.555   1.672   2.617
 7683SOL     OW23947   0.728   1.160   4.650
 7683SOL    HW123948   0.695   1.073   4.611
 7683SOL    HW223949   0.716   1.232   4.582
 7684SOL     OW23950   4.351   2.069   1.836
 7684SOL    HW123951   4.274   2.133   1.843
 7684SOL    HW223952   4.324   1.990   1.781
 7685SOL     OW23953   3.840   1.628   6.803
 7685SOL    HW123954   3.775   1.552   6.800
 7685SOL    HW223955   3.894   1.621   6.887
 7686SOL     OW23956   4.839   0.381   4.350
 7686SOL    HW123957   4.841   0.286   4.319
 7686SOL    HW223958   4.746   0.406   4.375
 7687SOL     OW23959   5.368   5.384   4.940
 7687SOL    HW123960   5.363   5.287   4.964
 7687SOL    HW223961   5.326   5.438   5.013
 7688SOL     OW23962   0.443   5.649   5.628
 7688SOL    HW123963   0.395   5.569   5.593
 7688SOL    HW223964   0.439   5.649   5.728
 7689SOL     OW23965   4.615   0.218   1.647
 7689SOL    HW123966   4.532   0.251   1.602
 7689SOL    HW223967   4.611   0.239   1.744
 7690SOL     OW23968   5.894   5.004   0.200
 7690SOL    HW123969   5.945   5.002   0.113
 7690SOL    HW223970   5.924   4.928   0.257
 7691SOL     OW23971   4.685   4.676   2.255
 7691SOL    HW123972   4.670   4.687   2.157
 7691SOL    HW223973   4.635   4.596   2.288
 7692SOL     OW23974   1.210   5.888   1.353
 7692SOL    HW123975   1.262   5.839   1.423
 7692SOL    HW223976   1.272   5.942   1.296
 7693SOL     OW23977   3.240   0.951   1.029
 7693SOL    HW123978   3.178   1.002   0.970
 7693SOL    HW223979   3.249   0.998   1.117
 7694SOL     OW23980   5.429   2.525   4.219
 7694SOL    HW123981   5.497   2.532   4.146
 7694SOL    HW223982   5.364   2.600   4.211
 7695SOL     OW23983   5.927   0.526   2.345
 7695SOL    HW123984   6.002   0.540   2.410
 7695SOL    HW223985   5.956   0.554   2.253
 7696SOL     OW23986   0.294   1.829   6.089
 7696SOL    HW123987   0.339   1.805   6.004
 7696SOL    HW223988   0.344   1.790   6.166
 7697SOL     OW23989   3.188   0.495   2.743
 7697SOL    HW123990   3.226   0.441   2.819
 7697SOL    HW223991   3.220   0.457   2.656
 7698SOL     OW23992   6.038   2.669   6.168
 7698SOL    HW123993   6.078   2.638   6.082
 7698SOL    HW223994   5.940   2.686   6.155
 7699SOL     OW23995   2.304   4.877   6.837
 7699SOL    HW123996   2.393   4.918   6.816
 7699SOL    HW223997   2.265   4.837   6.754
 7700SOL     OW23998   4.605   6.282   3.181
 7700SOL    HW123999   4.512   6.263   3.147
 7700SOL    HW224000   4.624   6.224   3.260
 7701SOL     OW24001   0.013   1.854   6.227
 7701SOL    HW124002   6.968   1.840   6.152
 7701SOL    HW224003   0.094   1.901   6.192
 7702SOL     OW24004   4.282   6.918   5.722
 7702SOL    HW124005   4.312   6.851   5.654
 7702SOL    HW224006   4.260   6.872   5.807
 7703SOL     OW24007   6.358   0.356   4.736
 7703SOL    HW124008   6.317   0.306   4.660
 7703SOL    HW224009   6.343   0.306   4.821
 7704SOL     OW24010   6.564   1.528   4.060
 7704SOL    HW124011   6.631   1.602   4.058
 7704SOL    HW224012   6.505   1.538   4.140
 7705SOL     OW24013   2.292   5.181   0.802
 7705SOL    HW124014   2.237   5.146   0.878
 7705SOL    HW224015   2.236   5.182   0.719
 7706SOL     OW24016   3.382   3.209   2.854
 7706SOL    HW124017   3.377   3.265   2.771
 7706SOL    HW224018   3.395   3.113   2.828
 7707SOL     OW24019   0.149   5.207   6.247
 7707SOL    HW124020   0.162   5.150   6.167
 7707SOL    HW224021   0.057   5.245   6.248
 7708SOL     OW24022   1.326   6.966   3.905
 7708SOL    HW124023   1.257   6.988   3.836
 7708SOL    HW224024   1.417   6.970   3.863
 7709SOL     OW24025   6.768   5.385   1.023
 7709SOL    HW124026   6.675   5.351   1.005
 7709SOL    HW224027   6.782   5.469   0.971
 7710SOL     OW24028   1.722   2.550   0.612
 7710SOL    HW124029   1.674   2.571   0.697
 7710SOL    HW224030   1.792   2.481   0.629
 7711SOL     OW24031   6.599   5.474   5.739
 7711SOL    HW124032   6.538   5.553   5.731
 7711SOL    HW224033   6.570   5.404   5.675
 7712SOL     OW24034   6.669   4.493   6.286
 7712SOL    HW124035   6.632   4.469   6.376
 7712SOL    HW224036   6.615   4.448   6.215
 7713SOL     OW24037   1.958   4.126   0.731
 7713SOL    HW124038   1.914   4.046   0.773
 7713SOL    HW224039   1.989   4.189   0.803
 7714SOL     OW24040   0.258   6.922   4.908
 7714SOL    HW124041   0.261   7.016   4.876
 7714SOL    HW224042   0.237   6.861   4.831
 7715SOL     OW24043   2.716   2.623   6.320
 7715SOL    HW124044   2.645   2.675   6.368
 7715SOL    HW224045   2.790   2.685   6.294
 7716SOL     OW24046   0.514   4.624   6.727
 7716SOL    HW124047   0.523   4.614   6.628
 7716SOL    HW224048   0.542   4.539   6.771
 7717SOL     OW24049   1.538   1.942   5.345
 7717SOL    HW124050   1.475   1.874   5.307
 7717SOL    HW224051   1.582   1.904   5.426
 7718SOL     OW24052   0.597   3.204   3.140
 7718SOL    HW124053   0.684   3.166   3.172
 7718SOL    HW224054   0.542   3.131   3.099
 7719SOL     OW24055   1.678   4.281   4.702
 7719SOL    HW124056   1.746   4.219   4.664
 7719SOL    HW224057   1.674   4.364   4.646
 7720SOL     OW24058   5.891   2.207   6.403
 7720SOL    HW124059   5.943   2.150   6.340
 7720SOL    HW224060   5.885   2.162   6.492
 7721SOL     OW24061   1.442   0.543   2.515
 7721SOL    HW124062   1.359   0.598   2.521
 7721SOL    HW224063   1.417   0.446   2.511
 7722SOL     OW24064   2.484   5.142   3.882
 7722SOL    HW124065   2.568   5.152   3.935
 7722SOL    HW224066   2.441   5.231   3.869
 7723SOL     OW24067   4.775   3.207   6.815
 7723SOL    HW124068   4.716   3.279   6.779
 7723SOL    HW224069   4.723   3.123   6.824
 7724SOL     OW24070   3.085   3.884   0.819
 7724SOL    HW124071   3.181   3.874   0.792
 7724SOL    HW224072   3.056   3.979   0.804
 7725SOL     OW24073   6.066   2.550   2.450
 7725SOL    HW124074   6.019   2.630   2.413
 7725SOL    HW224075   6.013   2.468   2.429
 7726SOL     OW24076   1.333   2.979   6.157
 7726SOL    HW124077   1.382   3.060   6.122
 7726SOL    HW224078   1.396   2.902   6.162
 7727SOL     OW24079   5.762   2.581   1.696
 7727SOL    HW124080   5.814   2.667   1.699
 7727SOL    HW224081   5.740   2.559   1.601
 7728SOL     OW24082   2.265   2.456   5.274
 7728SOL    HW124083   2.363   2.455   5.293
 7728SOL    HW224084   2.242   2.378   5.217
 7729SOL     OW24085   6.237   1.692   1.903
 7729SOL    HW124086   6.196   1.649   1.823
 7729SOL    HW224087   6.331   1.659   1.915
 7730SOL     OW24088   5.587   4.506   5.169
 7730SOL    HW124089   5.683   4.496   5.195
 7730SOL    HW224090   5.562   4.603   5.167
 7731SOL     OW24091   5.990   0.115   0.860
 7731SOL    HW124092   5.933   0.150   0.786
 7731SOL    HW224093   6.015   0.190   0.922
 7732SOL     OW24094   4.057   0.369   0.127
 7732SOL    HW124095   4.146   0.368   0.174
 7732SOL    HW224096   4.045   0.284   0.076
 7733SOL     OW24097   6.180   5.565   2.732
 7733SOL    HW124098   6.135   5.581   2.820
 7733SOL    HW224099   6.194   5.652   2.686
 7734SOL     OW24100   2.360   4.429   5.283
 7734SOL    HW124101   2.437   4.492   5.279
 7734SOL    HW224102   2.302   4.442   5.202
 7735SOL     OW24103   6.615   6.380   0.159
 7735SOL    HW124104   6.560   6.384   0.243
 7735SOL    HW224105   6.629   6.473   0.125
 7736SOL     OW24106   2.729   2.766   0.559
 7736SOL    HW124107   2.732   2.726   0.650
 7736SOL    HW224108   2.786   2.849   0.556
 7737SOL     OW24109   3.664   5.155   1.379
 7737SOL    HW124110   3.621   5.083   1.433
 7737SOL    HW224111   3.610   5.239   1.385
 7738SOL     OW24112   2.536   5.890   6.796
 7738SOL    HW124113   2.448   5.912   6.839
 7738SOL    HW224114   2.529   5.802   6.750
 7739SOL     OW24115   1.008   2.243   2.179
 7739SOL    HW124116   1.072   2.187   2.231
 7739SOL    HW224117   1.037   2.249   2.084
 7740SOL     OW24118   2.006   0.954   2.733
 7740SOL    HW124119   1.981   0.905   2.650
 7740SOL    HW224120   2.020   1.050   2.712
 7741SOL     OW24121   1.720   4.795   5.700
 7741SOL    HW124122   1.715   4.891   5.728
 7741SOL    HW224123   1.627   4.761   5.682
 7742SOL     OW24124   3.733   1.198   3.697
 7742SOL    HW124125   3.813   1.148   3.732
 7742SOL    HW224126   3.759   1.251   3.616
 7743SOL     OW24127   4.795   1.111   6.791
 7743SOL    HW124128   4.802   1.018   6.755
 7743SOL    HW224129   4.875   1.131   6.847
 7744SOL     OW24130   0.904   5.959   4.456
 7744SOL    HW124131   0.947   5.951   4.545
 7744SOL    HW224132   0.952   6.027   4.401
 7745SOL     OW24133   2.241   6.524   6.857
 7745SOL    HW124134   2.155   6.507   6.809
 7745SOL    HW224135   2.247   6.464   6.938
 7746SOL     OW24136   1.197   6.395   1.030
 7746SOL    HW124137   1.269   6.336   0.994
 7746SOL    HW224138   1.223   6.491   1.017
 7747SOL     OW24139   6.971   6.019   0.543
 7747SOL    HW124140   6.967   6.094   0.609
 7747SOL    HW224141   7.019   5.941   0.584
 7748SOL     OW24142   3.698   2.956   5.215
 7748SOL    HW124143   3.606   2.940   5.250
 7748SOL    HW224144   3.696   2.952   5.115
 7749SOL     OW24145   3.507   4.049   3.140
 7749SOL    HW124146   3.577   4.072   3.207
 7749SOL    HW224147   3.525   3.958   3.103
 7750SOL     OW24148   5.309   5.271   6.348
 7750SOL    HW124149   5.220   5.224   6.349
 7750SOL    HW224150   5.362   5.240   6.269
 7751SOL     OW24151   0.238   1.557   3.913
 7751SOL    HW124152   0.258   1.465   3.945
 7751SOL    HW224153   0.144   1.562   3.881
 7752SOL     OW24154   5.838   5.238   5.133
 7752SOL    HW124155   5.812   5.164   5.196
 7752SOL    HW224156   5.832   5.326   5.180
 7753SOL     OW24157   2.445   0.599   4.714
 7753SOL    HW124158   2.356   0.608   4.760
 7753SOL    HW224159   2.509   0.550   4.773
 7754SOL     OW24160   5.632   0.393   1.073
 7754SOL    HW124161   5.569   0.469   1.058
 7754SOL    HW224162   5.726   0.426   1.066
 7755SOL     OW24163   0.823   6.326   5.305
 7755SOL    HW124164   0.797   6.423   5.303
 7755SOL    HW224165   0.763   6.274   5.244
 7756SOL     OW24166   2.349   5.627   2.513
 7756SOL    HW124167   2.419   5.559   2.487
 7756SOL    HW224168   2.259   5.585   2.507
 7757SOL     OW24169   4.835   5.755   4.817
 7757SOL    HW124170   4.798   5.672   4.774
 7757SOL    HW224171   4.850   5.738   4.914
 7758SOL     OW24172   2.000   2.579   6.228
 7758SOL    HW124173   2.052   2.532   6.157
 7758SOL    HW224174   2.053   2.657   6.262
 7759SOL     OW24175   2.442   0.647   5.420
 7759SOL    HW124176   2.346   0.665   5.402
 7759SOL    HW224177   2.489   0.733   5.443
 7760SOL     OW24178   6.189   2.826   2.127
 7760SOL    HW124179   6.129   2.768   2.182
 7760SOL    HW224180   6.169   2.923   2.146
 7761SOL     OW24181   2.820   6.885   6.119
 7761SOL    HW124182   2.867   6.938   6.049
 7761SOL    HW224183   2.825   6.933   6.207
 7762SOL     OW24184   3.856   0.900   6.105
 7762SOL    HW124185   3.785   0.942   6.047
 7762SOL    HW224186   3.941   0.892   6.053
 7763SOL     OW24187   1.523   1.472   0.890
 7763SOL    HW124188   1.436   1.510   0.860
 7763SOL    HW224189   1.571   1.432   0.812
 7764SOL     OW24190   3.873   3.322   2.600
 7764SOL    HW124191   3.789   3.296   2.553
 7764SOL    HW224192   3.870   3.288   2.694
 7765SOL     OW24193   6.290   3.334   4.336
 7765SOL    HW124194   6.302   3.346   4.434
 7765SOL    HW224195   6.370   3.288   4.297
 7766SOL     OW24196   5.073   2.140   6.898
 7766SOL    HW124197   4.995   2.078   6.900
 7766SOL    HW224198   5.059   2.209   6.827
 7767SOL     OW24199   3.667   6.456   3.275
 7767SOL    HW124200   3.601   6.383   3.293
 7767SOL    HW224201   3.619   6.539   3.246
 7768SOL     OW24202   3.786   4.991   2.948
 7768SOL    HW124203   3.790   4.892   2.957
 7768SOL    HW224204   3.861   5.023   2.890
 7769SOL     OW24205   5.086   1.583   1.736
 7769SOL    HW124206   5.093   1.509   1.669
 7769SOL    HW224207   5.016   1.648   1.707
 7770SOL     OW24208   2.469   4.553   2.344
 7770SOL    HW124209   2.482   4.550   2.244
 7770SOL    HW224210   2.449   4.647   2.372
 7771SOL     OW24211   2.554   2.508   4.816
 7771SOL    HW124212   2.549   2.534   4.720
 7771SOL    HW224213   2.520   2.583   4.873
 7772SOL     OW24214   5.188   1.424   3.519
 7772SOL    HW124215   5.118   1.362   3.554
 7772SOL    HW224216   5.211   1.492   3.589
 7773SOL     OW24217   3.477   4.889   5.678
 7773SOL    HW124218   3.529   4.928   5.602
 7773SOL    HW224219   3.496   4.791   5.683
 7774SOL     OW24220   5.803   1.645   5.513
 7774SOL    HW124221   5.841   1.622   5.423
 7774SOL    HW224222   5.744   1.725   5.504
 7775SOL     OW24223   3.384   6.926   3.142
 7775SOL    HW124224   3.325   6.884   3.211
 7775SOL    HW224225   3.349   6.905   3.050
 7776SOL     OW24226   3.273   3.412   5.825
 7776SOL    HW124227   3.327   3.393   5.742
 7776SOL    HW224228   3.292   3.504   5.856
 7777SOL     OW24229   2.355   1.706   5.594
 7777SOL    HW124230   2.261   1.673   5.589
 7777SOL    HW224231   2.360   1.797   5.552
 7778SOL     OW24232   5.340   0.066   6.945
 7778SOL    HW124233   5.257   0.121   6.935
 7778SOL    HW224234   5.390   0.097   0.007
 7779SOL     OW24235   3.456   2.822   0.353
 7779SOL    HW124236   3.413   2.891   0.411
 7779SOL    HW224237   3.547   2.800   0.387
 7780SOL     OW24238   1.932   5.868   4.543
 7780SOL    HW124239   1.949   5.877   4.445
 7780SOL    HW224240   1.837   5.839   4.558
 7781SOL     OW24241   0.976   3.851   5.763
 7781SOL    HW124242   0.895   3.825   5.814
 7781SOL    HW224243   1.056   3.807   5.803
 7782SOL     OW24244   1.550   3.973   5.574
 7782SOL    HW124245   1.451   3.981   5.565
 7782SOL    HW224246   1.594   4.021   5.498
 7783SOL     OW24247   3.130   6.501   5.980
 7783SOL    HW124248   3.130   6.408   6.016
 7783SOL    HW224249   3.168   6.501   5.887
 7784SOL     OW24250   1.416   2.781   6.905
 7784SOL    HW124251   1.348   2.844   6.869
 7784SOL    HW224252   1.461   2.821   6.985
 7785SOL     OW24253   1.678   6.535   4.320
 7785SOL    HW124254   1.674   6.592   4.402
 7785SOL    HW224255   1.690   6.593   4.239
 7786SOL     OW24256   3.156   4.719   5.707
 7786SOL    HW124257   3.104   4.724   5.793
 7786SOL    HW224258   3.237   4.663   5.720
 7787SOL     OW24259   2.249   2.139   5.609
 7787SOL    HW124260   2.291   2.220   5.569
 7787SOL    HW224261   2.160   2.123   5.566
 7788SOL     OW24262   1.394   0.992   2.009
 7788SOL    HW124263   1.323   0.937   2.054
 7788SOL    HW224264   1.446   0.934   1.947
 7789SOL     OW24265   2.518   0.244   1.125
 7789SOL    HW124266   2.481   0.225   1.035
 7789SOL    HW224267   2.606   0.197   1.136
 7790SOL     OW24268   6.232   4.538   3.126
 7790SOL    HW124269   6.169   4.502   3.194
 7790SOL    HW224270   6.292   4.465   3.093
 7791SOL     OW24271   2.712   6.237   4.138
 7791SOL    HW124272   2.730   6.187   4.054
 7791SOL    HW224273   2.613   6.241   4.154
 7792SOL     OW24274   1.455   5.250   5.899
 7792SOL    HW124275   1.396   5.256   5.980
 7792SOL    HW224276   1.403   5.210   5.823
 7793SOL     OW24277   1.555   1.307   5.992
 7793SOL    HW124278   1.603   1.394   6.000
 7793SOL    HW224279   1.613   1.233   6.024
 7794SOL     OW24280   5.263   5.100   4.324
 7794SOL    HW124281   5.207   5.028   4.282
 7794SOL    HW224282   5.234   5.189   4.289
 7795SOL     OW24283   2.094   4.225   5.169
 7795SOL    HW124284   2.016   4.243   5.108
 7795SOL    HW224285   2.160   4.167   5.121
 7796SOL     OW24286   3.568   4.184   3.681
 7796SOL    HW124287   3.622   4.100   3.669
 7796SOL    HW224288   3.504   4.194   3.605
 7797SOL     OW24289   0.005   5.610   3.241
 7797SOL    HW124290   6.977   5.556   3.311
 7797SOL    HW224291   0.095   5.570   3.225
 7798SOL     OW24292   2.121   5.011   7.008
 7798SOL    HW124293   2.129   5.094   6.954
 7798SOL    HW224294   2.133   4.931   6.948
 7799SOL     OW24295   6.921   5.739   1.879
 7799SOL    HW124296   6.954   5.746   1.785
 7799SOL    HW224297   6.865   5.819   1.902
 7800SOL     OW24298   1.100   4.263   1.214
 7800SOL    HW124299   1.122   4.347   1.164
 7800SOL    HW224300   1.179   4.202   1.213
 7801SOL     OW24301   2.550   1.773   1.610
 7801SOL    HW124302   2.553   1.859   1.660
 7801SOL    HW224303   2.463   1.764   1.563
 7802SOL     OW24304   5.952   3.233   1.002
 7802SOL    HW124305   6.010   3.163   0.959
 7802SOL    HW224306   5.999   3.272   1.081
 7803SOL     OW24307   4.620   3.812   5.580
 7803SOL    HW124308   4.568   3.740   5.535
 7803SOL    HW224309   4.713   3.815   5.543
 7804SOL     OW24310   6.167   1.232   4.426
 7804SOL    HW124311   6.132   1.217   4.518
 7804SOL    HW224312   6.245   1.170   4.410
 7805SOL     OW24313   5.366   1.720   1.097
 7805SOL    HW124314   5.353   1.705   1.195
 7805SOL    HW224315   5.304   1.793   1.067
 7806SOL     OW24316   5.981   3.363   5.896
 7806SOL    HW124317   6.032   3.449   5.896
 7806SOL    HW224318   5.883   3.383   5.908
 7807SOL     OW24319   0.400   5.033   6.293
 7807SOL    HW124320   0.450   5.035   6.206
 7807SOL    HW224321   0.397   5.125   6.332
 7808SOL     OW24322   0.326   3.111   4.613
 7808SOL    HW124323   0.395   3.183   4.625
 7808SOL    HW224324   0.239   3.141   4.652
 7809SOL     OW24325   2.532   6.419   4.594
 7809SOL    HW124326   2.455   6.470   4.631
 7809SOL    HW224327   2.503   6.324   4.576
 7810SOL     OW24328   3.145   0.535   5.682
 7810SOL    HW124329   3.095   0.453   5.708
 7810SOL    HW224330   3.171   0.530   5.586
 7811SOL     OW24331   6.403   4.217   4.363
 7811SOL    HW124332   6.465   4.139   4.374
 7811SOL    HW224333   6.447   4.287   4.307
 7812SOL     OW24334   1.712   1.736   3.876
 7812SOL    HW124335   1.720   1.659   3.813
 7812SOL    HW224336   1.692   1.702   3.968
 7813SOL     OW24337   5.088   2.731   6.069
 7813SOL    HW124338   5.115   2.637   6.091
 7813SOL    HW224339   5.129   2.793   6.135
 7814SOL     OW24340   6.847   2.393   3.222
 7814SOL    HW124341   6.850   2.306   3.173
 7814SOL    HW224342   6.929   2.403   3.277
 7815SOL     OW24343   4.699   1.538   6.252
 7815SOL    HW124344   4.710   1.634   6.227
 7815SOL    HW224345   4.603   1.519   6.272
 7816SOL     OW24346   2.405   2.741   5.906
 7816SOL    HW124347   2.446   2.701   5.988
 7816SOL    HW224348   2.451   2.827   5.885
 7817SOL     OW24349   6.291   3.567   3.697
 7817SOL    HW124350   6.381   3.557   3.655
 7817SOL    HW224351   6.290   3.648   3.755
 7818SOL     OW24352   5.460   0.638   2.432
 7818SOL    HW124353   5.507   0.593   2.356
 7818SOL    HW224354   5.412   0.719   2.398
 7819SOL     OW24355   0.417   3.144   1.597
 7819SOL    HW124356   0.414   3.220   1.662
 7819SOL    HW224357   0.512   3.126   1.571
 7820SOL     OW24358   1.749   2.011   4.744
 7820SOL    HW124359   1.848   1.993   4.744
 7820SOL    HW224360   1.700   1.924   4.736
 7821SOL     OW24361   4.438   5.714   1.030
 7821SOL    HW124362   4.476   5.672   0.947
 7821SOL    HW224363   4.351   5.670   1.053
 7822SOL     OW24364   0.174   0.568   5.282
 7822SOL    HW124365   0.163   0.598   5.188
 7822SOL    HW224366   0.203   0.472   5.283
 7823SOL     OW24367   2.260   4.077   4.661
 7823SOL    HW124368   2.306   4.105   4.745
 7823SOL    HW224369   2.196   4.149   4.632
 7824SOL     OW24370   6.375   2.483   4.873
 7824SOL    HW124371   6.460   2.467   4.923
 7824SOL    HW224372   6.394   2.484   4.774
 7825SOL     OW24373   2.463   2.804   0.186
 7825SOL    HW124374   2.474   2.724   0.127
 7825SOL    HW224375   2.551   2.830   0.225
 7826SOL     OW24376   6.794   1.270   0.512
 7826SOL    HW124377   6.804   1.355   0.461
 7826SOL    HW224378   6.883   1.241   0.546
 7827SOL     OW24379   1.007   5.629   1.528
 7827SOL    HW124380   0.949   5.704   1.498
 7827SOL    HW224381   1.103   5.656   1.519
 7828SOL     OW24382   6.353   4.296   6.561
 7828SOL    HW124383   6.315   4.284   6.469
 7828SOL    HW224384   6.279   4.303   6.627
 7829SOL     OW24385   3.232   3.139   1.382
 7829SOL    HW124386   3.234   3.068   1.453
 7829SOL    HW224387   3.301   3.208   1.402
 7830SOL     OW24388   3.422   5.203   5.600
 7830SOL    HW124389   3.348   5.155   5.554
 7830SOL    HW224390   3.506   5.148   5.594
 7831SOL     OW24391   2.259   0.771   1.829
 7831SOL    HW124392   2.342   0.731   1.789
 7831SOL    HW224393   2.234   0.853   1.777
 7832SOL     OW24394   5.655   6.987   4.306
 7832SOL    HW124395   5.590   6.995   4.382
 7832SOL    HW224396   5.605   6.988   4.219
 7833SOL     OW24397   1.441   0.635   4.495
 7833SOL    HW124398   1.519   0.596   4.543
 7833SOL    HW224399   1.425   0.728   4.528
 7834SOL     OW24400   0.045   1.641   3.591
 7834SOL    HW124401   0.056   1.552   3.635
 7834SOL    HW224402   6.971   1.650   3.559
 7835SOL     OW24403   3.591   1.821   4.473
 7835SOL    HW124404   3.563   1.917   4.473
 7835SOL    HW224405   3.579   1.782   4.382
 7836SOL     OW24406   3.570   3.876   5.383
 7836SOL    HW124407   3.493   3.936   5.360
 7836SOL    HW224408   3.619   3.915   5.461
 7837SOL     OW24409   5.207   6.470   0.047
 7837SOL    HW124410   5.134   6.524   0.089
 7837SOL    HW224411   5.243   6.405   0.114
 7838SOL     OW24412   4.971   5.377   1.356
 7838SOL    HW124413   4.951   5.356   1.260
 7838SOL    HW224414   4.970   5.476   1.369
 7839SOL     OW24415   5.611   4.025   4.684
 7839SOL    HW124416   5.688   4.049   4.626
 7839SOL    HW224417   5.607   3.926   4.697
 7840SOL     OW24418   0.820   4.407   4.297
 7840SOL    HW124419   0.733   4.363   4.318
 7840SOL    HW224420   0.893   4.338   4.293
 7841SOL     OW24421   4.587   2.040   6.551
 7841SOL    HW124422   4.686   2.045   6.539
 7841SOL    HW224423   4.547   2.132   6.543
 7842SOL     OW24424   1.978   1.537   2.638
 7842SOL    HW124425   1.934   1.522   2.726
 7842SOL    HW224426   2.017   1.629   2.635
 7843SOL     OW24427   6.894   6.771   4.160
 7843SOL    HW124428   6.844   6.724   4.232
 7843SOL    HW224429   6.943   6.705   4.104
 7844SOL     OW24430   3.692   0.757   2.205
 7844SOL    HW124431   3.739   0.686   2.152
 7844SOL    HW224432   3.736   0.767   2.294
 7845SOL     OW24433   5.090   1.773   1.246
 7845SOL    HW124434   5.113   1.723   1.329
 7845SOL    HW224435   5.021   1.721   1.194
 7846SOL     OW24436   0.995   2.059   0.613
 7846SOL    HW124437   1.027   1.996   0.684
 7846SOL    HW224438   1.070   2.080   0.550
 7847SOL     OW24439   6.159   1.488   3.958
 7847SOL    HW124440   6.119   1.545   3.885
 7847SOL    HW224441   6.241   1.532   3.993
 7848SOL     OW24442   2.625   4.454   0.639
 7848SOL    HW124443   2.648   4.439   0.735
 7848SOL    HW224444   2.540   4.505   0.632
 7849SOL     OW24445   5.914   3.277   4.935
 7849SOL    HW124446   5.949   3.302   4.845
 7849SOL    HW224447   5.956   3.336   5.005
 7850SOL     OW24448   6.690   1.653   3.771
 7850SOL    HW124449   6.604   1.602   3.777
 7850SOL    HW224450   6.722   1.652   3.677
 7851SOL     OW24451   0.844   2.958   1.860
 7851SOL    HW124452   0.800   3.020   1.795
 7851SOL    HW224453   0.775   2.923   1.924
 7852SOL     OW24454   2.813   1.111   0.138
 7852SOL    HW124455   2.775   1.037   0.194
 7852SOL    HW224456   2.859   1.177   0.196
 7853SOL     OW24457   4.504   2.797   1.738
 7853SOL    HW124458   4.550   2.879   1.771
 7853SOL    HW224459   4.405   2.812   1.739
 7854SOL     OW24460   3.961   2.276   6.385
 7854SOL    HW124461   4.049   2.263   6.431
 7854SOL    HW224462   3.964   2.360   6.331
 7855SOL     OW24463   4.642   5.977   4.285
 7855SOL    HW124464   4.683   5.889   4.308
 7855SOL    HW224465   4.694   6.051   4.328
 7856SOL     OW24466   1.389   4.840   5.574
 7856SOL    HW124467   1.295   4.873   5.578
 7856SOL    HW224468   1.434   4.873   5.491
 7857SOL     OW24469   4.674   4.008   0.575
 7857SOL    HW124470   4.599   4.048   0.628
 7857SOL    HW224471   4.737   4.080   0.549
 7858SOL     OW24472   6.727   5.734   4.589
 7858SOL    HW124473   6.789   5.662   4.621
 7858SOL    HW224474   6.702   5.793   4.666
 7859SOL     OW24475   4.430   3.302   6.850
 7859SOL    HW124476   4.353   3.312   6.787
 7859SOL    HW224477   4.513   3.336   6.806
 7860SOL     OW24478   3.820   1.422   3.890
 7860SOL    HW124479   3.752   1.453   3.824
 7860SOL    HW224480   3.839   1.325   3.874
 7861SOL     OW24481   2.805   5.548   2.003
 7861SOL    HW124482   2.850   5.486   2.068
 7861SOL    HW224483   2.848   5.638   2.007
 7862SOL     OW24484   2.618   5.247   2.150
 7862SOL    HW124485   2.665   5.161   2.132
 7862SOL    HW224486   2.539   5.256   2.089
 7863SOL     OW24487   0.500   4.191   3.376
 7863SOL    HW124488   0.547   4.166   3.461
 7863SOL    HW224489   0.532   4.133   3.302
 7864SOL     OW24490   1.805   5.978   6.401
 7864SOL    HW124491   1.793   5.891   6.448
 7864SOL    HW224492   1.855   6.041   6.460
 7865SOL     OW24493   6.316   6.185   3.938
 7865SOL    HW124494   6.388   6.132   3.893
 7865SOL    HW224495   6.311   6.276   3.897
 7866SOL     OW24496   2.128   0.409   4.692
 7866SOL    HW124497   2.067   0.337   4.658
 7866SOL    HW224498   2.221   0.373   4.698
 7867SOL     OW24499   5.638   0.051   3.562
 7867SOL    HW124500   5.672   6.977   3.557
 7867SOL    HW224501   5.703   0.107   3.613
 7868SOL     OW24502   3.521   5.467   1.056
 7868SOL    HW124503   3.605   5.451   1.108
 7868SOL    HW224504   3.543   5.474   0.959
 7869SOL     OW24505   5.070   4.975   5.982
 7869SOL    HW124506   5.118   4.959   6.069
 7869SOL    HW224507   5.136   4.979   5.908
 7870SOL     OW24508   4.911   0.229   4.933
 7870SOL    HW124509   4.833   0.210   4.993
 7870SOL    HW224510   4.971   0.297   4.975
 7871SOL     OW24511   5.727   1.603   2.003
 7871SOL    HW124512   5.720   1.583   1.906
 7871SOL    HW224513   5.818   1.575   2.036
 7872SOL     OW24514   1.689   4.517   2.747
 7872SOL    HW124515   1.715   4.420   2.740
 7872SOL    HW224516   1.616   4.527   2.814
 7873SOL     OW24517   6.114   1.101   0.574
 7873SOL    HW124518   6.118   1.200   0.587
 7873SOL    HW224519   6.186   1.074   0.510
 7874SOL     OW24520   5.483   2.752   1.128
 7874SOL    HW124521   5.484   2.851   1.144
 7874SOL    HW224522   5.577   2.719   1.120
 7875SOL     OW24523   3.839   3.591   0.009
 7875SOL    HW124524   3.806   3.665   0.067
 7875SOL    HW224525   3.887   3.629   6.950
 7876SOL     OW24526   0.862   0.256   3.107
 7876SOL    HW124527   0.920   0.191   3.059
 7876SOL    HW224528   0.766   0.241   3.082
 7877SOL     OW24529   6.774   1.704   2.806
 7877SOL    HW124530   6.726   1.718   2.892
 7877SOL    HW224531   6.714   1.728   2.730
 7878SOL     OW24532   4.954   3.818   3.497
 7878SOL    HW124533   5.025   3.768   3.448
 7878SOL    HW224534   4.946   3.911   3.458
 7879SOL     OW24535   3.025   5.167   3.298
 7879SOL    HW124536   3.106   5.110   3.311
 7879SOL    HW224537   3.028   5.243   3.363
 7880SOL     OW24538   2.324   3.630   0.810
 7880SOL    HW124539   2.287   3.680   0.732
 7880SOL    HW224540   2.422   3.648   0.818
 7881SOL     OW24541   5.035   4.226   4.344
 7881SOL    HW124542   5.079   4.200   4.429
 7881SOL    HW224543   4.961   4.161   4.323
 7882SOL     OW24544   2.317   3.899   1.738
 7882SOL    HW124545   2.340   3.996   1.749
 7882SOL    HW224546   2.321   3.875   1.641
 7883SOL     OW24547   0.898   0.425   5.749
 7883SOL    HW124548   0.998   0.435   5.744
 7883SOL    HW224549   0.866   0.461   5.837
 7884SOL     OW24550   1.100   3.945   4.074
 7884SOL    HW124551   1.023   3.881   4.071
 7884SOL    HW224552   1.167   3.914   4.141
 7885SOL     OW24553   6.297   5.364   0.803
 7885SOL    HW124554   6.361   5.427   0.846
 7885SOL    HW224555   6.309   5.273   0.843
 7886SOL     OW24556   4.445   5.834   0.518
 7886SOL    HW124557   4.481   5.890   0.592
 7886SOL    HW224558   4.414   5.893   0.443
 7887SOL     OW24559   3.781   2.120   0.348
 7887SOL    HW124560   3.768   2.198   0.286
 7887SOL    HW224561   3.728   2.042   0.315
 7888SOL     OW24562   5.245   0.308   3.892
 7888SOL    HW124563   5.173   0.375   3.872
 7888SOL    HW224564   5.253   0.296   3.991
 7889SOL     OW24565   0.999   5.490   1.147
 7889SOL    HW124566   1.059   5.569   1.134
 7889SOL    HW224567   1.043   5.408   1.110
 7890SOL     OW24568   1.822   3.887   2.297
 7890SOL    HW124569   1.747   3.925   2.244
 7890SOL    HW224570   1.905   3.885   2.241
 7891SOL     OW24571   2.387   4.808   2.489
 7891SOL    HW124572   2.437   4.874   2.545
 7891SOL    HW224573   2.290   4.829   2.492
 7892SOL     OW24574   2.042   2.425   4.973
 7892SOL    HW124575   1.988   2.480   5.036
 7892SOL    HW224576   2.079   2.346   5.022
 7893SOL     OW24577   5.569   6.556   1.343
 7893SOL    HW124578   5.594   6.518   1.254
 7893SOL    HW224579   5.516   6.639   1.330
 7894SOL     OW24580   2.594   6.466   2.083
 7894SOL    HW124581   2.549   6.555   2.070
 7894SOL    HW224582   2.688   6.481   2.116
 7895SOL     OW24583   6.504   1.420   5.224
 7895SOL    HW124584   6.504   1.320   5.225
 7895SOL    HW224585   6.491   1.454   5.317
 7896SOL     OW24586   4.733   4.393   5.791
 7896SOL    HW124587   4.638   4.424   5.800
 7896SOL    HW224588   4.737   4.317   5.726
 7897SOL     OW24589   2.484   3.750   6.255
 7897SOL    HW124590   2.442   3.815   6.318
 7897SOL    HW224591   2.575   3.783   6.229
 7898SOL     OW24592   4.769   2.167   3.544
 7898SOL    HW124593   4.754   2.257   3.503
 7898SOL    HW224594   4.707   2.155   3.622
 7899SOL     OW24595   6.715   2.007   1.835
 7899SOL    HW124596   6.713   2.105   1.853
 7899SOL    HW224597   6.622   1.972   1.824
 7900SOL     OW24598   1.858   5.259   1.056
 7900SOL    HW124599   1.916   5.216   1.126
 7900SOL    HW224600   1.850   5.199   0.977
 7901SOL     OW24601   5.603   0.256   5.843
 7901SOL    HW124602   5.519   0.302   5.816
 7901SOL    HW224603   5.659   0.318   5.899
 7902SOL     OW24604   4.918   4.981   1.582
 7902SOL    HW124605   4.954   4.952   1.493
 7902SOL    HW224606   4.983   4.957   1.654
 7903SOL     OW24607   5.900   1.893   0.275
 7903SOL    HW124608   5.962   1.951   0.328
 7903SOL    HW224609   5.806   1.911   0.302
 7904SOL     OW24610   6.462   1.240   2.476
 7904SOL    HW124611   6.416   1.183   2.407
 7904SOL    HW224612   6.503   1.181   2.546
 7905SOL     OW24613   4.572   1.487   0.975
 7905SOL    HW124614   4.537   1.446   0.890
 7905SOL    HW224615   4.527   1.575   0.990
 7906SOL     OW24616   6.675   6.236   6.694
 7906SOL    HW124617   6.700   6.162   6.757
 7906SOL    HW224618   6.750   6.302   6.690
 7907SOL     OW24619   6.340   2.502   4.404
 7907SOL    HW124620   6.269   2.528   4.470
 7907SOL    HW224621   6.306   2.513   4.311
 7908SOL     OW24622   1.263   0.622   3.753
 7908SOL    HW124623   1.337   0.679   3.717
 7908SOL    HW224624   1.176   0.670   3.745
 7909SOL     OW24625   4.877   3.784   4.807
 7909SOL    HW124626   4.792   3.836   4.816
 7909SOL    HW224627   4.866   3.696   4.854
 7910SOL     OW24628   3.954   2.988   5.268
 7910SOL    HW124629   3.983   2.892   5.269
 7910SOL    HW224630   3.855   2.993   5.256
 7911SOL     OW24631   6.902   4.594   0.732
 7911SOL    HW124632   6.982   4.590   0.672
 7911SOL    HW224633   6.819   4.594   0.676
 7912SOL     OW24634   6.463   5.524   6.517
 7912SOL    HW124635   6.495   5.613   6.551
 7912SOL    HW224636   6.467   5.457   6.591
 7913SOL     OW24637   0.337   5.405   6.245
 7913SOL    HW124638   0.297   5.493   6.269
 7913SOL    HW224639   0.271   5.332   6.263
 7914SOL     OW24640   6.697   5.067   0.699
 7914SOL    HW124641   6.684   5.163   0.722
 7914SOL    HW224642   6.730   5.059   0.605
 7915SOL     OW24643   5.054   2.203   2.900
 7915SOL    HW124644   5.048   2.296   2.864
 7915SOL    HW224645   4.964   2.161   2.903
 7916SOL     OW24646   5.422   3.809   5.487
 7916SOL    HW124647   5.519   3.784   5.492
 7916SOL    HW224648   5.409   3.884   5.422
 7917SOL     OW24649   3.982   3.087   3.920
 7917SOL    HW124650   3.950   3.178   3.946
 7917SOL    HW224651   3.968   3.024   3.996
 7918SOL     OW24652   6.177   1.559   1.351
 7918SOL    HW124653   6.224   1.476   1.380
 7918SOL    HW224654   6.079   1.548   1.362
 7919SOL     OW24655   6.333   4.206   3.296
 7919SOL    HW124656   6.378   4.246   3.216
 7919SOL    HW224657   6.301   4.114   3.273
 7920SOL     OW24658   0.094   4.536   1.560
 7920SOL    HW124659   0.147   4.453   1.542
 7920SOL    HW224660   0.038   4.523   1.641
 7921SOL     OW24661   3.157   6.733   1.298
 7921SOL    HW124662   3.194   6.719   1.206
 7921SOL    HW224663   3.060   6.706   1.298
 7922SOL     OW24664   6.849   5.801   6.930
 7922SOL    HW124665   6.867   5.813   0.008
 7922SOL    HW224666   6.868   5.887   6.882
 7923SOL     OW24667   1.604   1.252   3.132
 7923SOL    HW124668   1.567   1.269   3.223
 7923SOL    HW224669   1.704   1.249   3.137
 7924SOL     OW24670   2.948   6.257   3.813
 7924SOL    HW124671   2.969   6.332   3.875
 7924SOL    HW224672   2.935   6.293   3.720
 7925SOL     OW24673   6.593   1.963   6.363
 7925SOL    HW124674   6.683   1.984   6.401
 7925SOL    HW224675   6.567   1.870   6.388
 7926SOL     OW24676   3.310   0.709   3.771
 7926SOL    HW124677   3.316   0.709   3.671
 7926SOL    HW224678   3.219   0.739   3.800
 7927SOL     OW24679   4.193   5.294   4.858
 7927SOL    HW124680   4.172   5.334   4.769
 7927SOL    HW224681   4.118   5.235   4.887
 7928SOL     OW24682   1.597   4.771   3.327
 7928SOL    HW124683   1.655   4.690   3.335
 7928SOL    HW224684   1.561   4.795   3.417
 7929SOL     OW24685   4.037   3.502   4.507
 7929SOL    HW124686   4.083   3.467   4.425
 7929SOL    HW224687   4.059   3.444   4.585
 7930SOL     OW24688   4.802   5.725   3.615
 7930SOL    HW124689   4.754   5.734   3.528
 7930SOL    HW224690   4.864   5.802   3.628
 7931SOL     OW24691   1.848   2.898   7.015
 7931SOL    HW124692   1.888   2.844   0.069
 7931SOL    HW224693   1.874   2.857   6.927
 7932SOL     OW24694   2.653   0.628   0.092
 7932SOL    HW124695   2.726   0.665   0.151
 7932SOL    HW224696   2.626   0.538   0.125
 7933SOL     OW24697   0.742   6.878   6.861
 7933SOL    HW124698   0.686   6.957   6.836
 7933SOL    HW224699   0.746   6.814   6.784
 7934SOL     OW24700   2.289   3.137   0.559
 7934SOL    HW124701   2.211   3.139   0.497
 7934SOL    HW224702   2.257   3.123   0.653
 7935SOL     OW24703   4.837   5.944   6.909
 7935SOL    HW124704   4.924   5.993   6.919
 7935SOL    HW224705   4.832   5.904   6.817
 7936SOL     OW24706   3.631   6.040   3.176
 7936SOL    HW124707   3.583   6.080   3.098
 7936SOL    HW224708   3.565   6.009   3.244
 7937SOL     OW24709   5.231   0.134   4.751
 7937SOL    HW124710   5.272   0.201   4.814
 7937SOL    HW224711   5.273   0.142   4.661
 7938SOL     OW24712   4.534   4.854   4.764
 7938SOL    HW124713   4.465   4.795   4.806
 7938SOL    HW224714   4.499   4.948   4.759
 7939SOL     OW24715   0.971   1.087   5.908
 7939SOL    HW124716   0.961   1.145   5.988
 7939SOL    HW224717   0.896   1.021   5.904
 7940SOL     OW24718   2.683   4.980   2.080
 7940SOL    HW124719   2.679   4.923   1.997
 7940SOL    HW224720   2.636   4.933   2.155
 7941SOL     OW24721   6.833   0.725   0.911
 7941SOL    HW124722   6.860   0.721   0.814
 7941SOL    HW224723   6.913   0.749   0.966
 7942SOL     OW24724   0.302   6.317   1.883
 7942SOL    HW124725   0.217   6.349   1.925
 7942SOL    HW224726   0.280   6.256   1.806
 7943SOL     OW24727   5.760   2.075   1.143
 7943SOL    HW124728   5.677   2.020   1.153
 7943SOL    HW224729   5.785   2.081   1.047
 7944SOL     OW24730   0.044   3.233   1.312
 7944SOL    HW124731   6.999   3.309   1.314
 7944SOL    HW224732   0.137   3.269   1.320
 7945SOL     OW24733   5.175   0.171   2.702
 7945SOL    HW124734   5.269   0.202   2.691
 7945SOL    HW224735   5.126   0.233   2.763
 7946SOL     OW24736   2.207   1.874   6.109
 7946SOL    HW124737   2.258   1.935   6.170
 7946SOL    HW224738   2.211   1.910   6.016
 7947SOL     OW24739   3.899   2.954   6.819
 7947SOL    HW124740   3.981   2.923   6.868
 7947SOL    HW224741   3.885   2.897   6.738
 7948SOL     OW24742   6.791   6.787   0.750
 7948SOL    HW124743   6.716   6.742   0.798
 7948SOL    HW224744   6.821   6.730   0.674
 7949SOL     OW24745   5.310   4.728   4.500
 7949SOL    HW124746   5.218   4.707   4.532
 7949SOL    HW224747   5.304   4.773   4.411
 7950SOL     OW24748   4.410   5.081   3.593
 7950SOL    HW124749   4.439   5.038   3.508
 7950SOL    HW224750   4.340   5.149   3.574
 7951SOL     OW24751   2.508   3.517   1.111
 7951SOL    HW124752   2.488   3.588   1.179
 7951SOL    HW224753   2.557   3.556   1.034
 7952SOL     OW24754   6.591   3.069   6.525
 7952SOL    HW124755   6.605   2.972   6.544
 7952SOL    HW224756   6.667   3.103   6.469
 7953SOL     OW24757   1.978   2.573   3.185
 7953SOL    HW124758   2.038   2.523   3.247
 7953SOL    HW224759   1.900   2.609   3.235
 7954SOL     OW24760   4.429   5.340   4.308
 7954SOL    HW124761   4.365   5.341   4.384
 7954SOL    HW224762   4.385   5.377   4.226
 7955SOL     OW24763   0.109   6.475   6.729
 7955SOL    HW124764   0.198   6.455   6.689
 7955SOL    HW224765   0.112   6.458   6.827
 7956SOL     OW24766   0.633   6.168   3.452
 7956SOL    HW124767   0.582   6.103   3.396
 7956SOL    HW224768   0.598   6.260   3.437
 7957SOL     OW24769   1.401   1.790   0.359
 7957SOL    HW124770   1.309   1.751   0.370
 7957SOL    HW224771   1.440   1.761   0.272
 7958SOL     OW24772   3.615   5.790   4.548
 7958SOL    HW124773   3.700   5.811   4.598
 7958SOL    HW224774   3.592   5.866   4.488
 7959SOL     OW24775   5.450   4.592   0.586
 7959SOL    HW124776   5.519   4.551   0.527
 7959SOL    HW224777   5.454   4.691   0.577
 7960SOL     OW24778   3.419   1.837   1.491
 7960SOL    HW124779   3.459   1.929   1.488
 7960SOL    HW224780   3.461   1.780   1.421
 7961SOL     OW24781   2.117   6.394   6.508
 7961SOL    HW124782   2.206   6.438   6.524
 7961SOL    HW224783   2.122   6.338   6.426
 7962SOL     OW24784   2.358   0.876   0.823
 7962SOL    HW124785   2.352   0.957   0.882
 7962SOL    HW224786   2.266   0.848   0.796
 7963SOL     OW24787   0.068   1.106   5.153
 7963SOL    HW124788   0.069   1.012   5.189
 7963SOL    HW224789   7.001   1.149   5.176
 7964SOL     OW24790   5.669   4.983   3.765
 7964SOL    HW124791   5.692   4.889   3.789
 7964SOL    HW224792   5.719   5.046   3.824
 7965SOL     OW24793   4.267   2.631   0.041
 7965SOL    HW124794   4.350   2.576   0.034
 7965SOL    HW224795   4.249   2.652   0.138
 7966SOL     OW24796   1.281   3.979   4.653
 7966SOL    HW124797   1.285   4.007   4.749
 7966SOL    HW224798   1.199   3.925   4.637
 7967SOL     OW24799   3.077   5.924   3.495
 7967SOL    HW124800   3.105   5.835   3.531
 7967SOL    HW224801   3.073   5.990   3.570
 7968SOL     OW24802   2.382   2.744   3.433
 7968SOL    HW124803   2.297   2.707   3.470
 7968SOL    HW224804   2.423   2.806   3.499
 7969SOL     OW24805   3.708   6.890   2.439
 7969SOL    HW124806   3.677   6.938   2.521
 7969SOL    HW224807   3.652   6.809   2.425
 7970SOL     OW24808   0.124   3.686   3.000
 7970SOL    HW124809   0.220   3.692   3.028
 7970SOL    HW224810   0.120   3.673   2.900
 7971SOL     OW24811   3.002   0.973   1.959
 7971SOL    HW124812   3.042   1.056   1.919
 7971SOL    HW224813   2.919   0.949   1.909
 7972SOL     OW24814   6.570   4.482   1.143
 7972SOL    HW124815   6.628   4.496   1.064
 7972SOL    HW224816   6.489   4.429   1.116
 7973SOL     OW24817   5.284   3.671   3.762
 7973SOL    HW124818   5.350   3.745   3.774
 7973SOL    HW224819   5.242   3.649   3.850
 7974SOL     OW24820   5.788   0.463   4.534
 7974SOL    HW124821   5.823   0.510   4.454
 7974SOL    HW224822   5.770   0.367   4.512
 7975SOL     OW24823   4.609   0.992   3.962
 7975SOL    HW124824   4.635   1.077   3.917
 7975SOL    HW224825   4.567   1.013   4.051
 7976SOL     OW24826   0.759   6.594   5.274
 7976SOL    HW124827   0.729   6.611   5.180
 7976SOL    HW224828   0.749   6.677   5.328
 7977SOL     OW24829   4.605   5.959   2.641
 7977SOL    HW124830   4.613   6.059   2.642
 7977SOL    HW224831   4.513   5.933   2.613
 7978SOL     OW24832   4.814   4.215   6.287
 7978SOL    HW124833   4.718   4.207   6.314
 7978SOL    HW224834   4.824   4.192   6.190
 7979SOL     OW24835   3.424   0.197   4.838
 7979SOL    HW124836   3.446   0.136   4.762
 7979SOL    HW224837   3.502   0.257   4.857
 7980SOL     OW24838   3.657   5.819   0.206
 7980SOL    HW124839   3.659   5.809   0.305
 7980SOL    HW224840   3.584   5.762   0.168
 7981SOL     OW24841   0.890   5.162   1.572
 7981SOL    HW124842   0.933   5.224   1.507
 7981SOL    HW224843   0.806   5.203   1.607
 7982SOL     OW24844   6.958   2.382   0.502
 7982SOL    HW124845   0.036   2.378   0.519
 7982SOL    HW224846   6.909   2.392   0.588
 7983SOL     OW24847   5.792   1.879   3.175
 7983SOL    HW124848   5.827   1.970   3.153
 7983SOL    HW224849   5.719   1.887   3.243
 7984SOL     OW24850   0.945   1.904   1.820
 7984SOL    HW124851   0.978   1.833   1.758
 7984SOL    HW224852   0.863   1.872   1.867
 7985SOL     OW24853   1.715   0.415   2.254
 7985SOL    HW124854   1.657   0.396   2.333
 7985SOL    HW224855   1.728   0.513   2.245
 7986SOL     OW24856   3.692   1.395   6.847
 7986SOL    HW124857   3.735   1.308   6.871
 7986SOL    HW224858   3.644   1.432   6.926
 7987SOL     OW24859   0.463   3.609   5.757
 7987SOL    HW124860   0.501   3.542   5.694
 7987SOL    HW224861   0.537   3.663   5.797
 7988SOL     OW24862   2.767   2.331   4.791
 7988SOL    HW124863   2.713   2.413   4.808
 7988SOL    HW224864   2.714   2.267   4.734
 7989SOL     OW24865   3.441   2.865   5.306
 7989SOL    HW124866   3.453   2.873   5.405
 7989SOL    HW224867   3.411   2.772   5.284
 7990SOL     OW24868   1.159   3.465   3.667
 7990SOL    HW124869   1.138   3.507   3.755
 7990SOL    HW224870   1.254   3.432   3.668
 7991SOL     OW24871   0.070   2.543   6.276
 7991SOL    HW124872   0.166   2.524   6.257
 7991SOL    HW224873   0.056   2.546   6.375
 7992SOL     OW24874   1.094   6.555   1.264
 7992SOL    HW124875   1.000   6.590   1.261
 7992SOL    HW224876   1.136   6.565   1.174
 7993SOL     OW24877   2.119   5.677   7.019
 7993SOL    HW124878   2.080   5.585   0.007
 7993SOL    HW224879   2.084   5.721   6.936
 7994SOL     OW24880   4.693   0.744   3.882
 7994SOL    HW124881   4.724   0.705   3.969
 7994SOL    HW224882   4.655   0.835   3.898
 7995SOL     OW24883   3.897   5.849   4.078
 7995SOL    HW124884   3.824   5.795   4.119
 7995SOL    HW224885   3.885   5.945   4.102
 7996SOL     OW24886   3.595   6.908   4.290
 7996SOL    HW124887   3.613   6.902   4.191
 7996SOL    HW224888   3.654   6.844   4.338
 7997SOL     OW24889   6.591   1.848   1.108
 7997SOL    HW124890   6.618   1.854   1.204
 7997SOL    HW224891   6.518   1.780   1.098
 7998SOL     OW24892   4.809   5.230   0.268
 7998SOL    HW124893   4.774   5.259   0.357
 7998SOL    HW224894   4.871   5.301   0.233
 7999SOL     OW24895   1.264   0.244   5.102
 7999SOL    HW124896   1.225   0.289   5.182
 7999SOL    HW224897   1.334   0.304   5.061
 8000SOL     OW24898   5.593   0.557   6.290
 8000SOL    HW124899   5.635   0.612   6.362
 8000SOL    HW224900   5.510   0.514   6.325
 8001SOL     OW24901   2.620   6.257   1.919
 8001SOL    HW124902   2.593   6.337   1.972
 8001SOL    HW224903   2.655   6.186   1.980
 8002SOL     OW24904   0.211   3.442   5.382
 8002SOL    HW124905   0.306   3.459   5.355
 8002SOL    HW224906   0.168   3.381   5.315
 8003SOL     OW24907   2.857   4.768   2.905
 8003SOL    HW124908   2.914   4.743   2.827
 8003SOL    HW224909   2.799   4.846   2.881
 8004SOL     OW24910   2.204   4.406   3.144
 8004SOL    HW124911   2.126   4.354   3.109
 8004SOL    HW224912   2.270   4.422   3.071
 8005SOL     OW24913   3.386   1.155   2.087
 8005SOL    HW124914   3.370   1.118   1.996
 8005SOL    HW224915   3.458   1.225   2.083
 8006SOL     OW24916   2.592   5.917   0.249
 8006SOL    HW124917   2.564   5.971   0.169
 8006SOL    HW224918   2.692   5.916   0.255
 8007SOL     OW24919   0.710   0.204   3.663
 8007SOL    HW124920   0.692   0.140   3.589
 8007SOL    HW224921   0.802   0.186   3.700
 8008SOL     OW24922   5.135   6.556   6.353
 8008SOL    HW124923   5.037   6.547   6.336
 8008SOL    HW224924   5.186   6.523   6.274
 8009SOL     OW24925   6.320   0.572   2.745
 8009SOL    HW124926   6.396   0.507   2.750
 8009SOL    HW224927   6.276   0.577   2.835
 8010SOL     OW24928   2.413   1.703   6.854
 8010SOL    HW124929   2.449   1.773   6.792
 8010SOL    HW224930   2.489   1.650   6.891
 8011SOL     OW24931   2.194   1.991   1.336
 8011SOL    HW124932   2.102   2.029   1.350
 8011SOL    HW224933   2.198   1.949   1.245
 8012SOL     OW24934   1.545   6.277   0.990
 8012SOL    HW124935   1.599   6.208   1.039
 8012SOL    HW224936   1.513   6.346   1.055
 8013SOL     OW24937   6.364   5.057   4.578
 8013SOL    HW124938   6.326   5.129   4.636
 8013SOL    HW224939   6.436   5.095   4.520
 8014SOL     OW24940   1.530   5.868   6.555
 8014SOL    HW124941   1.465   5.875   6.479
 8014SOL    HW224942   1.603   5.805   6.531
 8015SOL     OW24943   2.956   2.182   1.074
 8015SOL    HW124944   2.970   2.186   1.172
 8015SOL    HW224945   2.864   2.214   1.052
 8016SOL     OW24946   4.659   0.488   0.419
 8016SOL    HW124947   4.691   0.393   0.417
 8016SOL    HW224948   4.583   0.496   0.484
 8017SOL     OW24949   0.521   4.582   5.665
 8017SOL    HW124950   0.523   4.484   5.683
 8017SOL    HW224951   0.566   4.631   5.739
 8018SOL     OW24952   5.101   2.028   5.724
 8018SOL    HW124953   5.038   2.073   5.661
 8018SOL    HW224954   5.075   2.049   5.818
 8019SOL     OW24955   1.693   4.199   0.405
 8019SOL    HW124956   1.642   4.178   0.321
 8019SOL    HW224957   1.671   4.130   0.474
 8020SOL     OW24958   5.731   6.094   6.640
 8020SOL    HW124959   5.709   6.155   6.563
 8020SOL    HW224960   5.691   6.132   6.724
 8021SOL     OW24961   0.961   1.188   1.761
 8021SOL    HW124962   1.024   1.136   1.819
 8021SOL    HW224963   0.939   1.275   1.804
 8022SOL     OW24964   3.818   1.048   2.787
 8022SOL    HW124965   3.789   1.119   2.851
 8022SOL    HW224966   3.911   1.018   2.810
 8023SOL     OW24967   6.359   6.498   2.738
 8023SOL    HW124968   6.294   6.425   2.716
 8023SOL    HW224969   6.323   6.585   2.705
 8024SOL     OW24970   3.811   5.357   6.533
 8024SOL    HW124971   3.906   5.327   6.523
 8024SOL    HW224972   3.769   5.311   6.611
 8025SOL     OW24973   3.517   6.460   5.972
 8025SOL    HW124974   3.605   6.497   6.000
 8025SOL    HW224975   3.459   6.446   6.053
 8026SOL     OW24976   0.371   4.082   6.909
 8026SOL    HW124977   0.307   4.064   6.834
 8026SOL    HW224978   0.340   4.160   6.962
 8027SOL     OW24979   4.766   2.182   5.229
 8027SOL    HW124980   4.836   2.113   5.214
 8027SOL    HW224981   4.805   2.259   5.279
 8028SOL     OW24982   4.123   5.340   5.997
 8028SOL    HW124983   4.060   5.278   6.044
 8028SOL    HW224984   4.190   5.376   6.062
 8029SOL     OW24985   5.205   4.328   6.454
 8029SOL    HW124986   5.166   4.349   6.364
 8029SOL    HW224987   5.283   4.266   6.443
 8030SOL     OW24988   5.419   4.389   5.879
 8030SOL    HW124989   5.369   4.448   5.815
 8030SOL    HW224990   5.410   4.424   5.972
 8031SOL     OW24991   4.463   5.333   2.272
 8031SOL    HW124992   4.380   5.334   2.216
 8031SOL    HW224993   4.440   5.351   2.367
 8032SOL     OW24994   6.237   3.642   4.876
 8032SOL    HW124995   6.169   3.657   4.947
 8032SOL    HW224996   6.245   3.724   4.819
 8033SOL     OW24997   5.424   2.854   7.010
 8033SOL    HW124998   5.492   2.806   0.046
 8033SOL    HW224999   5.336   2.854   0.037
 8034SOL     OW25000   6.420   0.292   5.022
 8034SOL    HW125001   6.367   0.279   5.106
 8034SOL    HW225002   6.500   0.349   5.041
 8035SOL     OW25003   5.863   6.337   5.420
 8035SOL    HW125004   5.814   6.386   5.492
 8035SOL    HW225005   5.940   6.288   5.459
 8036SOL     OW25006   1.599   3.674   1.468
 8036SOL    HW125007   1.671   3.664   1.536
 8036SOL    HW225008   1.510   3.670   1.513
 8037SOL     OW25009   1.711   3.216   1.051
 8037SOL    HW125010   1.784   3.259   0.998
 8037SOL    HW225011   1.725   3.116   1.050
 8038SOL     OW25012   5.938   2.114   3.330
 8038SOL    HW125013   5.990   2.067   3.402
 8038SOL    HW225014   5.935   2.212   3.350
 8039SOL     OW25015   1.160   6.748   3.009
 8039SOL    HW125016   1.097   6.785   3.078
 8039SOL    HW225017   1.247   6.725   3.053
 8040SOL     OW25018   0.711   5.395   0.668
 8040SOL    HW125019   0.724   5.485   0.709
 8040SOL    HW225020   0.614   5.376   0.657
 8041SOL     OW25021   3.509   1.652   1.255
 8041SOL    HW125022   3.574   1.601   1.311
 8041SOL    HW225023   3.532   1.642   1.159
 8042SOL     OW25024   3.387   3.121   1.931
 8042SOL    HW125025   3.423   3.034   1.965
 8042SOL    HW225026   3.463   3.175   1.895
 8043SOL     OW25027   2.689   0.486   0.596
 8043SOL    HW125028   2.634   0.412   0.635
 8043SOL    HW225029   2.771   0.449   0.554
 8044SOL     OW25030   3.092   3.105   1.133
 8044SOL    HW125031   3.119   3.122   1.227
 8044SOL    HW225032   3.162   3.050   1.087
 8045SOL     OW25033   5.923   1.582   2.715
 8045SOL    HW125034   5.848   1.518   2.731
 8045SOL    HW225035   5.961   1.567   2.624
 8046SOL     OW25036   5.971   4.604   5.920
 8046SOL    HW125037   5.874   4.628   5.915
 8046SOL    HW225038   5.984   4.511   5.886
 8047SOL     OW25039   3.550   5.377   5.033
 8047SOL    HW125040   3.524   5.332   5.119
 8047SOL    HW225041   3.554   5.309   4.960
 8048SOL     OW25042   5.319   0.934   5.355
 8048SOL    HW125043   5.345   1.010   5.296
 8048SOL    HW225044   5.304   0.968   5.448
 8049SOL     OW25045   0.849   6.661   1.332
 8049SOL    HW125046   0.782   6.587   1.337
 8049SOL    HW225047   0.858   6.704   1.422
 8050SOL     OW25048   1.372   3.264   1.225
 8050SOL    HW125049   1.461   3.269   1.271
 8050SOL    HW225050   1.312   3.202   1.275
 8051SOL     OW25051   4.988   6.901   3.359
 8051SOL    HW125052   5.010   6.993   3.391
 8051SOL    HW225053   4.916   6.862   3.416
 8052SOL     OW25054   3.462   1.720   2.180
 8052SOL    HW125055   3.378   1.763   2.146
 8052SOL    HW225056   3.438   1.644   2.240
 8053SOL     OW25057   4.021   3.681   2.818
 8053SOL    HW125058   3.976   3.636   2.895
 8053SOL    HW225059   4.059   3.612   2.757
 8054SOL     OW25060   4.462   6.608   4.580
 8054SOL    HW125061   4.552   6.595   4.540
 8054SOL    HW225062   4.440   6.531   4.639
 8055SOL     OW25063   0.432   0.495   6.128
 8055SOL    HW125064   0.406   0.506   6.032
 8055SOL    HW225065   0.481   0.576   6.160
 8056SOL     OW25066   4.102   1.321   3.075
 8056SOL    HW125067   4.063   1.230   3.088
 8056SOL    HW225068   4.031   1.383   3.043
 8057SOL     OW25069   2.829   0.581   2.481
 8057SOL    HW125070   2.737   0.562   2.515
 8057SOL    HW225071   2.895   0.525   2.531
 8058SOL     OW25072   2.978   0.172   3.032
 8058SOL    HW125073   2.900   0.150   3.091
 8058SOL    HW225074   2.986   0.271   3.024
 8059SOL     OW25075   3.820   2.148   4.563
 8059SOL    HW125076   3.822   2.049   4.574
 8059SOL    HW225077   3.899   2.188   4.610
 8060SOL     OW25078   0.532   1.359   5.093
 8060SOL    HW125079   0.494   1.295   5.159
 8060SOL    HW225080   0.610   1.317   5.046
 8061SOL     OW25081   0.044   5.744   2.101
 8061SOL    HW125082   7.002   5.702   2.167
 8061SOL    HW225083   0.001   5.743   2.010
 8062SOL     OW25084   1.773   4.460   4.497
 8062SOL    HW125085   1.734   4.551   4.483
 8062SOL    HW225086   1.737   4.397   4.428
 8063SOL     OW25087   2.078   3.761   6.920
 8063SOL    HW125088   2.139   3.769   6.841
 8063SOL    HW225089   2.130   3.773   7.004
 8064SOL     OW25090   0.262   4.595   0.030
 8064SOL    HW125091   0.211   4.564   6.971
 8064SOL    HW225092   0.203   4.595   0.111
 8065SOL     OW25093   4.379   7.007   4.462
 8065SOL    HW125094   4.297   0.032   4.426
 8065SOL    HW225095   4.353   6.953   4.542
 8066SOL     OW25096   1.759   1.042   7.014
 8066SOL    HW125097   1.856   1.023   6.999
 8066SOL    HW225098   1.742   1.051   0.092
 8067SOL     OW25099   4.002   3.104   1.858
 8067SOL    HW125100   4.031   3.155   1.777
 8067SOL    HW225101   3.998   3.166   1.937
 8068SOL     OW25102   6.531   5.755   5.089
 8068SOL    HW125103   6.580   5.720   5.010
 8068SOL    HW225104   6.432   5.753   5.072
 8069SOL     OW25105   2.529   6.148   1.449
 8069SOL    HW125106   2.582   6.231   1.467
 8069SOL    HW225107   2.481   6.121   1.533
 8070SOL     OW25108   2.970   5.371   1.473
 8070SOL    HW125109   2.940   5.417   1.557
 8070SOL    HW225110   2.905   5.297   1.452
 8071SOL     OW25111   4.240   6.628   5.040
 8071SOL    HW125112   4.153   6.635   4.991
 8071SOL    HW225113   4.249   6.705   5.104
 8072SOL     OW25114   4.400   1.221   0.412
 8072SOL    HW125115   4.491   1.199   0.377
 8072SOL    HW225116   4.352   1.137   0.436
 8073SOL     OW25117   4.826   0.329   6.554
 8073SOL    HW125118   4.876   0.343   6.468
 8073SOL    HW225119   4.738   0.287   6.535
 8074SOL     OW25120   2.977   3.142   0.728
 8074SOL    HW125121   2.893   3.117   0.775
 8074SOL    HW225122   2.984   3.242   0.724
 8075SOL     OW25123   6.815   1.241   1.695
 8075SOL    HW125124   6.864   1.239   1.608
 8075SOL    HW225125   6.864   1.185   1.762
 8076SOL     OW25126   4.909   2.516   5.183
 8076SOL    HW125127   4.868   2.604   5.205
 8076SOL    HW225128   4.870   2.482   5.098
 8077SOL     OW25129   0.795   6.782   1.564
 8077SOL    HW125130   0.880   6.835   1.555
 8077SOL    HW225131   0.734   6.828   1.628
 8078SOL     OW25132   6.334   1.588   0.400
 8078SOL    HW125133   6.374   1.680   0.397
 8078SOL    HW225134   6.360   1.544   0.486
 8079SOL     OW25135   6.434   2.190   2.998
 8079SOL    HW125136   6.373   2.177   3.076
 8079SOL    HW225137   6.402   2.266   2.942
 8080SOL     OW25138   2.132   3.768   0.450
 8080SOL    HW125139   2.102   3.791   0.543
 8080SOL    HW225140   2.232   3.764   0.447
 8081SOL     OW25141   5.604   1.270   5.345
 8081SOL    HW125142   5.697   1.245   5.317
 8081SOL    HW225143   5.592   1.251   5.442
 8082SOL     OW25144   5.912   2.358   2.953
 8082SOL    HW125145   5.956   2.417   3.020
 8082SOL    HW225146   5.831   2.316   2.994
 8083SOL     OW25147   4.956   3.394   2.419
 8083SOL    HW125148   5.048   3.354   2.416
 8083SOL    HW225149   4.890   3.326   2.450
 8084SOL     OW25150   6.482   5.974   1.271
 8084SOL    HW125151   6.404   6.037   1.274
 8084SOL    HW225152   6.524   5.969   1.361
 8085SOL     OW25153   5.480   6.830   1.316
 8085SOL    HW125154   5.389   6.857   1.284
 8085SOL    HW225155   5.549   6.875   1.259
 8086SOL     OW25156   4.163   0.259   3.887
 8086SOL    HW125157   4.164   0.187   3.957
 8086SOL    HW225158   4.249   0.309   3.889
 8087SOL     OW25159   2.705   2.251   1.071
 8087SOL    HW125160   2.656   2.163   1.066
 8087SOL    HW225161   2.690   2.291   1.161
 8088SOL     OW25162   5.895   1.314   1.740
 8088SOL    HW125163   5.883   1.229   1.690
 8088SOL    HW225164   5.891   1.296   1.838
 8089SOL     OW25165   4.997   3.073   0.056
 8089SOL    HW125166   5.039   3.105   6.991
 8089SOL    HW225167   4.944   2.990   0.038
 8090SOL     OW25168   5.353   2.107   6.492
 8090SOL    HW125169   5.294   2.103   6.411
 8090SOL    HW225170   5.446   2.078   6.466
 8091SOL     OW25171   3.295   4.399   0.063
 8091SOL    HW125172   3.285   4.473   0.129
 8091SOL    HW225173   3.338   4.434   7.000
 8092SOL     OW25174   1.137   1.137   4.651
 8092SOL    HW125175   1.146   1.086   4.565
 8092SOL    HW225176   1.099   1.078   4.721
 8093SOL     OW25177   6.454   5.567   1.190
 8093SOL    HW125178   6.364   5.526   1.198
 8093SOL    HW225179   6.507   5.547   1.272
 8094SOL     OW25180   1.756   4.218   6.139
 8094SOL    HW125181   1.708   4.147   6.087
 8094SOL    HW225182   1.700   4.301   6.143
 8095SOL     OW25183   5.989   3.633   4.431
 8095SOL    HW125184   5.966   3.608   4.525
 8095SOL    HW225185   5.992   3.551   4.375
 8096SOL     OW25186   2.718   5.683   3.201
 8096SOL    HW125187   2.757   5.768   3.236
 8096SOL    HW225188   2.727   5.680   3.101
 8097SOL     OW25189   4.981   0.104   3.554
 8097SOL    HW125190   5.075   0.126   3.581
 8097SOL    HW225191   4.941   0.183   3.508
 8098SOL     OW25192   2.386   5.772   4.122
 8098SOL    HW125193   2.442   5.839   4.073
 8098SOL    HW225194   2.372   5.803   4.216
 8099SOL     OW25195   6.379   0.366   4.096
 8099SOL    HW125196   6.375   0.271   4.064
 8099SOL    HW225197   6.457   0.412   4.054
 8100SOL     OW25198   0.332   6.636   0.413
 8100SOL    HW125199   0.289   6.613   0.326
 8100SOL    HW225200   0.426   6.601   0.414
 8101SOL     OW25201   1.393   0.375   4.740
 8101SOL    HW125202   1.469   0.418   4.693
 8101SOL    HW225203   1.369   0.428   4.822
 8102SOL     OW25204   0.908   5.226   6.186
 8102SOL    HW125205   0.809   5.241   6.174
 8102SOL    HW225206   0.940   5.279   6.264
 8103SOL     OW25207   4.358   1.282   1.828
 8103SOL    HW125208   4.394   1.336   1.905
 8103SOL    HW225209   4.260   1.269   1.839
 8104SOL     OW25210   3.846   6.980   5.790
 8104SOL    HW125211   3.846   6.895   5.843
 8104SOL    HW225212   3.901   6.967   5.707
 8105SOL     OW25213   2.393   2.304   3.667
 8105SOL    HW125214   2.342   2.225   3.632
 8105SOL    HW225215   2.485   2.305   3.627
 8106SOL     OW25216   1.526   4.856   3.584
 8106SOL    HW125217   1.556   4.941   3.540
 8106SOL    HW225218   1.426   4.852   3.583
 8107SOL     OW25219   2.270   6.095   5.943
 8107SOL    HW125220   2.282   6.028   5.869
 8107SOL    HW225221   2.267   6.187   5.903
 8108SOL     OW25222   6.855   3.780   4.574
 8108SOL    HW125223   6.821   3.847   4.639
 8108SOL    HW225224   6.908   3.826   4.502
 8109SOL     OW25225   2.357   4.723   5.035
 8109SOL    HW125226   2.270   4.690   5.074
 8109SOL    HW225227   2.433   4.682   5.085
 8110SOL     OW25228   2.382   6.329   0.542
 8110SOL    HW125229   2.315   6.267   0.581
 8110SOL    HW225230   2.392   6.409   0.600
 8111SOL     OW25231   2.615   6.571   5.157
 8111SOL    HW125232   2.689   6.629   5.190
 8111SOL    HW225233   2.655   6.488   5.117
 8112SOL     OW25234   2.770   0.625   5.440
 8112SOL    HW125235   2.785   0.554   5.509
 8112SOL    HW225236   2.812   0.711   5.471
 8113SOL     OW25237   3.310   2.586   0.317
 8113SOL    HW125238   3.360   2.672   0.326
 8113SOL    HW225239   3.225   2.602   0.268
 8114SOL     OW25240   2.109   3.023   2.531
 8114SOL    HW125241   2.011   3.018   2.549
 8114SOL    HW225242   2.153   2.940   2.567
 8115SOL     OW25243   4.012   1.213   1.703
 8115SOL    HW125244   3.992   1.117   1.723
 8115SOL    HW225245   4.034   1.261   1.788
 8116SOL     OW25246   6.053   6.676   5.247
 8116SOL    HW125247   6.115   6.643   5.176
 8116SOL    HW225248   6.103   6.685   5.333
 8117SOL     OW25249   1.449   1.860   4.205
 8117SOL    HW125250   1.458   1.958   4.219
 8117SOL    HW225251   1.418   1.817   4.289
 8118SOL     OW25252   1.088   4.228   5.476
 8118SOL    HW125253   1.068   4.316   5.519
 8118SOL    HW225254   1.010   4.199   5.421
 8119SOL     OW25255   0.579   4.917   3.711
 8119SOL    HW125256   0.507   4.876   3.656
 8119SOL    HW225257   0.560   5.015   3.723
 8120SOL     OW25258   3.982   4.447   0.251
 8120SOL    HW125259   3.940   4.473   0.338
 8120SOL    HW225260   4.066   4.396   0.269
 8121SOL     OW25261   0.463   6.564   2.662
 8121SOL    HW125262   0.524   6.625   2.612
 8121SOL    HW225263   0.434   6.489   2.602
 8122SOL     OW25264   0.667   5.007   1.727
 8122SOL    HW125265   0.697   5.064   1.804
 8122SOL    HW225266   0.713   4.918   1.732
 8123SOL     OW25267   0.815   0.104   6.294
 8123SOL    HW125268   0.722   0.111   6.256
 8123SOL    HW225269   0.881   0.132   6.224
 8124SOL     OW25270   1.653   5.979   1.188
 8124SOL    HW125271   1.733   5.985   1.248
 8124SOL    HW225272   1.674   5.920   1.110
 8125SOL     OW25273   5.958   4.697   2.664
 8125SOL    HW125274   6.019   4.694   2.743
 8125SOL    HW225275   5.889   4.768   2.678
 8126SOL     OW25276   5.748   4.212   2.788
 8126SOL    HW125277   5.792   4.125   2.768
 8126SOL    HW225278   5.755   4.272   2.708
 8127SOL     OW25279   2.226   5.486   0.764
 8127SOL    HW125280   2.227   5.582   0.736
 8127SOL    HW225281   2.137   5.445   0.744
 8128SOL     OW25282   3.101   2.785   6.679
 8128SOL    HW125283   3.050   2.701   6.692
 8128SOL    HW225284   3.129   2.821   6.769
 8129SOL     OW25285   5.613   1.064   6.262
 8129SOL    HW125286   5.523   1.050   6.304
 8129SOL    HW225287   5.611   1.029   6.168
 8130SOL     OW25288   1.103   5.152   6.001
 8130SOL    HW125289   1.144   5.238   5.968
 8130SOL    HW225290   1.031   5.173   6.067
 8131SOL     OW25291   3.358   1.436   0.614
 8131SOL    HW125292   3.271   1.431   0.663
 8131SOL    HW225293   3.371   1.353   0.561
 8132SOL     OW25294   6.283   5.196   4.799
 8132SOL    HW125295   6.192   5.180   4.839
 8132SOL    HW225296   6.347   5.222   4.871
 8133SOL     OW25297   3.244   5.168   3.581
 8133SOL    HW125298   3.318   5.201   3.522
 8133SOL    HW225299   3.264   5.193   3.676
 8134SOL     OW25300   1.804   2.051   4.388
 8134SOL    HW125301   1.823   1.955   4.371
 8134SOL    HW225302   1.876   2.091   4.445
 8135SOL     OW25303   3.127   4.899   2.273
 8135SOL    HW125304   3.037   4.861   2.251
 8135SOL    HW225305   3.195   4.863   2.209
 8136SOL     OW25306   3.954   5.288   2.359
 8136SOL    HW125307   4.019   5.231   2.410
 8136SOL    HW225308   3.910   5.232   2.289
 8137SOL     OW25309   1.672   3.166   4.983
 8137SOL    HW125310   1.677   3.238   4.914
 8137SOL    HW225311   1.763   3.152   5.022
 8138SOL     OW25312   5.723   1.865   2.020
 8138SOL    HW125313   5.703   1.768   2.018
 8138SOL    HW225314   5.773   1.891   1.937
 8139SOL     OW25315   0.422   3.193   3.756
 8139SOL    HW125316   0.342   3.242   3.788
 8139SOL    HW225317   0.458   3.237   3.673
 8140SOL     OW25318   4.311   6.777   6.963
 8140SOL    HW125319   4.255   6.851   6.924
 8140SOL    HW225320   4.286   6.690   6.921
 8141SOL     OW25321   5.092   1.444   5.683
 8141SOL    HW125322   5.139   1.527   5.712
 8141SOL    HW225323   5.145   1.364   5.711
 8142SOL     OW25324   2.121   5.848   0.442
 8142SOL    HW125325   2.215   5.827   0.418
 8142SOL    HW225326   2.105   5.824   0.538
 8143SOL     OW25327   5.600   4.671   1.128
 8143SOL    HW125328   5.662   4.668   1.049
 8143SOL    HW225329   5.508   4.646   1.098
 8144SOL     OW25330   0.485   6.087   5.529
 8144SOL    HW125331   0.414   6.017   5.529
 8144SOL    HW225332   0.484   6.135   5.617
 8145SOL     OW25333   5.258   5.877   0.292
 8145SOL    HW125334   5.235   5.805   0.357
 8145SOL    HW225335   5.344   5.921   0.320
 8146SOL     OW25336   6.053   0.398   4.701
 8146SOL    HW125337   6.007   0.461   4.638
 8146SOL    HW225338   6.110   0.450   4.764
 8147SOL     OW25339   1.099   0.509   6.621
 8147SOL    HW125340   1.038   0.534   6.546
 8147SOL    HW225341   1.050   0.451   6.686
 8148SOL     OW25342   4.339   4.041   6.929
 8148SOL    HW125343   4.367   3.955   6.887
 8148SOL    HW225344   4.385   4.052   7.017
 8149SOL     OW25345   1.449   6.816   4.614
 8149SOL    HW125346   1.539   6.847   4.581
 8149SOL    HW225347   1.380   6.840   4.547
 8150SOL     OW25348   1.041   3.327   1.121
 8150SOL    HW125349   0.960   3.353   1.069
 8150SOL    HW225350   1.098   3.266   1.066
 8151SOL     OW25351   6.117   4.985   3.697
 8151SOL    HW125352   6.106   4.914   3.627
 8151SOL    HW225353   6.146   4.943   3.782
 8152SOL     OW25354   4.411   1.904   2.936
 8152SOL    HW125355   4.321   1.915   2.978
 8152SOL    HW225356   4.420   1.810   2.901
 8153SOL     OW25357   1.066   0.287   3.537
 8153SOL    HW125358   1.158   0.258   3.563
 8153SOL    HW225359   1.020   0.213   3.488
 8154SOL     OW25360   2.236   1.541   3.371
 8154SOL    HW125361   2.162   1.485   3.409
 8154SOL    HW225362   2.307   1.482   3.333
 8155SOL     OW25363   1.218   4.137   2.458
 8155SOL    HW125364   1.268   4.195   2.522
 8155SOL    HW225365   1.127   4.119   2.495
 8156SOL     OW25366   5.779   5.677   1.044
 8156SOL    HW125367   5.765   5.663   1.142
 8156SOL    HW225368   5.874   5.656   1.020
 8157SOL     OW25369   6.102   3.630   5.910
 8157SOL    HW125370   6.116   3.637   6.009
 8157SOL    HW225371   6.162   3.695   5.863
 8158SOL     OW25372   5.515   4.726   6.126
 8158SOL    HW125373   5.576   4.788   6.077
 8158SOL    HW225374   5.497   4.763   6.217
 8159SOL     OW25375   3.919   6.520   5.805
 8159SOL    HW125376   3.987   6.471   5.752
 8159SOL    HW225377   3.839   6.539   5.747
 8160SOL     OW25378   5.136   1.657   3.380
 8160SOL    HW125379   5.160   1.716   3.457
 8160SOL    HW225380   5.167   1.564   3.398
 8161SOL     OW25381   5.465   3.254   0.205
 8161SOL    HW125382   5.375   3.253   0.249
 8161SOL    HW225383   5.457   3.222   0.110
 8162SOL     OW25384   7.018   4.934   0.059
 8162SOL    HW125385   0.013   4.876   0.138
 8162SOL    HW225386   6.976   5.020   0.088
 8163SOL     OW25387   4.144   4.970   5.609
 8163SOL    HW125388   4.123   4.921   5.694
 8163SOL    HW225389   4.217   4.922   5.560
 8164SOL     OW25390   4.799   0.512   6.952
 8164SOL    HW125391   4.796   0.605   6.916
 8164SOL    HW225392   4.729   0.456   6.907
 8165SOL     OW25393   6.530   3.325   6.167
 8165SOL    HW125394   6.462   3.277   6.111
 8165SOL    HW225395   6.619   3.283   6.153
 8166SOL     OW25396   1.640   2.006   3.966
 8166SOL    HW125397   1.639   1.925   3.907
 8166SOL    HW225398   1.700   1.990   4.044
 8167SOL     OW25399   6.318   0.995   3.918
 8167SOL    HW125400   6.329   1.036   4.009
 8167SOL    HW225401   6.230   1.022   3.880
 8168SOL     OW25402   2.127   0.536   1.471
 8168SOL    HW125403   2.119   0.578   1.381
 8168SOL    HW225404   2.078   0.448   1.471
 8169SOL     OW25405   4.568   1.700   0.172
 8169SOL    HW125406   4.667   1.711   0.160
 8169SOL    HW225407   4.547   1.602   0.182
 8170SOL     OW25408   6.946   4.061   2.259
 8170SOL    HW125409   6.990   4.059   2.170
 8170SOL    HW225410   6.879   3.987   2.265
 8171SOL     OW25411   1.984   1.275   6.831
 8171SOL    HW125412   1.909   1.223   6.790
 8171SOL    HW225413   1.949   1.325   6.911
 8172SOL     OW25414   0.468   1.842   1.749
 8172SOL    HW125415   0.381   1.800   1.776
 8172SOL    HW225416   0.527   1.773   1.708
 8173SOL     OW25417   5.942   2.317   2.355
 8173SOL    HW125418   5.907   2.264   2.432
 8173SOL    HW225419   6.019   2.268   2.313
 8174SOL     OW25420   1.592   6.142   2.371
 8174SOL    HW125421   1.496   6.164   2.388
 8174SOL    HW225422   1.626   6.196   2.295
 8175SOL     OW25423   1.042   2.305   4.175
 8175SOL    HW125424   1.077   2.219   4.212
 8175SOL    HW225425   1.027   2.296   4.077
 8176SOL     OW25426   1.686   4.322   1.562
 8176SOL    HW125427   1.730   4.262   1.630
 8176SOL    HW225428   1.733   4.411   1.561
 8177SOL     OW25429   3.482   1.007   2.855
 8177SOL    HW125430   3.386   0.985   2.869
 8177SOL    HW225431   3.517   0.959   2.775
 8178SOL     OW25432   2.858   6.654   0.766
 8178SOL    HW125433   2.789   6.665   0.695
 8178SOL    HW225434   2.944   6.624   0.724
 8179SOL     OW25435   5.382   0.647   4.532
 8179SOL    HW125436   5.426   0.687   4.451
 8179SOL    HW225437   5.452   0.609   4.593
 8180SOL     OW25438   5.748   6.981   6.570
 8180SOL    HW125439   5.664   6.943   6.608
 8180SOL    HW225440   5.763   6.944   6.478
 8181SOL     OW25441   0.932   0.901   0.922
 8181SOL    HW125442   0.850   0.923   0.976
 8181SOL    HW225443   1.009   0.956   0.955
 8182SOL     OW25444   3.759   3.550   4.562
 8182SOL    HW125445   3.762   3.581   4.657
 8182SOL    HW225446   3.850   3.521   4.533
 8183SOL     OW25447   6.385   0.715   4.943
 8183SOL    HW125448   6.323   0.642   4.915
 8183SOL    HW225449   6.359   0.749   5.033
 8184SOL     OW25450   1.226   6.970   6.930
 8184SOL    HW125451   1.210   6.938   6.836
 8184SOL    HW225452   1.324   6.984   6.944
 8185SOL     OW25453   1.749   0.839   1.019
 8185SOL    HW125454   1.764   0.871   1.112
 8185SOL    HW225455   1.661   0.874   0.985
 8186SOL     OW25456   1.540   4.790   6.741
 8186SOL    HW125457   1.445   4.769   6.719
 8186SOL    HW225458   1.597   4.772   6.661
 8187SOL     OW25459   2.186   1.850   5.368
 8187SOL    HW125460   2.286   1.838   5.371
 8187SOL    HW225461   2.159   1.879   5.277
 8188SOL     OW25462   4.050   2.106   4.050
 8188SOL    HW125463   4.126   2.157   4.089
 8188SOL    HW225464   4.022   2.148   3.964
 8189SOL     OW25465   4.903   4.546   3.678
 8189SOL    HW125466   4.885   4.637   3.714
 8189SOL    HW225467   4.933   4.486   3.752
 8190SOL     OW25468   5.831   4.201   3.257
 8190SOL    HW125469   5.900   4.213   3.328
 8190SOL    HW225470   5.788   4.111   3.267
 8191SOL     OW25471   4.418   5.015   1.941
 8191SOL    HW125472   4.455   5.056   1.858
 8191SOL    HW225473   4.489   5.014   2.012
 8192SOL     OW25474   1.583   5.316   2.754
 8192SOL    HW125475   1.583   5.409   2.790
 8192SOL    HW225476   1.546   5.253   2.823
 8193SOL     OW25477   6.869   5.519   4.327
 8193SOL    HW125478   6.941   5.524   4.257
 8193SOL    HW225479   6.799   5.587   4.306
 8194SOL     OW25480   4.621   0.052   0.906
 8194SOL    HW125481   4.646   0.054   1.003
 8194SOL    HW225482   4.679   0.115   0.854
 8195SOL     OW25483   6.078   6.551   4.141
 8195SOL    HW125484   6.161   6.561   4.196
 8195SOL    HW225485   6.008   6.614   4.174
 8196SOL     OW25486   4.833   0.356   0.142
 8196SOL    HW125487   4.826   0.414   0.061
 8196SOL    HW225488   4.887   0.402   0.212
 8197SOL     OW25489   4.904   1.767   1.687
 8197SOL    HW125490   4.947   1.843   1.736
 8197SOL    HW225491   4.806   1.786   1.676
 8198SOL     OW25492   2.815   0.639   2.176
 8198SOL    HW125493   2.901   0.591   2.193
 8198SOL    HW225494   2.810   0.665   2.079
 8199SOL     OW25495   4.523   3.100   6.137
 8199SOL    HW125496   4.588   3.025   6.143
 8199SOL    HW225497   4.571   3.183   6.106
 8200SOL     OW25498   5.821   4.272   2.135
 8200SOL    HW125499   5.767   4.259   2.052
 8200SOL    HW225500   5.902   4.327   2.115
 8201SOL     OW25501   0.252   0.694   5.004
 8201SOL    HW125502   0.342   0.725   4.973
 8201SOL    HW225503   0.216   0.627   4.940
 8202SOL     OW25504   0.502   6.402   2.054
 8202SOL    HW125505   0.417   6.367   2.017
 8202SOL    HW225506   0.483   6.454   2.138
 8203SOL     OW25507   2.034   2.284   0.064
 8203SOL    HW125508   1.989   2.331   7.008
 8203SOL    HW225509   1.971   2.278   0.142
 8204SOL     OW25510   4.035   3.724   1.001
 8204SOL    HW125511   3.987   3.659   1.061
 8204SOL    HW225512   4.133   3.715   1.014
 8205SOL     OW25513   0.634   2.478   6.869
 8205SOL    HW125514   0.578   2.413   6.920
 8205SOL    HW225515   0.728   2.476   6.904
 8206SOL     OW25516   4.825   1.201   0.172
 8206SOL    HW125517   4.850   1.165   0.082
 8206SOL    HW225518   4.767   1.134   0.219
 8207SOL     OW25519   2.947   3.843   4.386
 8207SOL    HW125520   2.973   3.836   4.482
 8207SOL    HW225521   2.988   3.925   4.345
 8208SOL     OW25522   0.634   1.327   0.335
 8208SOL    HW125523   0.616   1.235   0.370
 8208SOL    HW225524   0.709   1.368   0.386
 8209SOL     OW25525   0.175   0.851   5.222
 8209SOL    HW125526   0.193   0.791   5.144
 8209SOL    HW225527   0.260   0.872   5.269
 8210SOL     OW25528   1.959   2.641   0.154
 8210SOL    HW125529   1.927   2.592   0.234
 8210SOL    HW225530   2.055   2.620   0.137
 8211SOL     OW25531   3.336   4.372   1.274
 8211SOL    HW125532   3.405   4.335   1.336
 8211SOL    HW225533   3.245   4.354   1.311
 8212SOL     OW25534   1.050   2.034   3.164
 8212SOL    HW125535   0.966   1.999   3.206
 8212SOL    HW225536   1.127   1.977   3.192
 8213SOL     OW25537   6.905   4.365   2.030
 8213SOL    HW125538   6.842   4.342   2.104
 8213SOL    HW225539   6.870   4.329   1.943
 8214SOL     OW25540   5.512   4.953   3.299
 8214SOL    HW125541   5.574   4.892   3.249
 8214SOL    HW225542   5.425   4.960   3.250
 8215SOL     OW25543   3.397   5.953   5.163
 8215SOL    HW125544   3.368   5.986   5.253
 8215SOL    HW225545   3.382   5.854   5.157
 8216SOL     OW25546   5.412   5.603   4.322
 8216SOL    HW125547   5.312   5.607   4.330
 8216SOL    HW225548   5.449   5.547   4.396
 8217SOL     OW25549   2.256   4.638   0.275
 8217SOL    HW125550   2.230   4.545   0.303
 8217SOL    HW225551   2.332   4.670   0.331
 8218SOL     OW25552   0.571   1.367   6.639
 8218SOL    HW125553   0.486   1.372   6.587
 8218SOL    HW225554   0.553   1.325   6.728
 8219SOL     OW25555   4.653   1.530   0.587
 8219SOL    HW125556   4.701   1.507   0.503
 8219SOL    HW225557   4.636   1.628   0.591
 8220SOL     OW25558   3.328   2.909   3.018
 8220SOL    HW125559   3.363   2.878   3.106
 8220SOL    HW225560   3.402   2.906   2.950
 8221SOL     OW25561   4.712   5.831   4.534
 8221SOL    HW125562   4.690   5.875   4.621
 8221SOL    HW225563   4.803   5.791   4.539
 8222SOL     OW25564   5.251   1.707   2.155
 8222SOL    HW125565   5.217   1.659   2.235
 8222SOL    HW225566   5.331   1.762   2.181
 8223SOL     OW25567   1.075   4.515   5.665
 8223SOL    HW125568   1.168   4.484   5.645
 8223SOL    HW225569   1.038   4.562   5.585
 8224SOL     OW25570   0.827   2.622   2.846
 8224SOL    HW125571   0.754   2.681   2.880
 8224SOL    HW225572   0.842   2.548   2.911
 8225SOL     OW25573   4.171   1.237   0.670
 8225SOL    HW125574   4.199   1.152   0.625
 8225SOL    HW225575   4.224   1.313   0.633
 8226SOL     OW25576   4.668   0.335   2.163
 8226SOL    HW125577   4.709   0.426   2.154
 8226SOL    HW225578   4.704   0.290   2.245
 8227SOL     OW25579   0.651   2.573   3.948
 8227SOL    HW125580   0.610   2.550   3.860
 8227SOL    HW225581   0.713   2.500   3.976
 8228SOL     OW25582   0.089   2.697   6.039
 8228SOL    HW125583   0.095   2.652   6.128
 8228SOL    HW225584   7.019   2.681   6.000
 8229SOL     OW25585   3.523   4.678   0.441
 8229SOL    HW125586   3.500   4.775   0.451
 8229SOL    HW225587   3.596   4.668   0.372
 8230SOL     OW25588   5.471   0.054   5.428
 8230SOL    HW125589   5.416   6.994   5.450
 8230SOL    HW225590   5.553   0.054   5.486
 8231SOL     OW25591   3.734   6.121   1.627
 8231SOL    HW125592   3.744   6.111   1.726
 8231SOL    HW225593   3.733   6.219   1.604
 8232SOL     OW25594   5.238   0.810   0.596
 8232SOL    HW125595   5.139   0.824   0.603
 8232SOL    HW225596   5.284   0.862   0.668
 8233SOL     OW25597   0.620   5.984   6.176
 8233SOL    HW125598   0.600   5.894   6.138
 8233SOL    HW225599   0.710   5.982   6.221
 8234SOL     OW25600   2.484   3.273   0.405
 8234SOL    HW125601   2.417   3.240   0.472
 8234SOL    HW225602   2.474   3.222   0.320
 8235SOL     OW25603   2.171   2.812   0.776
 8235SOL    HW125604   2.176   2.911   0.779
 8235SOL    HW225605   2.090   2.784   0.724
 8236SOL     OW25606   6.610   3.648   0.068
 8236SOL    HW125607   6.552   3.569   0.083
 8236SOL    HW225608   6.679   3.655   0.141
 8237SOL     OW25609   4.805   6.543   4.692
 8237SOL    HW125610   4.879   6.611   4.686
 8237SOL    HW225611   4.775   6.536   4.788
 8238SOL     OW25612   1.590   4.155   0.162
 8238SOL    HW125613   1.552   4.235   0.117
 8238SOL    HW225614   1.602   4.081   0.095
 8239SOL     OW25615   6.398   1.936   5.601
 8239SOL    HW125616   6.349   1.904   5.681
 8239SOL    HW225617   6.495   1.915   5.610
 8240SOL     OW25618   3.609   3.788   2.775
 8240SOL    HW125619   3.671   3.866   2.769
 8240SOL    HW225620   3.645   3.713   2.720
 8241SOL     OW25621   3.649   6.662   0.432
 8241SOL    HW125622   3.707   6.684   0.510
 8241SOL    HW225623   3.705   6.659   0.349
 8242SOL     OW25624   1.272   4.625   6.037
 8242SOL    HW125625   1.343   4.682   5.996
 8242SOL    HW225626   1.294   4.528   6.023
 8243SOL     OW25627   0.987   3.142   6.548
 8243SOL    HW125628   0.991   3.048   6.514
 8243SOL    HW225629   0.966   3.204   6.472
 8244SOL     OW25630   0.418   6.669   3.183
 8244SOL    HW125631   0.365   6.750   3.158
 8244SOL    HW225632   0.503   6.668   3.129
 8245SOL     OW25633   3.502   1.126   2.477
 8245SOL    HW125634   3.513   1.215   2.520
 8245SOL    HW225635   3.553   1.123   2.391
 8246SOL     OW25636   6.887   3.696   5.629
 8246SOL    HW125637   6.841   3.782   5.608
 8246SOL    HW225638   6.953   3.676   5.556
 8247SOL     OW25639   0.954   0.605   1.803
 8247SOL    HW125640   1.014   0.525   1.795
 8247SOL    HW225641   0.982   0.674   1.736
 8248SOL     OW25642   5.752   4.643   2.931
 8248SOL    HW125643   5.664   4.614   2.894
 8248SOL    HW225644   5.811   4.563   2.943
 8249SOL     OW25645   2.108   3.600   4.748
 8249SOL    HW125646   2.128   3.666   4.676
 8249SOL    HW225647   2.111   3.646   4.837
 8250SOL     OW25648   3.246   4.109   2.446
 8250SOL    HW125649   3.336   4.135   2.481
 8250SOL    HW225650   3.197   4.191   2.416
 8251SOL     OW25651   6.133   2.599   4.551
 8251SOL    HW125652   6.153   2.597   4.649
 8251SOL    HW225653   6.048   2.650   4.535
 8252SOL     OW25654   3.403   3.329   6.967
 8252SOL    HW125655   3.482   3.385   6.993
 8252SOL    HW225656   3.371   3.278   0.026
 8253SOL     OW25657   3.888   3.879   4.926
 8253SOL    HW125658   3.855   3.921   4.841
 8253SOL    HW225659   3.981   3.844   4.912
 8254SOL     OW25660   4.314   4.641   4.604
 8254SOL    HW125661   4.340   4.719   4.547
 8254SOL    HW225662   4.296   4.672   4.697
 8255SOL     OW25663   3.803   6.061   4.856
 8255SOL    HW125664   3.777   6.151   4.891
 8255SOL    HW225665   3.765   5.990   4.916
 8256SOL     OW25666   6.207   0.317   2.340
 8256SOL    HW125667   6.305   0.297   2.345
 8256SOL    HW225668   6.178   0.361   2.425
 8257SOL     OW25669   6.452   3.825   3.609
 8257SOL    HW125670   6.416   3.918   3.598
 8257SOL    HW225671   6.421   3.787   3.696
 8258SOL     OW25672   5.371   1.415   0.288
 8258SOL    HW125673   5.332   1.323   0.286
 8258SOL    HW225674   5.410   1.433   0.379
 8259SOL     OW25675   4.135   1.879   3.924
 8259SOL    HW125676   4.130   1.961   3.982
 8259SOL    HW225677   4.215   1.886   3.864
 8260SOL     OW25678   3.146   0.551   1.054
 8260SOL    HW125679   3.129   0.592   0.964
 8260SOL    HW225680   3.141   0.623   1.124
 8261SOL     OW25681   6.295   1.349   1.477
 8261SOL    HW125682   6.343   1.264   1.454
 8261SOL    HW225683   6.209   1.326   1.523
 8262SOL     OW25684   0.985   2.626   0.776
 8262SOL    HW125685   1.072   2.624   0.826
 8262SOL    HW225686   0.995   2.578   0.689
 8263SOL     OW25687   0.157   2.088   0.279
 8263SOL    HW125688   0.212   2.171   0.281
 8263SOL    HW225689   0.159   2.048   0.187
 8264SOL     OW25690   1.586   5.859   2.356
 8264SOL    HW125691   1.494   5.827   2.332
 8264SOL    HW225692   1.584   5.957   2.373
 8265SOL     OW25693   1.182   6.732   1.471
 8265SOL    HW125694   1.281   6.719   1.474
 8265SOL    HW225695   1.141   6.666   1.409
 8266SOL     OW25696   1.934   0.687   3.032
 8266SOL    HW125697   1.905   0.633   3.111
 8266SOL    HW225698   2.012   0.642   2.989
 8267SOL     OW25699   1.646   2.943   1.050
 8267SOL    HW125700   1.646   2.909   0.955
 8267SOL    HW225701   1.670   2.868   1.111
 8268SOL     OW25702   2.415   6.317   6.335
 8268SOL    HW125703   2.437   6.385   6.265
 8268SOL    HW225704   2.399   6.229   6.291
 8269SOL     OW25705   5.710   1.236   1.381
 8269SOL    HW125706   5.750   1.284   1.459
 8269SOL    HW225707   5.671   1.303   1.317
 8270SOL     OW25708   2.769   0.110   5.055
 8270SOL    HW125709   2.751   0.182   4.988
 8270SOL    HW225710   2.771   0.151   5.147
 8271SOL     OW25711   6.993   0.677   2.151
 8271SOL    HW125712   0.050   0.730   2.188
 8271SOL    HW225713   7.016   0.647   2.058
 8272SOL     OW25714   5.135   1.133   1.112
 8272SOL    HW125715   5.115   1.104   1.018
 8272SOL    HW225716   5.202   1.071   1.153
 8273SOL     OW25717   1.788   6.129   0.901
 8273SOL    HW125718   1.735   6.044   0.902
 8273SOL    HW225719   1.782   6.171   0.811
 8274SOL     OW25720   4.705   4.801   3.500
 8274SOL    HW125721   4.760   4.819   3.581
 8274SOL    HW225722   4.760   4.750   3.433
 8275SOL     OW25723   4.261   1.203   5.987
 8275SOL    HW125724   4.353   1.174   6.013
 8275SOL    HW225725   4.243   1.178   5.892
 8276SOL     OW25726   1.042   2.284   3.881
 8276SOL    HW125727   1.042   2.195   3.835
 8276SOL    HW225728   1.131   2.299   3.924
 8277SOL     OW25729   0.130   0.545   6.868
 8277SOL    HW125730   0.139   0.538   6.967
 8277SOL    HW225731   0.041   0.510   6.839
 8278SOL     OW25732   2.613   1.793   6.104
 8278SOL    HW125733   2.610   1.702   6.144
 8278SOL    HW225734   2.534   1.806   6.043
 8279SOL     OW25735   1.338   0.282   4.217
 8279SOL    HW125736   1.326   0.379   4.236
 8279SOL    HW225737   1.432   0.265   4.187
 8280SOL     OW25738   2.476   2.914   0.530
 8280SOL    HW125739   2.416   2.989   0.556
 8280SOL    HW225740   2.421   2.837   0.497
 8281SOL     OW25741   1.434   4.862   1.388
 8281SOL    HW125742   1.384   4.808   1.319
 8281SOL    HW225743   1.517   4.899   1.347
 8282SOL     OW25744   5.478   3.637   6.623
 8282SOL    HW125745   5.539   3.650   6.545
 8282SOL    HW225746   5.509   3.557   6.676
 8283SOL     OW25747   1.100   4.706   6.687
 8283SOL    HW125748   1.002   4.685   6.689
 8283SOL    HW225749   1.147   4.644   6.624
 8284SOL     OW25750   1.219   3.888   1.431
 8284SOL    HW125751   1.191   3.879   1.526
 8284SOL    HW225752   1.148   3.851   1.371
 8285SOL     OW25753   3.834   2.942   4.911
 8285SOL    HW125754   3.746   2.950   4.865
 8285SOL    HW225755   3.858   2.846   4.923
 8286SOL     OW25756   5.241   3.496   6.638
 8286SOL    HW125757   5.283   3.416   6.680
 8286SOL    HW225758   5.309   3.569   6.629
 8287SOL     OW25759   2.080   5.245   4.250
 8287SOL    HW125760   2.106   5.169   4.310
 8287SOL    HW225761   2.127   5.328   4.277
 8288SOL     OW25762   2.806   1.674   1.669
 8288SOL    HW125763   2.833   1.641   1.759
 8288SOL    HW225764   2.723   1.728   1.677
 8289SOL     OW25765   0.329   6.581   1.612
 8289SOL    HW125766   0.377   6.572   1.700
 8289SOL    HW225767   0.355   6.668   1.569
 8290SOL     OW25768   5.966   0.901   0.470
 8290SOL    HW125769   6.024   0.840   0.415
 8290SOL    HW225770   6.020   0.977   0.505
 8291SOL     OW25771   4.577   5.775   6.544
 8291SOL    HW125772   4.648   5.763   6.613
 8291SOL    HW225773   4.493   5.730   6.573
 8292SOL     OW25774   2.598   6.141   6.820
 8292SOL    HW125775   2.574   6.046   6.800
 8292SOL    HW225776   2.660   6.174   6.749
 8293SOL     OW25777   3.206   6.989   0.205
 8293SOL    HW125778   3.224   0.064   0.181
 8293SOL    HW225779   3.281   6.954   0.261
 8294SOL     OW25780   5.859   4.479   5.210
 8294SOL    HW125781   5.936   4.420   5.233
 8294SOL    HW225782   5.894   4.565   5.171
 8295SOL     OW25783   5.405   5.197   1.739
 8295SOL    HW125784   5.388   5.117   1.796
 8295SOL    HW225785   5.328   5.211   1.677
 8296SOL     OW25786   2.607   6.786   6.444
 8296SOL    HW125787   2.640   6.763   6.535
 8296SOL    HW225788   2.554   6.871   6.447
 8297SOL     OW25789   6.619   2.761   2.338
 8297SOL    HW125790   6.554   2.743   2.412
 8297SOL    HW225791   6.712   2.756   2.374
 8298SOL     OW25792   6.163   2.198   1.248
 8298SOL    HW125793   6.231   2.239   1.186
 8298SOL    HW225794   6.087   2.262   1.262
 8299SOL     OW25795   7.002   2.540   1.933
 8299SOL    HW125796   0.021   2.625   1.967
 8299SOL    HW225797   0.038   2.505   1.858
 8300SOL     OW25798   0.975   5.718   5.487
 8300SOL    HW125799   1.052   5.674   5.440
 8300SOL    HW225800   0.918   5.765   5.420
 8301SOL     OW25801   4.244   1.862   1.708
 8301SOL    HW125802   4.239   1.941   1.647
 8301SOL    HW225803   4.186   1.789   1.673
 8302SOL     OW25804   5.492   6.023   6.298
 8302SOL    HW125805   5.439   5.959   6.244
 8302SOL    HW225806   5.547   6.081   6.237
 8303SOL     OW25807   6.817   0.816   3.708
 8303SOL    HW125808   6.774   0.906   3.698
 8303SOL    HW225809   6.876   0.798   3.629
 8304SOL     OW25810   1.189   2.964   6.943
 8304SOL    HW125811   1.212   2.937   0.017
 8304SOL    HW225812   1.092   2.947   6.926
 8305SOL     OW25813   3.859   5.041   4.425
 8305SOL    HW125814   3.800   4.998   4.357
 8305SOL    HW225815   3.950   5.056   4.387
 8306SOL     OW25816   0.232   2.817   5.135
 8306SOL    HW125817   0.150   2.789   5.186
 8306SOL    HW225818   0.252   2.750   5.064
 8307SOL     OW25819   4.216   5.306   1.440
 8307SOL    HW125820   4.193   5.403   1.451
 8307SOL    HW225821   4.160   5.267   1.367
 8308SOL     OW25822   4.183   6.138   1.403
 8308SOL    HW125823   4.104   6.101   1.452
 8308SOL    HW225824   4.164   6.232   1.375
 8309SOL     OW25825   6.202   5.714   3.325
 8309SOL    HW125826   6.113   5.735   3.284
 8309SOL    HW225827   6.257   5.797   3.329
 8310SOL     OW25828   1.063   3.967   0.476
 8310SOL    HW125829   1.153   3.924   0.460
 8310SOL    HW225830   1.063   4.059   0.438
 8311SOL     OW25831   0.543   1.022   5.082
 8311SOL    HW125832   0.624   1.061   5.125
 8311SOL    HW225833   0.570   0.952   5.016
 8312SOL     OW25834   4.296   5.905   1.267
 8312SOL    HW125835   4.389   5.918   1.300
 8312SOL    HW225836   4.240   5.984   1.292
 8313SOL     OW25837   4.742   1.023   2.168
 8313SOL    HW125838   4.710   1.059   2.081
 8313SOL    HW225839   4.828   1.066   2.192
 8314SOL     OW25840   4.786   6.545   1.260
 8314SOL    HW125841   4.698   6.581   1.229
 8314SOL    HW225842   4.831   6.498   1.184
 8315SOL     OW25843   3.866   3.597   1.189
 8315SOL    HW125844   3.777   3.602   1.235
 8315SOL    HW225845   3.937   3.577   1.257
 8316SOL     OW25846   1.161   2.553   1.550
 8316SOL    HW125847   1.122   2.461   1.555
 8316SOL    HW225848   1.101   2.617   1.597
 8317SOL     OW25849   2.142   2.851   2.159
 8317SOL    HW125850   2.142   2.934   2.103
 8317SOL    HW225851   2.049   2.815   2.165
 8318SOL     OW25852   4.247   1.695   4.755
 8318SOL    HW125853   4.244   1.708   4.854
 8318SOL    HW225854   4.204   1.774   4.710
 8319SOL     OW25855   3.271   1.626   6.796
 8319SOL    HW125856   3.201   1.579   6.741
 8319SOL    HW225857   3.346   1.655   6.736
 8320SOL     OW25858   3.719   4.863   1.309
 8320SOL    HW125859   3.659   4.838   1.385
 8320SOL    HW225860   3.772   4.944   1.334
 8321SOL     OW25861   0.054   1.525   0.021
 8321SOL    HW125862   0.095   1.438   0.048
 8321SOL    HW225863   6.975   1.521   0.033
 8322SOL     OW25864   0.400   0.122   7.004
 8322SOL    HW125865   0.365   0.205   6.961
 8322SOL    HW225866   0.339   0.094   0.059
 8323SOL     OW25867   6.629   6.421   2.995
 8323SOL    HW125868   6.606   6.386   3.085
 8323SOL    HW225869   6.584   6.509   2.980
 8324SOL     OW25870   6.163   0.532   1.914
 8324SOL    HW125871   6.220   0.549   1.834
 8324SOL    HW225872   6.188   0.596   1.986
 8325SOL     OW25873   3.260   3.279   4.944
 8325SOL    HW125874   3.297   3.282   4.851
 8325SOL    HW225875   3.193   3.205   4.951
 8326SOL     OW25876   4.530   3.143   5.414
 8326SOL    HW125877   4.441   3.100   5.398
 8326SOL    HW225878   4.537   3.227   5.360
 8327SOL     OW25879   5.370   2.730   6.214
 8327SOL    HW125880   5.434   2.741   6.138
 8327SOL    HW225881   5.319   2.815   6.227
 8328SOL     OW25882   2.523   4.323   6.343
 8328SOL    HW125883   2.425   4.303   6.348
 8328SOL    HW225884   2.547   4.352   6.251
 8329SOL     OW25885   0.041   3.873   6.183
 8329SOL    HW125886   0.093   3.788   6.176
 8329SOL    HW225887   0.103   3.950   6.195
 8330SOL     OW25888   2.059   6.750   0.762
 8330SOL    HW125889   2.129   6.791   0.820
 8330SOL    HW225890   1.978   6.728   0.817
 8331SOL     OW25891   2.718   0.745   1.194
 8331SOL    HW125892   2.730   0.831   1.145
 8331SOL    HW225893   2.622   0.718   1.192
 8332SOL     OW25894   4.952   5.050   2.403
 8332SOL    HW125895   4.870   4.999   2.428
 8332SOL    HW225896   5.026   4.986   2.383
 8333SOL     OW25897   0.834   6.291   6.638
 8333SOL    HW125898   0.796   6.338   6.558
 8333SOL    HW225899   0.779   6.313   6.718
 8334SOL     OW25900   4.854   1.828   3.810
 8334SOL    HW125901   4.807   1.821   3.721
 8334SOL    HW225902   4.899   1.741   3.831
 8335SOL     OW25903   6.501   5.231   5.568
 8335SOL    HW125904   6.407   5.206   5.591
 8335SOL    HW225905   6.563   5.204   5.642
 8336SOL     OW25906   0.144   0.181   1.737
 8336SOL    HW125907   0.163   0.167   1.834
 8336SOL    HW225908   0.061   0.237   1.727
 8337SOL     OW25909   0.655   6.423   3.087
 8337SOL    HW125910   0.586   6.352   3.097
 8337SOL    HW225911   0.731   6.388   3.032
 8338SOL     OW25912   1.582   4.983   2.114
 8338SOL    HW125913   1.630   4.931   2.042
 8338SOL    HW225914   1.597   4.939   2.202
 8339SOL     OW25915   5.742   0.477   1.376
 8339SOL    HW125916   5.725   0.410   1.448
 8339SOL    HW225917   5.661   0.533   1.363
 8340SOL     OW25918   5.064   3.998   0.910
 8340SOL    HW125919   5.024   3.941   0.839
 8340SOL    HW225920   5.163   4.002   0.898
 8341SOL     OW25921   2.807   6.265   7.009
 8341SOL    HW125922   2.789   6.193   6.942
 8341SOL    HW225923   2.720   6.297   0.027
 8342SOL     OW25924   3.922   0.885   1.309
 8342SOL    HW125925   4.002   0.849   1.261
 8342SOL    HW225926   3.885   0.962   1.258
 8343SOL     OW25927   0.934   4.951   6.601
 8343SOL    HW125928   0.974   4.860   6.608
 8343SOL    HW225929   0.918   4.974   6.505
 8344SOL     OW25930   4.848   0.186   5.458
 8344SOL    HW125931   4.753   0.162   5.435
 8344SOL    HW225932   4.883   0.250   5.390
 8345SOL     OW25933   5.361   1.999   3.547
 8345SOL    HW125934   5.266   1.972   3.562
 8345SOL    HW225935   5.381   2.081   3.600
 8346SOL     OW25936   3.078   4.705   0.325
 8346SOL    HW125937   3.068   4.780   0.390
 8346SOL    HW225938   3.066   4.740   0.232
 8347SOL     OW25939   3.463   6.971   4.714
 8347SOL    HW125940   3.398   6.914   4.763
 8347SOL    HW225941   3.434   6.981   4.619
 8348SOL     OW25942   1.431   6.956   1.684
 8348SOL    HW125943   1.386   0.022   1.658
 8348SOL    HW225944   1.524   6.954   1.648
 8349SOL     OW25945   6.106   5.505   1.343
 8349SOL    HW125946   6.012   5.531   1.322
 8349SOL    HW225947   6.132   5.426   1.287
 8350SOL     OW25948   4.644   1.123   4.454
 8350SOL    HW125949   4.602   1.033   4.441
 8350SOL    HW225950   4.713   1.137   4.383
 8351SOL     OW25951   4.831   5.148   4.431
 8351SOL    HW125952   4.765   5.222   4.440
 8351SOL    HW225953   4.886   5.142   4.515
 8352SOL     OW25954   6.877   6.904   1.970
 8352SOL    HW125955   6.899   6.839   1.898
 8352SOL    HW225956   6.961   6.940   2.010
 8353SOL     OW25957   5.827   3.876   1.999
 8353SOL    HW125958   5.812   3.967   1.961
 8353SOL    HW225959   5.780   3.808   1.943
 8354SOL     OW25960   3.464   0.883   6.719
 8354SOL    HW125961   3.380   0.871   6.771
 8354SOL    HW225962   3.542   0.889   6.782
 8355SOL     OW25963   3.263   0.563   6.823
 8355SOL    HW125964   3.326   0.605   6.889
 8355SOL    HW225965   3.273   0.609   6.735
 8356SOL     OW25966   1.461   6.714   0.554
 8356SOL    HW125967   1.407   6.675   0.480
 8356SOL    HW225968   1.557   6.685   0.545
 8357SOL     OW25969   3.632   6.846   5.952
 8357SOL    HW125970   3.564   6.831   6.023
 8357SOL    HW225971   3.625   6.774   5.883
 8358SOL     OW25972   1.265   2.640   4.911
 8358SOL    HW125973   1.174   2.602   4.923
 8358SOL    HW225974   1.260   2.723   4.855
 8359SOL     OW25975   3.178   6.296   4.361
 8359SOL    HW125976   3.222   6.303   4.451
 8359SOL    HW225977   3.234   6.343   4.293
 8360SOL     OW25978   3.136   6.269   2.172
 8360SOL    HW125979   3.193   6.202   2.219
 8360SOL    HW225980   3.180   6.359   2.175
 8361SOL     OW25981   1.858   0.527   1.877
 8361SOL    HW125982   1.837   0.591   1.951
 8361SOL    HW225983   1.949   0.547   1.841
 8362SOL     OW25984   2.206   2.274   0.650
 8362SOL    HW125985   2.233   2.182   0.624
 8362SOL    HW225986   2.284   2.322   0.690
 8363SOL     OW25987   0.492   2.905   6.828
 8363SOL    HW125988   0.544   2.939   6.906
 8363SOL    HW225989   0.554   2.893   6.750
 8364SOL     OW25990   6.758   3.439   3.352
 8364SOL    HW125991   6.756   3.451   3.252
 8364SOL    HW225992   6.759   3.529   3.396
 8365SOL     OW25993   1.533   4.087   1.735
 8365SOL    HW125994   1.556   4.110   1.640
 8365SOL    HW225995   1.565   3.994   1.755
 8366SOL     OW25996   3.959   5.551   2.457
 8366SOL    HW125997   3.877   5.586   2.502
 8366SOL    HW225998   3.936   5.467   2.407
 8367SOL     OW25999   3.723   6.208   3.959
 8367SOL    HW126000   3.793   6.178   4.024
 8367SOL    HW226001   3.648   6.252   4.008
 8368SOL     OW26002   2.650   6.344   5.992
 8368SOL    HW126003   2.627   6.305   5.903
 8368SOL    HW226004   2.733   6.301   6.028
 8369SOL     OW26005   2.141   0.538   0.037
 8369SOL    HW126006   2.128   0.549   6.958
 8369SOL    HW226007   2.214   0.471   0.053
 8370SOL     OW26008   2.979   2.199   5.714
 8370SOL    HW126009   3.068   2.201   5.668
 8370SOL    HW226010   2.956   2.105   5.738
 8371SOL     OW26011   1.718   4.438   0.996
 8371SOL    HW126012   1.631   4.425   0.948
 8371SOL    HW226013   1.759   4.349   1.015
 8372SOL     OW26014   0.422   6.261   3.111
 8372SOL    HW126015   0.367   6.326   3.163
 8372SOL    HW226016   0.414   6.279   3.013
 8373SOL     OW26017   0.801   0.460   4.980
 8373SOL    HW126018   0.877   0.395   4.971
 8373SOL    HW226019   0.786   0.505   4.892
 8374SOL     OW26020   6.427   0.516   6.403
 8374SOL    HW126021   6.521   0.547   6.390
 8374SOL    HW226022   6.372   0.539   6.323
 8375SOL     OW26023   3.322   6.708   5.611
 8375SOL    HW126024   3.310   6.610   5.629
 8375SOL    HW226025   3.251   6.738   5.546
 8376SOL     OW26026   2.143   6.725   4.277
 8376SOL    HW126027   2.209   6.657   4.247
 8376SOL    HW226028   2.093   6.760   4.198
 8377SOL     OW26029   5.280   5.961   1.357
 8377SOL    HW126030   5.321   5.944   1.268
 8377SOL    HW226031   5.271   5.874   1.406
 8378SOL     OW26032   4.585   4.573   2.967
 8378SOL    HW126033   4.650   4.649   2.965
 8378SOL    HW226034   4.634   4.488   2.988
 8379SOL     OW26035   6.901   2.781   0.749
 8379SOL    HW126036   6.974   2.745   0.806
 8379SOL    HW226037   6.822   2.719   0.753
 8380SOL     OW26038   6.672   1.408   2.375
 8380SOL    HW126039   6.697   1.478   2.442
 8380SOL    HW226040   6.582   1.371   2.398
 8381SOL     OW26041   0.663   4.249   4.823
 8381SOL    HW126042   0.639   4.157   4.854
 8381SOL    HW226043   0.704   4.244   4.732
 8382SOL     OW26044   1.131   1.432   2.125
 8382SOL    HW126045   1.207   1.414   2.187
 8382SOL    HW226046   1.098   1.525   2.139
 8383SOL     OW26047   2.357   0.855   6.332
 8383SOL    HW126048   2.302   0.819   6.407
 8383SOL    HW226049   2.402   0.939   6.361
 8384SOL     OW26050   0.188   6.874   0.136
 8384SOL    HW126051   0.195   6.781   0.171
 8384SOL    HW226052   0.232   6.937   0.201
 8385SOL     OW26053   5.914   2.686   1.403
 8385SOL    HW126054   5.978   2.693   1.479
 8385SOL    HW226055   5.825   2.725   1.430
 8386SOL     OW26056   0.929   4.092   2.437
 8386SOL    HW126057   0.895   4.180   2.403
 8386SOL    HW226058   0.852   4.039   2.475
 8387SOL     OW26059   0.736   1.497   1.105
 8387SOL    HW126060   0.798   1.455   1.039
 8387SOL    HW226061   0.777   1.581   1.140
 8388SOL     OW26062   1.709   6.237   0.663
 8388SOL    HW126063   1.762   6.315   0.628
 8388SOL    HW226064   1.613   6.262   0.668
 8389SOL     OW26065   5.733   3.464   2.436
 8389SOL    HW126066   5.789   3.541   2.467
 8389SOL    HW226067   5.762   3.436   2.345
 8390SOL     OW26068   3.772   1.648   6.407
 8390SOL    HW126069   3.730   1.690   6.488
 8390SOL    HW226070   3.733   1.688   6.324
 8391SOL     OW26071   5.998   6.099   0.546
 8391SOL    HW126072   6.075   6.131   0.602
 8391SOL    HW226073   5.923   6.069   0.605
 8392SOL     OW26074   5.949   3.546   3.752
 8392SOL    HW126075   6.023   3.479   3.746
 8392SOL    HW226076   5.879   3.526   3.685
 8393SOL     OW26077   5.805   0.885   2.636
 8393SOL    HW126078   5.849   0.952   2.696
 8393SOL    HW226079   5.801   0.921   2.543
 8394SOL     OW26080   5.812   3.010   2.230
 8394SOL    HW126081   5.893   3.041   2.281
 8394SOL    HW226082   5.829   3.018   2.132
 8395SOL     OW26083   3.198   6.892   5.776
 8395SOL    HW126084   3.200   6.966   5.709
 8395SOL    HW226085   3.258   6.818   5.746
 8396SOL     OW26086   4.486   4.940   3.370
 8396SOL    HW126087   4.502   4.964   3.274
 8396SOL    HW226088   4.563   4.885   3.403
 8397SOL     OW26089   0.802   1.030   3.661
 8397SOL    HW126090   0.728   1.053   3.597
 8397SOL    HW226091   0.831   0.936   3.645
 8398SOL     OW26092   4.957   2.262   6.530
 8398SOL    HW126093   5.049   2.265   6.570
 8398SOL    HW226094   4.955   2.317   6.446
 8399SOL     OW26095   6.068   6.490   6.640
 8399SOL    HW126096   6.150   6.520   6.689
 8399SOL    HW226097   5.997   6.561   6.647
 8400SOL     OW26098   1.500   2.239   4.178
 8400SOL    HW126099   1.454   2.273   4.096
 8400SOL    HW226100   1.599   2.234   4.161
 8401SOL     OW26101   2.109   1.119   5.600
 8401SOL    HW126102   2.161   1.056   5.658
 8401SOL    HW226103   2.059   1.184   5.657
 8402SOL     OW26104   5.624   1.699   5.870
 8402SOL    HW126105   5.635   1.635   5.794
 8402SOL    HW226106   5.663   1.788   5.845
 8403SOL     OW26107   1.020   3.872   4.614
 8403SOL    HW126108   1.013   3.776   4.588
 8403SOL    HW226109   0.930   3.915   4.607
 8404SOL     OW26110   3.479   0.473   5.763
 8404SOL    HW126111   3.439   0.409   5.697
 8404SOL    HW226112   3.474   0.432   5.854
 8405SOL     OW26113   3.377   1.627   6.011
 8405SOL    HW126114   3.446   1.685   5.967
 8405SOL    HW226115   3.380   1.640   6.110
 8406SOL     OW26116   3.990   0.110   0.657
 8406SOL    HW126117   3.943   0.099   0.745
 8406SOL    HW226118   3.944   0.181   0.603
 8407SOL     OW26119   4.512   6.333   3.498
 8407SOL    HW126120   4.543   6.244   3.532
 8407SOL    HW226121   4.573   6.405   3.532
 8408SOL     OW26122   5.202   5.572   0.193
 8408SOL    HW126123   5.201   5.473   0.177
 8408SOL    HW226124   5.136   5.616   0.133
 8409SOL     OW26125   4.753   2.237   1.902
 8409SOL    HW126126   4.733   2.145   1.870
 8409SOL    HW226127   4.678   2.298   1.876
 8410SOL     OW26128   6.113   2.214   1.595
 8410SOL    HW126129   6.156   2.165   1.520
 8410SOL    HW226130   6.154   2.305   1.605
 8411SOL     OW26131   0.520   5.919   0.819
 8411SOL    HW126132   0.577   5.923   0.737
 8411SOL    HW226133   0.449   5.989   0.813
 8412SOL     OW26134   4.074   2.915   0.987
 8412SOL    HW126135   4.063   2.859   1.069
 8412SOL    HW226136   3.998   2.899   0.925
 8413SOL     OW26137   4.260   5.439   6.228
 8413SOL    HW126138   4.190   5.508   6.244
 8413SOL    HW226139   4.268   5.380   6.309
 8414SOL     OW26140   2.093   1.018   2.272
 8414SOL    HW126141   2.042   1.076   2.336
 8414SOL    HW226142   2.175   0.983   2.316
 8415SOL     OW26143   2.385   6.580   4.169
 8415SOL    HW126144   2.359   6.558   4.075
 8415SOL    HW226145   2.479   6.615   4.171
 8416SOL     OW26146   6.422   1.535   4.985
 8416SOL    HW126147   6.361   1.483   4.924
 8416SOL    HW226148   6.435   1.484   5.070
 8417SOL     OW26149   2.010   3.133   5.434
 8417SOL    HW126150   2.092   3.150   5.380
 8417SOL    HW226151   1.985   3.216   5.484
 8418SOL     OW26152   0.462   5.707   1.883
 8418SOL    HW126153   0.435   5.729   1.977
 8418SOL    HW226154   0.554   5.668   1.883
 8419SOL     OW26155   5.977   1.502   3.260
 8419SOL    HW126156   6.003   1.569   3.191
 8419SOL    HW226157   5.942   1.549   3.341
 8420SOL     OW26158   3.269   6.489   2.186
 8420SOL    HW126159   3.359   6.503   2.228
 8420SOL    HW226160   3.270   6.530   2.094
 8421SOL     OW26161   3.088   5.401   6.813
 8421SOL    HW126162   3.030   5.357   6.745
 8421SOL    HW226163   3.049   5.390   6.904
 8422SOL     OW26164   4.166   2.205   2.639
 8422SOL    HW126165   4.149   2.112   2.672
 8422SOL    HW226166   4.223   2.202   2.557
 8423SOL     OW26167   4.563   4.241   5.504
 8423SOL    HW126168   4.503   4.206   5.576
 8423SOL    HW226169   4.507   4.281   5.431
 8424SOL     OW26170   2.145   1.728   3.605
 8424SOL    HW126171   2.208   1.785   3.658
 8424SOL    HW226172   2.193   1.645   3.575
 8425SOL     OW26173   3.849   3.595   4.121
 8425SOL    HW126174   3.817   3.543   4.200
 8425SOL    HW226175   3.782   3.665   4.098
 8426SOL     OW26176   3.622   3.267   2.492
 8426SOL    HW126177   3.592   3.210   2.415
 8426SOL    HW226178   3.561   3.253   2.570
 8427SOL     OW26179   3.286   3.805   3.317
 8427SOL    HW126180   3.198   3.770   3.282
 8427SOL    HW226181   3.338   3.844   3.241
 8428SOL     OW26182   0.468   6.708   1.223
 8428SOL    HW126183   0.442   6.740   1.314
 8428SOL    HW226184   0.556   6.749   1.197
 8429SOL     OW26185   1.706   5.161   6.046
 8429SOL    HW126186   1.634   5.214   6.001
 8429SOL    HW226187   1.736   5.208   6.129
 8430SOL     OW26188   3.733   4.925   4.177
 8430SOL    HW126189   3.814   4.868   4.158
 8430SOL    HW226190   3.716   4.985   4.100
 8431SOL     OW26191   3.296   4.083   6.799
 8431SOL    HW126192   3.330   4.154   6.861
 8431SOL    HW226193   3.249   4.125   6.722
 8432SOL     OW26194   0.125   5.179   5.592
 8432SOL    HW126195   0.132   5.143   5.498
 8432SOL    HW226196   0.030   5.203   5.612
 8433SOL     OW26197   4.187   2.603   0.916
 8433SOL    HW126198   4.103   2.639   0.956
 8433SOL    HW226199   4.265   2.658   0.945
 8434SOL     OW26200   2.266   5.912   4.326
 8434SOL    HW126201   2.281   6.011   4.322
 8434SOL    HW226202   2.274   5.881   4.421
 8435SOL     OW26203   5.315   0.460   3.196
 8435SOL    HW126204   5.322   0.369   3.236
 8435SOL    HW226205   5.404   0.505   3.200
 8436SOL     OW26206   2.701   6.115   3.885
 8436SOL    HW126207   2.775   6.159   3.834
 8436SOL    HW226208   2.716   6.016   3.887
 8437SOL     OW26209   1.956   2.586   2.472
 8437SOL    HW126210   1.883   2.521   2.492
 8437SOL    HW226211   1.918   2.679   2.470
 8438SOL     OW26212   2.129   3.792   3.103
 8438SOL    HW126213   2.058   3.843   3.151
 8438SOL    HW226214   2.201   3.854   3.074
 8439SOL     OW26215   6.545   5.239   3.308
 8439SOL    HW126216   6.522   5.277   3.219
 8439SOL    HW226217   6.561   5.140   3.300
 8440SOL     OW26218   2.302   2.049   3.602
 8440SOL    HW126219   2.338   1.982   3.668
 8440SOL    HW226220   2.322   2.017   3.509
 8441SOL     OW26221   5.247   5.636   5.782
 8441SOL    HW126222   5.155   5.611   5.812
 8441SOL    HW226223   5.309   5.559   5.795
 8442SOL     OW26224   3.806   0.780   5.273
 8442SOL    HW126225   3.894   0.736   5.252
 8442SOL    HW226226   3.822   0.865   5.323
 8443SOL     OW26227   2.144   5.129   3.752
 8443SOL    HW126228   2.092   5.064   3.696
 8443SOL    HW226229   2.117   5.119   3.847
 8444SOL     OW26230   3.252   6.654   3.458
 8444SOL    HW126231   3.208   6.743   3.468
 8444SOL    HW226232   3.351   6.664   3.469
 8445SOL     OW26233   2.513   0.694   0.577
 8445SOL    HW126234   2.516   0.777   0.633
 8445SOL    HW226235   2.596   0.640   0.593
 8446SOL     OW26236   6.732   6.151   4.863
 8446SOL    HW126237   6.740   6.139   4.962
 8446SOL    HW226238   6.725   6.249   4.842
 8447SOL     OW26239   3.695   1.625   1.883
 8447SOL    HW126240   3.733   1.546   1.835
 8447SOL    HW226241   3.598   1.634   1.861
 8448SOL     OW26242   4.821   6.164   3.747
 8448SOL    HW126243   4.854   6.107   3.822
 8448SOL    HW226244   4.749   6.115   3.697
 8449SOL     OW26245   0.658   3.342   4.015
 8449SOL    HW126246   0.713   3.324   3.933
 8449SOL    HW226247   0.567   3.304   4.003
 8450SOL     OW26248   0.539   0.764   1.185
 8450SOL    HW126249   0.465   0.830   1.195
 8450SOL    HW226250   0.519   0.683   1.240
 8451SOL     OW26251   3.134   1.078   0.724
 8451SOL    HW126252   3.090   0.996   0.688
 8451SOL    HW226253   3.224   1.090   0.681
 8452SOL     OW26254   4.758   2.298   4.151
 8452SOL    HW126255   4.735   2.393   4.170
 8452SOL    HW226256   4.786   2.290   4.055
 8453SOL     OW26257   0.435   5.313   6.773
 8453SOL    HW126258   0.400   5.291   6.682
 8453SOL    HW226259   0.515   5.256   6.793
 8454SOL     OW26260   0.466   4.746   0.202
 8454SOL    HW126261   0.409   4.806   0.260
 8454SOL    HW226262   0.407   4.682   0.153
 8455SOL     OW26263   7.015   1.762   2.930
 8455SOL    HW126264   6.994   1.809   3.015
 8455SOL    HW226265   6.931   1.750   2.877
 8456SOL     OW26266   4.565   0.715   3.401
 8456SOL    HW126267   4.651   0.755   3.432
 8456SOL    HW226268   4.498   0.788   3.385
 8457SOL     OW26269   6.524   6.354   4.866
 8457SOL    HW126270   6.545   6.426   4.932
 8457SOL    HW226271   6.586   6.361   4.788
 8458SOL     OW26272   1.104   0.470   0.724
 8458SOL    HW126273   1.014   0.438   0.694
 8458SOL    HW226274   1.119   0.440   0.819
 8459SOL     OW26275   2.019   5.978   3.158
 8459SOL    HW126276   2.064   5.906   3.212
 8459SOL    HW226277   1.943   6.016   3.210
 8460SOL     OW26278   4.314   3.782   5.268
 8460SOL    HW126279   4.237   3.846   5.279
 8460SOL    HW226280   4.400   3.833   5.273
 8461SOL     OW26281   0.593   2.250   5.517
 8461SOL    HW126282   0.690   2.273   5.511
 8461SOL    HW226283   0.554   2.250   5.425
 8462SOL     OW26284   3.110   1.725   0.875
 8462SOL    HW126285   3.161   1.706   0.792
 8462SOL    HW226286   3.174   1.740   0.951
 8463SOL     OW26287   6.495   0.057   1.836
 8463SOL    HW126288   6.398   0.034   1.827
 8463SOL    HW226289   6.528   0.099   1.752
 8464SOL     OW26290   5.508   3.841   4.413
 8464SOL    HW126291   5.516   3.811   4.318
 8464SOL    HW226292   5.487   3.939   4.416
 8465SOL     OW26293   1.399   1.951   0.599
 8465SOL    HW126294   1.413   1.895   0.518
 8465SOL    HW226295   1.340   2.029   0.576
 8466SOL     OW26296   1.155   5.936   3.862
 8466SOL    HW126297   1.070   5.906   3.905
 8466SOL    HW226298   1.173   5.878   3.782
 8467SOL     OW26299   2.958   5.969   0.590
 8467SOL    HW126300   2.917   5.934   0.506
 8467SOL    HW226301   3.019   5.900   0.629
 8468SOL     OW26302   3.729   2.057   0.764
 8468SOL    HW126303   3.675   2.094   0.840
 8468SOL    HW226304   3.764   2.133   0.708
 8469SOL     OW26305   3.020   3.470   6.590
 8469SOL    HW126306   3.098   3.464   6.652
 8469SOL    HW226307   3.053   3.473   6.495
 8470SOL     OW26308   2.102   3.015   1.680
 8470SOL    HW126309   2.011   3.021   1.637
 8470SOL    HW226310   2.146   3.105   1.675
 8471SOL     OW26311   2.638   0.395   3.753
 8471SOL    HW126312   2.665   0.321   3.815
 8471SOL    HW226313   2.610   0.356   3.665
 8472SOL     OW26314   0.481   6.944   4.566
 8472SOL    HW126315   0.398   6.991   4.536
 8472SOL    HW226316   0.542   6.929   4.488
 8473SOL     OW26317   0.100   5.571   6.868
 8473SOL    HW126318   0.043   5.630   6.811
 8473SOL    HW226319   0.194   5.571   6.833
 8474SOL     OW26320   2.980   3.209   1.798
 8474SOL    HW126321   3.018   3.117   1.808
 8474SOL    HW226322   2.977   3.254   1.887
 8475SOL     OW26323   6.295   1.782   2.643
 8475SOL    HW126324   6.285   1.881   2.640
 8475SOL    HW226325   6.208   1.741   2.670
 8476SOL     OW26326   6.244   6.987   1.813
 8476SOL    HW126327   6.195   0.054   1.809
 8476SOL    HW226328   6.182   6.915   1.846
 8477SOL     OW26329   2.889   6.633   1.222
 8477SOL    HW126330   2.859   6.572   1.296
 8477SOL    HW226331   2.842   6.608   1.137
 8478SOL     OW26332   1.739   0.606   5.705
 8478SOL    HW126333   1.725   0.696   5.744
 8478SOL    HW226334   1.823   0.566   5.742
 8479SOL     OW26335   6.111   0.754   0.278
 8479SOL    HW126336   6.096   0.716   0.186
 8479SOL    HW226337   6.208   0.775   0.289
 8480SOL     OW26338   3.286   1.382   1.396
 8480SOL    HW126339   3.376   1.410   1.429
 8480SOL    HW226340   3.231   1.463   1.376
 8481SOL     OW26341   3.933   1.367   4.325
 8481SOL    HW126342   3.943   1.456   4.281
 8481SOL    HW226343   4.023   1.329   4.344
 8482SOL     OW26344   2.085   0.134   2.263
 8482SOL    HW126345   2.044   0.176   2.344
 8482SOL    HW226346   2.068   0.191   2.183
 8483SOL     OW26347   3.299   5.456   2.845
 8483SOL    HW126348   3.390   5.497   2.843
 8483SOL    HW226349   3.307   5.357   2.847
 8484SOL     OW26350   0.114   4.746   3.016
 8484SOL    HW126351   0.065   4.689   2.950
 8484SOL    HW226352   0.122   4.839   2.980
 8485SOL     OW26353   1.894   3.738   0.339
 8485SOL    HW126354   1.981   3.759   0.384
 8485SOL    HW226355   1.897   3.771   0.245
 8486SOL     OW26356   5.244   1.185   2.830
 8486SOL    HW126357   5.166   1.194   2.767
 8486SOL    HW226358   5.283   1.094   2.821
 8487SOL     OW26359   5.234   0.037   0.791
 8487SOL    HW126360   5.299   0.053   0.716
 8487SOL    HW226361   5.145   0.013   0.753
 8488SOL     OW26362   5.803   5.570   4.967
 8488SOL    HW126363   5.756   5.613   5.044
 8488SOL    HW226364   5.737   5.526   4.906
 8489SOL     OW26365   5.770   5.641   1.313
 8489SOL    HW126366   5.705   5.566   1.320
 8489SOL    HW226367   5.760   5.701   1.392
 8490SOL     OW26368   4.701   5.771   3.332
 8490SOL    HW126369   4.636   5.843   3.306
 8490SOL    HW226370   4.663   5.682   3.306
 8491SOL     OW26371   2.532   0.441   1.573
 8491SOL    HW126372   2.486   0.378   1.635
 8491SOL    HW226373   2.620   0.402   1.544
 8492SOL     OW26374   4.889   3.757   5.527
 8492SOL    HW126375   4.964   3.726   5.585
 8492SOL    HW226376   4.890   3.706   5.441
 8493SOL     OW26377   3.301   1.794   0.304
 8493SOL    HW126378   3.284   1.767   0.209
 8493SOL    HW226379   3.218   1.835   0.342
 8494SOL     OW26380   1.877   4.882   6.632
 8494SOL    HW126381   1.833   4.934   6.558
 8494SOL    HW226382   1.914   4.797   6.596
 8495SOL     OW26383   6.959   3.095   1.105
 8495SOL    HW126384   6.969   3.162   1.179
 8495SOL    HW226385   6.963   3.142   1.017
 8496SOL     OW26386   0.720   1.723   3.371
 8496SOL    HW126387   0.770   1.646   3.330
 8496SOL    HW226388   0.641   1.746   3.313
 8497SOL     OW26389   5.407   5.860   4.231
 8497SOL    HW126390   5.378   5.892   4.321
 8497SOL    HW226391   5.436   5.764   4.237
 8498SOL     OW26392   0.123   6.384   1.661
 8498SOL    HW126393   0.077   6.351   1.579
 8498SOL    HW226394   0.184   6.459   1.637
 8499SOL     OW26395   2.484   5.162   6.656
 8499SOL    HW126396   2.512   5.067   6.673
 8499SOL    HW226397   2.385   5.166   6.649
 8500SOL     OW26398   2.572   0.019   5.534
 8500SOL    HW126399   2.498   0.072   5.493
 8500SOL    HW226400   2.564   6.943   5.505
 8501SOL     OW26401   1.530   2.526   6.838
 8501SOL    HW126402   1.513   2.625   6.836
 8501SOL    HW226403   1.628   2.509   6.827
 8502SOL     OW26404   0.819   5.248   1.221
 8502SOL    HW126405   0.852   5.334   1.182
 8502SOL    HW226406   0.870   5.227   1.304
 8503SOL     OW26407   0.846   5.254   3.195
 8503SOL    HW126408   0.931   5.213   3.226
 8503SOL    HW226409   0.845   5.258   3.095
 8504SOL     OW26410   1.539   6.116   3.458
 8504SOL    HW126411   1.619   6.160   3.499
 8504SOL    HW226412   1.569   6.036   3.406
 8505SOL     OW26413   5.301   4.039   3.569
 8505SOL    HW126414   5.319   4.057   3.473
 8505SOL    HW226415   5.227   4.099   3.601
 8506SOL     OW26416   1.044   6.638   0.074
 8506SOL    HW126417   1.102   6.642   7.012
 8506SOL    HW226418   0.975   6.710   0.069
 8507SOL     OW26419   2.508   0.889   5.495
 8507SOL    HW126420   2.577   0.947   5.539
 8507SOL    HW226421   2.435   0.868   5.561
 8508SOL     OW26422   6.376   2.998   4.718
 8508SOL    HW126423   6.349   2.987   4.622
 8508SOL    HW226424   6.295   3.022   4.772
 8509SOL     OW26425   5.923   1.404   4.583
 8509SOL    HW126426   5.941   1.482   4.523
 8509SOL    HW226427   5.827   1.377   4.574
 8510SOL     OW26428   6.601   5.663   3.210
 8510SOL    HW126429   6.695   5.691   3.188
 8510SOL    HW226430   6.594   5.643   3.307
 8511SOL     OW26431   5.639   4.296   1.906
 8511SOL    HW126432   5.599   4.370   1.853
 8511SOL    HW226433   5.570   4.224   1.920
 8512SOL     OW26434   4.084   2.273   0.369
 8512SOL    HW126435   4.068   2.345   0.436
 8512SOL    HW226436   4.053   2.185   0.405
 8513SOL     OW26437   5.030   3.790   1.339
 8513SOL    HW126438   4.981   3.707   1.365
 8513SOL    HW226439   5.123   3.787   1.376
 8514SOL     OW26440   2.463   2.596   3.683
 8514SOL    HW126441   2.539   2.556   3.632
 8514SOL    HW226442   2.376   2.569   3.641
 8515SOL     OW26443   0.047   1.159   0.124
 8515SOL    HW126444   0.135   1.196   0.155
 8515SOL    HW226445   0.019   1.085   0.185
 8516SOL     OW26446   6.016   3.042   2.409
 8516SOL    HW126447   5.998   3.117   2.473
 8516SOL    HW226448   6.086   3.070   2.343
 8517SOL     OW26449   2.274   2.453   5.566
 8517SOL    HW126450   2.185   2.411   5.583
 8517SOL    HW226451   2.268   2.513   5.486
 8518SOL     OW26452   4.965   4.346   5.969
 8518SOL    HW126453   5.043   4.301   5.926
 8518SOL    HW226454   4.902   4.378   5.898
 8519SOL     OW26455   0.610   4.465   0.315
 8519SOL    HW126456   0.529   4.508   0.354
 8519SOL    HW226457   0.686   4.531   0.312
 8520SOL     OW26458   3.286   3.358   5.212
 8520SOL    HW126459   3.284   3.266   5.251
 8520SOL    HW226460   3.277   3.351   5.112
 8521SOL     OW26461   2.157   6.712   5.672
 8521SOL    HW126462   2.206   6.627   5.650
 8521SOL    HW226463   2.201   6.789   5.626
 8522SOL     OW26464   0.776   0.323   0.942
 8522SOL    HW126465   0.754   0.390   1.013
 8522SOL    HW226466   0.704   0.254   0.938
 8523SOL     OW26467   2.902   0.080   6.952
 8523SOL    HW126468   2.809   0.067   6.915
 8523SOL    HW226469   2.957   0.131   6.885
 8524SOL     OW26470   1.493   4.654   4.627
 8524SOL    HW126471   1.451   4.721   4.688
 8524SOL    HW226472   1.555   4.701   4.564
 8525SOL     OW26473   5.569   5.186   1.271
 8525SOL    HW126474   5.641   5.122   1.246
 8525SOL    HW226475   5.547   5.174   1.368
 8526SOL     OW26476   3.106   6.538   0.684
 8526SOL    HW126477   3.087   6.444   0.656
 8526SOL    HW226478   3.117   6.595   0.602
 8527SOL     OW26479   3.687   0.943   0.042
 8527SOL    HW126480   3.734   0.869   7.014
 8527SOL    HW226481   3.683   0.922   0.140
 8528SOL     OW26482   4.526   1.775   1.013
 8528SOL    HW126483   4.427   1.762   1.004
 8528SOL    HW226484   4.563   1.807   0.926
 8529SOL     OW26485   1.193   6.838   6.703
 8529SOL    HW126486   1.122   6.770   6.692
 8529SOL    HW226487   1.226   6.867   6.612
 8530SOL     OW26488   3.574   3.850   4.566
 8530SOL    HW126489   3.504   3.919   4.583
 8530SOL    HW226490   3.532   3.760   4.561
 8531SOL     OW26491   0.112   5.451   2.702
 8531SOL    HW126492   0.155   5.474   2.614
 8531SOL    HW226493   0.097   5.352   2.706
 8532SOL     OW26494   4.069   6.727   4.356
 8532SOL    HW126495   4.101   6.666   4.284
 8532SOL    HW226496   3.984   6.772   4.328
 8533SOL     OW26497   1.283   5.890   0.141
 8533SOL    HW126498   1.211   5.855   0.082
 8533SOL    HW226499   1.363   5.830   0.137
 8534SOL     OW26500   4.521   2.495   3.596
 8534SOL    HW126501   4.440   2.461   3.548
 8534SOL    HW226502   4.602   2.476   3.541
 8535SOL     OW26503   5.602   1.366   4.438
 8535SOL    HW126504   5.676   1.416   4.393
 8535SOL    HW226505   5.637   1.322   4.520
 8536SOL     OW26506   1.044   2.168   4.896
 8536SOL    HW126507   1.143   2.175   4.883
 8536SOL    HW226508   1.003   2.258   4.881
 8537SOL     OW26509   5.887   1.704   3.441
 8537SOL    HW126510   5.805   1.700   3.384
 8537SOL    HW226511   5.932   1.792   3.430
 8538SOL     OW26512   1.939   1.635   0.088
 8538SOL    HW126513   1.925   1.728   0.053
 8538SOL    HW226514   2.033   1.607   0.068
 8539SOL     OW26515   6.401   1.574   2.437
 8539SOL    HW126516   6.353   1.487   2.449
 8539SOL    HW226517   6.351   1.647   2.484
 8540SOL     OW26518   5.609   0.492   6.742
 8540SOL    HW126519   5.707   0.503   6.726
 8540SOL    HW226520   5.567   0.582   6.750
 8541SOL     OW26521   3.155   1.873   3.429
 8541SOL    HW126522   3.188   1.888   3.335
 8541SOL    HW226523   3.229   1.894   3.493
 8542SOL     OW26524   3.323   4.091   6.320
 8542SOL    HW126525   3.422   4.086   6.321
 8542SOL    HW226526   3.291   4.112   6.227
 8543SOL     OW26527   1.656   1.458   1.128
 8543SOL    HW126528   1.583   1.450   1.196
 8543SOL    HW226529   1.616   1.457   1.036
 8544SOL     OW26530   5.786   2.912   4.205
 8544SOL    HW126531   5.787   2.817   4.172
 8544SOL    HW226532   5.715   2.963   4.156
 8545SOL     OW26533   4.530   6.787   6.068
 8545SOL    HW126534   4.533   6.887   6.071
 8545SOL    HW226535   4.623   6.751   6.069
 8546SOL     OW26536   6.018   2.250   3.800
 8546SOL    HW126537   6.029   2.204   3.888
 8546SOL    HW226538   5.925   2.287   3.792
 8547SOL     OW26539   1.183   6.274   6.408
 8547SOL    HW126540   1.134   6.196   6.445
 8547SOL    HW226541   1.164   6.282   6.310
 8548SOL     OW26542   6.010   2.321   4.743
 8548SOL    HW126543   6.034   2.400   4.799
 8548SOL    HW226544   6.093   2.275   4.711
 8549SOL     OW26545   0.266   3.634   4.596
 8549SOL    HW126546   0.364   3.655   4.604
 8549SOL    HW226547   0.252   3.568   4.522
 8550SOL     OW26548   1.806   4.817   0.258
 8550SOL    HW126549   1.897   4.826   0.218
 8550SOL    HW226550   1.749   4.893   0.230
 8551SOL     OW26551   3.558   4.242   6.425
 8551SOL    HW126552   3.523   4.335   6.412
 8551SOL    HW226553   3.559   4.220   6.522
 8552SOL     OW26554   3.044   6.024   3.754
 8552SOL    HW126555   3.000   6.105   3.793
 8552SOL    HW226556   2.979   5.948   3.750
 8553SOL     OW26557   5.032   5.683   6.998
 8553SOL    HW126558   5.072   5.771   6.970
 8553SOL    HW226559   5.026   5.622   6.920
 8554SOL     OW26560   0.338   4.971   0.304
 8554SOL    HW126561   0.416   5.018   0.344
 8554SOL    HW226562   0.306   5.022   0.224
 8555SOL     OW26563   1.008   0.764   3.157
 8555SOL    HW126564   1.101   0.772   3.193
 8555SOL    HW226565   0.989   0.668   3.135
 8556SOL     OW26566   0.696   0.320   2.824
 8556SOL    HW126567   0.722   0.283   2.913
 8556SOL    HW226568   0.608   0.366   2.831
 8557SOL     OW26569   6.336   0.665   1.711
 8557SOL    HW126570   6.354   0.677   1.613
 8557SOL    HW226571   6.416   0.694   1.763
 8558SOL     OW26572   2.476   5.383   3.042
 8558SOL    HW126573   2.414   5.320   3.091
 8558SOL    HW226574   2.569   5.371   3.076
 8559SOL     OW26575   0.036   0.473   2.431
 8559SOL    HW126576   7.018   0.453   2.521
 8559SOL    HW226577   6.995   0.536   2.382
 8560SOL     OW26578   6.868   0.347   0.918
 8560SOL    HW126579   6.852   0.248   0.927
 8560SOL    HW226580   6.780   0.395   0.928
 8561SOL     OW26581   3.954   5.804   2.285
 8561SOL    HW126582   4.031   5.868   2.286
 8561SOL    HW226583   3.907   5.808   2.374
 8562SOL     OW26584   5.432   6.519   4.698
 8562SOL    HW126585   5.335   6.502   4.711
 8562SOL    HW226586   5.485   6.462   4.761
 8563SOL     OW26587   2.969   3.190   6.599
 8563SOL    HW126588   2.916   3.175   6.682
 8563SOL    HW226589   2.962   3.286   6.572
 8564SOL     OW26590   1.778   0.609   3.265
 8564SOL    HW126591   1.770   0.704   3.295
 8564SOL    HW226592   1.690   0.576   3.233
 8565SOL     OW26593   4.220   0.108   1.621
 8565SOL    HW126594   4.128   0.137   1.595
 8565SOL    HW226595   4.267   0.183   1.667
 8566SOL     OW26596   1.165   1.343   2.683
 8566SOL    HW126597   1.219   1.419   2.645
 8566SOL    HW226598   1.069   1.369   2.687
 8567SOL     OW26599   6.740   1.425   1.460
 8567SOL    HW126600   6.652   1.461   1.492
 8567SOL    HW226601   6.814   1.471   1.509
 8568SOL     OW26602   4.787   1.452   0.139
 8568SOL    HW126603   4.742   1.431   0.052
 8568SOL    HW226604   4.792   1.368   0.194
 8569SOL     OW26605   4.634   1.762   5.696
 8569SOL    HW126606   4.717   1.716   5.665
 8569SOL    HW226607   4.577   1.785   5.616
 8570SOL     OW26608   1.167   3.753   5.915
 8570SOL    HW126609   1.180   3.661   5.878
 8570SOL    HW226610   1.255   3.800   5.920
 8571SOL     OW26611   0.383   5.415   5.484
 8571SOL    HW126612   0.299   5.415   5.429
 8571SOL    HW226613   0.421   5.323   5.487
 8572SOL     OW26614   2.310   5.338   5.820
 8572SOL    HW126615   2.316   5.326   5.721
 8572SOL    HW226616   2.265   5.259   5.861
 8573SOL     OW26617   4.027   6.185   6.568
 8573SOL    HW126618   3.937   6.144   6.549
 8573SOL    HW226619   4.062   6.149   6.655
 8574SOL     OW26620   0.719   4.665   5.832
 8574SOL    HW126621   0.783   4.698   5.763
 8574SOL    HW226622   0.766   4.602   5.894
 8575SOL     OW26623   2.562   2.432   6.700
 8575SOL    HW126624   2.638   2.488   6.668
 8575SOL    HW226625   2.598   2.353   6.750
 8576SOL     OW26626   0.508   0.013   1.247
 8576SOL    HW126627   0.548   6.992   1.165
 8576SOL    HW226628   0.476   6.961   1.308
 8577SOL     OW26629   6.254   5.173   4.219
 8577SOL    HW126630   6.244   5.263   4.176
 8577SOL    HW226631   6.217   5.104   4.157
 8578SOL     OW26632   4.578   0.397   4.427
 8578SOL    HW126633   4.515   0.324   4.401
 8578SOL    HW226634   4.541   0.447   4.505
 8579SOL     OW26635   1.068   5.530   3.512
 8579SOL    HW126636   1.027   5.450   3.555
 8579SOL    HW226637   1.132   5.501   3.441
 8580SOL     OW26638   2.789   6.960   2.014
 8580SOL    HW126639   2.722   0.012   2.031
 8580SOL    HW226640   2.756   6.874   2.051
 8581SOL     OW26641   3.575   2.515   1.352
 8581SOL    HW126642   3.513   2.566   1.412
 8581SOL    HW226643   3.596   2.427   1.394
 8582SOL     OW26644   4.647   4.299   2.513
 8582SOL    HW126645   4.659   4.393   2.546
 8582SOL    HW226646   4.651   4.236   2.591
 8583SOL     OW26647   5.850   0.965   6.384
 8583SOL    HW126648   5.767   1.005   6.347
 8583SOL    HW226649   5.902   1.035   6.433
 8584SOL     OW26650   0.168   4.404   0.410
 8584SOL    HW126651   0.136   4.409   0.315
 8584SOL    HW226652   0.115   4.335   0.460
 8585SOL     OW26653   0.224   0.208   0.721
 8585SOL    HW126654   0.137   0.199   0.672
 8585SOL    HW226655   0.229   0.298   0.765
 8586SOL     OW26656   2.842   6.170   3.173
 8586SOL    HW126657   2.824   6.087   3.119
 8586SOL    HW226658   2.927   6.158   3.224
 8587SOL     OW26659   0.470   0.921   2.975
 8587SOL    HW126660   0.502   1.004   2.930
 8587SOL    HW226661   0.522   0.843   2.940
 8588SOL     OW26662   3.204   1.689   0.632
 8588SOL    HW126663   3.283   1.643   0.592
 8588SOL    HW226664   3.134   1.702   0.562
 8589SOL     OW26665   3.738   1.148   4.290
 8589SOL    HW126666   3.685   1.141   4.374
 8589SOL    HW226667   3.797   1.228   4.294
 8590SOL     OW26668   6.724   5.769   4.326
 8590SOL    HW126669   6.628   5.760   4.300
 8590SOL    HW226670   6.731   5.773   4.426
 8591SOL     OW26671   0.854   4.435   6.755
 8591SOL    HW126672   0.786   4.362   6.756
 8591SOL    HW226673   0.885   4.454   6.848
 8592SOL     OW26674   0.026   4.376   0.140
 8592SOL    HW126675   6.954   4.398   0.171
 8592SOL    HW226676   0.040   4.413   0.048
 8593SOL     OW26677   1.185   6.582   1.735
 8593SOL    HW126678   1.185   6.650   1.662
 8593SOL    HW226679   1.116   6.512   1.717
 8594SOL     OW26680   3.093   4.052   4.256
 8594SOL    HW126681   3.066   3.999   4.175
 8594SOL    HW226682   3.186   4.087   4.244
 8595SOL     OW26683   1.908   2.173   2.795
 8595SOL    HW126684   1.932   2.146   2.702
 8595SOL    HW226685   1.979   2.143   2.858
 8596SOL     OW26686   5.767   5.331   2.157
 8596SOL    HW126687   5.774   5.417   2.207
 8596SOL    HW226688   5.784   5.255   2.220
 8597SOL     OW26689   4.064   2.059   1.317
 8597SOL    HW126690   4.109   2.093   1.399
 8597SOL    HW226691   4.051   2.135   1.253
 8598SOL     OW26692   0.364   5.089   1.152
 8598SOL    HW126693   0.441   5.124   1.205
 8598SOL    HW226694   0.279   5.111   1.198
 8599SOL     OW26695   1.011   3.029   3.906
 8599SOL    HW126696   1.014   2.932   3.880
 8599SOL    HW226697   1.010   3.036   4.006
 8600SOL     OW26698   6.183   4.385   6.803
 8600SOL    HW126699   6.155   4.337   6.886
 8600SOL    HW226700   6.103   4.416   6.753
 8601SOL     OW26701   0.286   1.042   4.993
 8601SOL    HW126702   0.377   1.038   5.035
 8601SOL    HW226703   0.217   1.051   5.065
 8602SOL     OW26704   2.806   6.874   2.883
 8602SOL    HW126705   2.748   6.915   2.812
 8602SOL    HW226706   2.804   6.931   2.965
 8603SOL     OW26707   3.724   4.033   6.713
 8603SOL    HW126708   3.649   3.986   6.665
 8603SOL    HW226709   3.793   3.967   6.740
 8604SOL     OW26710   6.061   2.744   3.688
 8604SOL    HW126711   5.983   2.705   3.639
 8604SOL    HW226712   6.137   2.680   3.686
 8605SOL     OW26713   3.426   5.193   4.526
 8605SOL    HW126714   3.441   5.106   4.574
 8605SOL    HW226715   3.473   5.190   4.438
 8606SOL     OW26716   2.392   4.235   5.942
 8606SOL    HW126717   2.362   4.208   5.850
 8606SOL    HW226718   2.412   4.153   5.995
 8607SOL     OW26719   3.273   5.672   1.313
 8607SOL    HW126720   3.305   5.752   1.364
 8607SOL    HW226721   3.229   5.608   1.376
 8608SOL     OW26722   4.447   5.205   2.784
 8608SOL    HW126723   4.444   5.153   2.699
 8608SOL    HW226724   4.528   5.180   2.836
 8609SOL     OW26725   3.579   0.667   4.378
 8609SOL    HW126726   3.487   0.706   4.378
 8609SOL    HW226727   3.590   0.607   4.298
 8610SOL     OW26728   1.029   0.093   2.961
 8610SOL    HW126729   1.127   0.105   2.977
 8610SOL    HW226730   1.008   0.113   2.865
 8611SOL     OW26731   1.387   2.339   4.601
 8611SOL    HW126732   1.348   2.378   4.518
 8611SOL    HW226733   1.454   2.269   4.576
 8612SOL     OW26734   3.095   3.477   6.312
 8612SOL    HW126735   3.139   3.555   6.267
 8612SOL    HW226736   3.132   3.392   6.275
 8613SOL     OW26737   2.313   1.200   1.432
 8613SOL    HW126738   2.405   1.178   1.466
 8613SOL    HW226739   2.310   1.184   1.333
 8614SOL     OW26740   0.850   4.001   2.966
 8614SOL    HW126741   0.859   3.960   3.057
 8614SOL    HW226742   0.876   4.097   2.971
 8615SOL     OW26743   4.613   1.875   5.288
 8615SOL    HW126744   4.542   1.870   5.358
 8615SOL    HW226745   4.697   1.834   5.323
 8616SOL     OW26746   0.392   4.545   0.451
 8616SOL    HW126747   0.375   4.641   0.474
 8616SOL    HW226748   0.305   4.502   0.425
 8617SOL     OW26749   6.453   1.868   0.349
 8617SOL    HW126750   6.541   1.824   0.372
 8617SOL    HW226751   6.437   1.859   0.251
 8618SOL     OW26752   4.340   6.989   1.997
 8618SOL    HW126753   4.350   6.937   1.912
 8618SOL    HW226754   4.245   0.001   2.005
 8619SOL     OW26755   4.014   5.184   0.718
 8619SOL    HW126756   3.932   5.156   0.768
 8619SOL    HW226757   4.034   5.280   0.739
 8620SOL     OW26758   5.963   6.819   2.381
 8620SOL    HW126759   6.007   6.891   2.328
 8620SOL    HW226760   5.911   6.759   2.320
 8621SOL     OW26761   6.134   1.229   3.835
 8621SOL    HW126762   6.195   1.257   3.761
 8621SOL    HW226763   6.103   1.310   3.885
 8622SOL     OW26764   4.693   4.327   0.266
 8622SOL    HW126765   4.700   4.405   0.328
 8622SOL    HW226766   4.779   4.276   0.267
 8623SOL     OW26767   0.625   4.372   2.914
 8623SOL    HW126768   0.598   4.375   3.011
 8623SOL    HW226769   0.630   4.465   2.879
 8624SOL     OW26770   1.260   4.818   3.573
 8624SOL    HW126771   1.246   4.885   3.646
 8624SOL    HW226772   1.173   4.775   3.550
 8625SOL     OW26773   4.527   0.659   4.193
 8625SOL    HW126774   4.496   0.612   4.275
 8625SOL    HW226775   4.460   0.646   4.119
 8626SOL     OW26776   3.720   3.311   4.034
 8626SOL    HW126777   3.634   3.269   4.064
 8626SOL    HW226778   3.738   3.393   4.088
 8627SOL     OW26779   1.065   0.413   2.113
 8627SOL    HW126780   1.068   0.416   2.013
 8627SOL    HW226781   1.000   0.342   2.142
 8628SOL     OW26782   6.225   6.625   0.654
 8628SOL    HW126783   6.187   6.716   0.666
 8628SOL    HW226784   6.159   6.557   0.687
 8629SOL     OW26785   1.967   4.812   4.327
 8629SOL    HW126786   1.995   4.856   4.243
 8629SOL    HW226787   2.046   4.768   4.370
 8630SOL     OW26788   6.060   4.136   4.990
 8630SOL    HW126789   6.129   4.115   4.921
 8630SOL    HW226790   6.054   4.061   5.056
 8631SOL     OW26791   3.761   6.563   6.036
 8631SOL    HW126792   3.848   6.545   6.082
 8631SOL    HW226793   3.778   6.598   5.944
 8632SOL     OW26794   3.354   6.733   4.084
 8632SOL    HW126795   3.438   6.760   4.036
 8632SOL    HW226796   3.295   6.683   4.021
 8633SOL     OW26797   5.166   1.321   4.266
 8633SOL    HW126798   5.186   1.234   4.221
 8633SOL    HW226799   5.234   1.338   4.338
 8634SOL     OW26800   6.252   3.703   1.312
 8634SOL    HW126801   6.328   3.749   1.267
 8634SOL    HW226802   6.227   3.753   1.395
 8635SOL     OW26803   5.753   4.006   5.694
 8635SOL    HW126804   5.699   3.990   5.776
 8635SOL    HW226805   5.700   4.061   5.629
 8636SOL     OW26806   6.435   4.684   6.453
 8636SOL    HW126807   6.523   4.653   6.490
 8636SOL    HW226808   6.419   4.779   6.481
 8637SOL     OW26809   1.419   1.002   0.549
 8637SOL    HW126810   1.413   1.102   0.556
 8637SOL    HW226811   1.371   0.972   0.467
 8638SOL     OW26812   2.098   3.254   0.345
 8638SOL    HW126813   2.156   3.233   0.266
 8638SOL    HW226814   2.002   3.246   0.319
 8639SOL     OW26815   5.884   2.364   1.819
 8639SOL    HW126816   5.818   2.290   1.831
 8639SOL    HW226817   5.835   2.448   1.797
 8640SOL     OW26818   5.068   3.747   0.468
 8640SOL    HW126819   5.000   3.749   0.395
 8640SOL    HW226820   5.154   3.785   0.435
 8641SOL     OW26821   6.818   3.742   4.177
 8641SOL    HW126822   6.739   3.743   4.239
 8641SOL    HW226823   6.852   3.649   4.167
 8642SOL     OW26824   4.637   0.546   2.438
 8642SOL    HW126825   4.695   0.492   2.499
 8642SOL    HW226826   4.683   0.556   2.350
 8643SOL     OW26827   4.589   6.803   6.957
 8643SOL    HW126828   4.622   6.710   6.972
 8643SOL    HW226829   4.489   6.804   6.958
 8644SOL     OW26830   5.545   2.846   5.412
 8644SOL    HW126831   5.505   2.840   5.503
 8644SOL    HW226832   5.595   2.761   5.391
 8645SOL     OW26833   6.017   4.973   1.593
 8645SOL    HW126834   6.107   4.941   1.564
 8645SOL    HW226835   6.028   5.040   1.666
 8646SOL     OW26836   5.506   0.687   0.831
 8646SOL    HW126837   5.478   0.611   0.889
 8646SOL    HW226838   5.425   0.728   0.788
 8647SOL     OW26839   3.723   4.763   0.234
 8647SOL    HW126840   3.735   4.726   0.142
 8647SOL    HW226841   3.787   4.838   0.249
 8648SOL     OW26842   5.712   1.261   4.650
 8648SOL    HW126843   5.767   1.178   4.660
 8648SOL    HW226844   5.703   1.306   4.739
 8649SOL     OW26845   5.829   4.954   5.597
 8649SOL    HW126846   5.789   4.997   5.677
 8649SOL    HW226847   5.921   4.989   5.582
 8650SOL     OW26848   1.973   5.154   4.017
 8650SOL    HW126849   1.878   5.121   4.017
 8650SOL    HW226850   1.996   5.190   4.107
 8651SOL     OW26851   4.165   0.995   0.505
 8651SOL    HW126852   4.084   0.952   0.542
 8651SOL    HW226853   4.141   1.045   0.421
 8652SOL     OW26854   1.837   4.423   3.021
 8652SOL    HW126855   1.833   4.501   2.959
 8652SOL    HW226856   1.745   4.401   3.054
 8653SOL     OW26857   6.618   2.783   6.584
 8653SOL    HW126858   6.600   2.706   6.523
 8653SOL    HW226859   6.586   2.761   6.676
 8654SOL     OW26860   0.878   6.144   2.355
 8654SOL    HW126861   0.865   6.065   2.415
 8654SOL    HW226862   0.865   6.228   2.408
 8655SOL     OW26863   5.727   0.199   3.886
 8655SOL    HW126864   5.652   0.260   3.910
 8655SOL    HW226865   5.787   0.244   3.820
 8656SOL     OW26866   5.944   1.148   1.007
 8656SOL    HW126867   5.957   1.096   1.092
 8656SOL    HW226868   5.997   1.233   1.012
 8657SOL     OW26869   4.298   5.233   6.422
 8657SOL    HW126870   4.298   5.226   6.522
 8657SOL    HW226871   4.215   5.191   6.386
 8658SOL     OW26872   4.568   5.271   0.132
 8658SOL    HW126873   4.548   5.183   0.088
 8658SOL    HW226874   4.667   5.277   0.150
 8659SOL     OW26875   4.634   0.943   3.145
 8659SOL    HW126876   4.535   0.951   3.135
 8659SOL    HW226877   4.669   0.872   3.084
 8660SOL     OW26878   5.817   3.911   0.492
 8660SOL    HW126879   5.765   3.916   0.578
 8660SOL    HW226880   5.755   3.919   0.415
 8661SOL     OW26881   6.076   4.169   1.763
 8661SOL    HW126882   6.118   4.079   1.780
 8661SOL    HW226883   6.090   4.228   1.842
 8662SOL     OW26884   5.523   6.609   1.930
 8662SOL    HW126885   5.453   6.658   1.878
 8662SOL    HW226886   5.533   6.516   1.893
 8663SOL     OW26887   2.413   5.815   0.430
 8663SOL    HW126888   2.423   5.853   0.521
 8663SOL    HW226889   2.458   5.874   0.363
 8664SOL     OW26890   4.345   5.246   0.269
 8664SOL    HW126891   4.431   5.263   0.221
 8664SOL    HW226892   4.304   5.333   0.295
 8665SOL     OW26893   5.057   5.951   5.712
 8665SOL    HW126894   5.101   5.900   5.638
 8665SOL    HW226895   5.055   6.048   5.689
 8666SOL     OW26896   5.319   2.621   5.262
 8666SOL    HW126897   5.257   2.654   5.333
 8666SOL    HW226898   5.334   2.522   5.273
 8667SOL     OW26899   5.229   2.203   3.099
 8667SOL    HW126900   5.163   2.193   3.025
 8667SOL    HW226901   5.184   2.186   3.187
 8668SOL     OW26902   5.013   2.521   3.633
 8668SOL    HW126903   5.104   2.514   3.591
 8668SOL    HW226904   5.002   2.611   3.673
 8669SOL     OW26905   3.669   0.185   6.529
 8669SOL    HW126906   3.732   0.249   6.484
 8669SOL    HW226907   3.575   0.216   6.516
 8670SOL     OW26908   3.612   5.037   5.507
 8670SOL    HW126909   3.603   5.004   5.413
 8670SOL    HW226910   3.707   5.064   5.524
 8671SOL     OW26911   5.206   0.759   3.966
 8671SOL    HW126912   5.139   0.829   3.992
 8671SOL    HW226913   5.227   0.768   3.868
 8672SOL     OW26914   2.596   5.875   4.376
 8672SOL    HW126915   2.623   5.970   4.392
 8672SOL    HW226916   2.512   5.855   4.427
 8673SOL     OW26917   0.511   0.721   6.977
 8673SOL    HW126918   0.456   0.697   0.036
 8673SOL    HW226919   0.528   0.639   6.922
 8674SOL     OW26920   6.762   5.959   1.949
 8674SOL    HW126921   6.794   6.023   2.018
 8674SOL    HW226922   6.685   6.000   1.899
 8675SOL     OW26923   3.268   2.140   4.400
 8675SOL    HW126924   3.310   2.108   4.315
 8675SOL    HW226925   3.184   2.190   4.379
 8676SOL     OW26926   3.165   0.085   3.224
 8676SOL    HW126927   3.163   7.005   3.224
 8676SOL    HW226928   3.103   0.120   3.153
 8677SOL     OW26929   1.998   5.533   6.498
 8677SOL    HW126930   2.014   5.584   6.414
 8677SOL    HW226931   2.057   5.570   6.571
 8678SOL     OW26932   0.411   6.972   6.780
 8678SOL    HW126933   0.329   6.921   6.808
 8678SOL    HW226934   0.435   0.018   6.850
 8679SOL     OW26935   5.886   2.397   4.519
 8679SOL    HW126936   5.946   2.387   4.598
 8679SOL    HW226937   5.853   2.307   4.490
 8680SOL     OW26938   0.806   3.410   0.991
 8680SOL    HW126939   0.852   3.477   0.934
 8680SOL    HW226940   0.745   3.354   0.935
 8681SOL     OW26941   4.550   4.587   0.051
 8681SOL    HW126942   4.646   4.613   0.045
 8681SOL    HW226943   4.517   4.602   0.144
 8682SOL     OW26944   3.526   6.415   2.986
 8682SOL    HW126945   3.585   6.437   2.908
 8682SOL    HW226946   3.510   6.498   3.040
 8683SOL     OW26947   1.348   2.306   2.314
 8683SOL    HW126948   1.421   2.288   2.248
 8683SOL    HW226949   1.295   2.223   2.330
 8684SOL     OW26950   0.536   3.325   4.723
 8684SOL    HW126951   0.594   3.266   4.779
 8684SOL    HW226952   0.486   3.389   4.781
 8685SOL     OW26953   1.662   1.890   6.013
 8685SOL    HW126954   1.702   1.802   6.037
 8685SOL    HW226955   1.615   1.928   6.094
 8686SOL     OW26956   6.461   1.877   1.810
 8686SOL    HW126957   6.452   1.781   1.836
 8686SOL    HW226958   6.444   1.887   1.712
 8687SOL     OW26959   3.449   6.228   2.598
 8687SOL    HW126960   3.449   6.248   2.500
 8687SOL    HW226961   3.406   6.139   2.613
 8688SOL     OW26962   2.948   6.373   6.717
 8688SOL    HW126963   2.939   6.446   6.785
 8688SOL    HW226964   2.901   6.400   6.633
 8689SOL     OW26965   3.111   6.000   0.218
 8689SOL    HW126966   3.119   5.971   0.123
 8689SOL    HW226967   3.162   5.937   0.276
 8690SOL     OW26968   1.481   2.528   3.806
 8690SOL    HW126969   1.490   2.558   3.711
 8690SOL    HW226970   1.545   2.452   3.822
 8691SOL     OW26971   4.296   2.965   6.285
 8691SOL    HW126972   4.361   2.996   6.355
 8691SOL    HW226973   4.347   2.935   6.204
 8692SOL     OW26974   3.268   2.171   2.608
 8692SOL    HW126975   3.212   2.166   2.691
 8692SOL    HW226976   3.213   2.207   2.533
 8693SOL     OW26977   5.856   1.789   1.015
 8693SOL    HW126978   5.761   1.760   1.027
 8693SOL    HW226979   5.896   1.740   0.938
 8694SOL     OW26980   4.518   0.508   6.630
 8694SOL    HW126981   4.559   0.461   6.708
 8694SOL    HW226982   4.419   0.514   6.644
 8695SOL     OW26983   4.451   2.611   6.090
 8695SOL    HW126984   4.391   2.545   6.045
 8695SOL    HW226985   4.454   2.696   6.037
 8696SOL     OW26986   3.445   5.999   0.772
 8696SOL    HW126987   3.410   5.917   0.726
 8696SOL    HW226988   3.375   6.070   0.772
 8697SOL     OW26989   6.415   3.592   0.899
 8697SOL    HW126990   6.482   3.519   0.911
 8697SOL    HW226991   6.460   3.672   0.859
 8698SOL     OW26992   5.607   6.018   3.718
 8698SOL    HW126993   5.531   6.052   3.662
 8698SOL    HW226994   5.573   5.994   3.809
 8699SOL     OW26995   1.032   2.048   5.750
 8699SOL    HW126996   0.949   2.038   5.804
 8699SOL    HW226997   1.026   2.131   5.694
 8700SOL     OW26998   2.368   0.945   4.915
 8700SOL    HW126999   2.279   0.982   4.938
 8700SOL    HW227000   2.429   0.951   4.995
 8701SOL     OW27001   1.360   1.131   6.709
 8701SOL    HW127002   1.437   1.125   6.646
 8701SOL    HW227003   1.276   1.146   6.657
 8702SOL     OW27004   5.428   4.939   0.223
 8702SOL    HW127005   5.495   4.879   0.178
 8702SOL    HW227006   5.469   5.029   0.238
 8703SOL     OW27007   3.023   5.651   1.439
 8703SOL    HW127008   2.984   5.560   1.439
 8703SOL    HW227009   3.078   5.664   1.356
 8704SOL     OW27010   6.332   3.545   2.895
 8704SOL    HW127011   6.253   3.492   2.864
 8704SOL    HW227012   6.313   3.585   2.984
 8705SOL     OW27013   5.024   1.145   6.925
 8705SOL    HW127014   5.082   1.076   6.968
 8705SOL    HW227015   5.048   1.236   6.959
 8706SOL     OW27016   4.827   2.684   5.943
 8706SOL    HW127017   4.904   2.702   6.005
 8706SOL    HW227018   4.820   2.586   5.927
 8707SOL     OW27019   4.816   2.218   0.247
 8707SOL    HW127020   4.787   2.140   0.303
 8707SOL    HW227021   4.782   2.206   0.154
 8708SOL     OW27022   4.415   2.074   2.097
 8708SOL    HW127023   4.403   2.076   1.997
 8708SOL    HW227024   4.498   2.022   2.119
 8709SOL     OW27025   6.724   5.579   6.837
 8709SOL    HW127026   6.769   5.658   6.879
 8709SOL    HW227027   6.627   5.579   6.862
 8710SOL     OW27028   2.179   2.975   3.058
 8710SOL    HW127029   2.244   2.943   2.989
 8710SOL    HW227030   2.224   2.977   3.148
 8711SOL     OW27031   0.065   6.260   2.341
 8711SOL    HW127032   0.094   6.175   2.297
 8711SOL    HW227033   0.116   6.271   2.427
 8712SOL     OW27034   3.859   2.160   4.292
 8712SOL    HW127035   3.837   2.165   4.389
 8712SOL    HW227036   3.921   2.083   4.276
 8713SOL     OW27037   0.280   4.338   3.410
 8713SOL    HW127038   0.350   4.266   3.405
 8713SOL    HW227039   0.251   4.350   3.504
 8714SOL     OW27040   0.640   1.039   5.814
 8714SOL    HW127041   0.683   0.963   5.865
 8714SOL    HW227042   0.661   1.125   5.860
 8715SOL     OW27043   5.063   0.591   1.467
 8715SOL    HW127044   4.990   0.524   1.450
 8715SOL    HW227045   5.053   0.668   1.404
 8716SOL     OW27046   1.254   1.532   1.021
 8716SOL    HW127047   1.285   1.620   1.058
 8716SOL    HW227048   1.260   1.462   1.092
 8717SOL     OW27049   4.070   3.681   2.450
 8717SOL    HW127050   4.121   3.603   2.487
 8717SOL    HW227051   4.028   3.732   2.525
 8718SOL     OW27052   1.397   2.657   5.581
 8718SOL    HW127053   1.332   2.701   5.519
 8718SOL    HW227054   1.401   2.559   5.561
 8719SOL     OW27055   2.132   0.496   6.187
 8719SOL    HW127056   2.203   0.426   6.182
 8719SOL    HW227057   2.063   0.480   6.116
 8720SOL     OW27058   6.682   5.053   5.196
 8720SOL    HW127059   6.628   5.123   5.242
 8720SOL    HW227060   6.748   5.097   5.135
 8721SOL     OW27061   6.084   2.173   4.061
 8721SOL    HW127062   6.109   2.242   4.129
 8721SOL    HW227063   6.152   2.100   4.063
 8722SOL     OW27064   4.186   0.672   0.737
 8722SOL    HW127065   4.193   0.648   0.834
 8722SOL    HW227066   4.270   0.717   0.707
 8723SOL     OW27067   5.589   6.103   1.402
 8723SOL    HW127068   5.570   6.005   1.393
 8723SOL    HW227069   5.503   6.153   1.413
 8724SOL     OW27070   6.184   6.805   4.898
 8724SOL    HW127071   6.181   6.742   4.976
 8724SOL    HW227072   6.221   6.758   4.819
 8725SOL     OW27073   2.366   0.127   0.234
 8725SOL    HW127074   2.295   0.060   0.213
 8725SOL    HW227075   2.456   0.085   0.222
 8726SOL     OW27076   6.366   0.679   1.381
 8726SOL    HW127077   6.399   0.588   1.406
 8726SOL    HW227078   6.431   0.748   1.413
 8727SOL     OW27079   6.687   6.346   1.783
 8727SOL    HW127080   6.757   6.411   1.812
 8727SOL    HW227081   6.647   6.302   1.863
 8728SOL     OW27082   4.083   0.222   4.675
 8728SOL    HW127083   4.001   0.261   4.633
 8728SOL    HW227084   4.088   0.125   4.653
 8729SOL     OW27085   4.859   6.001   3.383
 8729SOL    HW127086   4.809   5.923   3.344
 8729SOL    HW227087   4.950   6.005   3.343
 8730SOL     OW27088   6.850   5.517   2.630
 8730SOL    HW127089   6.812   5.431   2.666
 8730SOL    HW227090   6.949   5.511   2.628
 8731SOL     OW27091   2.008   1.783   2.945
 8731SOL    HW127092   1.948   1.711   2.911
 8731SOL    HW227093   2.014   1.856   2.877
 8732SOL     OW27094   5.031   4.348   1.802
 8732SOL    HW127095   4.987   4.326   1.889
 8732SOL    HW227096   5.019   4.272   1.738
 8733SOL     OW27097   1.608   5.873   3.396
 8733SOL    HW127098   1.701   5.865   3.433
 8733SOL    HW227099   1.591   5.798   3.332
 8734SOL     OW27100   1.104   4.572   1.823
 8734SOL    HW127101   1.065   4.577   1.915
 8734SOL    HW227102   1.202   4.590   1.827
 8735SOL     OW27103   0.761   1.894   6.727
 8735SOL    HW127104   0.723   1.805   6.752
 8735SOL    HW227105   0.851   1.882   6.685
 8736SOL     OW27106   0.484   6.500   7.008
 8736SOL    HW127107   0.482   6.559   6.927
 8736SOL    HW227108   0.396   6.453   7.016
 8737SOL     OW27109   3.357   0.024   6.379
 8737SOL    HW127110   3.365   0.065   6.470
 8737SOL    HW227111   3.276   6.985   6.376
 8738SOL     OW27112   1.795   4.128   4.150
 8738SOL    HW127113   1.860   4.195   4.186
 8738SOL    HW227114   1.774   4.061   4.221
 8739SOL     OW27115   6.615   5.436   6.292
 8739SOL    HW127116   6.569   5.477   6.372
 8739SOL    HW227117   6.571   5.468   6.209
 8740SOL     OW27118   4.225   1.140   5.727
 8740SOL    HW127119   4.130   1.139   5.758
 8740SOL    HW227120   4.228   1.113   5.630
 8741SOL     OW27121   1.941   1.525   1.895
 8741SOL    HW127122   1.930   1.520   1.796
 8741SOL    HW227123   1.904   1.442   1.937
 8742SOL     OW27124   4.860   5.839   1.811
 8742SOL    HW127125   4.777   5.790   1.838
 8742SOL    HW227126   4.903   5.877   1.893
 8743SOL     OW27127   2.176   6.821   2.677
 8743SOL    HW127128   2.123   6.904   2.661
 8743SOL    HW227129   2.227   6.797   2.595
 8744SOL     OW27130   3.622   2.483   6.175
 8744SOL    HW127131   3.601   2.509   6.081
 8744SOL    HW227132   3.538   2.482   6.229
 8745SOL     OW27133   6.220   2.795   5.672
 8745SOL    HW127134   6.291   2.775   5.604
 8745SOL    HW227135   6.136   2.748   5.648
 8746SOL     OW27136   4.151   4.242   5.332
 8746SOL    HW127137   4.182   4.262   5.425
 8746SOL    HW227138   4.194   4.307   5.268
 8747SOL     OW27139   0.785   2.635   3.554
 8747SOL    HW127140   0.862   2.592   3.601
 8747SOL    HW227141   0.699   2.607   3.598
 8748SOL     OW27142   0.532   0.958   6.847
 8748SOL    HW127143   0.533   0.860   6.867
 8748SOL    HW227144   0.450   0.980   6.794
 8749SOL     OW27145   2.608   0.460   4.875
 8749SOL    HW127146   2.578   0.460   4.970
 8749SOL    HW227147   2.706   0.440   4.871
 8750SOL     OW27148   2.188   3.207   5.217
 8750SOL    HW127149   2.219   3.303   5.216
 8750SOL    HW227150   2.266   3.147   5.199
 8751SOL     OW27151   6.602   6.932   2.042
 8751SOL    HW127152   6.694   6.910   2.009
 8751SOL    HW227153   6.556   6.992   1.976
 8752SOL     OW27154   2.903   4.010   0.403
 8752SOL    HW127155   2.869   4.027   0.310
 8752SOL    HW227156   2.999   3.980   0.397
 8753SOL     OW27157   4.934   1.612   4.742
 8753SOL    HW127158   4.945   1.670   4.662
 8753SOL    HW227159   5.002   1.539   4.740
 8754SOL     OW27160   0.822   2.051   5.918
 8754SOL    HW127161   0.865   2.114   5.982
 8754SOL    HW227162   0.723   2.052   5.932
 8755SOL     OW27163   2.830   1.448   6.787
 8755SOL    HW127164   2.927   1.440   6.810
 8755SOL    HW227165   2.788   1.358   6.786
 8756SOL     OW27166   2.140   3.131   3.721
 8756SOL    HW127167   2.100   3.162   3.807
 8756SOL    HW227168   2.103   3.041   3.698
 8757SOL     OW27169   5.853   6.390   6.218
 8757SOL    HW127170   5.885   6.311   6.165
 8757SOL    HW227171   5.810   6.358   6.303
 8758SOL     OW27172   5.193   5.970   2.317
 8758SOL    HW127173   5.142   5.981   2.402
 8758SOL    HW227174   5.268   5.905   2.331
 8759SOL     OW27175   4.190   1.553   6.349
 8759SOL    HW127176   4.144   1.557   6.438
 8759SOL    HW227177   4.163   1.470   6.302
 8760SOL     OW27178   1.960   1.620   4.861
 8760SOL    HW127179   2.025   1.561   4.909
 8760SOL    HW227180   1.948   1.587   4.767
 8761SOL     OW27181   4.681   0.471   0.954
 8761SOL    HW127182   4.708   0.395   0.895
 8761SOL    HW227183   4.762   0.507   1.001
 8762SOL     OW27184   1.426   3.377   2.980
 8762SOL    HW127185   1.422   3.340   3.073
 8762SOL    HW227186   1.517   3.415   2.964
 8763SOL     OW27187   6.002   6.059   4.888
 8763SOL    HW127188   6.061   6.025   4.814
 8763SOL    HW227189   5.916   6.008   4.887
 8764SOL     OW27190   4.945   1.366   3.880
 8764SOL    HW127191   4.946   1.458   3.919
 8764SOL    HW227192   4.950   1.298   3.954
 8765SOL     OW27193   6.146   6.303   4.980
 8765SOL    HW127194   6.185   6.328   4.892
 8765SOL    HW227195   6.103   6.213   4.973
 8766SOL     OW27196   3.743   5.078   3.661
 8766SOL    HW127197   3.732   5.174   3.636
 8766SOL    HW227198   3.840   5.055   3.658
 8767SOL     OW27199   4.448   0.636   3.092
 8767SOL    HW127200   4.376   0.628   3.022
 8767SOL    HW227201   4.423   0.709   3.156
 8768SOL     OW27202   2.166   2.827   0.052
 8768SOL    HW127203   2.243   2.804   0.111
 8768SOL    HW227204   2.166   2.768   6.992
 8769SOL     OW27205   1.168   0.010   5.333
 8769SOL    HW127206   1.223   6.948   5.344
 8769SOL    HW227207   1.077   7.006   5.301
 8770SOL     OW27208   5.020   3.799   2.140
 8770SOL    HW127209   5.046   3.704   2.152
 8770SOL    HW227210   5.095   3.859   2.168
 8771SOL     OW27211   2.148   0.708   5.956
 8771SOL    HW127212   2.230   0.652   5.971
 8771SOL    HW227213   2.165   0.801   5.989
 8772SOL     OW27214   5.849   6.928   0.031
 8772SOL    HW127215   5.905   6.982   0.095
 8772SOL    HW227216   5.895   6.841   0.014
 8773SOL     OW27217   4.016   2.136   3.480
 8773SOL    HW127218   3.924   2.150   3.517
 8773SOL    HW227219   4.012   2.134   3.380
 8774SOL     OW27220   1.635   1.289   0.649
 8774SOL    HW127221   1.663   1.380   0.620
 8774SOL    HW227222   1.547   1.265   0.606
 8775SOL     OW27223   5.550   7.013   4.042
 8775SOL    HW127224   5.454   0.018   4.029
 8775SOL    HW227225   5.609   0.059   3.996
 8776SOL     OW27226   3.317   2.903   4.765
 8776SOL    HW127227   3.232   2.916   4.714
 8776SOL    HW227228   3.297   2.888   4.862
 8777SOL     OW27229   0.306   4.709   1.574
 8777SOL    HW127230   0.264   4.797   1.596
 8777SOL    HW227231   0.235   4.638   1.570
 8778SOL     OW27232   0.431   2.197   4.189
 8778SOL    HW127233   0.502   2.149   4.240
 8778SOL    HW227234   0.413   2.285   4.234
 8779SOL     OW27235   1.705   5.228   2.537
 8779SOL    HW127236   1.759   5.301   2.495
 8779SOL    HW227237   1.658   5.263   2.618
 8780SOL     OW27238   1.482   5.740   3.608
 8780SOL    HW127239   1.495   5.795   3.525
 8780SOL    HW227240   1.552   5.669   3.612
 8781SOL     OW27241   6.632   1.401   3.476
 8781SOL    HW127242   6.553   1.437   3.524
 8781SOL    HW227243   6.611   1.394   3.378
 8782SOL     OW27244   5.877   1.077   1.607
 8782SOL    HW127245   5.897   1.000   1.668
 8782SOL    HW227246   5.825   1.043   1.528
 8783SOL     OW27247   6.153   4.032   3.823
 8783SOL    HW127248   6.178   4.108   3.883
 8783SOL    HW227249   6.054   4.015   3.830
 8784SOL     OW27250   4.892   4.729   5.218
 8784SOL    HW127251   4.954   4.799   5.182
 8784SOL    HW227252   4.883   4.656   5.150
 8785SOL     OW27253   5.645   3.365   0.006
 8785SOL    HW127254   5.730   3.312   0.004
 8785SOL    HW227255   5.585   3.330   0.077
 8786SOL     OW27256   2.337   6.770   6.977
 8786SOL    HW127257   2.433   6.796   6.963
 8786SOL    HW227258   2.322   6.678   6.939
 8787SOL     OW27259   1.536   2.939   2.323
 8787SOL    HW127260   1.588   2.859   2.354
 8787SOL    HW227261   1.548   2.950   2.224
 8788SOL     OW27262   6.415   2.350   5.275
 8788SOL    HW127263   6.339   2.294   5.308
 8788SOL    HW227264   6.383   2.443   5.256
 8789SOL     OW27265   6.030   0.280   6.015
 8789SOL    HW127266   5.945   0.270   6.065
 8789SOL    HW227267   6.075   0.190   6.008
 8790SOL     OW27268   6.536   1.206   6.867
 8790SOL    HW127269   6.472   1.233   6.939
 8790SOL    HW227270   6.629   1.204   6.904
 8791SOL     OW27271   5.192   0.001   5.618
 8791SOL    HW127272   5.200   6.941   5.559
 8791SOL    HW227273   5.181   0.083   5.562
 8792SOL     OW27274   3.716   6.985   3.071
 8792SOL    HW127275   3.733   0.058   3.105
 8792SOL    HW227276   3.768   6.920   3.126
 8793SOL     OW27277   1.951   5.515   3.987
 8793SOL    HW127278   2.028   5.552   4.040
 8793SOL    HW227279   1.886   5.589   3.968
 8794SOL     OW27280   3.138   6.538   2.697
 8794SOL    HW127281   3.238   6.532   2.699
 8794SOL    HW227282   3.106   6.590   2.777
 8795SOL     OW27283   1.672   6.496   5.423
 8795SOL    HW127284   1.749   6.451   5.377
 8795SOL    HW227285   1.588   6.479   5.371
 8796SOL     OW27286   4.043   1.611   5.331
 8796SOL    HW127287   4.143   1.619   5.332
 8796SOL    HW227288   4.003   1.698   5.360
 8797SOL     OW27289   1.573   6.159   6.610
 8797SOL    HW127290   1.563   6.074   6.558
 8797SOL    HW227291   1.659   6.203   6.586
 8798SOL     OW27292   5.596   4.167   5.457
 8798SOL    HW127293   5.554   4.160   5.366
 8798SOL    HW227294   5.527   4.189   5.525
 8799SOL     OW27295   2.387   4.420   3.681
 8799SOL    HW127296   2.435   4.398   3.596
 8799SOL    HW227297   2.290   4.430   3.662
 8800SOL     OW27298   5.217   3.642   5.447
 8800SOL    HW127299   5.291   3.702   5.474
 8800SOL    HW227300   5.166   3.684   5.372
 8801SOL     OW27301   2.167   1.162   3.877
 8801SOL    HW127302   2.246   1.105   3.898
 8801SOL    HW227303   2.198   1.247   3.834
 8802SOL     OW27304   1.128   0.238   1.451
 8802SOL    HW127305   1.081   0.320   1.420
 8802SOL    HW227306   1.072   0.157   1.431
 8803SOL     OW27307   1.481   4.869   6.424
 8803SOL    HW127308   1.473   4.772   6.447
 8803SOL    HW227309   1.395   4.916   6.444
 8804SOL     OW27310   4.474   0.872   1.819
 8804SOL    HW127311   4.436   0.848   1.730
 8804SOL    HW227312   4.551   0.811   1.839
 8805SOL     OW27313   1.818   6.962   3.945
 8805SOL    HW127314   1.893   6.901   3.917
 8805SOL    HW227315   1.748   6.963   3.875
 8806SOL     OW27316   2.208   4.956   1.563
 8806SOL    HW127317   2.264   4.929   1.641
 8806SOL    HW227318   2.204   5.056   1.557
 8807SOL     OW27319   6.794   5.637   5.893
 8807SOL    HW127320   6.743   5.573   5.837
 8807SOL    HW227321   6.731   5.687   5.954
 8808SOL     OW27322   5.528   1.783   0.407
 8808SOL    HW127323   5.502   1.687   0.419
 8808SOL    HW227324   5.615   1.800   0.452
 8809SOL     OW27325   5.714   3.698   1.823
 8809SOL    HW127326   5.781   3.649   1.768
 8809SOL    HW227327   5.672   3.634   1.888
 8810SOL     OW27328   6.020   1.762   5.083
 8810SOL    HW127329   6.106   1.776   5.034
 8810SOL    HW227330   5.945   1.801   5.030
 8811SOL     OW27331   2.200   1.766   4.132
 8811SOL    HW127332   2.174   1.670   4.144
 8811SOL    HW227333   2.118   1.821   4.115
 8812SOL     OW27334   0.714   0.681   0.681
 8812SOL    HW127335   0.692   0.662   0.586
 8812SOL    HW227336   0.777   0.611   0.715
 8813SOL     OW27337   1.350   4.988   1.621
 8813SOL    HW127338   1.322   4.910   1.677
 8813SOL    HW227339   1.378   4.956   1.530
 8814SOL     OW27340   6.972   0.891   7.009
 8814SOL    HW127341   0.051   0.908   7.000
 8814SOL    HW227342   6.957   0.815   0.052
 8815SOL     OW27343   6.645   5.706   0.691
 8815SOL    HW127344   6.615   5.799   0.667
 8815SOL    HW227345   6.666   5.702   0.788
 8816SOL     OW27346   1.224   6.690   0.982
 8816SOL    HW127347   1.222   6.673   0.883
 8816SOL    HW227348   1.228   6.788   0.999
 8817SOL     OW27349   0.651   5.828   5.547
 8817SOL    HW127350   0.640   5.911   5.601
 8817SOL    HW227351   0.614   5.750   5.597
 8818SOL     OW27352   0.094   3.879   3.379
 8818SOL    HW127353   0.062   3.798   3.330
 8818SOL    HW227354   0.188   3.899   3.352
 8819SOL     OW27355   4.518   6.591   3.970
 8819SOL    HW127356   4.433   6.567   3.924
 8819SOL    HW227357   4.557   6.510   4.013
 8820SOL     OW27358   2.076   2.341   4.217
 8820SOL    HW127359   2.080   2.439   4.199
 8820SOL    HW227360   2.158   2.296   4.181
 8821SOL     OW27361   1.814   6.660   6.394
 8821SOL    HW127362   1.718   6.686   6.380
 8821SOL    HW227363   1.852   6.626   6.308
 8822SOL     OW27364   0.564   0.673   2.977
 8822SOL    HW127365   0.551   0.592   2.919
 8822SOL    HW227366   0.626   0.651   3.052
 8823SOL     OW27367   2.219   0.632   1.035
 8823SOL    HW127368   2.231   0.622   0.937
 8823SOL    HW227369   2.164   0.713   1.054
 8824SOL     OW27370   2.626   3.437   0.563
 8824SOL    HW127371   2.585   3.438   0.654
 8824SOL    HW227372   2.585   3.363   0.509
 8825SOL     OW27373   1.407   0.685   2.901
 8825SOL    HW127374   1.415   0.767   2.958
 8825SOL    HW227375   1.496   0.660   2.865
 8826SOL     OW27376   6.103   2.173   0.267
 8826SOL    HW127377   6.145   2.263   0.258
 8826SOL    HW227378   6.157   2.118   0.331
 8827SOL     OW27379   2.971   0.715   3.317
 8827SOL    HW127380   2.983   0.814   3.323
 8827SOL    HW227381   2.876   0.692   3.337
 8828SOL     OW27382   3.954   5.528   3.754
 8828SOL    HW127383   3.967   5.444   3.807
 8828SOL    HW227384   3.879   5.580   3.794
 8829SOL     OW27385   6.883   3.419   0.305
 8829SOL    HW127386   6.945   3.369   0.364
 8829SOL    HW227387   6.905   3.399   0.209
 8830SOL     OW27388   6.760   1.541   6.778
 8830SOL    HW127389   6.740   1.540   6.877
 8830SOL    HW227390   6.681   1.507   6.728
 8831SOL     OW27391   5.635   1.287   3.329
 8831SOL    HW127392   5.633   1.188   3.346
 8831SOL    HW227393   5.560   1.330   3.378
 8832SOL     OW27394   0.136   6.432   2.092
 8832SOL    HW127395   0.215   6.460   2.148
 8832SOL    HW227396   0.062   6.403   2.152
 8833SOL     OW27397   2.097   5.892   5.247
 8833SOL    HW127398   2.163   5.946   5.195
 8833SOL    HW227399   2.005   5.923   5.226
 8834SOL     OW27400   5.476   3.171   4.400
 8834SOL    HW127401   5.522   3.232   4.337
 8834SOL    HW227402   5.395   3.216   4.438
 8835SOL     OW27403   6.157   0.570   5.201
 8835SOL    HW127404   6.176   0.667   5.182
 8835SOL    HW227405   6.062   0.560   5.228
 8836SOL     OW27406   4.397   0.901   1.044
 8836SOL    HW127407   4.481   0.899   0.990
 8836SOL    HW227408   4.319   0.920   0.984
 8837SOL     OW27409   1.109   0.129   2.548
 8837SOL    HW127410   1.043   0.172   2.610
 8837SOL    HW227411   1.101   0.030   2.556
 8838SOL     OW27412   3.042   5.340   3.491
 8838SOL    HW127413   2.942   5.333   3.494
 8838SOL    HW227414   3.079   5.331   3.583
 8839SOL     OW27415   5.734   6.199   3.091
 8839SOL    HW127416   5.725   6.272   3.159
 8839SOL    HW227417   5.735   6.111   3.138
 8840SOL     OW27418   6.526   2.325   2.516
 8840SOL    HW127419   6.624   2.317   2.495
 8840SOL    HW227420   6.473   2.288   2.440
 8841SOL     OW27421   1.245   0.859   5.089
 8841SOL    HW127422   1.249   0.864   4.989
 8841SOL    HW227423   1.253   0.952   5.126
 8842SOL     OW27424   3.872   2.530   0.757
 8842SOL    HW127425   3.845   2.611   0.705
 8842SOL    HW227426   3.859   2.546   0.854
 8843SOL     OW27427   1.682   2.678   5.751
 8843SOL    HW127428   1.598   2.728   5.726
 8843SOL    HW227429   1.715   2.627   5.672
 8844SOL     OW27430   5.572   1.354   6.270
 8844SOL    HW127431   5.474   1.361   6.254
 8844SOL    HW227432   5.600   1.258   6.266
 8845SOL     OW27433   4.348   3.512   0.185
 8845SOL    HW127434   4.261   3.549   0.218
 8845SOL    HW227435   4.375   3.435   0.242
 8846SOL     OW27436   2.133   5.821   3.726
 8846SOL    HW127437   2.147   5.890   3.797
 8846SOL    HW227438   2.040   5.784   3.733
 8847SOL     OW27439   2.761   0.862   2.511
 8847SOL    HW127440   2.792   0.767   2.519
 8847SOL    HW227441   2.837   0.919   2.479
 8848SOL     OW27442   2.398   1.005   1.233
 8848SOL    HW127443   2.370   0.983   1.327
 8848SOL    HW227444   2.495   0.987   1.222
 8849SOL     OW27445   2.262   6.045   3.024
 8849SOL    HW127446   2.192   5.990   3.069
 8849SOL    HW227447   2.343   6.049   3.082
 8850SOL     OW27448   2.595   1.754   0.186
 8850SOL    HW127449   2.583   1.691   0.263
 8850SOL    HW227450   2.604   1.702   0.101
 8851SOL     OW27451   1.679   4.570   2.146
 8851SOL    HW127452   1.691   4.583   2.047
 8851SOL    HW227453   1.581   4.567   2.167
 8852SOL     OW27454   1.319   1.879   5.594
 8852SOL    HW127455   1.368   1.942   5.654
 8852SOL    HW227456   1.364   1.790   5.596
 8853SOL     OW27457   3.113   1.193   1.851
 8853SOL    HW127458   3.203   1.150   1.847
 8853SOL    HW227459   3.103   1.257   1.775
 8854SOL     OW27460   1.629   2.894   5.017
 8854SOL    HW127461   1.614   2.988   4.988
 8854SOL    HW227462   1.723   2.883   5.050
 8855SOL     OW27463   6.290   5.511   1.536
 8855SOL    HW127464   6.374   5.485   1.488
 8855SOL    HW227465   6.211   5.498   1.475
 8856SOL     OW27466   6.245   5.651   6.373
 8856SOL    HW127467   6.318   5.634   6.439
 8856SOL    HW227468   6.193   5.566   6.359
 8857SOL     OW27469   6.759   2.166   5.028
 8857SOL    HW127470   6.817   2.180   4.948
 8857SOL    HW227471   6.816   2.157   5.109
 8858SOL     OW27472   0.347   4.671   5.010
 8858SOL    HW127473   0.258   4.625   5.012
 8858SOL    HW227474   0.404   4.636   5.085
 8859SOL     OW27475   0.938   0.400   3.754
 8859SOL    HW127476   0.989   0.356   3.681
 8859SOL    HW227477   0.970   0.494   3.765
 8860SOL     OW27478   6.776   2.997   1.473
 8860SOL    HW127479   6.870   2.969   1.458
 8860SOL    HW227480   6.775   3.082   1.526
 8861SOL     OW27481   4.191   0.950   0.866
 8861SOL    HW127482   4.149   1.034   0.831
 8861SOL    HW227483   4.148   0.871   0.822
 8862SOL     OW27484   4.687   5.389   4.387
 8862SOL    HW127485   4.589   5.385   4.366
 8862SOL    HW227486   4.734   5.443   4.317
 8863SOL     OW27487   2.127   4.493   3.633
 8863SOL    HW127488   2.083   4.515   3.546
 8863SOL    HW227489   2.084   4.546   3.706
 8864SOL     OW27490   4.912   3.630   6.441
 8864SOL    HW127491   4.986   3.563   6.433
 8864SOL    HW227492   4.917   3.695   6.365
 8865SOL     OW27493   2.637   1.610   5.544
 8865SOL    HW127494   2.630   1.534   5.479
 8865SOL    HW227495   2.553   1.664   5.541
 8866SOL     OW27496   5.520   6.311   2.505
 8866SOL    HW127497   5.423   6.292   2.490
 8866SOL    HW227498   5.535   6.410   2.507
 8867SOL     OW27499   6.616   3.540   2.845
 8867SOL    HW127500   6.524   3.572   2.867
 8867SOL    HW227501   6.613   3.482   2.764
 8868SOL     OW27502   6.748   3.057   2.529
 8868SOL    HW127503   6.785   3.070   2.437
 8868SOL    HW227504   6.799   2.985   2.575
 8869SOL     OW27505   4.410   5.099   4.748
 8869SOL    HW127506   4.500   5.142   4.756
 8869SOL    HW227507   4.344   5.149   4.805
 8870SOL     OW27508   2.323   6.939   1.890
 8870SOL    HW127509   2.404   6.944   1.949
 8870SOL    HW227510   2.241   6.929   1.946
 8871SOL     OW27511   1.151   1.188   3.121
 8871SOL    HW127512   1.226   1.195   3.055
 8871SOL    HW227513   1.188   1.198   3.214
 8872SOL     OW27514   0.749   4.276   6.383
 8872SOL    HW127515   0.770   4.251   6.289
 8872SOL    HW227516   0.833   4.283   6.436
 8873SOL     OW27517   1.997   0.268   2.028
 8873SOL    HW127518   1.902   0.293   2.013
 8873SOL    HW227519   2.056   0.326   1.971
 8874SOL     OW27520   1.845   5.083   0.861
 8874SOL    HW127521   1.898   5.001   0.840
 8874SOL    HW227522   1.747   5.062   0.858
 8875SOL     OW27523   6.865   3.098   3.881
 8875SOL    HW127524   6.886   3.007   3.845
 8875SOL    HW227525   6.864   3.095   3.981
 8876SOL     OW27526   3.189   0.602   6.317
 8876SOL    HW127527   3.215   0.611   6.221
 8876SOL    HW227528   3.098   0.641   6.331
 8877SOL     OW27529   1.600   3.368   1.804
 8877SOL    HW127530   1.506   3.402   1.801
 8877SOL    HW227531   1.655   3.416   1.736
 8878SOL     OW27532   3.717   4.660   0.727
 8878SOL    HW127533   3.760   4.710   0.651
 8878SOL    HW227534   3.687   4.571   0.694
 8879SOL     OW27535   6.767   4.853   2.630
 8879SOL    HW127536   6.762   4.772   2.571
 8879SOL    HW227537   6.766   4.825   2.726
 8880SOL     OW27538   4.107   6.622   3.677
 8880SOL    HW127539   4.103   6.706   3.624
 8880SOL    HW227540   4.062   6.548   3.627
 8881SOL     OW27541   4.644   4.883   4.062
 8881SOL    HW127542   4.692   4.859   4.146
 8881SOL    HW227543   4.581   4.810   4.038
 8882SOL     OW27544   3.646   0.850   0.370
 8882SOL    HW127545   3.546   0.854   0.374
 8882SOL    HW227546   3.674   0.767   0.320
 8883SOL     OW27547   6.974   7.019   6.111
 8883SOL    HW127548   6.942   6.961   6.186
 8883SOL    HW227549   0.004   0.077   6.149
 8884SOL     OW27550   5.443   4.466   4.912
 8884SOL    HW127551   5.510   4.472   4.986
 8884SOL    HW227552   5.390   4.551   4.908
 8885SOL     OW27553   5.607   5.174   0.279
 8885SOL    HW127554   5.673   5.184   0.353
 8885SOL    HW227555   5.650   5.198   0.192
 8886SOL     OW27556   3.784   5.235   6.782
 8886SOL    HW127557   3.835   5.154   6.811
 8886SOL    HW227558   3.816   5.315   6.833
 8887SOL     OW27559   4.218   0.315   0.604
 8887SOL    HW127560   4.153   0.248   0.640
 8887SOL    HW227561   4.168   0.384   0.551
 8888SOL     OW27562   2.038   1.989   3.752
 8888SOL    HW127563   2.096   2.037   3.686
 8888SOL    HW227564   2.063   2.016   3.845
 8889SOL     OW27565   6.871   6.463   6.041
 8889SOL    HW127566   6.902   6.496   5.952
 8889SOL    HW227567   6.937   6.397   6.077
 8890SOL     OW27568   0.264   6.339   0.104
 8890SOL    HW127569   0.337   6.272   0.107
 8890SOL    HW227570   0.181   6.301   0.145
 8891SOL     OW27571   5.528   4.509   6.749
 8891SOL    HW127572   5.516   4.414   6.719
 8891SOL    HW227573   5.500   4.517   6.845
 8892SOL     OW27574   3.735   5.090   3.952
 8892SOL    HW127575   3.774   5.181   3.941
 8892SOL    HW227576   3.726   5.046   3.863
 8893SOL     OW27577   1.435   4.953   5.311
 8893SOL    HW127578   1.370   4.877   5.307
 8893SOL    HW227579   1.439   4.999   5.222
 8894SOL     OW27580   5.058   1.912   0.737
 8894SOL    HW127581   5.088   1.989   0.793
 8894SOL    HW227582   4.967   1.883   0.765
 8895SOL     OW27583   0.936   3.099   0.647
 8895SOL    HW127584   0.859   3.046   0.610
 8895SOL    HW227585   0.937   3.092   0.747
 8896SOL     OW27586   0.817   3.017   5.002
 8896SOL    HW127587   0.837   3.031   4.905
 8896SOL    HW227588   0.746   2.948   5.012
 8897SOL     OW27589   2.086   3.774   3.696
 8897SOL    HW127590   1.987   3.781   3.705
 8897SOL    HW227591   2.109   3.692   3.643
 8898SOL     OW27592   5.461   3.569   2.448
 8898SOL    HW127593   5.551   3.524   2.448
 8898SOL    HW227594   5.453   3.627   2.366
 8899SOL     OW27595   7.008   4.849   6.104
 8899SOL    HW127596   6.941   4.819   6.173
 8899SOL    HW227597   6.990   4.803   6.018
 8900SOL     OW27598   5.686   1.992   3.628
 8900SOL    HW127599   5.779   1.957   3.639
 8900SOL    HW227600   5.624   1.917   3.605
 8901SOL     OW27601   0.901   2.114   3.528
 8901SOL    HW127602   0.892   2.046   3.456
 8901SOL    HW227603   0.991   2.107   3.570
 8902SOL     OW27604   1.318   4.697   0.214
 8902SOL    HW127605   1.386   4.670   0.145
 8902SOL    HW227606   1.344   4.659   0.303
 8903SOL     OW27607   1.384   1.242   5.069
 8903SOL    HW127608   1.386   1.234   4.969
 8903SOL    HW227609   1.376   1.338   5.095
 8904SOL     OW27610   0.104   1.377   2.455
 8904SOL    HW127611   0.107   1.366   2.356
 8904SOL    HW227612   0.014   1.410   2.483
 8905SOL     OW27613   1.783   2.798   2.480
 8905SOL    HW127614   1.711   2.732   2.497
 8905SOL    HW227615   1.783   2.868   2.552
 8906SOL     OW27616   0.864   6.814   0.539
 8906SOL    HW127617   0.929   6.880   0.575
 8906SOL    HW227618   0.865   6.732   0.597
 8907SOL     OW27619   3.302   2.624   5.311
 8907SOL    HW127620   3.267   2.548   5.257
 8907SOL    HW227621   3.235   2.698   5.314
 8908SOL     OW27622   1.396   4.576   0.457
 8908SOL    HW127623   1.328   4.631   0.506
 8908SOL    HW227624   1.383   4.479   0.479
 8909SOL     OW27625   2.760   0.814   6.189
 8909SOL    HW127626   2.670   0.779   6.211
 8909SOL    HW227627   2.759   0.914   6.190
 8910SOL     OW27628   0.937   2.512   5.263
 8910SOL    HW127629   0.870   2.524   5.337
 8910SOL    HW227630   1.023   2.479   5.302
 8911SOL     OW27631   5.097   1.788   4.131
 8911SOL    HW127632   5.096   1.842   4.215
 8911SOL    HW227633   5.114   1.848   4.053
 8912SOL     OW27634   4.116   3.252   5.465
 8912SOL    HW127635   4.018   3.274   5.458
 8912SOL    HW227636   4.143   3.252   5.561
 8913SOL     OW27637   5.502   5.041   6.900
 8913SOL    HW127638   5.409   5.038   6.934
 8913SOL    HW227639   5.559   4.976   6.951
 8914SOL     OW27640   5.269   6.865   4.842
 8914SOL    HW127641   5.268   6.964   4.834
 8914SOL    HW227642   5.363   6.831   4.833
 8915SOL     OW27643   1.207   1.303   3.979
 8915SOL    HW127644   1.123   1.348   4.011
 8915SOL    HW227645   1.188   1.256   3.893
 8916SOL     OW27646   5.522   1.657   6.765
 8916SOL    HW127647   5.458   1.593   6.808
 8916SOL    HW227648   5.507   1.657   6.666
 8917SOL     OW27649   6.114   1.477   0.816
 8917SOL    HW127650   6.098   1.424   0.733
 8917SOL    HW227651   6.203   1.522   0.810
 8918SOL     OW27652   1.767   5.499   1.199
 8918SOL    HW127653   1.773   5.401   1.177
 8918SOL    HW227654   1.693   5.540   1.148
 8919SOL     OW27655   5.430   4.753   6.652
 8919SOL    HW127656   5.482   4.670   6.671
 8919SOL    HW227657   5.430   4.813   6.732
 8920SOL     OW27658   0.353   1.303   0.104
 8920SOL    HW127659   0.429   1.294   0.039
 8920SOL    HW227660   0.384   1.275   0.195
 8921SOL     OW27661   1.342   2.508   1.201
 8921SOL    HW127662   1.403   2.554   1.267
 8921SOL    HW227663   1.256   2.558   1.196
 8922SOL     OW27664   3.692   6.857   2.839
 8922SOL    HW127665   3.681   6.894   2.931
 8922SOL    HW227666   3.763   6.908   2.791
 8923SOL     OW27667   1.431   1.806   5.884
 8923SOL    HW127668   1.411   1.880   5.819
 8923SOL    HW227669   1.514   1.829   5.935
 8924SOL     OW27670   5.467   5.481   4.583
 8924SOL    HW127671   5.440   5.568   4.625
 8924SOL    HW227672   5.385   5.434   4.549
 8925SOL     OW27673   0.486   0.797   2.683
 8925SOL    HW127674   0.410   0.862   2.679
 8925SOL    HW227675   0.556   0.823   2.617
 8926SOL     OW27676   6.427   4.085   5.531
 8926SOL    HW127677   6.440   4.179   5.562
 8926SOL    HW227678   6.513   4.050   5.493
 8927SOL     OW27679   6.274   2.386   5.638
 8927SOL    HW127680   6.263   2.452   5.563
 8927SOL    HW227681   6.344   2.420   5.701
 8928SOL     OW27682   2.357   0.402   5.545
 8928SOL    HW127683   2.408   0.487   5.531
 8928SOL    HW227684   2.261   0.417   5.525
 8929SOL     OW27685   6.125   2.578   4.865
 8929SOL    HW127686   6.214   2.540   4.892
 8929SOL    HW227687   6.096   2.645   4.932
 8930SOL     OW27688   1.172   3.780   2.941
 8930SOL    HW127689   1.160   3.832   2.857
 8930SOL    HW227690   1.148   3.684   2.924
 8931SOL     OW27691   3.247   2.761   1.362
 8931SOL    HW127692   3.170   2.740   1.301
 8931SOL    HW227693   3.278   2.855   1.345
 8932SOL     OW27694   0.215   1.819   3.334
 8932SOL    HW127695   0.161   1.742   3.300
 8932SOL    HW227696   0.165   1.865   3.408
 8933SOL     OW27697   2.938   2.585   6.759
 8933SOL    HW127698   2.852   2.637   6.756
 8933SOL    HW227699   2.922   2.494   6.720
 8934SOL     OW27700   3.367   5.403   4.710
 8934SOL    HW127701   3.385   5.334   4.640
 8934SOL    HW227702   3.289   5.376   4.766
 8935SOL     OW27703   0.303   5.078   0.877
 8935SOL    HW127704   0.227   5.140   0.899
 8935SOL    HW227705   0.324   5.022   0.956
 8936SOL     OW27706   1.889   3.345   0.884
 8936SOL    HW127707   1.895   3.323   0.786
 8936SOL    HW227708   1.975   3.321   0.928
 8937SOL     OW27709   0.342   6.964   5.187
 8937SOL    HW127710   0.250   6.999   5.208
 8937SOL    HW227711   0.343   6.928   5.094
 8938SOL     OW27712   0.580   5.264   1.336
 8938SOL    HW127713   0.548   5.285   1.244
 8938SOL    HW227714   0.678   5.249   1.335
 8939SOL     OW27715   4.821   2.436   4.933
 8939SOL    HW127716   4.827   2.357   4.872
 8939SOL    HW227717   4.808   2.519   4.879
 8940SOL     OW27718   0.160   1.007   3.895
 8940SOL    HW127719   0.210   0.960   3.968
 8940SOL    HW227720   0.217   1.014   3.814
 8941SOL     OW27721   5.864   2.293   5.557
 8941SOL    HW127722   5.849   2.201   5.522
 8941SOL    HW227723   5.927   2.290   5.634
 8942SOL     OW27724   0.329   3.317   5.905
 8942SOL    HW127725   0.275   3.367   5.838
 8942SOL    HW227726   0.282   3.317   5.993
 8943SOL     OW27727   4.847   4.205   0.538
 8943SOL    HW127728   4.879   4.220   0.631
 8943SOL    HW227729   4.924   4.216   0.475
 8944SOL     OW27730   4.955   5.540   5.784
 8944SOL    HW127731   5.004   5.460   5.748
 8944SOL    HW227732   4.919   5.594   5.708
 8945SOL     OW27733   1.916   0.581   4.635
 8945SOL    HW127734   1.956   0.491   4.650
 8945SOL    HW227735   1.879   0.586   4.542
 8946SOL     OW27736   3.383   2.149   4.899
 8946SOL    HW127737   3.350   2.115   4.811
 8946SOL    HW227738   3.313   2.206   4.942
 8947SOL     OW27739   1.678   4.002   5.029
 8947SOL    HW127740   1.769   3.976   5.060
 8947SOL    HW227741   1.621   4.026   5.107
 8948SOL     OW27742   5.511   5.415   3.660
 8948SOL    HW127743   5.425   5.465   3.679
 8948SOL    HW227744   5.489   5.322   3.631
 8949SOL     OW27745   2.055   0.097   0.450
 8949SOL    HW127746   1.994   0.021   0.468
 8949SOL    HW227747   2.049   0.164   0.524
 8950SOL     OW27748   4.901   3.151   5.774
 8950SOL    HW127749   4.855   3.160   5.685
 8950SOL    HW227750   4.909   3.054   5.797
 8951SOL     OW27751   1.813   2.096   5.068
 8951SOL    HW127752   1.815   2.160   4.991
 8951SOL    HW227753   1.723   2.053   5.074
 8952SOL     OW27754   1.156   0.579   2.484
 8952SOL    HW127755   1.130   0.603   2.578
 8952SOL    HW227756   1.105   0.637   2.420
 8953SOL     OW27757   0.950   3.486   6.773
 8953SOL    HW127758   1.048   3.474   6.759
 8953SOL    HW227759   0.934   3.524   6.864
 8954SOL     OW27760   0.488   6.016   5.260
 8954SOL    HW127761   0.512   6.050   5.351
 8954SOL    HW227762   0.397   6.050   5.235
 8955SOL     OW27763   7.005   4.510   2.891
 8955SOL    HW127764   0.064   4.449   2.886
 8955SOL    HW227765   7.012   4.579   2.818
 8956SOL     OW27766   0.020   1.279   6.723
 8956SOL    HW127767   6.992   1.256   6.639
 8956SOL    HW227768   6.980   1.263   6.801
 8957SOL     OW27769   3.065   4.159   1.430
 8957SOL    HW127770   2.980   4.189   1.386
 8957SOL    HW227771   3.066   4.189   1.525
 8958SOL     OW27772   0.877   0.461   4.178
 8958SOL    HW127773   0.785   0.498   4.184
 8958SOL    HW227774   0.882   0.396   4.102
 8959SOL     OW27775   1.055   4.212   0.363
 8959SOL    HW127776   0.976   4.215   0.302
 8959SOL    HW227777   1.069   4.303   0.404
 8960SOL     OW27778   4.234   5.589   2.847
 8960SOL    HW127779   4.331   5.572   2.866
 8960SOL    HW227780   4.212   5.553   2.756
 8961SOL     OW27781   1.477   2.073   4.381
 8961SOL    HW127782   1.483   2.148   4.314
 8961SOL    HW227783   1.555   2.077   4.443
 8962SOL     OW27784   5.760   6.679   2.237
 8962SOL    HW127785   5.688   6.620   2.273
 8962SOL    HW227786   5.722   6.769   2.216
 8963SOL     OW27787   4.927   6.496   4.046
 8963SOL    HW127788   4.946   6.585   4.087
 8963SOL    HW227789   5.008   6.438   4.052
 8964SOL     OW27790   5.942   4.367   2.438
 8964SOL    HW127791   5.991   4.394   2.521
 8964SOL    HW227792   6.007   4.328   2.373
 8965SOL     OW27793   1.461   4.763   0.935
 8965SOL    HW127794   1.491   4.800   0.847
 8965SOL    HW227795   1.519   4.686   0.960
 8966SOL     OW27796   1.787   2.987   5.487
 8966SOL    HW127797   1.798   2.890   5.467
 8966SOL    HW227798   1.872   3.035   5.467
 8967SOL     OW27799   2.870   6.297   1.742
 8967SOL    HW127800   2.798   6.295   1.811
 8967SOL    HW227801   2.959   6.309   1.786
 8968SOL     OW27802   4.508   5.363   2.551
 8968SOL    HW127803   4.499   5.462   2.541
 8968SOL    HW227804   4.496   5.338   2.647
 8969SOL     OW27805   6.160   0.515   3.966
 8969SOL    HW127806   6.231   0.455   4.004
 8969SOL    HW227807   6.073   0.496   4.011
 8970SOL     OW27808   3.128   2.881   0.292
 8970SOL    HW127809   3.076   2.891   0.377
 8970SOL    HW227810   3.211   2.936   0.297
 8971SOL     OW27811   3.429   5.957   2.536
 8971SOL    HW127812   3.514   5.905   2.545
 8971SOL    HW227813   3.351   5.896   2.552
 8972SOL     OW27814   4.664   6.174   6.808
 8972SOL    HW127815   4.649   6.139   6.900
 8972SOL    HW227816   4.609   6.121   6.743
 8973SOL     OW27817   0.954   3.830   1.976
 8973SOL    HW127818   0.873   3.781   2.007
 8973SOL    HW227819   0.926   3.906   1.917
 8974SOL     OW27820   1.304   4.446   6.282
 8974SOL    HW127821   1.258   4.524   6.239
 8974SOL    HW227822   1.238   4.371   6.294
 8975SOL     OW27823   2.764   0.969   6.876
 8975SOL    HW127824   2.682   0.980   6.934
 8975SOL    HW227825   2.829   1.042   6.897
 8976SOL     OW27826   1.049   5.176   5.344
 8976SOL    HW127827   1.117   5.137   5.282
 8976SOL    HW227828   1.014   5.261   5.306
 8977SOL     OW27829   5.808   1.461   6.588
 8977SOL    HW127830   5.821   1.433   6.492
 8977SOL    HW227831   5.866   1.540   6.608
 8978SOL     OW27832   6.450   6.209   6.873
 8978SOL    HW127833   6.528   6.238   6.818
 8978SOL    HW227834   6.376   6.178   6.813
 8979SOL     OW27835   1.534   3.414   4.320
 8979SOL    HW127836   1.555   3.362   4.403
 8979SOL    HW227837   1.440   3.447   4.325
 8980SOL     OW27838   2.334   3.232   5.596
 8980SOL    HW127839   2.288   3.144   5.611
 8980SOL    HW227840   2.293   3.301   5.655
 8981SOL     OW27841   4.055   1.472   4.807
 8981SOL    HW127842   4.092   1.487   4.899
 8981SOL    HW227843   4.025   1.559   4.769
 8982SOL     OW27844   1.257   2.841   0.174
 8982SOL    HW127845   1.247   2.766   0.240
 8982SOL    HW227846   1.345   2.886   0.189
 8983SOL     OW27847   2.934   5.693   6.606
 8983SOL    HW127848   2.991   5.690   6.688
 8983SOL    HW227849   2.992   5.696   6.525
 8984SOL     OW27850   1.452   6.956   3.457
 8984SOL    HW127851   1.359   6.989   3.472
 8984SOL    HW227852   1.476   6.970   3.361
 8985SOL     OW27853   3.939   2.280   1.088
 8985SOL    HW127854   3.845   2.255   1.064
 8985SOL    HW227855   3.941   2.312   1.183
 8986SOL     OW27856   4.118   4.873   2.646
 8986SOL    HW127857   4.134   4.848   2.741
 8986SOL    HW227858   4.130   4.972   2.635
 8987SOL     OW27859   3.919   6.567   2.587
 8987SOL    HW127860   3.994   6.516   2.629
 8987SOL    HW227861   3.873   6.509   2.520
 8988SOL     OW27862   1.032   5.397   3.956
 8988SOL    HW127863   1.091   5.408   4.036
 8988SOL    HW227864   0.954   5.460   3.962
 8989SOL     OW27865   4.312   3.015   6.946
 8989SOL    HW127866   4.354   2.953   7.012
 8989SOL    HW227867   4.337   3.109   6.968
 8990SOL     OW27868   0.958   5.166   3.834
 8990SOL    HW127869   0.970   5.257   3.875
 8990SOL    HW227870   0.962   5.096   3.906
 8991SOL     OW27871   1.578   3.608   4.852
 8991SOL    HW127872   1.636   3.595   4.933
 8991SOL    HW227873   1.538   3.699   4.854
 8992SOL     OW27874   4.806   1.839   0.845
 8992SOL    HW127875   4.814   1.927   0.893
 8992SOL    HW227876   4.740   1.847   0.770
 8993SOL     OW27877   3.958   3.404   0.326
 8993SOL    HW127878   3.980   3.489   0.278
 8993SOL    HW227879   3.864   3.408   0.360
 8994SOL     OW27880   1.422   4.971   5.036
 8994SOL    HW127881   1.457   4.878   5.044
 8994SOL    HW227882   1.475   5.020   4.966
 8995SOL     OW27883   0.219   1.965   0.051
 8995SOL    HW127884   0.145   1.911   0.011
 8995SOL    HW227885   0.281   1.996   6.999
 8996SOL     OW27886   5.602   4.246   6.587
 8996SOL    HW127887   5.646   4.169   6.541
 8996SOL    HW227888   5.552   4.300   6.520
 8997SOL     OW27889   4.466   1.430   6.018
 8997SOL    HW127890   4.472   1.429   6.118
 8997SOL    HW227891   4.377   1.393   5.990
 8998SOL     OW27892   5.610   3.313   4.232
 8998SOL    HW127893   5.571   3.391   4.280
 8998SOL    HW227894   5.704   3.297   4.264
 8999SOL     OW27895   4.859   6.517   6.338
 8999SOL    HW127896   4.828   6.436   6.288
 8999SOL    HW227897   4.841   6.505   6.435
 9000SOL     OW27898   1.836   2.855   2.207
 9000SOL    HW127899   1.848   2.842   2.305
 9000SOL    HW227900   1.823   2.952   2.187
 9001SOL     OW27901   1.074   4.969   1.655
 9001SOL    HW127902   1.000   5.027   1.619
 9001SOL    HW227903   1.162   5.013   1.637
 9002SOL     OW27904   1.968   4.963   5.515
 9002SOL    HW127905   1.868   4.968   5.514
 9002SOL    HW227906   1.997   4.867   5.517
 9003SOL     OW27907   5.443   3.837   1.486
 9003SOL    HW127908   5.529   3.863   1.531
 9003SOL    HW227909   5.436   3.883   1.398
 9004SOL     OW27910   4.441   5.162   0.714
 9004SOL    HW127911   4.387   5.112   0.646
 9004SOL    HW227912   4.534   5.124   0.715
 9005SOL     OW27913   6.725   1.897   5.333
 9005SOL    HW127914   6.657   1.826   5.352
 9005SOL    HW227915   6.691   1.986   5.366
 9006SOL     OW27916   3.147   6.120   1.199
 9006SOL    HW127917   3.147   6.074   1.288
 9006SOL    HW227918   3.053   6.138   1.170
 9007SOL     OW27919   2.797   1.158   2.614
 9007SOL    HW127920   2.708   1.194   2.640
 9007SOL    HW227921   2.847   1.228   2.562
 9008SOL     OW27922   0.206   4.959   2.610
 9008SOL    HW127923   0.295   4.970   2.655
 9008SOL    HW227924   0.218   4.914   2.522
 9009SOL     OW27925   3.369   5.311   1.222
 9009SOL    HW127926   3.369   5.213   1.201
 9009SOL    HW227927   3.409   5.361   1.146
 9010SOL     OW27928   1.858   6.352   4.475
 9010SOL    HW127929   1.823   6.421   4.412
 9010SOL    HW227930   1.957   6.362   4.485
 9011SOL     OW27931   4.256   0.755   1.279
 9011SOL    HW127932   4.263   0.783   1.375
 9011SOL    HW227933   4.305   0.820   1.221
 9012SOL     OW27934   2.320   5.105   0.135
 9012SOL    HW127935   2.270   5.061   0.060
 9012SOL    HW227936   2.407   5.140   0.101
 9013SOL     OW27937   1.319   0.811   6.084
 9013SOL    HW127938   1.220   0.801   6.080
 9013SOL    HW227939   1.361   0.758   6.010
 9014SOL     OW27940   6.339   2.320   0.557
 9014SOL    HW127941   6.389   2.233   0.551
 9014SOL    HW227942   6.251   2.305   0.602
 9015SOL     OW27943   4.828   2.070   1.567
 9015SOL    HW127944   4.912   2.075   1.621
 9015SOL    HW227945   4.848   2.026   1.479
 9016SOL     OW27946   6.424   5.827   6.806
 9016SOL    HW127947   6.458   5.745   6.852
 9016SOL    HW227948   6.417   5.902   6.872
 9017SOL     OW27949   4.675   1.396   3.887
 9017SOL    HW127950   4.766   1.370   3.854
 9017SOL    HW227951   4.678   1.491   3.921
 9018SOL     OW27952   2.364   3.474   5.341
 9018SOL    HW127953   2.337   3.489   5.436
 9018SOL    HW227954   2.439   3.408   5.338
 9019SOL     OW27955   1.052   5.202   2.724
 9019SOL    HW127956   0.954   5.189   2.735
 9019SOL    HW227957   1.101   5.138   2.783
 9020SOL     OW27958   6.582   4.135   0.888
 9020SOL    HW127959   6.636   4.193   0.949
 9020SOL    HW227960   6.508   4.092   0.940
 9021SOL     OW27961   6.540   1.102   3.233
 9021SOL    HW127962   6.462   1.158   3.261
 9021SOL    HW227963   6.612   1.162   3.197
 9022SOL     OW27964   3.473   1.150   0.007
 9022SOL    HW127965   3.568   1.121   0.016
 9022SOL    HW227966   3.462   1.202   6.942
 9023SOL     OW27967   3.967   3.759   1.730
 9023SOL    HW127968   4.011   3.703   1.800
 9023SOL    HW227969   3.871   3.732   1.722
 9024SOL     OW27970   1.315   4.229   5.320
 9024SOL    HW127971   1.247   4.279   5.372
 9024SOL    HW227972   1.271   4.153   5.272
 9025SOL     OW27973   0.275   5.511   1.050
 9025SOL    HW127974   0.186   5.545   1.079
 9025SOL    HW227975   0.276   5.500   0.950
 9026SOL     OW27976   3.658   2.138   1.010
 9026SOL    HW127977   3.630   2.229   1.043
 9026SOL    HW227978   3.632   2.069   1.077
 9027SOL     OW27979   0.820   3.340   2.996
 9027SOL    HW127980   0.903   3.303   3.037
 9027SOL    HW227981   0.742   3.319   3.055
 9028SOL     OW27982   3.234   3.108   5.307
 9028SOL    HW127983   3.162   3.090   5.374
 9028SOL    HW227984   3.290   3.026   5.295
 9029SOL     OW27985   4.007   6.588   4.840
 9029SOL    HW127986   3.917   6.632   4.846
 9029SOL    HW227987   4.070   6.646   4.789
 9030SOL     OW27988   2.394   2.131   3.931
 9030SOL    HW127989   2.340   2.048   3.920
 9030SOL    HW227990   2.387   2.188   3.849
 9031SOL     OW27991   4.403   6.775   4.280
 9031SOL    HW127992   4.311   6.749   4.252
 9031SOL    HW227993   4.397   6.835   4.360
 9032SOL     OW27994   4.994   4.147   1.143
 9032SOL    HW127995   5.016   4.091   1.063
 9032SOL    HW227996   4.910   4.113   1.186
 9033SOL     OW27997   0.826   4.605   2.387
 9033SOL    HW127998   0.915   4.646   2.368
 9033SOL    HW227999   0.804   4.617   2.484
 9034SOL     OW28000   3.316   5.982   4.520
 9034SOL    HW128001   3.237   5.993   4.460
 9034SOL    HW228002   3.309   5.897   4.570
 9035SOL     OW28003   2.258   5.335   0.296
 9035SOL    HW128004   2.259   5.246   0.249
 9035SOL    HW228005   2.331   5.392   0.259
 9036SOL     OW28006   1.752   3.739   5.513
 9036SOL    HW128007   1.821   3.790   5.461
 9036SOL    HW228008   1.667   3.790   5.514
 9037SOL     OW28009   1.366   3.457   3.894
 9037SOL    HW128010   1.452   3.426   3.935
 9037SOL    HW228011   1.292   3.451   3.961
 9038SOL     OW28012   4.446   2.614   6.820
 9038SOL    HW128013   4.361   2.577   6.858
 9038SOL    HW228014   4.523   2.558   6.849
 9039SOL     OW28015   2.850   4.842   6.390
 9039SOL    HW128016   2.822   4.792   6.309
 9039SOL    HW228017   2.783   4.913   6.411
 9040SOL     OW28018   2.696   2.330   2.425
 9040SOL    HW128019   2.714   2.261   2.355
 9040SOL    HW228020   2.722   2.420   2.390
 9041SOL     OW28021   1.272   2.180   0.998
 9041SOL    HW128022   1.348   2.201   1.060
 9041SOL    HW228023   1.189   2.163   1.051
 9042SOL     OW28024   3.885   0.503   4.260
 9042SOL    HW128025   3.793   0.535   4.235
 9042SOL    HW228026   3.922   0.562   4.331
 9043SOL     OW28027   2.482   1.089   6.371
 9043SOL    HW128028   2.506   1.149   6.447
 9043SOL    HW228029   2.557   1.088   6.304
 9044SOL     OW28030   6.773   0.994   0.147
 9044SOL    HW128031   6.824   0.995   0.233
 9044SOL    HW228032   6.837   0.986   0.070
 9045SOL     OW28033   3.383   0.852   2.433
 9045SOL    HW128034   3.422   0.866   2.524
 9045SOL    HW228035   3.381   0.939   2.384
 9046SOL     OW28036   3.977   3.882   2.652
 9046SOL    HW128037   3.994   3.962   2.710
 9046SOL    HW228038   3.984   3.799   2.706
 9047SOL     OW28039   1.467   3.854   4.889
 9047SOL    HW128040   1.400   3.926   4.908
 9047SOL    HW228041   1.559   3.888   4.909
 9048SOL     OW28042   6.074   2.611   5.881
 9048SOL    HW128043   6.066   2.511   5.873
 9048SOL    HW228044   6.085   2.650   5.789
 9049SOL     OW28045   4.371   6.395   5.676
 9049SOL    HW128046   4.357   6.298   5.654
 9049SOL    HW228047   4.452   6.404   5.735
 9050SOL     OW28048   0.200   3.366   1.801
 9050SOL    HW128049   0.297   3.385   1.783
 9050SOL    HW228050   0.191   3.277   1.845
 9051SOL     OW28051   2.410   0.238   1.752
 9051SOL    HW128052   2.359   0.297   1.815
 9051SOL    HW228053   2.351   0.164   1.720
 9052SOL     OW28054   2.085   2.676   4.092
 9052SOL    HW128055   2.137   2.759   4.074
 9052SOL    HW228056   2.016   2.694   4.162
 9053SOL     OW28057   2.042   1.349   1.297
 9053SOL    HW128058   2.085   1.317   1.381
 9053SOL    HW228059   2.061   1.285   1.222
 9054SOL     OW28060   2.461   6.123   4.882
 9054SOL    HW128061   2.513   6.057   4.936
 9054SOL    HW228062   2.471   6.102   4.785
 9055SOL     OW28063   6.349   2.609   3.937
 9055SOL    HW128064   6.292   2.554   3.998
 9055SOL    HW228065   6.342   2.706   3.961
 9056SOL     OW28066   6.861   2.128   1.478
 9056SOL    HW128067   6.868   2.197   1.551
 9056SOL    HW228068   6.952   2.099   1.451
 9057SOL     OW28069   4.606   2.531   5.107
 9057SOL    HW128070   4.671   2.461   5.077
 9057SOL    HW228071   4.634   2.620   5.073
 9058SOL     OW28072   1.502   0.866   1.279
 9058SOL    HW128073   1.511   0.767   1.267
 9058SOL    HW228074   1.405   0.890   1.280
 9059SOL     OW28075   0.971   2.282   3.109
 9059SOL    HW128076   0.980   2.322   3.200
 9059SOL    HW228077   1.011   2.190   3.108
 9060SOL     OW28078   5.946   2.527   4.259
 9060SOL    HW128079   5.924   2.477   4.343
 9060SOL    HW228080   5.990   2.614   4.283
 9061SOL     OW28081   3.210   5.636   2.206
 9061SOL    HW128082   3.168   5.554   2.167
 9061SOL    HW228083   3.140   5.705   2.222
 9062SOL     OW28084   1.439   6.377   1.230
 9062SOL    HW128085   1.353   6.415   1.265
 9062SOL    HW228086   1.516   6.415   1.281
 9063SOL     OW28087   3.009   0.582   3.595
 9063SOL    HW128088   2.921   0.616   3.561
 9063SOL    HW228089   2.992   0.510   3.663
 9064SOL     OW28090   6.474   3.569   6.278
 9064SOL    HW128091   6.494   3.478   6.240
 9064SOL    HW228092   6.537   3.636   6.237
 9065SOL     OW28093   3.875   0.343   0.550
 9065SOL    HW128094   3.792   0.395   0.573
 9065SOL    HW228095   3.953   0.406   0.546
 9066SOL     OW28096   5.370   0.127   0.569
 9066SOL    HW128097   5.461   0.115   0.530
 9066SOL    HW228098   5.301   0.099   0.502
 9067SOL     OW28099   1.437   0.333   3.440
 9067SOL    HW128100   1.517   0.392   3.434
 9067SOL    HW228101   1.436   0.268   3.364
 9068SOL     OW28102   0.921   0.107   4.792
 9068SOL    HW128103   0.999   0.138   4.739
 9068SOL    HW228104   0.843   0.093   4.731
 9069SOL     OW28105   1.281   3.089   6.714
 9069SOL    HW128106   1.258   3.008   6.660
 9069SOL    HW228107   1.257   3.074   6.809
 9070SOL     OW28108   1.935   3.993   4.760
 9070SOL    HW128109   2.032   3.987   4.736
 9070SOL    HW228110   1.890   3.907   4.738
 9071SOL     OW28111   6.573   6.201   0.833
 9071SOL    HW128112   6.611   6.273   0.776
 9071SOL    HW228113   6.621   6.199   0.921
 9072SOL     OW28114   6.720   3.009   0.920
 9072SOL    HW128115   6.784   2.938   0.892
 9072SOL    HW228116   6.715   3.012   1.020
 9073SOL     OW28117   1.767   6.748   1.938
 9073SOL    HW128118   1.681   6.714   1.976
 9073SOL    HW228119   1.823   6.788   2.011
 9074SOL     OW28120   1.605   0.711   2.637
 9074SOL    HW128121   1.548   0.784   2.675
 9074SOL    HW228122   1.549   0.653   2.577
 9075SOL     OW28123   6.792   1.127   2.389
 9075SOL    HW128124   6.759   1.088   2.303
 9075SOL    HW228125   6.751   1.217   2.403
 9076SOL     OW28126   0.506   1.425   6.232
 9076SOL    HW128127   0.562   1.505   6.211
 9076SOL    HW228128   0.552   1.370   6.302
 9077SOL     OW28129   4.355   6.412   1.876
 9077SOL    HW128130   4.453   6.428   1.877
 9077SOL    HW228131   4.337   6.317   1.850
 9078SOL     OW28132   3.643   2.896   4.478
 9078SOL    HW128133   3.654   2.905   4.577
 9078SOL    HW228134   3.546   2.881   4.457
 9079SOL     OW28135   2.774   0.601   4.553
 9079SOL    HW128136   2.811   0.511   4.529
 9079SOL    HW228137   2.810   0.630   4.642
 9080SOL     OW28138   5.199   2.803   0.122
 9080SOL    HW128139   5.126   2.748   0.083
 9080SOL    HW228140   5.266   2.743   0.165
 9081SOL     OW28141   5.257   6.400   2.741
 9081SOL    HW128142   5.354   6.426   2.742
 9081SOL    HW228143   5.235   6.353   2.826
 9082SOL     OW28144   1.746   0.043   4.650
 9082SOL    HW128145   1.779   6.986   4.704
 9082SOL    HW228146   1.725   0.012   4.557
 9083SOL     OW28147   4.658   4.604   6.064
 9083SOL    HW128148   4.613   4.526   6.020
 9083SOL    HW228149   4.669   4.678   5.997
 9084SOL     OW28150   3.873   3.475   2.996
 9084SOL    HW128151   3.798   3.427   2.951
 9084SOL    HW228152   3.960   3.439   2.963
 9085SOL     OW28153   2.643   0.894   0.866
 9085SOL    HW128154   2.661   0.797   0.881
 9085SOL    HW228155   2.545   0.912   0.877
 9086SOL     OW28156   0.403   4.054   0.586
 9086SOL    HW128157   0.467   4.002   0.642
 9086SOL    HW228158   0.396   4.147   0.620
 9087SOL     OW28159   5.281   3.094   2.605
 9087SOL    HW128160   5.207   3.047   2.558
 9087SOL    HW228161   5.333   3.150   2.540
 9088SOL     OW28162   6.271   0.186   0.458
 9088SOL    HW128163   6.262   0.279   0.423
 9088SOL    HW228164   6.351   0.180   0.517
 9089SOL     OW28165   4.939   6.323   5.918
 9089SOL    HW128166   4.957   6.266   5.998
 9089SOL    HW228167   4.935   6.266   5.836
 9090SOL     OW28168   6.032   1.088   4.954
 9090SOL    HW128169   6.032   1.137   4.867
 9090SOL    HW228170   5.937   1.069   4.981
 9091SOL     OW28171   2.970   3.548   6.952
 9091SOL    HW128172   2.932   3.473   7.006
 9091SOL    HW228173   2.906   3.625   6.952
 9092SOL     OW28174   6.505   1.452   6.730
 9092SOL    HW128175   6.502   1.354   6.745
 9092SOL    HW228176   6.455   1.499   6.803
 9093SOL     OW28177   1.559   6.082   5.088
 9093SOL    HW128178   1.500   6.163   5.100
 9093SOL    HW228179   1.554   6.026   5.170
 9094SOL     OW28180   0.775   3.584   3.165
 9094SOL    HW128181   0.807   3.498   3.124
 9094SOL    HW228182   0.686   3.607   3.127
 9095SOL     OW28183   4.375   4.755   5.818
 9095SOL    HW128184   4.388   4.786   5.724
 9095SOL    HW228185   4.277   4.749   5.838
 9096SOL     OW28186   6.698   4.892   3.425
 9096SOL    HW128187   6.753   4.836   3.363
 9096SOL    HW228188   6.754   4.922   3.502
 9097SOL     OW28189   1.280   2.637   6.408
 9097SOL    HW128190   1.328   2.646   6.321
 9097SOL    HW228191   1.190   2.595   6.392
 9098SOL     OW28192   2.163   2.218   5.140
 9098SOL    HW128193   2.260   2.215   5.166
 9098SOL    HW228194   2.118   2.135   5.173
 9099SOL     OW28195   2.571   2.964   5.881
 9099SOL    HW128196   2.641   3.003   5.822
 9099SOL    HW228197   2.610   2.946   5.972
 9100SOL     OW28198   1.376   3.731   2.471
 9100SOL    HW128199   1.297   3.728   2.533
 9100SOL    HW228200   1.416   3.640   2.463
 9101SOL     OW28201   2.983   1.641   2.428
 9101SOL    HW128202   3.050   1.573   2.458
 9101SOL    HW228203   2.931   1.673   2.507
 9102SOL     OW28204   4.431   6.241   2.775
 9102SOL    HW128205   4.442   6.194   2.863
 9102SOL    HW228206   4.338   6.227   2.741
 9103SOL     OW28207   6.276   1.462   6.902
 9103SOL    HW128208   6.215   1.530   6.943
 9103SOL    HW228209   6.222   1.383   6.872
 9104SOL     OW28210   6.978   0.991   1.142
 9104SOL    HW128211   6.945   1.081   1.113
 9104SOL    HW228212   6.900   0.932   1.162
 9105SOL     OW28213   1.449   0.097   5.292
 9105SOL    HW128214   1.494   0.173   5.246
 9105SOL    HW228215   1.358   0.083   5.253
 9106SOL     OW28216   0.630   4.101   0.075
 9106SOL    HW128217   0.615   4.055   0.163
 9106SOL    HW228218   0.587   4.049   0.002
 9107SOL     OW28219   2.663   0.453   6.385
 9107SOL    HW128220   2.726   0.473   6.310
 9107SOL    HW228221   2.702   0.489   6.471
 9108SOL     OW28222   5.051   5.105   5.526
 9108SOL    HW128223   5.016   5.145   5.441
 9108SOL    HW228224   5.149   5.122   5.534
 9109SOL     OW28225   5.207   3.281   2.378
 9109SOL    HW128226   5.184   3.198   2.327
 9109SOL    HW228227   5.296   3.315   2.348
 9110SOL     OW28228   1.484   5.616   5.149
 9110SOL    HW128229   1.483   5.521   5.180
 9110SOL    HW228230   1.420   5.627   5.073
 9111SOL     OW28231   4.731   2.901   6.178
 9111SOL    HW128232   4.769   2.848   6.102
 9111SOL    HW228233   4.800   2.965   6.211
 9112SOL     OW28234   1.844   4.925   2.700
 9112SOL    HW128235   1.891   4.943   2.614
 9112SOL    HW228236   1.873   4.991   2.769
 9113SOL     OW28237   5.427   2.416   3.059
 9113SOL    HW128238   5.386   2.428   2.969
 9113SOL    HW228239   5.375   2.349   3.111
 9114SOL     OW28240   1.637   6.155   4.459
 9114SOL    HW128241   1.629   6.119   4.366
 9114SOL    HW228242   1.708   6.227   4.461
 9115SOL     OW28243   5.338   4.873   3.503
 9115SOL    HW128244   5.398   4.806   3.547
 9115SOL    HW228245   5.393   4.940   3.453
 9116SOL     OW28246   0.265   6.546   3.383
 9116SOL    HW128247   0.312   6.595   3.310
 9116SOL    HW228248   0.213   6.470   3.344
 9117SOL     OW28249   4.220   1.025   6.888
 9117SOL    HW128250   4.195   0.938   6.846
 9117SOL    HW228251   4.291   1.010   6.957
 9118SOL     OW28252   6.027   3.594   0.275
 9118SOL    HW128253   6.027   3.517   0.211
 9118SOL    HW228254   5.935   3.631   0.283
 9119SOL     OW28255   3.488   6.239   0.972
 9119SOL    HW128256   3.430   6.232   0.891
 9119SOL    HW228257   3.436   6.216   1.054
 9120SOL     OW28258   6.367   2.459   6.130
 9120SOL    HW128259   6.388   2.554   6.107
 9120SOL    HW228260   6.374   2.445   6.228
 9121SOL     OW28261   4.171   0.596   5.680
 9121SOL    HW128262   4.164   0.624   5.775
 9121SOL    HW228263   4.148   0.499   5.671
 9122SOL     OW28264   2.272   4.201   2.064
 9122SOL    HW128265   2.316   4.223   2.151
 9122SOL    HW228266   2.173   4.201   2.077
 9123SOL     OW28267   1.475   0.763   3.364
 9123SOL    HW128268   1.381   0.727   3.368
 9123SOL    HW228269   1.484   0.823   3.285
 9124SOL     OW28270   3.196   5.101   1.291
 9124SOL    HW128271   3.226   5.125   1.383
 9124SOL    HW228272   3.249   5.022   1.259
 9125SOL     OW28273   3.224   6.424   6.758
 9125SOL    HW128274   3.206   6.480   6.838
 9125SOL    HW228275   3.159   6.348   6.755
 9126SOL     OW28276   4.036   4.575   0.745
 9126SOL    HW128277   3.972   4.514   0.792
 9126SOL    HW228278   4.129   4.546   0.763
 9127SOL     OW28279   0.028   3.518   5.069
 9127SOL    HW128280   6.984   3.553   5.137
 9127SOL    HW228281   0.059   3.427   5.096
 9128SOL     OW28282   6.063   2.867   4.762
 9128SOL    HW128283   6.047   2.829   4.853
 9128SOL    HW228284   6.081   2.966   4.770
 9129SOL     OW28285   2.173   1.941   1.070
 9129SOL    HW128286   2.114   1.887   1.010
 9129SOL    HW228287   2.204   2.023   1.021
 9130SOL     OW28288   2.900   4.283   5.523
 9130SOL    HW128289   2.876   4.190   5.495
 9130SOL    HW228290   2.967   4.321   5.459
 9131SOL     OW28291   6.133   3.014   0.885
 9131SOL    HW128292   6.105   2.991   0.792
 9131SOL    HW228293   6.198   2.945   0.918
 9132SOL     OW28294   1.055   4.616   3.062
 9132SOL    HW128295   1.039   4.547   3.133
 9132SOL    HW228296   1.128   4.584   3.001
 9133SOL     OW28297   4.186   0.626   1.025
 9133SOL    HW128298   4.104   0.589   1.067
 9133SOL    HW228299   4.217   0.706   1.077
 9134SOL     OW28300   4.658   5.199   0.915
 9134SOL    HW128301   4.731   5.185   0.981
 9134SOL    HW228302   4.683   5.273   0.852
 9135SOL     OW28303   1.210   6.083   1.606
 9135SOL    HW128304   1.237   6.019   1.535
 9135SOL    HW228305   1.239   6.175   1.582
 9136SOL     OW28306   5.344   4.974   6.503
 9136SOL    HW128307   5.272   5.010   6.561
 9136SOL    HW228308   5.370   4.883   6.536
 9137SOL     OW28309   4.326   6.171   6.513
 9137SOL    HW128310   4.332   6.195   6.416
 9137SOL    HW228311   4.231   6.178   6.543
 9138SOL     OW28312   3.015   2.635   0.210
 9138SOL    HW128313   3.055   2.720   0.245
 9138SOL    HW228314   3.047   2.619   0.117
 9139SOL     OW28315   6.981   0.093   1.193
 9139SOL    HW128316   7.016   0.099   1.099
 9139SOL    HW228317   6.989   0.183   1.237
 9140SOL     OW28318   0.646   3.850   2.768
 9140SOL    HW128319   0.606   3.763   2.738
 9140SOL    HW228320   0.724   3.832   2.828
 9141SOL     OW28321   7.011   5.535   6.028
 9141SOL    HW128322   6.935   5.581   5.983
 9141SOL    HW228323   6.984   5.509   6.121
 9142SOL     OW28324   1.105   3.763   2.593
 9142SOL    HW128325   1.089   3.841   2.654
 9142SOL    HW228326   1.058   3.777   2.507
 9143SOL     OW28327   0.364   3.729   3.134
 9143SOL    HW128328   0.398   3.763   3.222
 9143SOL    HW228329   0.441   3.697   3.079
 9144SOL     OW28330   2.670   5.034   5.146
 9144SOL    HW128331   2.668   5.133   5.138
 9144SOL    HW228332   2.638   5.007   5.237
 9145SOL     OW28333   0.938   6.910   6.412
 9145SOL    HW128334   0.858   6.899   6.471
 9145SOL    HW228335   0.922   6.985   6.348
 9146SOL     OW28336   5.578   3.421   3.552
 9146SOL    HW128337   5.556   3.345   3.492
 9146SOL    HW228338   5.543   3.506   3.513
 9147SOL     OW28339   5.278   0.076   4.091
 9147SOL    HW128340   5.280   0.025   4.178
 9147SOL    HW228341   5.197   0.050   4.039
 9148SOL     OW28342   6.526   0.186   1.583
 9148SOL    HW128343   6.480   0.106   1.545
 9148SOL    HW228344   6.502   0.267   1.529
 9149SOL     OW28345   5.816   4.350   1.553
 9149SOL    HW128346   5.792   4.262   1.512
 9149SOL    HW228347   5.882   4.397   1.494
 9150SOL     OW28348   2.879   4.031   0.117
 9150SOL    HW128349   2.947   3.977   0.068
 9150SOL    HW228350   2.862   4.116   0.067
 9151SOL     OW28351   1.848   3.513   3.832
 9151SOL    HW128352   1.843   3.554   3.923
 9151SOL    HW228353   1.765   3.535   3.782
 9152SOL     OW28354   1.831   4.460   3.864
 9152SOL    HW128355   1.821   4.507   3.776
 9152SOL    HW228356   1.894   4.510   3.922
 9153SOL     OW28357   0.627   2.507   6.416
 9153SOL    HW128358   0.534   2.536   6.393
 9153SOL    HW228359   0.690   2.583   6.399
 9154SOL     OW28360   5.846   4.910   2.915
 9154SOL    HW128361   5.817   4.820   2.946
 9154SOL    HW228362   5.891   4.959   2.990
 9155SOL     OW28363   0.845   5.902   2.175
 9155SOL    HW128364   0.852   5.894   2.076
 9155SOL    HW228365   0.876   5.993   2.203
 9156SOL     OW28366   6.786   3.979   0.305
 9156SOL    HW128367   6.750   3.975   0.398
 9156SOL    HW228368   6.759   3.897   0.255
 9157SOL     OW28369   3.182   4.236   6.571
 9157SOL    HW128370   3.228   4.190   6.495
 9157SOL    HW228371   3.218   4.329   6.581
 9158SOL     OW28372   0.378   3.602   3.814
 9158SOL    HW128373   0.477   3.590   3.810
 9158SOL    HW228374   0.336   3.523   3.858
 9159SOL     OW28375   3.645   0.397   3.524
 9159SOL    HW128376   3.657   0.319   3.461
 9159SOL    HW228377   3.553   0.434   3.514
 9160SOL     OW28378   0.257   4.756   6.753
 9160SOL    HW128379   0.313   4.673   6.743
 9160SOL    HW228380   0.244   4.775   6.850
 9161SOL     OW28381   5.674   3.877   1.620
 9161SOL    HW128382   5.690   3.824   1.703
 9161SOL    HW228383   5.695   3.973   1.638
 9162SOL     OW28384   5.225   2.096   2.220
 9162SOL    HW128385   5.263   2.035   2.290
 9162SOL    HW228386   5.285   2.175   2.210
 9163SOL     OW28387   1.473   1.958   3.176
 9163SOL    HW128388   1.533   1.920   3.106
 9163SOL    HW228389   1.407   1.888   3.206
 9164SOL     OW28390   2.844   0.508   6.847
 9164SOL    HW128391   2.833   0.579   6.916
 9164SOL    HW228392   2.938   0.474   6.849
 9165SOL     OW28393   4.847   2.773   5.340
 9165SOL    HW128394   4.853   2.696   5.403
 9165SOL    HW228395   4.752   2.782   5.307
 9166SOL     OW28396   4.867   5.301   1.924
 9166SOL    HW128397   4.791   5.322   1.862
 9166SOL    HW228398   4.830   5.270   2.012
 9167SOL     OW28399   1.460   0.472   5.415
 9167SOL    HW128400   1.379   0.438   5.368
 9167SOL    HW228401   1.519   0.520   5.350
 9168SOL     OW28402   6.418   5.919   4.531
 9168SOL    HW128403   6.422   6.009   4.488
 9168SOL    HW228404   6.476   5.918   4.613
 9169SOL     OW28405   6.280   6.414   0.322
 9169SOL    HW128406   6.187   6.446   0.341
 9169SOL    HW228407   6.294   6.410   0.223
 9170SOL     OW28408   1.343   1.489   6.091
 9170SOL    HW128409   1.245   1.493   6.074
 9170SOL    HW228410   1.386   1.431   6.022
 9171SOL     OW28411   3.316   4.984   0.646
 9171SOL    HW128412   3.247   4.913   0.666
 9171SOL    HW228413   3.406   4.951   0.673
 9172SOL     OW28414   4.980   1.390   4.452
 9172SOL    HW128415   4.938   1.480   4.436
 9172SOL    HW228416   5.054   1.376   4.386
 9173SOL     OW28417   6.221   2.478   4.131
 9173SOL    HW128418   6.132   2.447   4.165
 9173SOL    HW228419   6.287   2.403   4.139
 9174SOL     OW28420   0.559   5.794   6.962
 9174SOL    HW128421   0.491   5.850   6.914
 9174SOL    HW228422   0.618   5.853   7.017
 9175SOL     OW28423   1.772   0.281   0.075
 9175SOL    HW128424   1.830   0.228   0.013
 9175SOL    HW228425   1.702   0.222   0.114
 9176SOL     OW28426   1.486   1.440   2.721
 9176SOL    HW128427   1.419   1.466   2.650
 9176SOL    HW228428   1.451   1.467   2.811
 9177SOL     OW28429   0.183   4.336   3.698
 9177SOL    HW128430   0.124   4.378   3.767
 9177SOL    HW228431   0.179   4.236   3.707
 9178SOL     OW28432   1.557   6.423   0.449
 9178SOL    HW128433   1.533   6.439   0.353
 9178SOL    HW228434   1.647   6.461   0.467
 9179SOL     OW28435   4.570   6.145   4.990
 9179SOL    HW128436   4.579   6.052   5.024
 9179SOL    HW228437   4.474   6.173   4.991
 9180SOL     OW28438   6.893   1.485   3.963
 9180SOL    HW128439   6.822   1.523   3.904
 9180SOL    HW228440   6.859   1.401   4.005
 9181SOL     OW28441   3.633   1.880   3.915
 9181SOL    HW128442   3.628   1.950   3.987
 9181SOL    HW228443   3.648   1.791   3.957
 9182SOL     OW28444   1.861   1.385   3.205
 9182SOL    HW128445   1.886   1.480   3.192
 9182SOL    HW228446   1.925   1.326   3.155
 9183SOL     OW28447   5.892   2.802   5.929
 9183SOL    HW128448   5.957   2.732   5.900
 9183SOL    HW228449   5.847   2.774   6.013
 9184SOL     OW28450   3.736   3.349   1.485
 9184SOL    HW128451   3.827   3.334   1.524
 9184SOL    HW228452   3.722   3.446   1.468
 9185SOL     OW28453   0.731   0.452   6.265
 9185SOL    HW128454   0.773   0.429   6.353
 9185SOL    HW228455   0.713   0.550   6.261
 9186SOL     OW28456   5.265   0.685   6.202
 9186SOL    HW128457   5.329   0.731   6.264
 9186SOL    HW228458   5.305   0.599   6.172
 9187SOL     OW28459   5.052   1.818   0.241
 9187SOL    HW128460   5.101   1.889   0.292
 9187SOL    HW228461   5.020   1.748   0.304
 9188SOL     OW28462   1.007   6.998   2.097
 9188SOL    HW128463   1.070   6.940   2.045
 9188SOL    HW228464   1.059   0.044   2.151
 9189SOL     OW28465   3.320   1.342   3.519
 9189SOL    HW128466   3.349   1.344   3.615
 9189SOL    HW228467   3.221   1.351   3.514
 9190SOL     OW28468   5.868   4.086   5.417
 9190SOL    HW128469   5.889   4.013   5.482
 9190SOL    HW228470   5.772   4.110   5.423
 9191SOL     OW28471   4.941   5.726   6.399
 9191SOL    HW128472   4.862   5.778   6.366
 9191SOL    HW228473   5.024   5.781   6.388
 9192SOL     OW28474   6.545   4.327   5.649
 9192SOL    HW128475   6.495   4.302   5.732
 9192SOL    HW228476   6.642   4.337   5.671
 9193SOL     OW28477   3.421   2.899   3.301
 9193SOL    HW128478   3.331   2.931   3.328
 9193SOL    HW228479   3.483   2.903   3.380
 9194SOL     OW28480   2.670   5.258   3.224
 9194SOL    HW128481   2.695   5.225   3.315
 9194SOL    HW228482   2.728   5.213   3.156
 9195SOL     OW28483   0.432   3.008   3.345
 9195SOL    HW128484   0.515   2.986   3.396
 9195SOL    HW228485   0.449   2.995   3.247
 9196SOL     OW28486   4.706   0.237   3.280
 9196SOL    HW128487   4.707   0.300   3.358
 9196SOL    HW228488   4.799   0.212   3.256
 9197SOL     OW28489   3.266   2.862   6.495
 9197SOL    HW128490   3.202   2.818   6.557
 9197SOL    HW228491   3.240   2.843   6.401
 9198SOL     OW28492   6.074   3.057   5.964
 9198SOL    HW128493   5.976   3.038   5.960
 9198SOL    HW228494   6.095   3.137   5.908
 9199SOL     OW28495   1.372   4.167   6.575
 9199SOL    HW128496   1.391   4.070   6.563
 9199SOL    HW228497   1.451   4.221   6.546
 9200SOL     OW28498   6.549   0.173   0.597
 9200SOL    HW128499   6.518   0.143   0.688
 9200SOL    HW228500   6.591   0.264   0.605
 9201SOL     OW28501   0.412   3.798   2.202
 9201SOL    HW128502   0.447   3.753   2.120
 9201SOL    HW228503   0.342   3.864   2.177
 9202SOL     OW28504   2.786   5.302   4.396
 9202SOL    HW128505   2.806   5.383   4.341
 9202SOL    HW228506   2.810   5.220   4.345
 9203SOL     OW28507   5.258   1.044   5.593
 9203SOL    HW128508   5.180   1.105   5.580
 9203SOL    HW228509   5.239   0.980   5.667
 9204SOL     OW28510   5.369   4.328   2.833
 9204SOL    HW128511   5.437   4.310   2.904
 9204SOL    HW228512   5.310   4.248   2.822
 9205SOL     OW28513   5.915   2.727   3.017
 9205SOL    HW128514   5.903   2.817   2.977
 9205SOL    HW228515   5.825   2.688   3.038
 9206SOL     OW28516   1.019   6.383   3.222
 9206SOL    HW128517   1.110   6.422   3.230
 9206SOL    HW228518   0.957   6.428   3.285
 9207SOL     OW28519   4.093   6.492   6.974
 9207SOL    HW128520   4.059   6.444   0.035
 9207SOL    HW228521   4.016   6.524   6.919
 9208SOL     OW28522   5.368   3.291   2.135
 9208SOL    HW128523   5.393   3.194   2.126
 9208SOL    HW228524   5.272   3.303   2.111
 9209SOL     OW28525   4.450   1.097   2.848
 9209SOL    HW128526   4.458   1.000   2.827
 9209SOL    HW228527   4.397   1.109   2.931
 9210SOL     OW28528   1.924   0.049   1.265
 9210SOL    HW128529   1.835   0.003   1.261
 9210SOL    HW228530   1.960   0.044   1.358
 9211SOL     OW28531   5.124   1.711   6.548
 9211SOL    HW128532   5.117   1.617   6.515
 9211SOL    HW228533   5.138   1.710   6.647
 9212SOL     OW28534   5.578   4.274   4.462
 9212SOL    HW128535   5.645   4.282   4.535
 9212SOL    HW228536   5.599   4.340   4.390
 9213SOL     OW28537   5.732   6.786   3.544
 9213SOL    HW128538   5.639   6.757   3.526
 9213SOL    HW228539   5.774   6.725   3.611
 9214SOL     OW28540   2.343   2.280   4.442
 9214SOL    HW128541   2.286   2.291   4.523
 9214SOL    HW228542   2.437   2.306   4.464
 9215SOL     OW28543   0.518   4.008   2.943
 9215SOL    HW128544   0.587   4.074   2.972
 9215SOL    HW228545   0.556   3.946   2.875
 9216SOL     OW28546   2.254   5.851   4.845
 9216SOL    HW128547   2.165   5.818   4.877
 9216SOL    HW228548   2.320   5.845   4.919
 9217SOL     OW28549   4.487   1.288   6.527
 9217SOL    HW128550   4.430   1.231   6.587
 9217SOL    HW228551   4.512   1.372   6.575
 9218SOL     OW28552   6.178   5.856   6.041
 9218SOL    HW128553   6.092   5.857   6.093
 9218SOL    HW228554   6.192   5.766   6.001
 9219SOL     OW28555   3.843   3.315   4.868
 9219SOL    HW128556   3.879   3.255   4.939
 9219SOL    HW228557   3.756   3.353   4.898
 9220SOL     OW28558   1.788   6.414   3.151
 9220SOL    HW128559   1.736   6.478   3.209
 9220SOL    HW228560   1.856   6.465   3.098
 9221SOL     OW28561   2.647   0.839   6.590
 9221SOL    HW128562   2.548   0.849   6.594
 9221SOL    HW228563   2.688   0.924   6.557
 9222SOL     OW28564   1.752   4.109   3.492
 9222SOL    HW128565   1.750   4.125   3.591
 9222SOL    HW228566   1.843   4.130   3.457
 9223SOL     OW28567   1.437   3.794   4.497
 9223SOL    HW128568   1.403   3.861   4.563
 9223SOL    HW228569   1.409   3.703   4.526
 9224SOL     OW28570   1.940   4.200   3.745
 9224SOL    HW128571   1.870   4.261   3.781
 9224SOL    HW228572   2.030   4.242   3.756
 9225SOL     OW28573   4.683   6.854   6.406
 9225SOL    HW128574   4.665   6.765   6.363
 9225SOL    HW228575   4.747   6.905   6.350
 9226SOL     OW28576   0.849   0.426   0.370
 9226SOL    HW128577   0.934   0.379   0.395
 9226SOL    HW228578   0.772   0.362   0.375
 9227SOL     OW28579   2.536   5.374   0.627
 9227SOL    HW128580   2.478   5.315   0.571
 9227SOL    HW228581   2.626   5.332   0.638
 9228SOL     OW28582   3.181   2.702   5.729
 9228SOL    HW128583   3.266   2.650   5.731
 9228SOL    HW228584   3.103   2.639   5.738
 9229SOL     OW28585   6.871   4.750   6.886
 9229SOL    HW128586   6.860   4.782   6.792
 9229SOL    HW228587   6.943   4.803   6.930
 9230SOL     OW28588   4.931   1.612   3.994
 9230SOL    HW128589   5.006   1.666   4.034
 9230SOL    HW228590   4.885   1.561   4.066
 9231SOL     OW28591   0.505   5.216   4.578
 9231SOL    HW128592   0.408   5.202   4.601
 9231SOL    HW228593   0.540   5.296   4.627
 9232SOL     OW28594   1.315   5.387   1.633
 9232SOL    HW128595   1.365   5.341   1.707
 9232SOL    HW228596   1.336   5.343   1.546
 9233SOL     OW28597   0.923   0.916   6.791
 9233SOL    HW128598   0.885   1.004   6.764
 9233SOL    HW228599   0.865   0.874   6.861
 9234SOL     OW28600   2.114   4.807   1.024
 9234SOL    HW128601   2.053   4.808   0.945
 9234SOL    HW228602   2.101   4.722   1.075
 9235SOL     OW28603   2.507   2.476   4.196
 9235SOL    HW128604   2.546   2.547   4.137
 9235SOL    HW228605   2.408   2.472   4.182
 9236SOL     OW28606   1.862   3.580   6.217
 9236SOL    HW128607   1.803   3.657   6.244
 9236SOL    HW228608   1.806   3.498   6.205
 9237SOL     OW28609   6.244   5.242   3.355
 9237SOL    HW128610   6.337   5.275   3.339
 9237SOL    HW228611   6.181   5.320   3.356
 9238SOL     OW28612   1.543   3.308   5.586
 9238SOL    HW128613   1.577   3.273   5.673
 9238SOL    HW228614   1.541   3.234   5.519
 9239SOL     OW28615   0.532   4.827   6.923
 9239SOL    HW128616   0.522   4.752   6.858
 9239SOL    HW228617   0.446   4.840   6.973
 9240SOL     OW28618   4.858   3.009   2.751
 9240SOL    HW128619   4.909   3.080   2.801
 9240SOL    HW228620   4.916   2.928   2.740
 9241SOL     OW28621   5.703   6.439   0.793
 9241SOL    HW128622   5.661   6.361   0.839
 9241SOL    HW228623   5.772   6.407   0.729
 9242SOL     OW28624   1.322   2.057   1.392
 9242SOL    HW128625   1.300   1.993   1.318
 9242SOL    HW228626   1.302   2.150   1.362
 9243SOL     OW28627   1.002   0.658   1.081
 9243SOL    HW128628   0.963   0.605   1.006
 9243SOL    HW228629   1.062   0.730   1.044
 9244SOL     OW28630   4.548   6.650   5.067
 9244SOL    HW128631   4.449   6.638   5.077
 9244SOL    HW228632   4.566   6.726   5.004
 9245SOL     OW28633   1.186   4.793   2.713
 9245SOL    HW128634   1.250   4.836   2.776
 9245SOL    HW228635   1.219   4.802   2.619
 9246SOL     OW28636   6.810   1.251   4.069
 9246SOL    HW128637   6.737   1.264   4.136
 9246SOL    HW228638   6.809   1.156   4.037
 9247SOL     OW28639   3.634   5.608   3.366
 9247SOL    HW128640   3.582   5.693   3.378
 9247SOL    HW228641   3.639   5.561   3.454
 9248SOL     OW28642   2.371   1.249   5.566
 9248SOL    HW128643   2.271   1.255   5.562
 9248SOL    HW228644   2.406   1.212   5.480
 9249SOL     OW28645   3.706   4.888   1.768
 9249SOL    HW128646   3.730   4.850   1.679
 9249SOL    HW228647   3.634   4.832   1.809
 9250SOL     OW28648   0.256   3.128   4.122
 9250SOL    HW128649   0.334   3.103   4.181
 9250SOL    HW228650   0.177   3.072   4.145
 9251SOL     OW28651   3.566   2.669   0.690
 9251SOL    HW128652   3.572   2.569   0.685
 9251SOL    HW228653   3.633   2.709   0.628
 9252SOL     OW28654   5.283   0.319   5.345
 9252SOL    HW128655   5.342   0.306   5.425
 9252SOL    HW228656   5.329   0.378   5.279
 9253SOL     OW28657   1.241   4.761   5.278
 9253SOL    HW128658   1.160   4.818   5.279
 9253SOL    HW228659   1.238   4.700   5.199
 9254SOL     OW28660   6.142   5.014   3.022
 9254SOL    HW128661   6.190   5.094   2.986
 9254SOL    HW228662   6.126   4.948   2.948
 9255SOL     OW28663   6.308   4.743   0.630
 9255SOL    HW128664   6.236   4.803   0.595
 9255SOL    HW228665   6.269   4.682   0.700
 9256SOL     OW28666   2.236   6.489   1.877
 9256SOL    HW128667   2.166   6.503   1.946
 9256SOL    HW228668   2.212   6.411   1.820
 9257SOL     OW28669   0.148   5.151   4.055
 9257SOL    HW128670   0.214   5.094   4.103
 9257SOL    HW228671   0.078   5.183   4.119
 9258SOL     OW28672   3.621   4.030   0.753
 9258SOL    HW128673   3.631   4.030   0.653
 9258SOL    HW228674   3.685   3.964   0.792
 9259SOL     OW28675   2.404   2.066   6.919
 9259SOL    HW128676   2.469   2.011   6.867
 9259SOL    HW228677   2.314   2.061   6.875
 9260SOL     OW28678   5.437   2.928   5.023
 9260SOL    HW128679   5.517   2.874   5.047
 9260SOL    HW228680   5.375   2.934   5.101
 9261SOL     OW28681   4.478   1.743   1.423
 9261SOL    HW128682   4.381   1.767   1.418
 9261SOL    HW228683   4.489   1.645   1.407
 9262SOL     OW28684   6.270   6.398   3.685
 9262SOL    HW128685   6.262   6.490   3.723
 9262SOL    HW228686   6.179   6.357   3.678
 9263SOL     OW28687   2.147   3.533   3.584
 9263SOL    HW128688   2.207   3.457   3.559
 9263SOL    HW228689   2.053   3.511   3.557
 9264SOL     OW28690   4.893   4.351   6.804
 9264SOL    HW128691   4.801   4.321   6.828
 9264SOL    HW228692   4.929   4.293   6.730
 9265SOL     OW28693   4.875   1.954   6.912
 9265SOL    HW128694   4.781   1.950   6.879
 9265SOL    HW228695   4.897   1.869   6.960
 9266SOL     OW28696   0.162   4.227   1.222
 9266SOL    HW128697   0.163   4.318   1.264
 9266SOL    HW228698   0.256   4.194   1.211
 9267SOL     OW28699   0.376   0.968   3.689
 9267SOL    HW128700   0.437   0.992   3.764
 9267SOL    HW228701   0.344   1.051   3.644
 9268SOL     OW28702   0.744   6.506   1.602
 9268SOL    HW128703   0.672   6.498   1.672
 9268SOL    HW228704   0.770   6.601   1.592
 9269SOL     OW28705   4.079   0.471   0.416
 9269SOL    HW128706   4.175   0.469   0.387
 9269SOL    HW228707   4.031   0.544   0.368
 9270SOL     OW28708   3.059   1.387   5.985
 9270SOL    HW128709   3.090   1.301   5.945
 9270SOL    HW228710   3.083   1.462   5.923
 9271SOL     OW28711   1.360   0.547   6.468
 9271SOL    HW128712   1.442   0.492   6.484
 9271SOL    HW228713   1.284   0.510   6.522
 9272SOL     OW28714   6.990   6.531   5.822
 9272SOL    HW128715   0.040   6.463   5.798
 9272SOL    HW228716   6.901   6.499   5.791
 9273SOL     OW28717   4.960   5.330   4.058
 9273SOL    HW128718   4.966   5.312   3.960
 9273SOL    HW228719   4.875   5.379   4.078
 9274SOL     OW28720   0.736   3.393   0.514
 9274SOL    HW128721   0.732   3.325   0.440
 9274SOL    HW228722   0.827   3.434   0.517
 9275SOL     OW28723   0.947   6.496   1.014
 9275SOL    HW128724   0.889   6.452   1.083
 9275SOL    HW228725   1.028   6.439   0.997
 9276SOL     OW28726   3.326   4.621   0.246
 9276SOL    HW128727   3.384   4.620   0.328
 9276SOL    HW228728   3.239   4.665   0.268
 9277SOL     OW28729   4.718   4.865   2.436
 9277SOL    HW128730   4.643   4.860   2.501
 9277SOL    HW228731   4.704   4.799   2.362
 9278SOL     OW28732   0.708   0.811   4.332
 9278SOL    HW128733   0.669   0.810   4.424
 9278SOL    HW228734   0.682   0.726   4.284
 9279SOL     OW28735   3.794   5.463   1.124
 9279SOL    HW128736   3.812   5.528   1.198
 9279SOL    HW228737   3.857   5.386   1.130
 9280SOL     OW28738   1.401   1.252   2.968
 9280SOL    HW128739   1.433   1.246   2.873
 9280SOL    HW228740   1.478   1.238   3.030
 9281SOL     OW28741   3.101   4.397   0.326
 9281SOL    HW128742   3.111   4.496   0.333
 9281SOL    HW228743   3.112   4.370   0.230
 9282SOL     OW28744   3.590   6.997   4.965
 9282SOL    HW128745   3.536   7.010   4.881
 9282SOL    HW228746   3.683   0.008   4.950
 9283SOL     OW28747   4.541   6.056   6.609
 9283SOL    HW128748   4.536   5.958   6.586
 9283SOL    HW228749   4.459   6.102   6.575
 9284SOL     OW28750   2.989   4.119   5.180
 9284SOL    HW128751   3.018   4.202   5.228
 9284SOL    HW228752   3.067   4.080   5.131
 9285SOL     OW28753   6.521   3.637   2.492
 9285SOL    HW128754   6.593   3.679   2.437
 9285SOL    HW228755   6.545   3.543   2.514
 9286SOL     OW28756   4.700   5.707   1.456
 9286SOL    HW128757   4.676   5.777   1.523
 9286SOL    HW228758   4.619   5.653   1.434
 9287SOL     OW28759   3.240   4.518   6.550
 9287SOL    HW128760   3.270   4.606   6.586
 9287SOL    HW228761   3.151   4.530   6.505
 9288SOL     OW28762   4.291   2.089   3.578
 9288SOL    HW128763   4.205   2.078   3.528
 9288SOL    HW228764   4.304   2.010   3.639
 9289SOL     OW28765   4.754   6.539   7.000
 9289SOL    HW128766   4.737   6.467   0.048
 9289SOL    HW228767   4.732   6.504   6.909
 9290SOL     OW28768   5.572   0.522   4.699
 9290SOL    HW128769   5.637   0.511   4.624
 9290SOL    HW228770   5.597   0.462   4.774
 9291SOL     OW28771   1.151   5.500   6.002
 9291SOL    HW128772   1.203   5.442   6.064
 9291SOL    HW228773   1.167   5.471   5.908
 9292SOL     OW28774   1.510   1.655   6.250
 9292SOL    HW128775   1.451   1.630   6.173
 9292SOL    HW228776   1.483   1.602   6.331
 9293SOL     OW28777   5.228   3.028   5.728
 9293SOL    HW128778   5.188   2.949   5.776
 9293SOL    HW228779   5.221   3.014   5.629
 9294SOL     OW28780   4.886   1.001   0.422
 9294SOL    HW128781   4.975   0.978   0.383
 9294SOL    HW228782   4.815   0.990   0.352
 9295SOL     OW28783   0.812   0.708   5.610
 9295SOL    HW128784   0.910   0.712   5.590
 9295SOL    HW228785   0.761   0.729   5.527
 9296SOL     OW28786   2.498   4.697   0.862
 9296SOL    HW128787   2.549   4.761   0.804
 9296SOL    HW228788   2.433   4.646   0.806
 9297SOL     OW28789   6.493   6.428   2.504
 9297SOL    HW128790   6.436   6.470   2.433
 9297SOL    HW228791   6.446   6.432   2.592
 9298SOL     OW28792   1.514   6.303   5.964
 9298SOL    HW128793   1.444   6.374   5.958
 9298SOL    HW228794   1.495   6.243   6.041
 9299SOL     OW28795   2.209   2.610   4.799
 9299SOL    HW128796   2.248   2.536   4.744
 9299SOL    HW228797   2.146   2.572   4.867
 9300SOL     OW28798   1.551   5.975   5.618
 9300SOL    HW128799   1.510   6.048   5.673
 9300SOL    HW228800   1.626   6.012   5.563
 9301SOL     OW28801   0.445   4.128   4.604
 9301SOL    HW128802   0.505   4.186   4.548
 9301SOL    HW228803   0.433   4.040   4.559
 9302SOL     OW28804   2.137   3.355   4.681
 9302SOL    HW128805   2.130   3.445   4.725
 9302SOL    HW228806   2.131   3.366   4.582
 9303SOL     OW28807   2.767   4.641   0.939
 9303SOL    HW128808   2.748   4.544   0.928
 9303SOL    HW228809   2.681   4.692   0.940
 9304SOL     OW28810   5.168   5.309   0.163
 9304SOL    HW128811   5.132   5.233   0.111
 9304SOL    HW228812   5.236   5.275   0.229
 9305SOL     OW28813   3.256   1.743   1.123
 9305SOL    HW128814   3.257   1.838   1.153
 9305SOL    HW228815   3.347   1.703   1.134
 9306SOL     OW28816   0.600   4.787   4.951
 9306SOL    HW128817   0.510   4.752   4.975
 9306SOL    HW228818   0.642   4.728   4.882
 9307SOL     OW28819   2.663   2.891   1.485
 9307SOL    HW128820   2.639   2.876   1.580
 9307SOL    HW228821   2.763   2.895   1.475
 9308SOL     OW28822   1.902   4.106   1.324
 9308SOL    HW128823   1.864   4.136   1.411
 9308SOL    HW228824   1.931   4.010   1.331
 9309SOL     OW28825   4.493   5.607   5.034
 9309SOL    HW128826   4.463   5.693   5.075
 9309SOL    HW228827   4.447   5.530   5.078
 9310SOL     OW28828   4.603   6.042   6.203
 9310SOL    HW128829   4.657   5.971   6.248
 9310SOL    HW228830   4.559   6.005   6.121
 9311SOL     OW28831   4.901   3.421   1.977
 9311SOL    HW128832   4.919   3.426   1.879
 9311SOL    HW228833   4.802   3.414   1.992
 9312SOL     OW28834   0.751   2.326   1.185
 9312SOL    HW128835   0.732   2.422   1.206
 9312SOL    HW228836   0.790   2.319   1.093
 9313SOL     OW28837   1.180   6.881   1.894
 9313SOL    HW128838   1.278   6.900   1.886
 9313SOL    HW228839   1.155   6.811   1.827
 9314SOL     OW28840   5.058   2.736   0.589
 9314SOL    HW128841   5.044   2.813   0.526
 9314SOL    HW228842   5.079   2.653   0.537
 9315SOL     OW28843   5.545   1.038   6.729
 9315SOL    HW128844   5.628   1.093   6.728
 9315SOL    HW228845   5.471   1.088   6.684
 9316SOL     OW28846   4.024   1.239   5.420
 9316SOL    HW128847   3.985   1.290   5.497
 9316SOL    HW228848   4.123   1.256   5.416
 9317SOL     OW28849   3.499   5.886   3.382
 9317SOL    HW128850   3.411   5.914   3.345
 9317SOL    HW228851   3.500   5.901   3.481
 9318SOL     OW28852   4.783   5.962   0.965
 9318SOL    HW128853   4.687   5.991   0.968
 9318SOL    HW228854   4.835   6.026   0.908
 9319SOL     OW28855   2.115   4.501   0.715
 9319SOL    HW128856   2.099   4.417   0.767
 9319SOL    HW228857   2.030   4.552   0.708
 9320SOL     OW28858   6.082   6.964   6.308
 9320SOL    HW128859   5.988   6.929   6.307
 9320SOL    HW228860   6.142   6.900   6.260
 9321SOL     OW28861   0.431   3.510   5.241
 9321SOL    HW128862   0.507   3.573   5.251
 9321SOL    HW228863   0.465   3.422   5.206
 9322SOL     OW28864   5.780   4.368   5.487
 9322SOL    HW128865   5.804   4.417   5.403
 9322SOL    HW228866   5.722   4.290   5.465
 9323SOL     OW28867   1.044   3.064   3.450
 9323SOL    HW128868   1.049   3.155   3.492
 9323SOL    HW228869   1.107   3.059   3.373
 9324SOL     OW28870   0.261   3.916   1.366
 9324SOL    HW128871   0.329   3.945   1.434
 9324SOL    HW228872   0.237   3.993   1.307
 9325SOL     OW28873   1.282   4.951   2.418
 9325SOL    HW128874   1.271   4.987   2.325
 9325SOL    HW228875   1.374   4.972   2.451
 9326SOL     OW28876   4.259   4.012   0.389
 9326SOL    HW128877   4.263   3.917   0.422
 9326SOL    HW228878   4.323   4.068   0.442
 9327SOL     OW28879   4.354   0.885   3.185
 9327SOL    HW128880   4.261   0.910   3.156
 9327SOL    HW228881   4.371   0.921   3.277
 9328SOL     OW28882   2.924   6.331   4.480
 9328SOL    HW128883   3.012   6.346   4.435
 9328SOL    HW228884   2.938   6.290   4.570
 9329SOL     OW28885   0.510   6.213   6.078
 9329SOL    HW128886   0.555   6.138   6.128
 9329SOL    HW228887   0.559   6.298   6.094
 9330SOL     OW28888   5.782   6.669   6.083
 9330SOL    HW128889   5.685   6.645   6.074
 9330SOL    HW228890   5.835   6.587   6.103
 9331SOL     OW28891   1.838   3.621   4.990
 9331SOL    HW128892   1.868   3.564   5.066
 9331SOL    HW228893   1.913   3.682   4.963
 9332SOL     OW28894   4.727   5.413   0.712
 9332SOL    HW128895   4.820   5.430   0.743
 9332SOL    HW228896   4.728   5.384   0.617
 9333SOL     OW28897   3.519   5.182   0.681
 9333SOL    HW128898   3.457   5.127   0.625
 9333SOL    HW228899   3.594   5.124   0.712
 9334SOL     OW28900   4.990   6.519   5.680
 9334SOL    HW128901   4.972   6.458   5.757
 9334SOL    HW228902   4.923   6.593   5.679
 9335SOL     OW28903   2.350   2.176   1.476
 9335SOL    HW128904   2.446   2.156   1.495
 9335SOL    HW228905   2.309   2.099   1.428
 9336SOL     OW28906   6.514   1.125   5.213
 9336SOL    HW128907   6.480   1.119   5.307
 9336SOL    HW228908   6.580   1.051   5.196
 9337SOL     OW28909   4.012   0.200   5.891
 9337SOL    HW128910   3.982   0.288   5.928
 9337SOL    HW228911   3.933   0.142   5.875
 9338SOL     OW28912   6.555   5.989   7.004
 9338SOL    HW128913   6.652   6.006   0.003
 9338SOL    HW228914   6.515   6.070   6.960
 9339SOL     OW28915   6.546   4.915   5.620
 9339SOL    HW128916   6.536   4.815   5.617
 9339SOL    HW228917   6.482   4.957   5.555
 9340SOL     OW28918   3.490   6.203   2.331
 9340SOL    HW128919   3.397   6.172   2.311
 9340SOL    HW228920   3.551   6.124   2.338
 9341SOL     OW28921   5.261   4.134   6.973
 9341SOL    HW128922   5.217   4.073   6.907
 9341SOL    HW228923   5.350   4.162   6.937
 9342SOL     OW28924   2.940   0.034   4.073
 9342SOL    HW128925   2.964   0.128   4.096
 9342SOL    HW228926   2.902   7.009   4.154
 9343SOL     OW28927   4.837   4.309   2.017
 9343SOL    HW128928   4.742   4.284   2.031
 9343SOL    HW228929   4.848   4.408   2.023
 9344SOL     OW28930   6.563   5.296   5.289
 9344SOL    HW128931   6.586   5.393   5.293
 9344SOL    HW228932   6.547   5.261   5.381
 9345SOL     OW28933   0.123   5.943   0.064
 9345SOL    HW128934   0.037   5.897   0.086
 9345SOL    HW228935   0.157   5.992   0.144
 9346SOL     OW28936   5.758   6.720   1.869
 9346SOL    HW128937   5.829   6.671   1.919
 9346SOL    HW228938   5.668   6.688   1.899
 9347SOL     OW28939   4.247   5.566   0.579
 9347SOL    HW128940   4.336   5.559   0.533
 9347SOL    HW228941   4.253   5.633   0.653
 9348SOL     OW28942   2.315   5.897   2.451
 9348SOL    HW128943   2.244   5.957   2.488
 9348SOL    HW228944   2.307   5.807   2.493
 9349SOL     OW28945   6.384   5.065   1.678
 9349SOL    HW128946   6.328   5.139   1.716
 9349SOL    HW228947   6.460   5.046   1.740
 9350SOL     OW28948   6.997   1.157   4.680
 9350SOL    HW128949   6.977   1.194   4.771
 9350SOL    HW228950   0.075   1.142   4.672
 9351SOL     OW28951   3.178   0.874   5.745
 9351SOL    HW128952   3.274   0.846   5.756
 9351SOL    HW228953   3.119   0.808   5.790
 9352SOL     OW28954   2.921   2.313   5.984
 9352SOL    HW128955   2.827   2.321   5.951
 9352SOL    HW228956   2.978   2.267   5.916
 9353SOL     OW28957   1.476   3.992   1.432
 9353SOL    HW128958   1.538   3.925   1.391
 9353SOL    HW228959   1.386   3.950   1.445
 9354SOL     OW28960   6.395   2.028   1.345
 9354SOL    HW128961   6.441   1.972   1.277
 9354SOL    HW228962   6.318   2.075   1.302
 9355SOL     OW28963   6.879   0.206   3.985
 9355SOL    HW128964   6.807   0.201   3.916
 9355SOL    HW228965   6.856   0.146   4.062
 9356SOL     OW28966   4.185   5.265   1.725
 9356SOL    HW128967   4.091   5.290   1.703
 9356SOL    HW228968   4.238   5.347   1.746
 9357SOL     OW28969   2.745   3.115   0.874
 9357SOL    HW128970   2.647   3.109   0.858
 9357SOL    HW228971   2.763   3.190   0.939
 9358SOL     OW28972   6.262   4.326   1.915
 9358SOL    HW128973   6.354   4.324   1.954
 9358SOL    HW228974   6.262   4.385   1.834
 9359SOL     OW28975   6.941   4.156   6.338
 9359SOL    HW128976   6.963   4.069   6.382
 9359SOL    HW228977   6.849   4.185   6.365
 9360SOL     OW28978   2.287   0.382   5.837
 9360SOL    HW128979   2.342   0.407   5.917
 9360SOL    HW228980   2.339   0.400   5.754
 9361SOL     OW28981   2.781   5.958   2.576
 9361SOL    HW128982   2.798   5.873   2.526
 9361SOL    HW228983   2.867   6.009   2.585
 9362SOL     OW28984   2.449   1.159   1.979
 9362SOL    HW128985   2.516   1.085   1.987
 9362SOL    HW228986   2.404   1.154   1.890
 9363SOL     OW28987   3.445   5.900   2.818
 9363SOL    HW128988   3.351   5.932   2.808
 9363SOL    HW228989   3.459   5.867   2.911
 9364SOL     OW28990   4.179   3.165   6.521
 9364SOL    HW128991   4.258   3.151   6.462
 9364SOL    HW228992   4.179   3.096   6.594
 9365SOL     OW28993   2.886   1.995   5.112
 9365SOL    HW128994   2.973   2.012   5.067
 9365SOL    HW228995   2.813   1.985   5.044
 9366SOL     OW28996   3.223   1.972   0.586
 9366SOL    HW128997   3.230   1.999   0.490
 9366SOL    HW228998   3.206   1.874   0.593
 9367SOL     OW28999   6.590   5.751   3.520
 9367SOL    HW129000   6.601   5.652   3.530
 9367SOL    HW229001   6.668   5.797   3.561
 9368SOL     OW29002   3.303   2.149   1.919
 9368SOL    HW129003   3.338   2.189   1.835
 9368SOL    HW229004   3.358   2.069   1.944
 9369SOL     OW29005   6.348   1.547   5.876
 9369SOL    HW129006   6.424   1.490   5.908
 9369SOL    HW229007   6.292   1.493   5.813
 9370SOL     OW29008   5.894   1.034   2.822
 9370SOL    HW129009   5.864   1.129   2.817
 9370SOL    HW229010   5.971   1.027   2.885
 9371SOL     OW29011   1.075   5.450   0.212
 9371SOL    HW129012   0.989   5.417   0.173
 9371SOL    HW229013   1.080   5.424   0.308
 9372SOL     OW29014   5.487   6.672   3.453
 9372SOL    HW129015   5.529   6.690   3.364
 9372SOL    HW229016   5.392   6.702   3.452
 9373SOL     OW29017   4.150   1.656   3.064
 9373SOL    HW129018   4.097   1.572   3.053
 9373SOL    HW229019   4.231   1.651   3.006
 9374SOL     OW29020   5.660   2.669   0.060
 9374SOL    HW129021   5.708   2.619   0.132
 9374SOL    HW229022   5.701   2.760   0.050
 9375SOL     OW29023   6.528   1.102   2.854
 9375SOL    HW129024   6.491   1.019   2.895
 9375SOL    HW229025   6.521   1.096   2.754
 9376SOL     OW29026   3.325   3.664   0.901
 9376SOL    HW129027   3.252   3.697   0.961
 9376SOL    HW229028   3.333   3.723   0.821
 9377SOL     OW29029   6.389   5.455   3.746
 9377SOL    HW129030   6.325   5.495   3.680
 9377SOL    HW229031   6.469   5.420   3.698
 9378SOL     OW29032   2.756   0.066   6.640
 9378SOL    HW129033   2.658   0.078   6.624
 9378SOL    HW229034   2.804   0.151   6.617
 9379SOL     OW29035   4.687   4.302   4.023
 9379SOL    HW129036   4.716   4.207   4.036
 9379SOL    HW229037   4.705   4.353   4.107
 9380SOL     OW29038   6.812   6.277   5.460
 9380SOL    HW129039   6.808   6.342   5.384
 9380SOL    HW229040   6.764   6.193   5.434
 9381SOL     OW29041   2.462   2.838   5.346
 9381SOL    HW129042   2.397   2.854   5.421
 9381SOL    HW229043   2.445   2.905   5.273
 9382SOL     OW29044   4.246   0.543   2.938
 9382SOL    HW129045   4.169   0.524   2.999
 9382SOL    HW229046   4.267   0.461   2.885
 9383SOL     OW29047   3.258   6.827   4.823
 9383SOL    HW129048   3.222   6.822   4.917
 9383SOL    HW229049   3.185   6.810   4.758
 9384SOL     OW29050   4.351   5.916   2.535
 9384SOL    HW129051   4.398   5.894   2.449
 9384SOL    HW229052   4.262   5.957   2.514
 9385SOL     OW29053   3.640   1.476   2.934
 9385SOL    HW129054   3.611   1.533   2.857
 9385SOL    HW229055   3.624   1.526   3.020
 9386SOL     OW29056   3.552   6.422   4.668
 9386SOL    HW129057   3.537   6.362   4.747
 9386SOL    HW229058   3.648   6.449   4.666
 9387SOL     OW29059   3.600   6.708   1.343
 9387SOL    HW129060   3.625   6.675   1.434
 9387SOL    HW229061   3.595   6.630   1.280
 9388SOL     OW29062   1.221   6.093   2.600
 9388SOL    HW129063   1.208   6.017   2.536
 9388SOL    HW229064   1.263   6.170   2.552
 9389SOL     OW29065   2.364   0.167   5.427
 9389SOL    HW129066   2.358   0.253   5.478
 9389SOL    HW229067   2.377   0.187   5.330
 9390SOL     OW29068   4.261   5.767   3.364
 9390SOL    HW129069   4.306   5.744   3.278
 9390SOL    HW229070   4.181   5.709   3.377
 9391SOL     OW29071   1.843   0.705   5.284
 9391SOL    HW129072   1.847   0.631   5.351
 9391SOL    HW229073   1.788   0.780   5.320
 9392SOL     OW29074   0.679   6.649   5.019
 9392SOL    HW129075   0.701   6.746   5.015
 9392SOL    HW229076   0.664   6.615   4.926
 9393SOL     OW29077   3.654   1.544   4.689
 9393SOL    HW129078   3.673   1.576   4.596
 9393SOL    HW229079   3.739   1.511   4.730
 9394SOL     OW29080   6.365   2.629   3.219
 9394SOL    HW129081   6.445   2.584   3.259
 9394SOL    HW229082   6.327   2.695   3.284
 9395SOL     OW29083   2.798   2.474   0.180
 9395SOL    HW129084   2.758   2.459   0.270
 9395SOL    HW229085   2.879   2.533   0.189
 9396SOL     OW29086   6.747   6.386   4.719
 9396SOL    HW129087   6.823   6.451   4.724
 9396SOL    HW229088   6.744   6.345   4.628
 9397SOL     OW29089   2.302   0.545   0.522
 9397SOL    HW129090   2.387   0.596   0.528
 9397SOL    HW229091   2.321   0.447   0.520
 9398SOL     OW29092   2.340   0.796   6.945
 9398SOL    HW129093   2.433   0.760   6.943
 9398SOL    HW229094   2.310   0.808   0.020
 9399SOL     OW29095   6.550   2.333   7.014
 9399SOL    HW129096   6.581   2.405   0.056
 9399SOL    HW229097   6.622   2.313   6.948
 9400SOL     OW29098   5.354   3.540   1.763
 9400SOL    HW129099   5.381   3.614   1.701
 9400SOL    HW229100   5.364   3.452   1.717
 9401SOL     OW29101   2.263   6.564   3.512
 9401SOL    HW129102   2.249   6.466   3.495
 9401SOL    HW229103   2.338   6.597   3.455
 9402SOL     OW29104   2.331   4.598   6.378
 9402SOL    HW129105   2.360   4.619   6.285
 9402SOL    HW229106   2.244   4.548   6.376
 9403SOL     OW29107   4.672   1.702   3.618
 9403SOL    HW129108   4.668   1.790   3.570
 9403SOL    HW229109   4.706   1.632   3.556
 9404SOL     OW29110   0.478   4.934   6.612
 9404SOL    HW129111   0.533   4.869   6.558
 9404SOL    HW229112   0.389   4.894   6.631
 9405SOL     OW29113   5.968   6.720   1.618
 9405SOL    HW129114   5.960   6.762   1.708
 9405SOL    HW229115   5.906   6.642   1.611
 9406SOL     OW29116   0.271   1.751   5.329
 9406SOL    HW129117   0.257   1.657   5.298
 9406SOL    HW229118   0.312   1.804   5.255
 9407SOL     OW29119   3.272   6.938   2.902
 9407SOL    HW129120   3.221   7.015   2.865
 9407SOL    HW229121   3.349   6.917   2.840
 9408SOL     OW29122   3.944   1.098   5.781
 9408SOL    HW129123   3.869   1.048   5.737
 9408SOL    HW229124   3.906   1.157   5.853
 9409SOL     OW29125   4.731   4.303   4.363
 9409SOL    HW129126   4.817   4.354   4.361
 9409SOL    HW229127   4.659   4.359   4.404
 9410SOL     OW29128   3.454   6.254   1.887
 9410SOL    HW129129   3.421   6.224   1.798
 9410SOL    HW229130   3.528   6.194   1.918
 9411SOL     OW29131   3.552   4.899   1.067
 9411SOL    HW129132   3.479   4.878   1.133
 9411SOL    HW229133   3.641   4.897   1.113
 9412SOL     OW29134   1.015   2.739   1.672
 9412SOL    HW129135   1.009   2.828   1.626
 9412SOL    HW229136   1.071   2.748   1.754
 9413SOL     OW29137   4.177   5.694   4.739
 9413SOL    HW129138   4.271   5.680   4.705
 9413SOL    HW229139   4.167   5.649   4.827
 9414SOL     OW29140   2.869   1.828   2.629
 9414SOL    HW129141   2.825   1.755   2.681
 9414SOL    HW229142   2.800   1.891   2.595
 9415SOL     OW29143   1.367   6.627   2.568
 9415SOL    HW129144   1.353   6.676   2.483
 9415SOL    HW229145   1.294   6.651   2.633
 9416SOL     OW29146   0.851   1.364   1.431
 9416SOL    HW129147   0.861   1.306   1.511
 9416SOL    HW229148   0.942   1.391   1.398
 9417SOL     OW29149   3.228   0.110   5.613
 9417SOL    HW129150   3.320   0.089   5.648
 9417SOL    HW229151   3.223   0.087   5.516
 9418SOL     OW29152   2.239   6.099   0.960
 9418SOL    HW129153   2.188   6.017   0.937
 9418SOL    HW229154   2.223   6.124   1.055
 9419SOL     OW29155   3.570   6.851   5.208
 9419SOL    HW129156   3.527   6.762   5.201
 9419SOL    HW229157   3.546   6.907   5.128
 9420SOL     OW29158   0.120   1.452   4.935
 9420SOL    HW129159   0.214   1.421   4.921
 9420SOL    HW229160   0.120   1.545   4.971
 9421SOL     OW29161   2.199   5.642   5.485
 9421SOL    HW129162   2.150   5.578   5.425
 9421SOL    HW229163   2.163   5.634   5.578
 9422SOL     OW29164   5.407   0.198   2.355
 9422SOL    HW129165   5.398   0.208   2.454
 9422SOL    HW229166   5.317   0.180   2.315
 9423SOL     OW29167   4.388   0.333   2.813
 9423SOL    HW129168   4.348   0.243   2.794
 9423SOL    HW229169   4.478   0.339   2.769
 9424SOL     OW29170   5.305   0.729   5.635
 9424SOL    HW129171   5.238   0.731   5.709
 9424SOL    HW229172   5.278   0.661   5.567
 9425SOL     OW29173   0.436   3.059   5.813
 9425SOL    HW129174   0.406   3.139   5.865
 9425SOL    HW229175   0.386   2.978   5.844
 9426SOL     OW29176   3.045   1.457   0.439
 9426SOL    HW129177   3.067   1.425   0.532
 9426SOL    HW229178   2.946   1.468   0.431
 9427SOL     OW29179   2.909   4.764   5.279
 9427SOL    HW129180   2.889   4.682   5.226
 9427SOL    HW229181   2.932   4.839   5.217
 9428SOL     OW29182   5.744   6.885   2.535
 9428SOL    HW129183   5.687   6.949   2.484
 9428SOL    HW229184   5.824   6.860   2.480
 9429SOL     OW29185   1.587   3.928   2.127
 9429SOL    HW129186   1.562   3.847   2.074
 9429SOL    HW229187   1.515   3.947   2.194
 9430SOL     OW29188   6.627   6.658   1.939
 9430SOL    HW129189   6.554   6.645   1.872
 9430SOL    HW229190   6.599   6.728   2.005
 9431SOL     OW29191   6.017   4.093   0.266
 9431SOL    HW129192   5.975   4.021   0.212
 9431SOL    HW229193   6.022   4.064   0.362
 9432SOL     OW29194   6.298   0.133   3.973
 9432SOL    HW129195   6.315   0.037   3.995
 9432SOL    HW229196   6.219   0.166   4.025
 9433SOL     OW29197   3.092   5.022   4.517
 9433SOL    HW129198   3.138   5.108   4.497
 9433SOL    HW229199   3.118   4.989   4.607
 9434SOL     OW29200   5.591   4.131   3.567
 9434SOL    HW129201   5.601   4.055   3.503
 9434SOL    HW229202   5.681   4.171   3.586
 9435SOL     OW29203   1.175   1.000   4.387
 9435SOL    HW129204   1.160   1.076   4.324
 9435SOL    HW229205   1.118   0.922   4.361
 9436SOL     OW29206   1.139   3.209   1.580
 9436SOL    HW129207   1.211   3.161   1.529
 9436SOL    HW229208   1.122   3.162   1.666
 9437SOL     OW29209   1.306   6.055   3.201
 9437SOL    HW129210   1.226   6.098   3.160
 9437SOL    HW229211   1.381   6.122   3.205
 9438SOL     OW29212   1.105   6.315   1.409
 9438SOL    HW129213   1.087   6.394   1.349
 9438SOL    HW229214   1.116   6.233   1.353
 9439SOL     OW29215   6.934   3.065   2.295
 9439SOL    HW129216   6.929   2.977   2.343
 9439SOL    HW229217   6.997   3.057   2.218
 9440SOL     OW29218   4.918   5.373   5.003
 9440SOL    HW129219   4.869   5.457   5.026
 9440SOL    HW229220   4.870   5.325   4.930
 9441SOL     OW29221   1.299   5.364   5.358
 9441SOL    HW129222   1.364   5.322   5.422
 9441SOL    HW229223   1.214   5.310   5.357
 9442SOL     OW29224   6.483   1.608   0.006
 9442SOL    HW129225   6.413   1.558   6.976
 9442SOL    HW229226   6.460   1.706   0.007
 9443SOL     OW29227   2.136   4.324   1.703
 9443SOL    HW129228   2.109   4.369   1.618
 9443SOL    HW229229   2.192   4.386   1.757
 9444SOL     OW29230   0.366   3.240   0.295
 9444SOL    HW129231   0.411   3.319   0.336
 9444SOL    HW229232   0.376   3.244   0.195
 9445SOL     OW29233   5.076   3.226   2.010
 9445SOL    HW129234   5.002   3.291   1.992
 9445SOL    HW229235   5.074   3.154   1.940
 9446SOL     OW29236   6.515   6.674   2.987
 9446SOL    HW129237   6.507   6.658   2.889
 9446SOL    HW229238   6.538   6.770   3.004
 9447SOL     OW29239   5.534   3.560   3.069
 9447SOL    HW129240   5.521   3.477   3.014
 9447SOL    HW229241   5.619   3.551   3.121
 9448SOL     OW29242   5.312   5.837   6.208
 9448SOL    HW129243   5.264   5.852   6.295
 9448SOL    HW229244   5.248   5.798   6.141
 9449SOL     OW29245   6.995   5.687   5.689
 9449SOL    HW129246   0.038   5.610   5.683
 9449SOL    HW229247   6.930   5.671   5.764
 9450SOL     OW29248   2.699   4.697   4.773
 9450SOL    HW129249   2.754   4.744   4.704
 9450SOL    HW229250   2.758   4.665   4.847
 9451SOL     OW29251   4.677   5.614   6.139
 9451SOL    HW129252   4.687   5.526   6.185
 9451SOL    HW229253   4.700   5.603   6.042
 9452SOL     OW29254   1.819   3.300   0.305
 9452SOL    HW129255   1.765   3.384   0.316
 9452SOL    HW229256   1.806   3.264   0.213
 9453SOL     OW29257   1.628   3.605   3.132
 9453SOL    HW129258   1.659   3.513   3.110
 9453SOL    HW229259   1.568   3.639   3.059
 9454SOL     OW29260   1.434   3.872   5.869
 9454SOL    HW129261   1.493   3.814   5.813
 9454SOL    HW229262   1.407   3.953   5.816
 9455SOL     OW29263   3.515   1.376   2.575
 9455SOL    HW129264   3.609   1.411   2.570
 9455SOL    HW229265   3.477   1.396   2.666
 9456SOL     OW29266   0.023   4.251   0.980
 9456SOL    HW129267   0.098   4.208   0.929
 9456SOL    HW229268   0.053   4.270   1.073
 9457SOL     OW29269   1.280   3.759   6.369
 9457SOL    HW129270   1.330   3.724   6.448
 9457SOL    HW229271   1.341   3.815   6.313
 9458SOL     OW29272   0.611   4.769   6.437
 9458SOL    HW129273   0.646   4.784   6.345
 9458SOL    HW229274   0.601   4.671   6.454
 9459SOL     OW29275   6.655   5.104   1.780
 9459SOL    HW129276   6.664   5.054   1.694
 9459SOL    HW229277   6.659   5.040   1.856
 9460SOL     OW29278   6.977   2.448   5.347
 9460SOL    HW129279   6.883   2.443   5.313
 9460SOL    HW229280   6.977   2.476   5.443
 9461SOL     OW29281   6.550   1.422   3.195
 9461SOL    HW129282   6.502   1.351   3.143
 9461SOL    HW229283   6.647   1.420   3.172
 9462SOL     OW29284   1.586   3.298   3.441
 9462SOL    HW129285   1.490   3.273   3.426
 9462SOL    HW229286   1.608   3.288   3.538
 9463SOL     OW29287   0.079   0.440   1.010
 9463SOL    HW129288   0.075   0.525   1.062
 9463SOL    HW229289   7.009   0.418   0.974
 9464SOL     OW29290   5.418   6.877   6.394
 9464SOL    HW129291   5.481   6.948   6.363
 9464SOL    HW229292   5.361   6.912   6.468
 9465SOL     OW29293   6.798   0.221   3.081
 9465SOL    HW129294   6.719   0.226   3.020
 9465SOL    HW229295   6.768   0.224   3.176
 9466SOL     OW29296   3.352   3.423   5.559
 9466SOL    HW129297   3.405   3.478   5.495
 9466SOL    HW229298   3.256   3.451   5.556
 9467SOL     OW29299   1.659   2.437   1.379
 9467SOL    HW129300   1.737   2.487   1.416
 9467SOL    HW229301   1.576   2.466   1.425
 9468SOL     OW29302   5.754   2.764   6.186
 9468SOL    HW129303   5.709   2.700   6.249
 9468SOL    HW229304   5.686   2.826   6.148
 9469SOL     OW29305   6.021   5.319   2.040
 9469SOL    HW129306   5.926   5.315   2.072
 9469SOL    HW229307   6.068   5.397   2.081
 9470SOL     OW29308   5.142   3.001   6.663
 9470SOL    HW129309   5.050   2.969   6.686
 9470SOL    HW229310   5.201   2.923   6.647
 9471SOL     OW29311   6.729   2.296   5.571
 9471SOL    HW129312   6.715   2.255   5.661
 9471SOL    HW229313   6.669   2.251   5.505
 9472SOL     OW29314   6.509   3.762   4.320
 9472SOL    HW129315   6.413   3.762   4.349
 9472SOL    HW229316   6.557   3.686   4.364
 9473SOL     OW29317   3.770   6.528   5.067
 9473SOL    HW129318   3.679   6.523   5.109
 9473SOL    HW229319   3.772   6.604   5.002
 9474SOL     OW29320   6.027   4.542   1.997
 9474SOL    HW129321   5.954   4.568   2.060
 9474SOL    HW229322   6.002   4.570   1.904
 9475SOL     OW29323   3.645   3.230   1.076
 9475SOL    HW129324   3.618   3.161   1.008
 9475SOL    HW229325   3.611   3.319   1.048
 9476SOL     OW29326   2.923   3.285   4.473
 9476SOL    HW129327   2.886   3.377   4.469
 9476SOL    HW229328   2.964   3.269   4.563
 9477SOL     OW29329   0.956   3.398   1.559
 9477SOL    HW129330   0.972   3.463   1.632
 9477SOL    HW229331   1.026   3.327   1.561
 9478SOL     OW29332   5.364   4.245   6.199
 9478SOL    HW129333   5.407   4.315   6.256
 9478SOL    HW229334   5.287   4.285   6.150
 9479SOL     OW29335   6.025   6.102   6.355
 9479SOL    HW129336   5.952   6.125   6.291
 9479SOL    HW229337   6.028   6.170   6.428
 9480SOL     OW29338   4.359   4.446   6.532
 9480SOL    HW129339   4.411   4.521   6.574
 9480SOL    HW229340   4.415   4.400   6.464
 9481SOL     OW29341   6.127   3.795   1.531
 9481SOL    HW129342   6.144   3.868   1.598
 9481SOL    HW229343   6.037   3.807   1.490
 9482SOL     OW29344   5.929   0.842   3.178
 9482SOL    HW129345   6.010   0.900   3.188
 9482SOL    HW229346   5.848   0.901   3.168
 9483SOL     OW29347   2.015   1.747   0.949
 9483SOL    HW129348   1.919   1.769   0.932
 9483SOL    HW229349   2.021   1.665   1.005
 9484SOL     OW29350   5.502   1.762   3.598
 9484SOL    HW129351   5.457   1.677   3.625
 9484SOL    HW229352   5.434   1.834   3.589
 9485SOL     OW29353   1.319   0.212   1.658
 9485SOL    HW129354   1.284   0.247   1.572
 9485SOL    HW229355   1.246   0.164   1.707
 9486SOL     OW29356   2.335   5.302   1.101
 9486SOL    HW129357   2.322   5.205   1.079
 9486SOL    HW229358   2.274   5.328   1.176
 9487SOL     OW29359   2.999   3.802   3.248
 9487SOL    HW129360   2.980   3.734   3.177
 9487SOL    HW229361   3.045   3.881   3.206
 9488SOL     OW29362   2.297   6.336   1.251
 9488SOL    HW129363   2.367   6.302   1.189
 9488SOL    HW229364   2.227   6.266   1.264
 9489SOL     OW29365   3.364   4.093   0.970
 9489SOL    HW129366   3.450   4.046   0.948
 9489SOL    HW229367   3.319   4.046   1.045
 9490SOL     OW29368   5.587   6.881   0.853
 9490SOL    HW129369   5.644   6.959   0.878
 9490SOL    HW229370   5.513   6.871   0.919
 9491SOL     OW29371   6.723   4.795   4.873
 9491SOL    HW129372   6.633   4.772   4.837
 9491SOL    HW229373   6.741   4.741   4.955
 9492SOL     OW29374   3.181   3.430   2.546
 9492SOL    HW129375   3.204   3.512   2.492
 9492SOL    HW229376   3.264   3.397   2.592
 9493SOL     OW29377   4.896   5.264   3.788
 9493SOL    HW129378   4.885   5.362   3.771
 9493SOL    HW229379   4.828   5.213   3.737
 9494SOL     OW29380   4.900   4.234   0.807
 9494SOL    HW129381   4.817   4.242   0.862
 9494SOL    HW229382   4.942   4.144   0.823
 9495SOL     OW29383   6.452   2.083   4.356
 9495SOL    HW129384   6.538   2.045   4.320
 9495SOL    HW229385   6.472   2.143   4.433
 9496SOL     OW29386   5.165   4.649   0.007
 9496SOL    HW129387   5.124   4.580   0.066
 9496SOL    HW229388   5.256   4.618   6.999
 9497SOL     OW29389   4.401   4.058   0.648
 9497SOL    HW129390   4.338   4.134   0.666
 9497SOL    HW229391   4.382   3.983   0.711
 9498SOL     OW29392   5.379   0.456   6.026
 9498SOL    HW129393   5.472   0.422   6.041
 9498SOL    HW229394   5.352   0.440   5.931
 9499SOL     OW29395   1.987   3.903   5.459
 9499SOL    HW129396   2.062   3.882   5.522
 9499SOL    HW229397   2.024   3.914   5.366
 9500SOL     OW29398   3.384   6.739   1.696
 9500SOL    HW129399   3.449   6.815   1.701
 9500SOL    HW229400   3.330   6.747   1.612
 9501SOL     OW29401   3.353   1.560   4.752
 9501SOL    HW129402   3.276   1.624   4.751
 9501SOL    HW229403   3.377   1.534   4.658
 9502SOL     OW29404   0.134   2.413   5.137
 9502SOL    HW129405   0.196   2.491   5.134
 9502SOL    HW229406   0.066   2.426   5.209
 9503SOL     OW29407   0.367   0.950   1.243
 9503SOL    HW129408   0.342   1.011   1.168
 9503SOL    HW229409   0.306   0.964   1.321
 9504SOL     OW29410   6.356   2.484   0.791
 9504SOL    HW129411   6.442   2.490   0.842
 9504SOL    HW229412   6.365   2.413   0.721
 9505SOL     OW29413   5.844   3.832   3.548
 9505SOL    HW129414   5.776   3.883   3.496
 9505SOL    HW229415   5.857   3.742   3.506
 9506SOL     OW29416   0.301   3.034   6.689
 9506SOL    HW129417   0.254   3.073   6.768
 9506SOL    HW229418   0.353   2.953   6.718
 9507SOL     OW29419   2.368   1.023   4.056
 9507SOL    HW129420   2.332   1.083   4.127
 9507SOL    HW229421   2.379   0.931   4.094
 9508SOL     OW29422   5.806   2.298   0.595
 9508SOL    HW129423   5.794   2.395   0.616
 9508SOL    HW229424   5.731   2.246   0.633
 9509SOL     OW29425   1.497   6.691   5.512
 9509SOL    HW129426   1.454   6.601   5.508
 9509SOL    HW229427   1.432   6.758   5.548
 9510SOL     OW29428   0.514   3.896   1.511
 9510SOL    HW129429   0.593   3.866   1.458
 9510SOL    HW229430   0.479   3.819   1.565
 9511SOL     OW29431   0.887   2.107   6.984
 9511SOL    HW129432   0.841   2.034   0.016
 9511SOL    HW229433   0.829   2.136   6.908
 9512SOL     OW29434   6.204   1.919   3.704
 9512SOL    HW129435   6.250   1.999   3.742
 9512SOL    HW229436   6.260   1.837   3.719
 9513SOL     OW29437   1.810   3.261   4.726
 9513SOL    HW129438   1.822   3.325   4.649
 9513SOL    HW229439   1.899   3.234   4.761
 9514SOL     OW29440   1.586   3.914   0.001
 9514SOL    HW129441   1.591   3.835   6.960
 9514SOL    HW229442   1.492   3.925   0.035
 9515SOL     OW29443   1.417   5.666   6.995
 9515SOL    HW129444   1.468   5.583   6.974
 9515SOL    HW229445   1.376   5.703   6.912
 9516SOL     OW29446   4.938   3.167   4.359
 9516SOL    HW129447   5.015   3.149   4.421
 9516SOL    HW229448   4.973   3.177   4.266
 9517SOL     OW29449   1.565   4.796   0.705
 9517SOL    HW129450   1.553   4.809   0.606
 9517SOL    HW229451   1.600   4.704   0.722
 9518SOL     OW29452   1.859   2.370   6.913
 9518SOL    HW129453   1.859   2.413   6.823
 9518SOL    HW229454   1.818   2.432   6.980
 9519SOL     OW29455   2.943   3.264   2.854
 9519SOL    HW129456   2.972   3.204   2.780
 9519SOL    HW229457   2.959   3.219   2.942
 9520SOL     OW29458   6.404   1.146   4.172
 9520SOL    HW129459   6.489   1.194   4.194
 9520SOL    HW229460   6.381   1.083   4.246
 9521SOL     OW29461   3.350   4.871   1.256
 9521SOL    HW129462   3.283   4.800   1.235
 9521SOL    HW229463   3.399   4.846   1.340
 9522SOL     OW29464   4.195   5.509   2.578
 9522SOL    HW129465   4.096   5.508   2.589
 9522SOL    HW229466   4.221   5.579   2.510
 9523SOL     OW29467   2.260   5.562   4.976
 9523SOL    HW129468   2.359   5.565   4.982
 9523SOL    HW229469   2.233   5.514   4.892
 9524SOL     OW29470   1.861   3.164   1.466
 9524SOL    HW129471   1.831   3.069   1.462
 9524SOL    HW229472   1.897   3.192   1.377
 9525SOL     OW29473   1.775   1.460   6.069
 9525SOL    HW129474   1.850   1.496   6.014
 9525SOL    HW229475   1.809   1.389   6.131
 9526SOL     OW29476   5.716   4.891   0.888
 9526SOL    HW129477   5.735   4.913   0.983
 9526SOL    HW229478   5.621   4.861   0.879
 9527SOL     OW29479   2.757   6.929   4.296
 9527SOL    HW129480   2.683   6.892   4.352
 9527SOL    HW229481   2.837   6.946   4.354
 9528SOL     OW29482   6.476   1.527   1.544
 9528SOL    HW129483   6.457   1.625   1.541
 9528SOL    HW229484   6.404   1.477   1.495
 9529SOL     OW29485   5.511   3.753   1.046
 9529SOL    HW129486   5.461   3.677   1.088
 9529SOL    HW229487   5.588   3.780   1.104
 9530SOL     OW29488   1.030   5.032   4.062
 9530SOL    HW129489   1.061   4.938   4.055
 9530SOL    HW229490   1.049   5.066   4.154
 9531SOL     OW29491   4.193   5.086   3.261
 9531SOL    HW129492   4.270   5.102   3.198
 9531SOL    HW229493   4.156   4.995   3.246
 9532SOL     OW29494   6.555   4.685   1.331
 9532SOL    HW129495   6.624   4.751   1.301
 9532SOL    HW229496   6.549   4.611   1.263
 9533SOL     OW29497   0.517   5.163   3.768
 9533SOL    HW129498   0.561   5.236   3.717
 9533SOL    HW229499   0.452   5.202   3.834
 9534SOL     OW29500   6.115   4.327   5.207
 9534SOL    HW129501   6.087   4.275   5.126
 9534SOL    HW229502   6.179   4.399   5.180
 9535SOL     OW29503   2.252   1.605   6.099
 9535SOL    HW129504   2.239   1.704   6.091
 9535SOL    HW229505   2.264   1.580   6.195
 9536SOL     OW29506   3.560   3.318   4.984
 9536SOL    HW129507   3.541   3.405   4.939
 9536SOL    HW229508   3.480   3.258   4.976
 9537SOL     OW29509   2.720   1.992   4.250
 9537SOL    HW129510   2.708   2.049   4.168
 9537SOL    HW229511   2.632   1.951   4.275
 9538SOL     OW29512   4.758   1.234   4.208
 9538SOL    HW129513   4.835   1.199   4.154
 9538SOL    HW229514   4.674   1.229   4.154
 9539SOL     OW29515   2.974   3.396   4.058
 9539SOL    HW129516   2.971   3.480   4.113
 9539SOL    HW229517   2.909   3.403   3.983
 9540SOL     OW29518   4.768   5.508   4.130
 9540SOL    HW129519   4.835   5.578   4.156
 9540SOL    HW229520   4.682   5.552   4.107
 9541SOL     OW29521   1.545   0.717   5.524
 9541SOL    HW129522   1.485   0.650   5.479
 9541SOL    HW229523   1.606   0.669   5.587
 9542SOL     OW29524   5.488   4.984   4.813
 9542SOL    HW129525   5.422   5.017   4.746
 9542SOL    HW229526   5.580   5.010   4.786
 9543SOL     OW29527   3.161   0.415   5.981
 9543SOL    HW129528   3.165   0.509   6.015
 9543SOL    HW229529   3.143   0.416   5.883
 9544SOL     OW29530   5.201   3.632   4.021
 9544SOL    HW129531   5.102   3.645   4.023
 9544SOL    HW229532   5.244   3.689   4.091
 9545SOL     OW29533   6.732   5.131   2.078
 9545SOL    HW129534   6.818   5.087   2.055
 9545SOL    HW229535   6.662   5.062   2.095
 9546SOL     OW29536   3.824   1.736   5.557
 9546SOL    HW129537   3.835   1.831   5.586
 9546SOL    HW229538   3.731   1.722   5.523
 9547SOL     OW29539   2.609   5.653   4.033
 9547SOL    HW129540   2.517   5.673   4.066
 9547SOL    HW229541   2.603   5.621   3.938
 9548SOL     OW29542   0.824   5.580   4.749
 9548SOL    HW129543   0.812   5.543   4.657
 9548SOL    HW229544   0.892   5.653   4.748
 9549SOL     OW29545   3.052   0.535   2.256
 9549SOL    HW129546   3.033   0.609   2.321
 9549SOL    HW229547   3.087   0.574   2.171
 9550SOL     OW29548   6.399   1.919   0.702
 9550SOL    HW129549   6.468   1.958   0.641
 9550SOL    HW229550   6.313   1.968   0.692
 9551SOL     OW29551   6.391   3.709   5.758
 9551SOL    HW129552   6.422   3.624   5.801
 9551SOL    HW229553   6.373   3.692   5.661
 9552SOL     OW29554   2.476   6.519   6.132
 9552SOL    HW129555   2.528   6.467   6.065
 9552SOL    HW229556   2.491   6.617   6.118
 9553SOL     OW29557   5.335   2.456   6.860
 9553SOL    HW129558   5.413   2.518   6.866
 9553SOL    HW229559   5.357   2.370   6.905
 9554SOL     OW29560   1.707   6.742   4.145
 9554SOL    HW129561   1.789   6.799   4.145
 9554SOL    HW229562   1.663   6.748   4.055
 9555SOL     OW29563   0.382   1.382   3.321
 9555SOL    HW129564   0.415   1.473   3.341
 9555SOL    HW229565   0.375   1.329   3.406
 9556SOL     OW29566   1.914   3.961   0.943
 9556SOL    HW129567   1.872   4.046   0.974
 9556SOL    HW229568   1.866   3.883   0.985
 9557SOL     OW29569   5.127   0.186   1.742
 9557SOL    HW129570   5.189   0.108   1.734
 9557SOL    HW229571   5.179   0.266   1.770
 9558SOL     OW29572   5.256   6.127   5.465
 9558SOL    HW129573   5.291   6.065   5.395
 9558SOL    HW229574   5.285   6.096   5.555
 9559SOL     OW29575   1.237   3.705   6.853
 9559SOL    HW129576   1.266   3.760   6.931
 9559SOL    HW229577   1.141   3.724   6.833
 9560SOL     OW29578   2.736   1.185   2.312
 9560SOL    HW129579   2.822   1.233   2.323
 9560SOL    HW229580   2.709   1.145   2.400
 9561SOL     OW29581   0.337   0.655   1.352
 9561SOL    HW129582   0.275   0.719   1.398
 9561SOL    HW229583   0.285   0.574   1.324
 9562SOL     OW29584   2.680   6.147   4.435
 9562SOL    HW129585   2.673   6.163   4.336
 9562SOL    HW229586   2.751   6.206   4.473
 9563SOL     OW29587   0.205   6.857   6.871
 9563SOL    HW129588   0.121   6.837   6.822
 9563SOL    HW229589   0.185   6.872   6.968
 9564SOL     OW29590   2.205   1.183   1.123
 9564SOL    HW129591   2.222   1.240   1.043
 9564SOL    HW229592   2.271   1.107   1.125
 9565SOL     OW29593   3.328   1.334   4.890
 9565SOL    HW129594   3.427   1.325   4.892
 9565SOL    HW229595   3.304   1.421   4.847
 9566SOL     OW29596   2.603   5.710   0.030
 9566SOL    HW129597   2.611   5.776   0.105
 9566SOL    HW229598   2.515   5.720   7.005
 9567SOL     OW29599   5.664   4.447   0.453
 9567SOL    HW129600   5.572   4.419   0.424
 9567SOL    HW229601   5.729   4.374   0.433
 9568SOL     OW29602   4.157   1.343   0.139
 9568SOL    HW129603   4.200   1.268   0.190
 9568SOL    HW229604   4.131   1.311   0.048
 9569SOL     OW29605   0.275   0.931   1.922
 9569SOL    HW129606   0.199   0.975   1.970
 9569SOL    HW229607   0.361   0.953   1.969
 9570SOL     OW29608   0.082   2.713   0.933
 9570SOL    HW129609   0.025   2.642   0.973
 9570SOL    HW229610   0.168   2.674   0.902
 9571SOL     OW29611   2.923   3.336   5.501
 9571SOL    HW129612   2.831   3.371   5.517
 9571SOL    HW229613   2.917   3.257   5.440
 9572SOL     OW29614   1.605   4.740   2.558
 9572SOL    HW129615   1.542   4.699   2.492
 9572SOL    HW229616   1.618   4.678   2.635
 9573SOL     OW29617   0.092   1.864   6.527
 9573SOL    HW129618   0.073   1.911   6.440
 9573SOL    HW229619   0.187   1.834   6.528
 9574SOL     OW29620   3.365   2.894   2.338
 9574SOL    HW129621   3.275   2.922   2.371
 9574SOL    HW229622   3.428   2.883   2.416
 9575SOL     OW29623   6.548   0.768   1.868
 9575SOL    HW129624   6.569   0.675   1.898
 9575SOL    HW229625   6.615   0.831   1.907
 9576SOL     OW29626   1.871   2.069   0.411
 9576SOL    HW129627   1.839   2.083   0.505
 9576SOL    HW229628   1.969   2.084   0.407
 9577SOL     OW29629   0.612   6.761   5.606
 9577SOL    HW129630   0.514   6.774   5.591
 9577SOL    HW229631   0.660   6.848   5.593
 9578SOL     OW29632   1.139   2.662   2.738
 9578SOL    HW129633   1.198   2.638   2.661
 9578SOL    HW229634   1.043   2.652   2.710
 9579SOL     OW29635   0.165   6.116   3.388
 9579SOL    HW129636   0.125   6.144   3.476
 9579SOL    HW229637   0.116   6.036   3.354
 9580SOL     OW29638   5.128   3.517   1.233
 9580SOL    HW129639   5.188   3.468   1.169
 9580SOL    HW229640   5.034   3.511   1.202
 9581SOL     OW29641   0.467   0.196   6.592
 9581SOL    HW129642   0.566   0.189   6.602
 9581SOL    HW229643   0.429   0.105   6.576
 9582SOL     OW29644   3.843   5.824   4.696
 9582SOL    HW129645   3.834   5.754   4.767
 9582SOL    HW229646   3.838   5.915   4.738
 9583SOL     OW29647   3.043   3.591   1.057
 9583SOL    HW129648   3.027   3.493   1.048
 9583SOL    HW229649   3.076   3.611   1.149
 9584SOL     OW29650   0.557   4.831   5.987
 9584SOL    HW129651   0.504   4.774   6.050
 9584SOL    HW229652   0.596   4.773   5.915
 9585SOL     OW29653   5.224   6.592   3.129
 9585SOL    HW129654   5.221   6.652   3.209
 9585SOL    HW229655   5.319   6.578   3.102
 9586SOL     OW29656   4.512   5.629   2.460
 9586SOL    HW129657   4.437   5.616   2.396
 9586SOL    HW229658   4.568   5.706   2.429
 9587SOL     OW29659   1.015   6.936   1.508
 9587SOL    HW129660   1.104   6.895   1.488
 9587SOL    HW229661   1.000   7.014   1.448
 9588SOL     OW29662   6.035   6.563   0.344
 9588SOL    HW129663   6.029   6.663   0.350
 9588SOL    HW229664   5.987   6.531   0.263
 9589SOL     OW29665   1.645   4.335   6.829
 9589SOL    HW129666   1.574   4.370   6.891
 9589SOL    HW229667   1.735   4.358   6.866
 9590SOL     OW29668   6.154   2.654   1.562
 9590SOL    HW129669   6.201   2.613   1.484
 9590SOL    HW229670   6.151   2.588   1.637
 9591SOL     OW29671   3.544   5.341   5.841
 9591SOL    HW129672   3.542   5.337   5.741
 9591SOL    HW229673   3.451   5.328   5.876
 9592SOL     OW29674   3.355   4.647   0.796
 9592SOL    HW129675   3.388   4.735   0.762
 9592SOL    HW229676   3.260   4.634   0.769
 9593SOL     OW29677   0.952   1.265   6.146
 9593SOL    HW129678   0.917   1.301   6.232
 9593SOL    HW229679   1.007   1.334   6.100
 9594SOL     OW29680   2.462   5.570   4.538
 9594SOL    HW129681   2.513   5.501   4.590
 9594SOL    HW229682   2.458   5.544   4.442
 9595SOL     OW29683   0.322   2.379   3.981
 9595SOL    HW129684   0.400   2.339   4.027
 9595SOL    HW229685   0.327   2.479   3.986
 9596SOL     OW29686   0.558   5.094   6.945
 9596SOL    HW129687   0.598   5.006   6.918
 9596SOL    HW229688   0.472   5.077   6.994
 9597SOL     OW29689   6.919   3.887   1.409
 9597SOL    HW129690   6.907   3.789   1.395
 9597SOL    HW229691   6.835   3.926   1.447
 9598SOL     OW29692   1.999   4.448   3.358
 9598SOL    HW129693   2.074   4.450   3.291
 9598SOL    HW229694   1.986   4.355   3.391
 9599SOL     OW29695   2.946   0.408   3.803
 9599SOL    HW129696   2.894   0.332   3.843
 9599SOL    HW229697   3.025   0.428   3.861
 9600SOL     OW29698   3.098   0.372   6.905
 9600SOL    HW129699   3.163   0.441   6.874
 9600SOL    HW229700   3.093   0.298   6.837
 9601SOL     OW29701   5.408   4.899   0.519
 9601SOL    HW129702   5.423   4.937   0.428
 9601SOL    HW229703   5.357   4.965   0.574
 9602SOL     OW29704   5.799   4.075   6.478
 9602SOL    HW129705   5.827   4.036   6.566
 9602SOL    HW229706   5.860   4.151   6.454
 9603SOL     OW29707   4.447   0.785   6.686
 9603SOL    HW129708   4.404   0.851   6.624
 9603SOL    HW229709   4.398   0.699   6.683
 9604SOL     OW29710   4.995   0.098   1.039
 9604SOL    HW129711   4.957   0.092   1.131
 9604SOL    HW229712   4.956   0.177   0.992
 9605SOL     OW29713   1.275   5.762   3.229
 9605SOL    HW129714   1.202   5.747   3.162
 9605SOL    HW229715   1.314   5.853   3.216
 9606SOL     OW29716   1.553   6.612   6.515
 9606SOL    HW129717   1.490   6.546   6.474
 9606SOL    HW229718   1.638   6.565   6.540
 9607SOL     OW29719   2.672   1.321   0.055
 9607SOL    HW129720   2.665   1.328   6.976
 9607SOL    HW229721   2.721   1.238   0.080
 9608SOL     OW29722   0.201   4.287   1.555
 9608SOL    HW129723   0.293   4.260   1.527
 9608SOL    HW229724   0.151   4.208   1.589
 9609SOL     OW29725   3.052   2.926   0.030
 9609SOL    HW129726   2.963   2.915   7.006
 9609SOL    HW229727   3.041   2.918   0.129
 9610SOL     OW29728   1.769   5.049   3.423
 9610SOL    HW129729   1.754   5.023   3.328
 9610SOL    HW229730   1.695   5.110   3.453
 9611SOL     OW29731   1.423   6.298   0.685
 9611SOL    HW129732   1.437   6.356   0.604
 9611SOL    HW229733   1.330   6.309   0.719
 9612SOL     OW29734   6.991   3.399   1.958
 9612SOL    HW129735   0.049   3.397   1.895
 9612SOL    HW229736   7.010   3.461   2.034
 9613SOL     OW29737   4.778   6.797   3.484
 9613SOL    HW129738   4.796   6.766   3.578
 9613SOL    HW229739   4.681   6.782   3.463
 9614SOL     OW29740   4.133   2.242   1.921
 9614SOL    HW129741   4.093   2.240   2.012
 9614SOL    HW229742   4.066   2.278   1.856
 9615SOL     OW29743   2.682   1.049   1.136
 9615SOL    HW129744   2.755   1.071   1.200
 9615SOL    HW229745   2.685   1.113   1.059
 9616SOL     OW29746   3.555   4.295   1.422
 9616SOL    HW129747   3.630   4.328   1.366
 9616SOL    HW229748   3.558   4.339   1.512
 9617SOL     OW29749   1.711   2.972   3.159
 9617SOL    HW129750   1.707   2.982   3.258
 9617SOL    HW229751   1.756   2.886   3.136
 9618SOL     OW29752   2.627   6.711   0.640
 9618SOL    HW129753   2.584   6.620   0.639
 9618SOL    HW229754   2.682   6.723   0.557
 9619SOL     OW29755   1.697   0.246   6.398
 9619SOL    HW129756   1.766   0.174   6.412
 9619SOL    HW229757   1.737   0.335   6.420
 9620SOL     OW29758   4.353   0.434   5.957
 9620SOL    HW129759   4.383   0.419   5.862
 9620SOL    HW229760   4.424   0.485   6.006
 9621SOL     OW29761   1.533   2.619   2.122
 9621SOL    HW129762   1.628   2.607   2.151
 9621SOL    HW229763   1.472   2.582   2.192
 9622SOL     OW29764   6.948   1.476   0.349
 9622SOL    HW129765   6.879   1.423   0.299
 9622SOL    HW229766   6.954   1.568   0.311
 9623SOL     OW29767   2.700   3.579   5.426
 9623SOL    HW129768   2.631   3.636   5.469
 9623SOL    HW229769   2.760   3.635   5.370
 9624SOL     OW29770   6.703   4.207   2.696
 9624SOL    HW129771   6.768   4.160   2.637
 9624SOL    HW229772   6.714   4.176   2.790
 9625SOL     OW29773   4.860   5.319   6.882
 9625SOL    HW129774   4.784   5.351   6.826
 9625SOL    HW229775   4.874   5.221   6.866
 9626SOL     OW29776   4.472   5.543   0.422
 9626SOL    HW129777   4.478   5.640   0.447
 9626SOL    HW229778   4.501   5.531   0.327
 9627SOL     OW29779   0.070   5.925   4.892
 9627SOL    HW129780   0.065   5.940   4.991
 9627SOL    HW229781   0.159   5.887   4.868
 9628SOL     OW29782   4.654   4.995   0.707
 9628SOL    HW129783   4.725   5.032   0.767
 9628SOL    HW229784   4.688   4.989   0.614
 9629SOL     OW29785   1.076   0.112   1.805
 9629SOL    HW129786   1.094   0.025   1.851
 9629SOL    HW229787   0.988   0.107   1.758
 9630SOL     OW29788   6.289   7.014   4.383
 9630SOL    HW129789   6.251   0.002   4.290
 9630SOL    HW229790   6.268   6.923   4.419
 9631SOL     OW29791   7.000   6.746   6.714
 9631SOL    HW129792   6.916   6.726   6.664
 9631SOL    HW229793   0.033   6.662   6.726
 9632SOL     OW29794   1.306   0.163   2.886
 9632SOL    HW129795   1.306   0.246   2.831
 9632SOL    HW229796   1.325   0.084   2.827
 9633SOL     OW29797   4.795   5.153   5.943
 9633SOL    HW129798   4.855   5.076   5.920
 9633SOL    HW229799   4.724   5.122   6.006
 9634SOL     OW29800   1.537   5.885   4.037
 9634SOL    HW129801   1.503   5.812   4.096
 9634SOL    HW229802   1.495   5.972   4.064
 9635SOL     OW29803   1.991   5.762   4.924
 9635SOL    HW129804   1.996   5.711   4.838
 9635SOL    HW229805   1.921   5.722   4.982
 9636SOL     OW29806   3.958   2.059   5.828
 9636SOL    HW129807   3.967   2.138   5.889
 9636SOL    HW229808   4.029   1.992   5.849
 9637SOL     OW29809   2.619   2.098   6.567
 9637SOL    HW129810   2.680   2.055   6.500
 9637SOL    HW229811   2.668   2.171   6.614
 9638SOL     OW29812   6.616   3.920   6.513
 9638SOL    HW129813   6.614   3.856   6.436
 9638SOL    HW229814   6.659   4.006   6.485
 9639SOL     OW29815   3.957   1.339   2.505
 9639SOL    HW129816   4.051   1.325   2.477
 9639SOL    HW229817   3.909   1.251   2.510
 9640SOL     OW29818   2.069   2.333   3.880
 9640SOL    HW129819   1.993   2.379   3.927
 9640SOL    HW229820   2.073   2.365   3.785
 9641SOL     OW29821   4.003   6.009   0.926
 9641SOL    HW129822   3.907   6.003   0.956
 9641SOL    HW229823   4.038   6.101   0.945
 9642SOL     OW29824   3.183   6.860   5.097
 9642SOL    HW129825   3.114   6.931   5.089
 9642SOL    HW229826   3.226   6.864   5.187
 9643SOL     OW29827   5.374   5.080   3.823
 9643SOL    HW129828   5.470   5.085   3.796
 9643SOL    HW229829   5.320   5.140   3.764
 9644SOL     OW29830   1.062   4.323   6.301
 9644SOL    HW129831   1.021   4.322   6.393
 9644SOL    HW229832   1.028   4.245   6.249
 9645SOL     OW29833   2.520   5.532   5.039
 9645SOL    HW129834   2.515   5.609   5.103
 9645SOL    HW229835   2.585   5.553   4.967
 9646SOL     OW29836   2.704   4.783   1.890
 9646SOL    HW129837   2.717   4.771   1.791
 9646SOL    HW229838   2.778   4.737   1.939
 9647SOL     OW29839   6.329   4.756   1.037
 9647SOL    HW129840   6.329   4.705   0.951
 9647SOL    HW229841   6.408   4.817   1.040
 9648SOL     OW29842   4.506   1.299   0.785
 9648SOL    HW129843   4.427   1.240   0.802
 9648SOL    HW229844   4.587   1.260   0.830
 9649SOL     OW29845   2.824   6.725   0.447
 9649SOL    HW129846   2.895   6.794   0.456
 9649SOL    HW229847   2.850   6.659   0.376
 9650SOL     OW29848   6.542   4.931   2.039
 9650SOL    HW129849   6.463   4.893   2.088
 9650SOL    HW229850   6.580   4.860   1.979
 9651SOL     OW29851   6.882   1.537   5.951
 9651SOL    HW129852   6.867   1.505   6.045
 9651SOL    HW229853   6.944   1.474   5.904
 9652SOL     OW29854   2.024   4.338   0.910
 9652SOL    HW129855   2.059   4.297   0.994
 9652SOL    HW229856   1.961   4.413   0.933
 9653SOL     OW29857   4.051   4.830   4.661
 9653SOL    HW129858   4.047   4.733   4.638
 9653SOL    HW229859   4.131   4.872   4.616
 9654SOL     OW29860   3.303   2.657   0.984
 9654SOL    HW129861   3.377   2.695   0.929
 9654SOL    HW229862   3.326   2.563   1.010
 9655SOL     OW29863   0.230   0.924   6.958
 9655SOL    HW129864   0.219   0.927   0.037
 9655SOL    HW229865   0.278   0.839   6.933
 9656SOL     OW29866   2.514   0.653   1.732
 9656SOL    HW129867   2.534   0.576   1.672
 9656SOL    HW229868   2.551   0.635   1.824
 9657SOL     OW29869   5.403   0.597   4.052
 9657SOL    HW129870   5.359   0.527   4.109
 9657SOL    HW229871   5.335   0.662   4.019
 9658SOL     OW29872   6.930   2.179   3.055
 9658SOL    HW129873   7.014   2.127   3.035
 9658SOL    HW229874   6.859   2.115   3.085
 9659SOL     OW29875   6.364   4.565   0.405
 9659SOL    HW129876   6.332   4.623   0.480
 9659SOL    HW229877   6.286   4.536   0.350
 9660SOL     OW29878   0.444   5.394   0.610
 9660SOL    HW129879   0.456   5.481   0.657
 9660SOL    HW229880   0.360   5.395   0.556
 9661SOL     OW29881   4.517   5.578   1.269
 9661SOL    HW129882   4.587   5.523   1.225
 9661SOL    HW229883   4.476   5.640   1.202
 9662SOL     OW29884   6.356   2.786   4.472
 9662SOL    HW129885   6.271   2.741   4.501
 9662SOL    HW229886   6.344   2.885   4.474
 9663SOL     OW29887   1.427   5.668   3.850
 9663SOL    HW129888   1.483   5.704   3.925
 9663SOL    HW229889   1.452   5.714   3.765
 9664SOL     OW29890   5.321   6.995   3.010
 9664SOL    HW129891   5.345   7.012   2.914
 9664SOL    HW229892   5.228   6.960   3.016
 9665SOL     OW29893   6.092   5.077   5.545
 9665SOL    HW129894   6.073   5.167   5.584
 9665SOL    HW229895   6.179   5.043   5.581
 9666SOL     OW29896   5.795   4.117   1.767
 9666SOL    HW129897   5.757   4.207   1.789
 9666SOL    HW229898   5.895   4.122   1.767
 9667SOL     OW29899   3.920   3.077   4.529
 9667SOL    HW129900   3.933   3.081   4.430
 9667SOL    HW229901   3.884   2.987   4.554
 9668SOL     OW29902   6.709   1.957   6.120
 9668SOL    HW129903   6.771   2.035   6.114
 9668SOL    HW229904   6.661   1.959   6.207
 9669SOL     OW29905   0.487   1.457   0.924
 9669SOL    HW129906   0.577   1.492   0.952
 9669SOL    HW229907   0.488   1.357   0.929
 9670SOL     OW29908   4.683   4.780   5.814
 9670SOL    HW129909   4.599   4.790   5.759
 9670SOL    HW229910   4.754   4.737   5.759
 9671SOL     OW29911   0.649   5.283   6.138
 9671SOL    HW129912   0.608   5.332   6.215
 9671SOL    HW229913   0.586   5.213   6.106
 9672SOL     OW29914   1.034   6.939   4.599
 9672SOL    HW129915   1.039   7.013   4.532
 9672SOL    HW229916   1.121   6.932   4.647
 9673SOL     OW29917   4.280   4.339   6.784
 9673SOL    HW129918   4.330   4.258   6.815
 9673SOL    HW229919   4.316   4.369   6.696
 9674SOL     OW29920   2.850   5.660   2.967
 9674SOL    HW129921   2.934   5.702   2.932
 9674SOL    HW229922   2.850   5.563   2.944
 9675SOL     OW29923   5.882   1.297   2.018
 9675SOL    HW129924   5.932   1.383   2.015
 9675SOL    HW229925   5.903   1.250   2.104
 9676SOL     OW29926   1.379   3.680   5.412
 9676SOL    HW129927   1.304   3.625   5.375
 9676SOL    HW229928   1.427   3.629   5.483
 9677SOL     OW29929   2.909   4.643   5.890
 9677SOL    HW129930   2.939   4.568   5.831
 9677SOL    HW229931   2.988   4.678   5.941
 9678SOL     OW29932   3.631   4.106   2.802
 9678SOL    HW129933   3.718   4.073   2.841
 9678SOL    HW229934   3.558   4.091   2.869
 9679SOL     OW29935   0.802   1.627   1.931
 9679SOL    HW129936   0.772   1.707   1.982
 9679SOL    HW229937   0.753   1.623   1.844
 9680SOL     OW29938   5.966   0.010   3.283
 9680SOL    HW129939   6.011   0.073   3.220
 9680SOL    HW229940   5.975   6.937   3.250
 9681SOL     OW29941   2.727   0.448   1.131
 9681SOL    HW129942   2.647   0.414   1.182
 9681SOL    HW229943   2.741   0.544   1.152
 9682SOL     OW29944   4.879   5.599   2.874
 9682SOL    HW129945   4.893   5.663   2.950
 9682SOL    HW229946   4.824   5.643   2.803
 9683SOL     OW29947   4.066   5.471   0.734
 9683SOL    HW129948   4.086   5.515   0.821
 9683SOL    HW229949   4.130   5.505   0.664
 9684SOL     OW29950   0.362   3.854   4.899
 9684SOL    HW129951   0.356   3.840   4.800
 9684SOL    HW229952   0.331   3.772   4.946
 9685SOL     OW29953   2.324   3.005   1.140
 9685SOL    HW129954   2.335   3.082   1.203
 9685SOL    HW229955   2.237   2.959   1.158
 9686SOL     OW29956   6.370   1.479   0.634
 9686SOL    HW129957   6.367   1.546   0.708
 9686SOL    HW229958   6.412   1.395   0.667
 9687SOL     OW29959   1.845   0.921   2.953
 9687SOL    HW129960   1.868   0.829   2.987
 9687SOL    HW229961   1.897   0.940   2.870
 9688SOL     OW29962   6.659   2.584   3.272
 9688SOL    HW129963   6.651   2.655   3.202
 9688SOL    HW229964   6.745   2.534   3.260
 9689SOL     OW29965   1.527   0.131   0.642
 9689SOL    HW129966   1.550   0.191   0.566
 9689SOL    HW229967   1.445   0.164   0.688
 9690SOL     OW29968   5.885   5.202   6.414
 9690SOL    HW129969   5.920   5.261   6.341
 9690SOL    HW229970   5.830   5.257   6.478
 9691SOL     OW29971   2.626   4.558   1.305
 9691SOL    HW129972   2.559   4.546   1.233
 9691SOL    HW229973   2.608   4.643   1.355
 9692SOL     OW29974   2.080   5.517   2.920
 9692SOL    HW129975   2.166   5.467   2.914
 9692SOL    HW229976   2.079   5.589   2.851
 9693SOL     OW29977   0.231   5.153   1.770
 9693SOL    HW129978   0.235   5.073   1.709
 9693SOL    HW229979   0.204   5.123   1.862
 9694SOL     OW29980   1.990   0.857   6.341
 9694SOL    HW129981   2.049   0.809   6.405
 9694SOL    HW229982   2.043   0.887   6.262
 9695SOL     OW29983   5.497   4.734   1.397
 9695SOL    HW129984   5.592   4.766   1.405
 9695SOL    HW229985   5.491   4.664   1.326
 9696SOL     OW29986   4.702   2.567   1.411
 9696SOL    HW129987   4.726   2.492   1.472
 9696SOL    HW229988   4.688   2.532   1.319
 9697SOL     OW29989   0.183   5.180   6.851
 9697SOL    HW129990   0.246   5.252   6.822
 9697SOL    HW229991   0.176   5.111   6.779
 9698SOL     OW29992   6.043   1.001   5.367
 9698SOL    HW129993   6.134   0.999   5.408
 9698SOL    HW229994   6.001   0.910   5.373
 9699SOL     OW29995   0.613   3.913   6.256
 9699SOL    HW129996   0.603   3.863   6.343
 9699SOL    HW229997   0.524   3.946   6.226
 9700SOL     OW29998   3.676   4.811   6.017
 9700SOL    HW129999   3.700   4.800   5.920
 9700SOL    HW230000   3.608   4.884   6.026
 9701SOL     OW30001   3.970   5.598   5.035
 9701SOL    HW130002   3.879   5.570   5.006
 9701SOL    HW230003   3.965   5.688   5.080
 9702SOL     OW30004   5.385   0.479   6.967
 9702SOL    HW130005   5.445   0.460   0.025
 9702SOL    HW230006   5.428   0.446   6.883
 9703SOL     OW30007   3.574   6.041   4.430
 9703SOL    HW130008   3.481   6.050   4.466
 9703SOL    HW230009   3.572   6.039   4.330
 9704SOL     OW30010   3.026   0.366   2.536
 9704SOL    HW130011   2.985   0.275   2.534
 9704SOL    HW230012   3.076   0.382   2.452
 9705SOL     OW30013   5.052   4.815   0.680
 9705SOL    HW130014   5.144   4.775   0.683
 9705SOL    HW230015   5.000   4.774   0.606
 9706SOL     OW30016   6.965   2.209   0.761
 9706SOL    HW130017   6.892   2.142   0.750
 9706SOL    HW230018   0.024   2.182   0.706
 9707SOL     OW30019   0.248   4.233   2.085
 9707SOL    HW130020   0.243   4.329   2.115
 9707SOL    HW230021   0.331   4.220   2.032
 9708SOL     OW30022   1.713   2.478   3.600
 9708SOL    HW130023   1.631   2.503   3.549
 9708SOL    HW230024   1.710   2.381   3.624
 9709SOL     OW30025   0.159   5.503   3.660
 9709SOL    HW130026   0.253   5.530   3.677
 9709SOL    HW230027   0.108   5.579   3.621
 9710SOL     OW30028   0.279   1.389   3.039
 9710SOL    HW130029   0.224   1.321   2.991
 9710SOL    HW230030   0.286   1.364   3.136
 9711SOL     OW30031   1.240   3.505   5.816
 9711SOL    HW130032   1.286   3.422   5.849
 9711SOL    HW230033   1.275   3.528   5.725
 9712SOL     OW30034   5.250   3.347   4.918
 9712SOL    HW130035   5.168   3.291   4.925
 9712SOL    HW230036   5.330   3.294   4.946
 9713SOL     OW30037   0.457   4.661   2.648
 9713SOL    HW130038   0.501   4.653   2.559
 9713SOL    HW230039   0.366   4.618   2.644
 9714SOL     OW30040   1.855   1.219   1.533
 9714SOL    HW130041   1.889   1.299   1.583
 9714SOL    HW230042   1.796   1.249   1.458
 9715SOL     OW30043   6.849   5.916   4.140
 9715SOL    HW130044   6.770   5.942   4.085
 9715SOL    HW230045   6.817   5.872   4.225
 9716SOL     OW30046   3.956   2.437   0.166
 9716SOL    HW130047   3.950   2.528   0.207
 9716SOL    HW230048   4.015   2.379   0.223
 9717SOL     OW30049   5.805   5.973   5.116
 9717SOL    HW130050   5.779   5.970   5.020
 9717SOL    HW230051   5.775   6.059   5.157
 9718SOL     OW30052   4.819   3.024   1.690
 9718SOL    HW130053   4.891   2.997   1.754
 9718SOL    HW230054   4.732   3.031   1.739
 9719SOL     OW30055   0.674   2.335   6.637
 9719SOL    HW130056   0.676   2.401   6.713
 9719SOL    HW230057   0.671   2.385   6.550
 9720SOL     OW30058   0.754   5.658   1.294
 9720SOL    HW130059   0.817   5.612   1.231
 9720SOL    HW230060   0.660   5.630   1.273
 9721SOL     OW30061   0.933   2.560   1.903
 9721SOL    HW130062   0.986   2.598   1.828
 9721SOL    HW230063   0.863   2.498   1.867
 9722SOL     OW30064   0.370   6.757   3.598
 9722SOL    HW130065   0.463   6.731   3.625
 9722SOL    HW230066   0.329   6.683   3.545
 9723SOL     OW30067   1.322   6.022   2.839
 9723SOL    HW130068   1.250   5.981   2.895
 9723SOL    HW230069   1.285   6.048   2.750
 9724SOL     OW30070   2.955   2.687   1.530
 9724SOL    HW130071   3.044   2.650   1.504
 9724SOL    HW230072   2.967   2.783   1.558
 9725SOL     OW30073   4.125   3.543   6.232
 9725SOL    HW130074   4.078   3.561   6.146
 9725SOL    HW230075   4.190   3.467   6.219
 9726SOL     OW30076   4.803   0.519   4.697
 9726SOL    HW130077   4.880   0.538   4.757
 9726SOL    HW230078   4.764   0.604   4.663
 9727SOL     OW30079   1.577   4.085   5.292
 9727SOL    HW130080   1.490   4.135   5.292
 9727SOL    HW230081   1.560   3.987   5.279
 9728SOL     OW30082   1.233   6.498   6.907
 9728SOL    HW130083   1.286   6.571   6.862
 9728SOL    HW230084   1.288   6.459   6.982
 9729SOL     OW30085   1.434   4.531   2.889
 9729SOL    HW130086   1.413   4.627   2.873
 9729SOL    HW230087   1.379   4.496   2.965
 9730SOL     OW30088   0.207   3.100   2.883
 9730SOL    HW130089   0.153   3.115   2.800
 9730SOL    HW230090   0.278   3.170   2.888
 9731SOL     OW30091   4.212   5.065   1.026
 9731SOL    HW130092   4.178   5.027   1.112
 9731SOL    HW230093   4.197   5.000   0.952
 9732SOL     OW30094   5.980   6.116   2.853
 9732SOL    HW130095   6.060   6.062   2.827
 9732SOL    HW230096   5.942   6.160   2.772
 9733SOL     OW30097   5.978   5.317   4.667
 9733SOL    HW130098   5.926   5.244   4.711
 9733SOL    HW230099   6.025   5.281   4.587
 9734SOL     OW30100   5.439   1.765   4.006
 9734SOL    HW130101   5.378   1.718   4.071
 9734SOL    HW230102   5.402   1.856   3.986
 9735SOL     OW30103   1.929   4.666   2.804
 9735SOL    HW130104   1.873   4.595   2.761
 9735SOL    HW230105   1.908   4.755   2.764
 9736SOL     OW30106   5.315   1.290   5.802
 9736SOL    HW130107   5.377   1.320   5.729
 9736SOL    HW230108   5.343   1.332   5.888
 9737SOL     OW30109   4.701   2.774   5.072
 9737SOL    HW130110   4.748   2.840   5.014
 9737SOL    HW230111   4.673   2.818   5.158
 9738SOL     OW30112   1.783   7.012   2.710
 9738SOL    HW130113   1.765   0.073   2.655
 9738SOL    HW230114   1.729   6.935   2.677
 9739SOL     OW30115   0.863   4.833   1.792
 9739SOL    HW130116   0.921   4.911   1.768
 9739SOL    HW230117   0.880   4.758   1.729
 9740SOL     OW30118   6.332   3.299   3.116
 9740SOL    HW130119   6.414   3.242   3.123
 9740SOL    HW230120   6.313   3.318   3.020
 9741SOL     OW30121   4.711   1.169   2.798
 9741SOL    HW130122   4.708   1.197   2.702
 9741SOL    HW230123   4.621   1.134   2.825
 9742SOL     OW30124   4.495   6.969   3.068
 9742SOL    HW130125   4.474   0.011   3.144
 9742SOL    HW230126   4.571   6.909   3.095
 9743SOL     OW30127   2.195   2.282   5.879
 9743SOL    HW130128   2.104   2.324   5.871
 9743SOL    HW230129   2.217   2.235   5.793
 9744SOL     OW30130   0.633   0.463   2.418
 9744SOL    HW130131   0.683   0.522   2.481
 9744SOL    HW230132   0.593   0.386   2.468
 9745SOL     OW30133   0.529   2.417   5.728
 9745SOL    HW130134   0.571   2.385   5.813
 9745SOL    HW230135   0.562   2.360   5.652
 9746SOL     OW30136   5.226   1.826   4.975
 9746SOL    HW130137   5.198   1.739   4.934
 9746SOL    HW230138   5.326   1.835   4.970
 9747SOL     OW30139   1.450   1.193   1.490
 9747SOL    HW130140   1.393   1.248   1.551
 9747SOL    HW230141   1.454   1.099   1.523
 9748SOL     OW30142   0.895   6.904   5.298
 9748SOL    HW130143   0.885   6.917   5.200
 9748SOL    HW230144   0.857   6.982   5.347
 9749SOL     OW30145   1.767   2.232   5.562
 9749SOL    HW130146   1.729   2.182   5.640
 9749SOL    HW230147   1.771   2.171   5.482
 9750SOL     OW30148   5.796   5.102   3.966
 9750SOL    HW130149   5.872   5.145   3.917
 9750SOL    HW230150   5.832   5.048   4.042
 9751SOL     OW30151   2.094   2.311   1.453
 9751SOL    HW130152   2.183   2.266   1.459
 9751SOL    HW230153   2.104   2.408   1.474
 9752SOL     OW30154   4.654   0.805   6.099
 9752SOL    HW130155   4.699   0.888   6.067
 9752SOL    HW230156   4.702   0.770   6.180
 9753SOL     OW30157   6.387   6.731   4.730
 9753SOL    HW130158   6.469   6.689   4.692
 9753SOL    HW230159   6.399   6.743   4.829
 9754SOL     OW30160   1.227   1.984   6.841
 9754SOL    HW130161   1.183   1.915   6.899
 9754SOL    HW230162   1.285   2.043   6.898
 9755SOL     OW30163   4.244   3.572   5.105
 9755SOL    HW130164   4.247   3.486   5.155
 9755SOL    HW230165   4.273   3.647   5.165
 9756SOL     OW30166   6.011   2.917   0.281
 9756SOL    HW130167   5.957   2.998   0.307
 9756SOL    HW230168   5.951   2.838   0.276
 9757SOL     OW30169   4.824   3.128   3.581
 9757SOL    HW130170   4.749   3.065   3.599
 9757SOL    HW230171   4.910   3.077   3.571
 9758SOL     OW30172   1.474   7.016   5.646
 9758SOL    HW130173   1.567   6.981   5.654
 9758SOL    HW230174   1.409   6.941   5.661
 9759SOL     OW30175   2.081   0.137   1.078
 9759SOL    HW130176   2.121   0.218   1.122
 9759SOL    HW230177   2.019   0.092   1.142
 9760SOL     OW30178   5.146   4.343   4.955
 9760SOL    HW130179   5.241   4.373   4.961
 9760SOL    HW230180   5.105   4.342   5.046
 9761SOL     OW30181   5.605   5.861   1.740
 9761SOL    HW130182   5.664   5.780   1.737
 9761SOL    HW230183   5.636   5.927   1.671
 9762SOL     OW30184   2.436   1.994   4.680
 9762SOL    HW130185   2.356   2.045   4.711
 9762SOL    HW230186   2.492   2.052   4.621
 9763SOL     OW30187   4.768   1.456   2.165
 9763SOL    HW130188   4.691   1.393   2.164
 9763SOL    HW230189   4.760   1.521   2.089
 9764SOL     OW30190   1.368   2.157   3.378
 9764SOL    HW130191   1.332   2.242   3.337
 9764SOL    HW230192   1.417   2.105   3.309
 9765SOL     OW30193   6.415   2.120   4.837
 9765SOL    HW130194   6.462   2.206   4.855
 9765SOL    HW230195   6.369   2.088   4.920
 9766SOL     OW30196   2.595   0.553   2.643
 9766SOL    HW130197   2.498   0.560   2.663
 9766SOL    HW230198   2.630   0.464   2.672
 9767SOL     OW30199   5.372   1.997   4.702
 9767SOL    HW130200   5.273   1.988   4.713
 9767SOL    HW230201   5.397   2.094   4.712
 9768SOL     OW30202   5.384   2.301   2.200
 9768SOL    HW130203   5.369   2.376   2.264
 9768SOL    HW230204   5.338   2.322   2.113
 9769SOL     OW30205   1.563   1.958   1.568
 9769SOL    HW130206   1.531   1.889   1.633
 9769SOL    HW230207   1.495   1.971   1.497
 9770SOL     OW30208   6.005   5.839   6.398
 9770SOL    HW130209   6.027   5.934   6.419
 9770SOL    HW230210   6.089   5.784   6.398
 9771SOL     OW30211   4.519   4.309   1.172
 9771SOL    HW130212   4.433   4.263   1.196
 9771SOL    HW230213   4.582   4.304   1.249
 9772SOL     OW30214   6.943   6.738   1.750
 9772SOL    HW130215   6.889   6.788   1.683
 9772SOL    HW230216   6.895   6.654   1.776
 9773SOL     OW30217   5.962   6.401   3.680
 9773SOL    HW130218   5.956   6.388   3.581
 9773SOL    HW230219   5.925   6.321   3.727
 9774SOL     OW30220   5.968   5.113   3.478
 9774SOL    HW130221   6.014   5.078   3.560
 9774SOL    HW230222   6.011   5.072   3.397
 9775SOL     OW30223   2.057   2.004   4.684
 9775SOL    HW130224   2.034   2.091   4.727
 9775SOL    HW230225   2.105   1.945   4.750
 9776SOL     OW30226   0.051   5.500   4.158
 9776SOL    HW130227   0.051   5.468   4.064
 9776SOL    HW230228   0.145   5.503   4.192
 9777SOL     OW30229   5.744   4.858   6.029
 9777SOL    HW130230   5.790   4.816   6.108
 9777SOL    HW230231   5.743   4.793   5.953
 9778SOL     OW30232   5.377   6.955   3.336
 9778SOL    HW130233   5.399   6.964   3.433
 9778SOL    HW230234   5.312   6.880   3.324
 9779SOL     OW30235   2.558   1.801   4.834
 9779SOL    HW130236   2.628   1.767   4.770
 9779SOL    HW230237   2.505   1.874   4.790
 9780SOL     OW30238   1.956   2.766   0.610
 9780SOL    HW130239   2.002   2.809   0.533
 9780SOL    HW230240   1.892   2.696   0.576
 9781SOL     OW30241   1.803   4.775   4.048
 9781SOL    HW130242   1.776   4.687   4.088
 9781SOL    HW230243   1.884   4.809   4.095
 9782SOL     OW30244   6.431   0.158   0.974
 9782SOL    HW130245   6.348   0.124   1.019
 9782SOL    HW230246   6.437   0.257   0.987
 9783SOL     OW30247   6.169   0.913   1.433
 9783SOL    HW130248   6.141   0.818   1.423
 9783SOL    HW230249   6.163   0.939   1.530
 9784SOL     OW30250   4.071   1.425   3.315
 9784SOL    HW130251   4.120   1.386   3.237
 9784SOL    HW230252   4.093   1.522   3.324
 9785SOL     OW30253   0.454   2.649   3.163
 9785SOL    HW130254   0.492   2.557   3.166
 9785SOL    HW230255   0.495   2.701   3.088
 9786SOL     OW30256   1.949   4.465   6.061
 9786SOL    HW130257   1.849   4.460   6.067
 9786SOL    HW230258   1.974   4.516   5.978
 9787SOL     OW30259   5.449   3.312   1.603
 9787SOL    HW130260   5.409   3.225   1.632
 9787SOL    HW230261   5.494   3.299   1.514
 9788SOL     OW30262   0.134   6.870   4.328
 9788SOL    HW130263   0.077   6.842   4.251
 9788SOL    HW230264   0.138   6.970   4.331
 9789SOL     OW30265   2.329   5.336   6.367
 9789SOL    HW130266   2.284   5.275   6.433
 9789SOL    HW230267   2.295   5.315   6.275
 9790SOL     OW30268   5.793   2.155   4.436
 9790SOL    HW130269   5.793   2.064   4.476
 9790SOL    HW230270   5.814   2.149   4.339
 9791SOL     OW30271   1.232   0.885   1.790
 9791SOL    HW130272   1.161   0.898   1.721
 9791SOL    HW230273   1.319   0.866   1.744
 9792SOL     OW30274   4.512   5.159   1.699
 9792SOL    HW130275   4.543   5.252   1.717
 9792SOL    HW230276   4.581   5.094   1.731
 9793SOL     OW30277   4.874   5.954   2.761
 9793SOL    HW130278   4.867   6.037   2.817
 9793SOL    HW230279   4.790   5.941   2.709
 9794SOL     OW30280   5.109   3.420   6.375
 9794SOL    HW130281   5.153   3.479   6.443
 9794SOL    HW230282   5.116   3.464   6.285
 9795SOL     OW30283   1.027   2.962   4.181
 9795SOL    HW130284   1.028   2.869   4.146
 9795SOL    HW230285   1.098   2.973   4.250
 9796SOL     OW30286   3.119   4.716   0.656
 9796SOL    HW130287   3.060   4.752   0.729
 9796SOL    HW230288   3.063   4.675   0.585
 9797SOL     OW30289   4.648   3.804   6.914
 9797SOL    HW130290   4.687   3.777   6.826
 9797SOL    HW230291   4.570   3.745   6.936
 9798SOL     OW30292   2.473   0.625   1.179
 9798SOL    HW130293   2.392   0.631   1.120
 9798SOL    HW230294   2.445   0.618   1.274
 9799SOL     OW30295   3.318   3.093   2.558
 9799SOL    HW130296   3.278   3.126   2.473
 9799SOL    HW230297   3.247   3.084   2.627
 9800SOL     OW30298   4.414   5.688   6.211
 9800SOL    HW130299   4.363   5.602   6.199
 9800SOL    HW230300   4.512   5.669   6.211
 9801SOL     OW30301   4.803   5.652   0.139
 9801SOL    HW130302   4.841   5.690   0.054
 9801SOL    HW230303   4.845   5.563   0.157
 9802SOL     OW30304   0.463   3.377   1.789
 9802SOL    HW130305   0.515   3.409   1.868
 9802SOL    HW230306   0.494   3.427   1.707
 9803SOL     OW30307   5.968   0.208   6.371
 9803SOL    HW130308   5.954   0.147   6.450
 9803SOL    HW230309   6.058   0.191   6.331
 9804SOL     OW30310   6.825   4.976   3.156
 9804SOL    HW130311   6.734   4.949   3.187
 9804SOL    HW230312   6.879   5.008   3.234
 9805SOL     OW30313   1.117   5.556   6.724
 9805SOL    HW130314   1.091   5.568   6.820
 9805SOL    HW230315   1.200   5.608   6.706
 9806SOL     OW30316   0.762   2.535   1.521
 9806SOL    HW130317   0.770   2.540   1.620
 9806SOL    HW230318   0.684   2.476   1.497
 9807SOL     OW30319   3.876   1.750   0.308
 9807SOL    HW130320   3.932   1.669   0.324
 9807SOL    HW230321   3.801   1.752   0.374
 9808SOL     OW30322   5.650   1.533   5.188
 9808SOL    HW130323   5.744   1.557   5.212
 9808SOL    HW230324   5.621   1.454   5.243
 9809SOL     OW30325   0.870   1.592   5.388
 9809SOL    HW130326   0.927   1.632   5.459
 9809SOL    HW230327   0.789   1.550   5.430
 9810SOL     OW30328   2.406   1.617   2.978
 9810SOL    HW130329   2.499   1.582   2.990
 9810SOL    HW230330   2.376   1.660   3.062
 9811SOL     OW30331   6.541   6.306   3.592
 9811SOL    HW130332   6.577   6.398   3.573
 9811SOL    HW230333   6.446   6.313   3.623
 9812SOL     OW30334   4.429   2.004   5.901
 9812SOL    HW130335   4.491   2.016   5.979
 9812SOL    HW230336   4.425   1.907   5.876
 9813SOL     OW30337   6.264   5.496   0.197
 9813SOL    HW130338   6.349   5.543   0.219
 9813SOL    HW230339   6.242   5.509   0.100
 9814SOL     OW30340   6.424   0.565   5.663
 9814SOL    HW130341   6.336   0.566   5.710
 9814SOL    HW230342   6.428   0.486   5.601
 9815SOL     OW30343   6.445   3.404   1.284
 9815SOL    HW130344   6.494   3.418   1.199
 9815SOL    HW230345   6.390   3.485   1.305
 9816SOL     OW30346   6.357   0.807   6.733
 9816SOL    HW130347   6.435   0.816   6.670
 9816SOL    HW230348   6.315   0.717   6.721
 9817SOL     OW30349   3.073   5.271   1.783
 9817SOL    HW130350   3.022   5.207   1.840
 9817SOL    HW230351   3.059   5.249   1.686
 9818SOL     OW30352   2.064   1.300   3.483
 9818SOL    HW130353   1.978   1.252   3.466
 9818SOL    HW230354   2.140   1.235   3.476
 9819SOL     OW30355   5.947   3.492   4.692
 9819SOL    HW130356   5.928   3.556   4.766
 9819SOL    HW230357   6.043   3.466   4.693
 9820SOL     OW30358   3.081   1.846   6.629
 9820SOL    HW130359   3.098   1.932   6.581
 9820SOL    HW230360   3.130   1.772   6.582
 9821SOL     OW30361   4.621   2.025   1.804
 9821SOL    HW130362   4.523   2.042   1.817
 9821SOL    HW230363   4.634   1.957   1.732
 9822SOL     OW30364   4.012   5.728   4.511
 9822SOL    HW130365   4.106   5.764   4.517
 9822SOL    HW230366   3.956   5.769   4.583
 9823SOL     OW30367   0.921   0.709   2.118
 9823SOL    HW130368   0.844   0.715   2.055
 9823SOL    HW230369   0.973   0.625   2.100
 9824SOL     OW30370   2.272   6.257   5.685
 9824SOL    HW130371   2.178   6.230   5.704
 9824SOL    HW230372   2.313   6.192   5.621
 9825SOL     OW30373   5.057   6.231   5.318
 9825SOL    HW130374   5.119   6.218   5.395
 9825SOL    HW230375   5.110   6.245   5.235
 9826SOL     OW30376   3.310   7.014   5.343
 9826SOL    HW130377   3.353   6.943   5.399
 9826SOL    HW230378   3.373   0.022   5.270
 9827SOL     OW30379   1.830   5.811   2.711
 9827SOL    HW130380   1.888   5.851   2.782
 9827SOL    HW230381   1.880   5.808   2.625
 9828SOL     OW30382   3.676   1.838   5.062
 9828SOL    HW130383   3.653   1.880   5.150
 9828SOL    HW230384   3.666   1.906   4.989
 9829SOL     OW30385   4.246   6.165   5.916
 9829SOL    HW130386   4.332   6.214   5.909
 9829SOL    HW230387   4.261   6.077   5.961
 9830SOL     OW30388   6.006   1.854   2.745
 9830SOL    HW130389   5.992   1.907   2.661
 9830SOL    HW230390   5.981   1.759   2.729
 9831SOL     OW30391   0.457   3.588   2.463
 9831SOL    HW130392   0.481   3.522   2.392
 9831SOL    HW230393   0.523   3.663   2.463
 9832SOL     OW30394   4.941   4.650   4.513
 9832SOL    HW130395   4.988   4.563   4.530
 9832SOL    HW230396   4.867   4.662   4.579
 9833SOL     OW30397   3.866   4.067   3.863
 9833SOL    HW130398   3.815   4.140   3.816
 9833SOL    HW230399   3.840   4.066   3.959
 9834SOL     OW30400   2.446   5.727   5.681
 9834SOL    HW130401   2.425   5.631   5.664
 9834SOL    HW230402   2.404   5.784   5.610
 9835SOL     OW30403   3.688   4.186   4.929
 9835SOL    HW130404   3.708   4.133   4.847
 9835SOL    HW230405   3.763   4.250   4.948
 9836SOL     OW30406   0.758   3.363   6.167
 9836SOL    HW130407   0.717   3.376   6.077
 9836SOL    HW230408   0.767   3.452   6.213
 9837SOL     OW30409   6.110   1.809   1.492
 9837SOL    HW130410   6.046   1.854   1.430
 9837SOL    HW230411   6.169   1.747   1.441
 9838SOL     OW30412   1.131   5.726   1.165
 9838SOL    HW130413   1.061   5.765   1.105
 9838SOL    HW230414   1.157   5.793   1.234
 9839SOL     OW30415   4.248   1.028   2.593
 9839SOL    HW130416   4.313   0.966   2.636
 9839SOL    HW230417   4.177   0.975   2.547
 9840SOL     OW30418   5.457   1.988   0.062
 9840SOL    HW130419   5.360   1.967   0.056
 9840SOL    HW230420   5.507   1.936   7.013
 9841SOL     OW30421   6.986   5.290   3.556
 9841SOL    HW130422   0.053   5.318   3.597
 9841SOL    HW230423   6.928   5.370   3.544
 9842SOL     OW30424   3.534   2.429   0.287
 9842SOL    HW130425   3.489   2.350   0.244
 9842SOL    HW230426   3.465   2.493   0.320
 9843SOL     OW30427   7.013   6.170   0.783
 9843SOL    HW130428   6.993   6.263   0.814
 9843SOL    HW230429   0.015   6.112   0.861
 9844SOL     OW30430   5.166   0.058   4.384
 9844SOL    HW130431   5.107   7.019   4.328
 9844SOL    HW230432   5.133   0.152   4.379
 9845SOL     OW30433   1.477   2.647   1.842
 9845SOL    HW130434   1.521   2.636   1.931
 9845SOL    HW230435   1.530   2.710   1.786
 9846SOL     OW30436   5.467   1.109   1.236
 9846SOL    HW130437   5.440   1.205   1.231
 9846SOL    HW230438   5.558   1.102   1.277
 9847SOL     OW30439   3.436   3.763   1.183
 9847SOL    HW130440   3.457   3.717   1.269
 9847SOL    HW230441   3.513   3.754   1.120
 9848SOL     OW30442   3.520   3.580   4.836
 9848SOL    HW130443   3.479   3.604   4.748
 9848SOL    HW230444   3.614   3.613   4.839
 9849SOL     OW30445   1.126   1.128   6.555
 9849SOL    HW130446   1.156   1.114   6.461
 9849SOL    HW230447   1.078   1.046   6.588
 9850SOL     OW30448   0.284   0.470   3.952
 9850SOL    HW130449   0.186   0.452   3.960
 9850SOL    HW230450   0.298   0.565   3.922
 9851SOL     OW30451   3.811   5.305   4.292
 9851SOL    HW130452   3.884   5.348   4.239
 9851SOL    HW230453   3.850   5.241   4.358
 9852SOL     OW30454   1.569   1.110   6.499
 9852SOL    HW130455   1.559   1.083   6.403
 9852SOL    HW230456   1.625   1.043   6.547
 9853SOL     OW30457   6.764   4.305   4.004
 9853SOL    HW130458   6.801   4.294   4.096
 9853SOL    HW230459   6.835   4.341   3.943
 9854SOL     OW30460   0.694   5.934   5.821
 9854SOL    HW130461   0.647   6.022   5.826
 9854SOL    HW230462   0.793   5.949   5.814
 9855SOL     OW30463   1.036   3.506   0.794
 9855SOL    HW130464   1.043   3.443   0.717
 9855SOL    HW230465   1.127   3.525   0.830
 9856SOL     OW30466   5.758   4.489   3.409
 9856SOL    HW130467   5.828   4.453   3.347
 9856SOL    HW230468   5.677   4.514   3.357
 9857SOL     OW30469   4.807   2.227   3.209
 9857SOL    HW130470   4.836   2.323   3.202
 9857SOL    HW230471   4.710   2.223   3.233
 9858SOL     OW30472   0.570   6.080   2.158
 9858SOL    HW130473   0.570   6.060   2.060
 9858SOL    HW230474   0.658   6.055   2.197
 9859SOL     OW30475   0.819   4.870   4.644
 9859SOL    HW130476   0.744   4.818   4.685
 9859SOL    HW230477   0.900   4.863   4.702
 9860SOL     OW30478   2.015   2.046   5.496
 9860SOL    HW130479   2.058   1.964   5.459
 9860SOL    HW230480   1.937   2.072   5.439
 9861SOL     OW30481   2.732   1.614   3.844
 9861SOL    HW130482   2.807   1.549   3.855
 9861SOL    HW230483   2.646   1.572   3.875
 9862SOL     OW30484   2.156   5.072   1.013
 9862SOL    HW130485   2.150   4.973   1.000
 9862SOL    HW230486   2.094   5.100   1.086
 9863SOL     OW30487   3.067   5.856   1.120
 9863SOL    HW130488   3.107   5.943   1.149
 9863SOL    HW230489   3.136   5.801   1.075
 9864SOL     OW30490   3.030   6.131   5.308
 9864SOL    HW130491   3.019   6.178   5.220
 9864SOL    HW230492   3.043   6.199   5.380
 9865SOL     OW30493   0.772   6.460   5.600
 9865SOL    HW130494   0.771   6.450   5.500
 9865SOL    HW230495   0.747   6.553   5.624
 9866SOL     OW30496   6.560   4.527   4.526
 9866SOL    HW130497   6.473   4.478   4.534
 9866SOL    HW230498   6.558   4.586   4.446
 9867SOL     OW30499   5.291   1.989   1.732
 9867SOL    HW130500   5.388   2.014   1.733
 9867SOL    HW230501   5.262   1.966   1.825
 9868SOL     OW30502   1.373   4.774   3.191
 9868SOL    HW130503   1.297   4.759   3.254
 9868SOL    HW230504   1.459   4.771   3.241
 9869SOL     OW30505   0.161   2.468   1.350
 9869SOL    HW130506   0.074   2.515   1.334
 9869SOL    HW230507   0.236   2.533   1.340
 9870SOL     OW30508   3.526   1.408   1.595
 9870SOL    HW130509   3.534   1.450   1.686
 9870SOL    HW230510   3.555   1.312   1.600
 9871SOL     OW30511   0.025   3.667   5.404
 9871SOL    HW130512   6.973   3.646   5.337
 9871SOL    HW230513   0.098   3.599   5.398
 9872SOL     OW30514   2.018   5.409   5.428
 9872SOL    HW130515   2.044   5.339   5.361
 9872SOL    HW230516   1.942   5.463   5.393
 9873SOL     OW30517   2.581   2.076   6.105
 9873SOL    HW130518   2.578   1.976   6.104
 9873SOL    HW230519   2.495   2.112   6.069
 9874SOL     OW30520   0.484   2.493   4.809
 9874SOL    HW130521   0.556   2.562   4.809
 9874SOL    HW230522   0.445   2.485   4.717
 9875SOL     OW30523   6.440   6.005   0.505
 9875SOL    HW130524   6.448   6.012   0.405
 9875SOL    HW230525   6.530   5.991   0.544
 9876SOL     OW30526   2.206   6.846   3.318
 9876SOL    HW130527   2.241   6.762   3.358
 9876SOL    HW230528   2.216   6.921   3.384
 9877SOL     OW30529   0.845   5.138   4.534
 9877SOL    HW130530   0.814   5.050   4.569
 9877SOL    HW230531   0.917   5.124   4.466
 9878SOL     OW30532   1.838   3.173   0.056
 9878SOL    HW130533   1.846   3.079   0.022
 9878SOL    HW230534   1.919   3.225   0.029
 9879SOL     OW30535   0.837   4.524   6.126
 9879SOL    HW130536   0.910   4.507   6.060
 9879SOL    HW230537   0.839   4.455   6.198
 9880SOL     OW30538   2.885   1.692   0.147
 9880SOL    HW130539   2.914   1.701   0.052
 9880SOL    HW230540   2.874   1.783   0.187
 9881SOL     OW30541   5.188   0.432   4.652
 9881SOL    HW130542   5.101   0.445   4.699
 9881SOL    HW230543   5.226   0.521   4.627
 9882SOL     OW30544   3.709   2.937   4.220
 9882SOL    HW130545   3.698   2.899   4.312
 9882SOL    HW230546   3.623   2.927   4.170
 9883SOL     OW30547   2.189   6.579   1.249
 9883SOL    HW130548   2.206   6.640   1.326
 9883SOL    HW230549   2.246   6.497   1.258
 9884SOL     OW30550   1.701   3.347   6.386
 9884SOL    HW130551   1.633   3.275   6.402
 9884SOL    HW230552   1.783   3.329   6.440
 9885SOL     OW30553   6.642   3.165   3.751
 9885SOL    HW130554   6.727   3.118   3.772
 9885SOL    HW230555   6.658   3.264   3.753
 9886SOL     OW30556   4.782   6.158   1.566
 9886SOL    HW130557   4.729   6.241   1.582
 9886SOL    HW230558   4.847   6.173   1.492
 9887SOL     OW30559   3.809   6.382   0.627
 9887SOL    HW130560   3.713   6.367   0.653
 9887SOL    HW230561   3.826   6.339   0.538
 9888SOL     OW30562   5.815   5.576   2.427
 9888SOL    HW130563   5.757   5.632   2.485
 9888SOL    HW230564   5.862   5.508   2.483
 9889SOL     OW30565   0.149   4.974   2.881
 9889SOL    HW130566   0.138   5.000   2.785
 9889SOL    HW230567   0.179   5.053   2.934
 9890SOL     OW30568   6.488   3.731   1.209
 9890SOL    HW130569   6.549   3.803   1.175
 9890SOL    HW230570   6.528   3.642   1.188
 9891SOL     OW30571   5.263   5.160   0.699
 9891SOL    HW130572   5.342   5.130   0.752
 9891SOL    HW230573   5.273   5.257   0.676
 9892SOL     OW30574   1.817   5.366   3.793
 9892SOL    HW130575   1.844   5.269   3.786
 9892SOL    HW230576   1.861   5.406   3.874
 9893SOL     OW30577   6.156   4.966   3.277
 9893SOL    HW130578   6.143   4.987   3.180
 9893SOL    HW230579   6.214   5.036   3.319
 9894SOL     OW30580   3.437   2.568   5.686
 9894SOL    HW130581   3.435   2.659   5.645
 9894SOL    HW230582   3.479   2.504   5.623
 9895SOL     OW30583   5.238   2.750   6.630
 9895SOL    HW130584   5.205   2.700   6.710
 9895SOL    HW230585   5.336   2.764   6.638
 9896SOL     OW30586   3.928   3.691   0.612
 9896SOL    HW130587   3.856   3.718   0.676
 9896SOL    HW230588   3.897   3.707   0.518
 9897SOL     OW30589   5.354   1.623   2.624
 9897SOL    HW130590   5.429   1.683   2.650
 9897SOL    HW230591   5.345   1.549   2.691
 9898SOL     OW30592   0.922   5.720   5.781
 9898SOL    HW130593   0.916   5.746   5.685
 9898SOL    HW230594   0.906   5.621   5.790
 9899SOL     OW30595   4.972   4.766   2.263
 9899SOL    HW130596   4.917   4.689   2.295
 9899SOL    HW230597   4.936   4.799   2.176
 9900SOL     OW30598   1.291   2.381   3.977
 9900SOL    HW130599   1.267   2.449   4.046
 9900SOL    HW230600   1.352   2.422   3.909
 9901SOL     OW30601   2.814   2.351   6.421
 9901SOL    HW130602   2.821   2.287   6.345
 9901SOL    HW230603   2.797   2.444   6.386
 9902SOL     OW30604   3.626   3.772   0.987
 9902SOL    HW130605   3.586   3.707   0.922
 9902SOL    HW230606   3.710   3.810   0.947
 9903SOL     OW30607   4.468   1.763   2.173
 9903SOL    HW130608   4.509   1.773   2.264
 9903SOL    HW230609   4.540   1.762   2.104
 9904SOL     OW30610   6.487   2.085   0.503
 9904SOL    HW130611   6.463   2.003   0.450
 9904SOL    HW230612   6.581   2.112   0.480
 9905SOL     OW30613   1.596   6.688   6.151
 9905SOL    HW130614   1.515   6.640   6.184
 9905SOL    HW230615   1.649   6.628   6.092
 9906SOL     OW30616   2.230   3.130   6.348
 9906SOL    HW130617   2.156   3.076   6.389
 9906SOL    HW230618   2.259   3.201   6.412
 9907SOL     OW30619   2.388   6.450   2.880
 9907SOL    HW130620   2.407   6.477   2.785
 9907SOL    HW230621   2.388   6.531   2.938
 9908SOL     OW30622   0.435   3.534   6.217
 9908SOL    HW130623   0.508   3.540   6.150
 9908SOL    HW230624   0.473   3.541   6.309
 9909SOL     OW30625   3.240   1.637   2.573
 9909SOL    HW130626   3.195   1.599   2.655
 9909SOL    HW230627   3.209   1.731   2.559
 9910SOL     OW30628   6.220   4.560   0.841
 9910SOL    HW130629   6.158   4.534   0.915
 9910SOL    HW230630   6.272   4.480   0.811
 9911SOL     OW30631   4.182   5.223   3.501
 9911SOL    HW130632   4.096   5.274   3.500
 9911SOL    HW230633   4.200   5.186   3.410
 9912SOL     OW30634   5.098   0.569   1.923
 9912SOL    HW130635   5.127   0.623   1.844
 9912SOL    HW230636   5.177   0.549   1.981
 9913SOL     OW30637   5.301   2.865   2.764
 9913SOL    HW130638   5.311   2.890   2.860
 9913SOL    HW230639   5.314   2.947   2.707
 9914SOL     OW30640   1.154   0.188   4.690
 9914SOL    HW130641   1.229   0.237   4.648
 9914SOL    HW230642   1.182   0.094   4.709
 9915SOL     OW30643   4.978   2.757   3.757
 9915SOL    HW130644   4.893   2.790   3.798
 9915SOL    HW230645   5.019   2.829   3.702
 9916SOL     OW30646   2.103   2.827   2.710
 9916SOL    HW130647   2.116   2.729   2.722
 9916SOL    HW230648   2.018   2.855   2.755
 9917SOL     OW30649   3.166   4.082   5.616
 9917SOL    HW130650   3.069   4.094   5.598
 9917SOL    HW230651   3.206   4.022   5.547
 9918SOL     OW30652   2.042   1.789   6.303
 9918SOL    HW130653   1.973   1.732   6.258
 9918SOL    HW230654   2.097   1.835   6.234
 9919SOL     OW30655   1.367   5.715   2.248
 9919SOL    HW130656   1.431   5.723   2.172
 9919SOL    HW230657   1.285   5.667   2.218
 9920SOL     OW30658   3.672   6.393   1.534
 9920SOL    HW130659   3.576   6.386   1.508
 9920SOL    HW230660   3.695   6.489   1.551
 9921SOL     OW30661   5.896   6.946   2.862
 9921SOL    HW130662   5.831   0.002   2.871
 9921SOL    HW230663   5.981   6.969   2.909
 9922SOL     OW30664   4.282   4.481   0.801
 9922SOL    HW130665   4.371   4.488   0.757
 9922SOL    HW230666   4.288   4.520   0.893
 9923SOL     OW30667   6.332   2.049   6.212
 9923SOL    HW130668   6.289   1.959   6.199
 9923SOL    HW230669   6.404   2.041   6.281
 9924SOL     OW30670   6.842   0.927   2.685
 9924SOL    HW130671   6.884   0.977   2.760
 9924SOL    HW230672   6.897   0.940   2.602
 9925SOL     OW30673   2.631   3.396   5.619
 9925SOL    HW130674   2.548   3.354   5.582
 9925SOL    HW230675   2.675   3.451   5.549
 9926SOL     OW30676   0.940   1.377   0.487
 9926SOL    HW130677   0.928   1.469   0.525
 9926SOL    HW230678   0.988   1.383   0.399
 9927SOL     OW30679   0.349   1.841   2.589
 9927SOL    HW130680   0.288   1.917   2.568
 9927SOL    HW230681   0.303   1.777   2.651
 9928SOL     OW30682   0.453   3.745   1.931
 9928SOL    HW130683   0.549   3.771   1.922
 9928SOL    HW230684   0.431   3.673   1.865
 9929SOL     OW30685   2.998   4.529   6.804
 9929SOL    HW130686   3.008   4.433   6.828
 9929SOL    HW230687   2.952   4.537   6.715
 9930SOL     OW30688   6.548   0.097   6.196
 9930SOL    HW130689   6.574   0.007   6.159
 9930SOL    HW230690   6.450   0.111   6.183
 9931SOL     OW30691   1.936   6.346   5.523
 9931SOL    HW130692   2.024   6.341   5.476
 9931SOL    HW230693   1.946   6.313   5.617
 9932SOL     OW30694   2.065   1.433   0.441
 9932SOL    HW130695   1.987   1.491   0.462
 9932SOL    HW230696   2.034   1.342   0.415
 9933SOL     OW30697   2.367   1.738   2.741
 9933SOL    HW130698   2.440   1.700   2.684
 9933SOL    HW230699   2.361   1.685   2.825
 9934SOL     OW30700   5.397   1.711   6.016
 9934SOL    HW130701   5.382   1.800   6.061
 9934SOL    HW230702   5.490   1.708   5.980
 9935SOL     OW30703   3.054   2.231   0.616
 9935SOL    HW130704   3.123   2.258   0.549
 9935SOL    HW230705   3.054   2.132   0.626
 9936SOL     OW30706   5.713   5.728   6.010
 9936SOL    HW130707   5.617   5.756   6.012
 9936SOL    HW230708   5.719   5.630   5.995
 9937SOL     OW30709   0.366   6.886   2.561
 9937SOL    HW130710   0.347   6.935   2.646
 9937SOL    HW230711   0.456   6.843   2.566
 9938SOL     OW30712   0.024   0.730   4.303
 9938SOL    HW130713   0.080   0.810   4.279
 9938SOL    HW230714   6.969   0.759   4.362
 9939SOL     OW30715   2.210   3.972   0.872
 9939SOL    HW130716   2.184   3.991   0.778
 9939SOL    HW230717   2.128   3.962   0.928
 9940SOL     OW30718   0.371   0.017   2.811
 9940SOL    HW130719   0.411   0.108   2.798
 9940SOL    HW230720   0.421   6.990   2.884
 9941SOL     OW30721   4.265   5.027   6.175
 9941SOL    HW130722   4.173   5.037   6.137
 9941SOL    HW230723   4.297   4.934   6.161
 9942SOL     OW30724   4.349   4.884   3.793
 9942SOL    HW130725   4.263   4.835   3.780
 9942SOL    HW230726   4.366   4.944   3.715
 9943SOL     OW30727   2.431   3.780   0.497
 9943SOL    HW130728   2.525   3.745   0.494
 9943SOL    HW230729   2.416   3.840   0.418
 9944SOL     OW30730   1.649   5.022   0.093
 9944SOL    HW130731   1.560   5.003   0.050
 9944SOL    HW230732   1.722   4.990   0.032
 9945SOL     OW30733   5.775   3.706   0.256
 9945SOL    HW130734   5.751   3.675   0.164
 9945SOL    HW230735   5.704   3.678   0.320
 9946SOL     OW30736   5.428   1.133   3.090
 9946SOL    HW130737   5.381   1.103   3.007
 9946SOL    HW230738   5.500   1.198   3.065
 9947SOL     OW30739   1.870   1.399   4.332
 9947SOL    HW130740   1.780   1.357   4.338
 9947SOL    HW230741   1.921   1.359   4.256
 9948SOL     OW30742   6.084   0.202   4.132
 9948SOL    HW130743   6.011   0.242   4.077
 9948SOL    HW230744   6.112   0.266   4.203
 9949SOL     OW30745   6.579   4.004   4.411
 9949SOL    HW130746   6.634   4.005   4.495
 9949SOL    HW230747   6.549   3.910   4.393
 9950SOL     OW30748   6.746   5.010   5.989
 9950SOL    HW130749   6.821   5.075   6.000
 9950SOL    HW230750   6.681   5.020   6.064
 9951SOL     OW30751   0.886   2.661   2.595
 9951SOL    HW130752   0.864   2.636   2.689
 9951SOL    HW230753   0.802   2.678   2.545
 9952SOL     OW30754   0.626   4.142   1.707
 9952SOL    HW130755   0.725   4.138   1.690
 9952SOL    HW230756   0.586   4.052   1.689
 9953SOL     OW30757   6.173   2.445   3.141
 9953SOL    HW130758   6.222   2.359   3.147
 9953SOL    HW230759   6.230   2.518   3.180
 9954SOL     OW30760   2.870   1.776   6.015
 9954SOL    HW130761   2.866   1.746   5.919
 9954SOL    HW230762   2.780   1.765   6.057
 9955SOL     OW30763   5.324   3.113   1.372
 9955SOL    HW130764   5.407   3.093   1.320
 9955SOL    HW230765   5.253   3.147   1.310
 9956SOL     OW30766   1.740   4.546   3.337
 9956SOL    HW130767   1.839   4.531   3.330
 9956SOL    HW230768   1.693   4.487   3.272
 9957SOL     OW30769   5.729   6.924   1.699
 9957SOL    HW130770   5.747   6.845   1.757
 9957SOL    HW230771   5.652   6.906   1.639
 9958SOL     OW30772   3.856   4.919   6.270
 9958SOL    HW130773   3.908   4.987   6.219
 9958SOL    HW230774   3.760   4.947   6.275
 9959SOL     OW30775   4.019   4.244   1.011
 9959SOL    HW130776   4.031   4.290   1.100
 9959SOL    HW230777   3.963   4.301   0.952
 9960SOL     OW30778   6.616   7.013   6.947
 9960SOL    HW130779   6.623   0.020   0.023
 9960SOL    HW230780   6.694   6.953   6.924
 9961SOL     OW30781   2.030   4.576   2.131
 9961SOL    HW130782   2.100   4.634   2.173
 9961SOL    HW230783   1.984   4.524   2.203
 9962SOL     OW30784   3.314   5.437   2.468
 9962SOL    HW130785   3.408   5.410   2.489
 9962SOL    HW230786   3.313   5.491   2.384
 9963SOL     OW30787   1.832   1.374   0.041
 9963SOL    HW130788   1.880   1.458   0.068
 9963SOL    HW230789   1.793   1.331   0.123
 9964SOL     OW30790   4.835   4.271   5.495
 9964SOL    HW130791   4.877   4.181   5.482
 9964SOL    HW230792   4.738   4.267   5.468
 9965SOL     OW30793   2.925   5.748   4.977
 9965SOL    HW130794   2.951   5.785   4.887
 9965SOL    HW230795   2.999   5.765   5.042
 9966SOL     OW30796   3.128   4.985   2.631
 9966SOL    HW130797   3.062   4.914   2.607
 9966SOL    HW230798   3.217   4.962   2.593
 9967SOL     OW30799   6.712   6.919   2.511
 9967SOL    HW130800   6.812   6.920   2.507
 9967SOL    HW230801   6.678   6.827   2.492
 9968SOL     OW30802   3.965   6.291   0.390
 9968SOL    HW130803   3.923   6.211   0.431
 9968SOL    HW230804   4.062   6.295   0.416
 9969SOL     OW30805   1.348   4.847   4.368
 9969SOL    HW130806   1.286   4.769   4.368
 9969SOL    HW230807   1.427   4.828   4.309
 9970SOL     OW30808   6.175   4.927   1.962
 9970SOL    HW130809   6.213   4.905   2.052
 9970SOL    HW230810   6.216   4.867   1.893
 9971SOL     OW30811   1.692   3.184   2.475
 9971SOL    HW130812   1.654   3.193   2.382
 9971SOL    HW230813   1.617   3.182   2.541
 9972SOL     OW30814   3.630   4.230   0.416
 9972SOL    HW130815   3.559   4.159   0.421
 9972SOL    HW230816   3.685   4.216   0.334
 9973SOL     OW30817   3.828   1.660   4.269
 9973SOL    HW130818   3.756   1.648   4.337
 9973SOL    HW230819   3.789   1.651   4.177
 9974SOL     OW30820   0.050   2.022   3.442
 9974SOL    HW130821   6.982   2.053   3.478
 9974SOL    HW230822   0.116   2.097   3.447
 9975SOL     OW30823   1.068   5.269   6.553
 9975SOL    HW130824   0.978   5.265   6.509
 9975SOL    HW230825   1.125   5.196   6.517
 9976SOL     OW30826   2.012   4.506   5.784
 9976SOL    HW130827   1.993   4.428   5.724
 9976SOL    HW230828   2.025   4.588   5.728
 9977SOL     OW30829   5.617   5.422   4.826
 9977SOL    HW130830   5.579   5.437   4.735
 9977SOL    HW230831   5.542   5.412   4.892
 9978SOL     OW30832   0.424   2.081   6.208
 9978SOL    HW130833   0.394   1.993   6.172
 9978SOL    HW230834   0.369   2.104   6.289
 9979SOL     OW30835   5.070   3.368   5.760
 9979SOL    HW130836   5.058   3.430   5.682
 9979SOL    HW230837   5.016   3.286   5.746
 9980SOL     OW30838   1.070   1.066   0.085
 9980SOL    HW130839   1.091   1.164   0.081
 9980SOL    HW230840   1.141   1.015   0.037
 9981SOL     OW30841   0.660   2.163   1.400
 9981SOL    HW130842   0.608   2.243   1.429
 9981SOL    HW230843   0.695   2.178   1.307
 9982SOL     OW30844   2.097   1.558   5.128
 9982SOL    HW130845   2.179   1.612   5.110
 9982SOL    HW230846   2.023   1.618   5.157
 9983SOL     OW30847   6.378   3.071   2.009
 9983SOL    HW130848   6.336   3.154   1.971
 9983SOL    HW230849   6.467   3.056   1.966
 9984SOL     OW30850   0.224   6.073   1.456
 9984SOL    HW130851   0.212   6.032   1.546
 9984SOL    HW230852   0.314   6.117   1.450
 9985SOL     OW30853   3.848   5.531   0.598
 9985SOL    HW130854   3.847   5.514   0.499
 9985SOL    HW230855   3.936   5.505   0.636
 9986SOL     OW30856   4.914   4.735   0.424
 9986SOL    HW130857   4.986   4.789   0.381
 9986SOL    HW230858   4.826   4.781   0.413
 9987SOL     OW30859   5.398   2.992   1.608
 9987SOL    HW130860   5.374   3.030   1.519
 9987SOL    HW230861   5.432   2.898   1.597
 9988SOL     OW30862   6.353   5.852   4.058
 9988SOL    HW130863   6.306   5.940   4.054
 9988SOL    HW230864   6.385   5.827   3.967
 9989SOL     OW30865   6.449   4.218   1.602
 9989SOL    HW130866   6.355   4.253   1.597
 9989SOL    HW230867   6.510   4.281   1.553
 9990SOL     OW30868   0.583   6.637   2.908
 9990SOL    HW130869   0.609   6.565   2.972
 9990SOL    HW230870   0.531   6.597   2.832
 9991SOL     OW30871   1.842   3.931   3.702
 9991SOL    HW130872   1.787   3.938   3.785
 9991SOL    HW230873   1.896   4.014   3.691
 9992SOL     OW30874   3.458   4.400   0.812
 9992SOL    HW130875   3.513   4.396   0.729
 9992SOL    HW230876   3.398   4.480   0.809
 9993SOL     OW30877   3.624   6.531   3.872
 9993SOL    HW130878   3.679   6.482   3.805
 9993SOL    HW230879   3.584   6.466   3.937
 9994SOL     OW30880   0.479   4.020   4.347
 9994SOL    HW130881   0.543   3.943   4.345
 9994SOL    HW230882   0.393   3.992   4.305
 9995SOL     OW30883   2.761   0.929   4.784
 9995SOL    HW130884   2.800   0.960   4.698
 9995SOL    HW230885   2.672   0.885   4.766
 9996SOL     OW30886   2.474   4.119   0.536
 9996SOL    HW130887   2.407   4.162   0.597
 9996SOL    HW230888   2.426   4.060   0.470
 9997SOL     OW30889   5.666   1.634   3.977
 9997SOL    HW130890   5.581   1.686   3.987
 9997SOL    HW230891   5.658   1.573   3.897
 9998SOL     OW30892   4.870   3.845   3.119
 9998SOL    HW130893   4.846   3.836   3.022
 9998SOL    HW230894   4.882   3.754   3.159
 9999SOL     OW30895   0.549   6.972   3.647
 9999SOL    HW130896   0.591   0.011   3.715
 9999SOL    HW230897   0.466   6.930   3.684
10000SOL     OW30898   5.418   1.655   1.368
10000SOL    HW130899   5.383   1.668   1.461
10000SOL    HW230900   5.518   1.652   1.370
10001SOL     OW30901   3.053   6.749   2.841
10001SOL    HW130902   2.962   6.791   2.852
10001SOL    HW230903   3.123   6.811   2.877
10002SOL     OW30904   2.351   1.203   0.634
10002SOL    HW130905   2.271   1.145   0.617
10002SOL    HW230906   2.427   1.174   0.576
10003SOL     OW30907   2.269   2.033   2.484
10003SOL    HW130908   2.332   2.105   2.515
10003SOL    HW230909   2.178   2.051   2.521
10004SOL     OW30910   5.321   4.689   4.841
10004SOL    HW130911   5.324   4.726   4.748
10004SOL    HW230912   5.226   4.677   4.870
10005SOL     OW30913   2.957   5.564   3.751
10005SOL    HW130914   2.947   5.556   3.850
10005SOL    HW230915   2.871   5.538   3.707
10006SOL     OW30916   5.606   6.832   5.722
10006SOL    HW130917   5.689   6.777   5.722
10006SOL    HW230918   5.619   6.912   5.665
10007SOL     OW30919   0.724   4.241   4.573
10007SOL    HW130920   0.753   4.160   4.521
10007SOL    HW230921   0.768   4.322   4.535
10008SOL     OW30922   3.115   1.786   3.870
10008SOL    HW130923   3.199   1.833   3.896
10008SOL    HW230924   3.041   1.815   3.931
10009SOL     OW30925   2.059   3.910   2.144
10009SOL    HW130926   2.121   3.938   2.216
10009SOL    HW230927   2.092   3.826   2.101
10010SOL     OW30928   2.553   4.658   6.559
10010SOL    HW130929   2.620   4.617   6.498
10010SOL    HW230930   2.462   4.652   6.518
10011SOL     OW30931   0.269   4.133   0.882
10011SOL    HW130932   0.283   4.207   0.816
10011SOL    HW230933   0.322   4.152   0.965
10012SOL     OW30934   4.986   0.747   2.320
10012SOL    HW130935   5.028   0.816   2.261
10012SOL    HW230936   5.040   0.738   2.403
10013SOL     OW30937   1.541   5.249   4.857
10013SOL    HW130938   1.638   5.256   4.831
10013SOL    HW230939   1.529   5.286   4.949
10014SOL     OW30940   0.778   6.566   2.202
10014SOL    HW130941   0.696   6.530   2.246
10014SOL    HW230942   0.757   6.590   2.107
10015SOL     OW30943   4.084   5.347   6.619
10015SOL    HW130944   4.090   5.447   6.613
10015SOL    HW230945   4.060   5.321   6.713
10016SOL     OW30946   1.540   1.133   4.534
10016SOL    HW130947   1.563   1.219   4.489
10016SOL    HW230948   1.622   1.077   4.544
10017SOL     OW30949   2.501   2.193   2.963
10017SOL    HW130950   2.458   2.105   2.942
10017SOL    HW230951   2.566   2.217   2.890
10018SOL     OW30952   6.877   4.257   5.505
10018SOL    HW130953   6.961   4.210   5.477
10018SOL    HW230954   6.869   4.255   5.605
10019SOL     OW30955   6.810   1.665   3.249
10019SOL    HW130956   6.742   1.666   3.176
10019SOL    HW230957   6.893   1.618   3.217
10020SOL     OW30958   0.163   0.832   1.439
10020SOL    HW130959   0.196   0.827   1.533
10020SOL    HW230960   0.074   0.877   1.438
10021SOL     OW30961   1.566   2.785   1.612
10021SOL    HW130962   1.481   2.838   1.610
10021SOL    HW230963   1.638   2.838   1.655
10022SOL     OW30964   2.101   6.208   6.823
10022SOL    HW130965   2.191   6.241   6.795
10022SOL    HW230966   2.030   6.267   6.784
10023SOL     OW30967   2.642   6.145   5.741
10023SOL    HW130968   2.627   6.073   5.808
10023SOL    HW230969   2.567   6.145   5.674
10024SOL     OW30970   1.704   4.971   3.158
10024SOL    HW130971   1.666   4.903   3.221
10024SOL    HW230972   1.656   4.966   3.071
10025SOL     OW30973   1.757   3.158   1.917
10025SOL    HW130974   1.815   3.157   1.999
10025SOL    HW230975   1.723   3.251   1.902
10026SOL     OW30976   4.901   1.384   3.024
10026SOL    HW130977   4.931   1.349   2.935
10026SOL    HW230978   4.812   1.345   3.046
10027SOL     OW30979   1.153   2.776   5.448
10027SOL    HW130980   1.095   2.786   5.368
10027SOL    HW230981   1.165   2.865   5.492
10028SOL     OW30982   3.719   0.726   0.916
10028SOL    HW130983   3.676   0.816   0.908
10028SOL    HW230984   3.701   0.689   1.008
10029SOL     OW30985   0.369   2.571   4.595
10029SOL    HW130986   0.317   2.539   4.515
10029SOL    HW230987   0.369   2.671   4.596
10030SOL     OW30988   2.963   6.974   4.947
10030SOL    HW130989   2.954   6.980   4.847
10030SOL    HW230990   2.912   0.029   4.989
10031SOL     OW30991   4.937   5.161   4.706
10031SOL    HW130992   4.987   5.233   4.755
10031SOL    HW230993   4.929   5.080   4.763
10032SOL     OW30994   3.683   0.126   5.961
10032SOL    HW130995   3.719   0.049   5.908
10032SOL    HW230996   3.586   0.112   5.981
10033SOL     OW30997   4.500   1.642   3.833
10033SOL    HW130998   4.545   1.655   3.745
10033SOL    HW230999   4.532   1.711   3.897
10034SOL     OW31000   2.131   0.999   3.643
10034SOL    HW131001   2.102   1.088   3.679
10034SOL    HW231002   2.052   0.941   3.628
10035SOL     OW31003   5.878   3.914   0.112
10035SOL    HW131004   5.841   3.849   0.178
10035SOL    HW231005   5.947   3.869   0.056
10036SOL     OW31006   6.506   0.949   0.099
10036SOL    HW131007   6.542   0.899   0.020
10036SOL    HW231008   6.581   0.990   0.150
10037SOL     OW31009   6.292   6.843   6.114
10037SOL    HW131010   6.262   6.781   6.041
10037SOL    HW231011   6.391   6.859   6.104
10038SOL     OW31012   4.351   6.738   6.347
10038SOL    HW131013   4.396   6.753   6.259
10038SOL    HW231014   4.363   6.819   6.404
10039SOL     OW31015   5.034   6.205   4.822
10039SOL    HW131016   4.993   6.139   4.758
10039SOL    HW231017   4.966   6.230   4.892
10040SOL     OW31018   4.071   6.070   0.022
10040SOL    HW131019   4.094   6.023   0.106
10040SOL    HW231020   4.019   6.153   0.043
10041SOL     OW31021   6.407   5.279   5.040
10041SOL    HW131022   6.482   5.286   5.106
10041SOL    HW231023   6.363   5.368   5.029
10042SOL     OW31024   0.712   1.152   5.285
10042SOL    HW131025   0.741   1.135   5.379
10042SOL    HW231026   0.776   1.216   5.242
10043SOL     OW31027   0.430   0.427   2.852
10043SOL    HW131028   0.393   0.478   2.773
10043SOL    HW231029   0.359   0.420   2.922
10044SOL     OW31030   2.489   1.815   4.260
10044SOL    HW131031   2.409   1.825   4.201
10044SOL    HW231032   2.460   1.821   4.356
10045SOL     OW31033   4.816   0.164   4.139
10045SOL    HW131034   4.734   0.123   4.180
10045SOL    HW231035   4.804   0.170   4.039
10046SOL     OW31036   0.328   1.147   1.563
10046SOL    HW131037   0.262   1.126   1.636
10046SOL    HW231038   0.289   1.215   1.501
10047SOL     OW31039   6.183   3.116   5.138
10047SOL    HW131040   6.228   3.028   5.153
10047SOL    HW231041   6.089   3.101   5.109
10048SOL     OW31042   3.483   1.929   1.979
10048SOL    HW131043   3.495   1.830   1.985
10048SOL    HW231044   3.569   1.972   1.954
10049SOL     OW31045   0.803   1.044   6.462
10049SOL    HW131046   0.795   1.138   6.428
10049SOL    HW231047   0.769   1.039   6.555
10050SOL     OW31048   5.655   2.764   5.044
10050SOL    HW131049   5.714   2.743   4.966
10050SOL    HW231050   5.618   2.678   5.082
10051SOL     OW31051   6.768   2.760   4.691
10051SOL    HW131052   6.694   2.809   4.644
10051SOL    HW231053   6.738   2.666   4.711
10052SOL     OW31054   1.814   2.525   2.174
10052SOL    HW131055   1.886   2.471   2.130
10052SOL    HW231056   1.846   2.619   2.187
10053SOL     OW31057   3.885   5.048   2.225
10053SOL    HW131058   3.884   5.020   2.321
10053SOL    HW231059   3.849   4.974   2.168
10054SOL     OW31060   4.056   6.165   6.189
10054SOL    HW131061   4.017   6.085   6.145
10054SOL    HW231062   4.154   6.153   6.201
10055SOL     OW31063   5.944   2.400   5.130
10055SOL    HW131064   5.870   2.430   5.070
10055SOL    HW231065   5.969   2.306   5.109
10056SOL     OW31066   6.064   4.997   0.921
10056SOL    HW131067   5.975   4.986   0.965
10056SOL    HW231068   6.053   5.048   0.836
10057SOL     OW31069   3.328   1.212   4.212
10057SOL    HW131070   3.263   1.219   4.288
10057SOL    HW231071   3.388   1.134   4.228
10058SOL     OW31072   0.109   3.888   4.741
10058SOL    HW131073   0.143   3.800   4.707
10058SOL    HW231074   0.141   3.961   4.680
10059SOL     OW31075   4.885   6.775   1.079
10059SOL    HW131076   4.958   6.708   1.066
10059SOL    HW231077   4.925   6.865   1.096
10060SOL     OW31078   2.434   1.825   2.355
10060SOL    HW131079   2.371   1.789   2.287
10060SOL    HW231080   2.395   1.907   2.397
10061SOL     OW31081   4.986   1.187   4.077
10061SOL    HW131082   4.984   1.090   4.100
10061SOL    HW231083   5.069   1.228   4.115
10062SOL     OW31084   6.072   0.072   5.033
10062SOL    HW131085   6.018   7.018   4.993
10062SOL    HW231086   6.154   0.088   4.979
10063SOL     OW31087   1.746   1.738   3.411
10063SOL    HW131088   1.833   1.752   3.364
10063SOL    HW231089   1.743   1.645   3.449
10064SOL     OW31090   5.638   5.479   5.915
10064SOL    HW131091   5.677   5.407   5.972
10064SOL    HW231092   5.572   5.439   5.851
10065SOL     OW31093   1.602   0.392   1.866
10065SOL    HW131094   1.593   0.354   1.773
10065SOL    HW231095   1.683   0.450   1.870
10066SOL     OW31096   1.628   1.312   4.247
10066SOL    HW131097   1.663   1.219   4.230
10066SOL    HW231098   1.547   1.328   4.190
10067SOL     OW31099   5.224   4.473   5.690
10067SOL    HW131100   5.217   4.463   5.591
10067SOL    HW231101   5.132   4.484   5.729
10068SOL     OW31102   5.518   2.741   3.813
10068SOL    HW131103   5.563   2.829   3.803
10068SOL    HW231104   5.427   2.754   3.853
10069SOL     OW31105   1.951   6.122   3.750
10069SOL    HW131106   1.900   6.145   3.832
10069SOL    HW231107   2.047   6.108   3.773
10070SOL     OW31108   0.530   6.887   4.821
10070SOL    HW131109   0.439   6.867   4.858
10070SOL    HW231110   0.525   6.888   4.721
10071SOL     OW31111   4.589   5.167   4.181
10071SOL    HW131112   4.675   5.179   4.230
10071SOL    HW231113   4.520   5.228   4.219
10072SOL     OW31114   1.243   6.448   4.411
10072SOL    HW131115   1.145   6.459   4.392
10072SOL    HW231116   1.271   6.514   4.480
10073SOL     OW31117   6.563   3.732   4.959
10073SOL    HW131118   6.589   3.793   4.885
10073SOL    HW231119   6.476   3.761   4.998
10074SOL     OW31120   0.401   0.425   5.823
10074SOL    HW131121   0.485   0.435   5.770
10074SOL    HW231122   0.329   0.386   5.764
10075SOL     OW31123   1.363   2.126   2.743
10075SOL    HW131124   1.324   2.089   2.827
10075SOL    HW231125   1.325   2.217   2.726
10076SOL     OW31126   5.819   0.316   3.650
10076SOL    HW131127   5.889   0.259   3.609
10076SOL    HW231128   5.858   0.404   3.676
10077SOL     OW31129   3.629   2.496   6.877
10077SOL    HW131130   3.591   2.440   6.804
10077SOL    HW231131   3.585   2.585   6.877
10078SOL     OW31132   6.451   6.353   4.123
10078SOL    HW131133   6.473   6.393   4.211
10078SOL    HW231134   6.391   6.414   4.072
10079SOL     OW31135   1.272   2.912   2.063
10079SOL    HW131136   1.371   2.921   2.073
10079SOL    HW231137   1.235   2.866   2.144
10080SOL     OW31138   3.267   2.192   6.362
10080SOL    HW131139   3.274   2.169   6.265
10080SOL    HW231140   3.349   2.160   6.410
10081SOL     OW31141   0.059   6.668   6.395
10081SOL    HW131142   7.017   6.590   6.392
10081SOL    HW231143   0.014   6.747   6.353
10082SOL     OW31144   0.022   3.096   2.680
10082SOL    HW131145   6.976   3.037   2.726
10082SOL    HW231146   6.994   3.170   2.633
10083SOL     OW31147   5.443   1.455   3.390
10083SOL    HW131148   5.381   1.414   3.322
10083SOL    HW231149   5.395   1.461   3.477
10084SOL     OW31150   4.169   0.761   6.450
10084SOL    HW131151   4.122   0.849   6.453
10084SOL    HW231152   4.203   0.745   6.357
10085SOL     OW31153   0.493   5.444   2.574
10085SOL    HW131154   0.575   5.435   2.518
10085SOL    HW231155   0.512   5.504   2.652
10086SOL     OW31156   5.909   5.148   2.335
10086SOL    HW131157   5.840   5.112   2.399
10086SOL    HW231158   5.982   5.081   2.325
10087SOL     OW31159   0.542   0.442   4.005
10087SOL    HW131160   0.576   0.445   3.912
10087SOL    HW231161   0.447   0.410   4.005
10088SOL     OW31162   6.867   6.825   6.313
10088SOL    HW131163   6.833   6.742   6.268
10088SOL    HW231164   6.795   6.862   6.372
10089SOL     OW31165   2.262   2.376   3.021
10089SOL    HW131166   2.352   2.359   2.981
10089SOL    HW231167   2.204   2.423   2.954
10090SOL     OW31168   0.378   4.752   0.859
10090SOL    HW131169   0.397   4.714   0.769
10090SOL    HW231170   0.435   4.833   0.874
10091SOL     OW31171   1.047   3.255   5.291
10091SOL    HW131172   1.093   3.175   5.254
10091SOL    HW231173   0.975   3.226   5.354
10092SOL     OW31174   1.541   3.543   5.138
10092SOL    HW131175   1.583   3.485   5.208
10092SOL    HW231176   1.464   3.495   5.097
10093SOL     OW31177   1.115   4.250   4.577
10093SOL    HW131178   1.107   4.349   4.593
10093SOL    HW231179   1.211   4.225   4.570
10094SOL     OW31180   2.778   6.701   1.803
10094SOL    HW131181   2.707   6.631   1.788
10094SOL    HW231182   2.830   6.713   1.719
10095SOL     OW31183   6.131   1.862   5.353
10095SOL    HW131184   6.123   1.813   5.266
10095SOL    HW231185   6.160   1.798   5.424
10096SOL     OW31186   6.291   4.926   2.715
10096SOL    HW131187   6.345   4.956   2.794
10096SOL    HW231188   6.260   4.832   2.731
10097SOL     OW31189   0.728   1.317   6.406
10097SOL    HW131190   0.816   1.359   6.429
10097SOL    HW231191   0.674   1.305   6.490
10098SOL     OW31192   2.299   6.935   5.840
10098SOL    HW131193   2.252   7.016   5.876
10098SOL    HW231194   2.287   6.859   5.903
10099SOL     OW31195   0.083   5.067   6.556
10099SOL    HW131196   7.013   5.065   6.600
10099SOL    HW231197   0.078   5.022   6.468
10100SOL     OW31198   5.405   6.755   4.542
10100SOL    HW131199   5.307   6.768   4.559
10100SOL    HW231200   5.435   6.670   4.584
10101SOL     OW31201   5.649   4.690   1.794
10101SOL    HW131202   5.614   4.741   1.872
10101SOL    HW231203   5.588   4.614   1.773
10102SOL     OW31204   2.228   0.873   2.864
10102SOL    HW131205   2.308   0.884   2.805
10102SOL    HW231206   2.146   0.904   2.817
10103SOL     OW31207   2.670   1.182   4.897
10103SOL    HW131208   2.572   1.187   4.879
10103SOL    HW231209   2.706   1.093   4.869
10104SOL     OW31210   1.474   3.382   4.756
10104SOL    HW131211   1.521   3.467   4.782
10104SOL    HW231212   1.408   3.358   4.828
10105SOL     OW31213   1.085   1.477   6.683
10105SOL    HW131214   1.059   1.542   6.755
10105SOL    HW231215   1.184   1.473   6.676
10106SOL     OW31216   4.974   5.084   0.632
10106SOL    HW131217   5.008   5.158   0.574
10106SOL    HW231218   5.050   5.022   0.654
10107SOL     OW31219   6.910   2.078   6.845
10107SOL    HW131220   6.953   1.988   6.848
10107SOL    HW231221   6.973   2.146   6.883
10108SOL     OW31222   6.795   6.186   0.071
10108SOL    HW131223   6.852   6.150   0.145
10108SOL    HW231224   6.727   6.248   0.110
10109SOL     OW31225   3.405   6.502   2.715
10109SOL    HW131226   3.408   6.412   2.671
10109SOL    HW231227   3.494   6.522   2.756
10110SOL     OW31228   4.115   6.338   5.021
10110SOL    HW131229   4.195   6.397   5.035
10110SOL    HW231230   4.045   6.389   4.971
10111SOL     OW31231   6.333   2.797   4.191
10111SOL    HW131232   6.234   2.784   4.184
10111SOL    HW231233   6.361   2.791   4.287
10112SOL     OW31234   5.781   4.114   4.946
10112SOL    HW131235   5.743   4.145   4.859
10112SOL    HW231236   5.880   4.122   4.945
10113SOL     OW31237   3.950   1.157   6.329
10113SOL    HW131238   3.939   1.086   6.398
10113SOL    HW231239   3.885   1.230   6.345
10114SOL     OW31240   5.278   0.226   1.048
10114SOL    HW131241   5.202   0.163   1.037
10114SOL    HW231242   5.364   0.180   1.024
10115SOL     OW31243   3.155   2.189   3.401
10115SOL    HW131244   3.147   2.276   3.354
10115SOL    HW231245   3.072   2.173   3.455
10116SOL     OW31246   1.000   6.337   0.159
10116SOL    HW131247   1.096   6.311   0.157
10116SOL    HW231248   0.991   6.433   0.131
10117SOL     OW31249   6.552   0.065   4.330
10117SOL    HW131250   6.463   0.062   4.374
10117SOL    HW231251   6.584   0.159   4.325
10118SOL     OW31252   6.880   5.264   3.025
10118SOL    HW131253   6.883   5.178   3.076
10118SOL    HW231254   6.968   5.310   3.032
10119SOL     OW31255   1.636   6.693   4.874
10119SOL    HW131256   1.554   6.731   4.831
10119SOL    HW231257   1.619   6.598   4.898
10120SOL     OW31258   1.118   3.606   4.239
10120SOL    HW131259   1.029   3.593   4.194
10120SOL    HW231260   1.142   3.702   4.238
10121SOL     OW31261   6.644   5.124   5.758
10121SOL    HW131262   6.614   5.043   5.708
10121SOL    HW231263   6.692   5.096   5.841
10122SOL     OW31264   5.396   2.811   0.418
10122SOL    HW131265   5.318   2.872   0.433
10122SOL    HW231266   5.467   2.831   0.485
10123SOL     OW31267   6.699   6.354   0.454
10123SOL    HW131268   6.681   6.435   0.398
10123SOL    HW231269   6.707   6.380   0.550
10124SOL     OW31270   1.722   3.828   6.285
10124SOL    HW131271   1.784   3.883   6.341
10124SOL    HW231272   1.749   3.835   6.189
10125SOL     OW31273   1.483   0.930   2.717
10125SOL    HW131274   1.534   0.934   2.804
10125SOL    HW231275   1.399   0.983   2.726
10126SOL     OW31276   0.464   6.766   6.438
10126SOL    HW131277   0.454   6.673   6.402
10126SOL    HW231278   0.440   6.831   6.366
10127SOL     OW31279   2.798   4.936   5.720
10127SOL    HW131280   2.833   4.899   5.806
10127SOL    HW231281   2.813   4.871   5.646
10128SOL     OW31282   0.979   1.700   1.233
10128SOL    HW131283   0.914   1.752   1.289
10128SOL    HW231284   0.988   1.744   1.143
10129SOL     OW31285   4.787   2.758   4.208
10129SOL    HW131286   4.809   2.792   4.300
10129SOL    HW231287   4.712   2.693   4.214
10130SOL     OW31288   2.112   4.263   2.403
10130SOL    HW131289   2.043   4.308   2.347
10130SOL    HW231290   2.149   4.184   2.353
10131SOL     OW31291   0.492   0.920   3.265
10131SOL    HW131292   0.540   0.997   3.307
10131SOL    HW231293   0.470   0.943   3.170
10132SOL     OW31294   2.368   6.616   3.784
10132SOL    HW131295   2.352   6.603   3.686
10132SOL    HW231296   2.285   6.654   3.827
10133SOL     OW31297   4.386   6.074   2.133
10133SOL    HW131298   4.428   5.985   2.115
10133SOL    HW231299   4.453   6.147   2.116
10134SOL     OW31300   6.569   6.962   3.515
10134SOL    HW131301   6.533   6.975   3.608
10134SOL    HW231302   6.666   6.985   3.513
10135SOL     OW31303   5.496   3.221   3.402
10135SOL    HW131304   5.546   3.210   3.316
10135SOL    HW231305   5.474   3.131   3.438
10136SOL     OW31306   5.692   0.362   2.684
10136SOL    HW131307   5.728   0.342   2.593
10136SOL    HW231308   5.721   0.454   2.711
10137SOL     OW31309   6.144   4.839   3.927
10137SOL    HW131310   6.221   4.775   3.933
10137SOL    HW231311   6.058   4.788   3.930
10138SOL     OW31312   4.887   2.395   0.872
10138SOL    HW131313   4.863   2.472   0.814
10138SOL    HW231314   4.889   2.424   0.968
10139SOL     OW31315   3.563   3.463   3.201
10139SOL    HW131316   3.590   3.389   3.261
10139SOL    HW231317   3.480   3.437   3.151
10140SOL     OW31318   6.705   6.028   5.401
10140SOL    HW131319   6.776   5.973   5.447
10140SOL    HW231320   6.621   5.973   5.394
10141SOL     OW31321   2.894   1.297   4.050
10141SOL    HW131322   2.802   1.279   4.017
10141SOL    HW231323   2.926   1.385   4.016
10142SOL     OW31324   6.220   6.792   4.518
10142SOL    HW131325   6.124   6.780   4.542
10142SOL    HW231326   6.278   6.763   4.594
10143SOL     OW31327   4.529   0.747   0.649
10143SOL    HW131328   4.571   0.657   0.667
10143SOL    HW231329   4.495   0.750   0.555
10144SOL     OW31330   4.364   0.005   6.424
10144SOL    HW131331   4.328   0.050   6.343
10144SOL    HW231332   4.457   0.037   6.443
10145SOL     OW31333   3.878   5.668   6.105
10145SOL    HW131334   3.845   5.763   6.100
10145SOL    HW231335   3.827   5.611   6.040
10146SOL     OW31336   3.900   4.973   5.078
10146SOL    HW131337   3.802   4.971   5.058
10146SOL    HW231338   3.920   5.047   5.141
10147SOL     OW31339   5.056   4.624   4.867
10147SOL    HW131340   5.056   4.527   4.891
10147SOL    HW231341   4.993   4.640   4.791
10148SOL     OW31342   6.113   5.207   6.578
10148SOL    HW131343   6.118   5.281   6.646
10148SOL    HW231344   6.022   5.165   6.582
10149SOL     OW31345   5.623   1.681   1.092
10149SOL    HW131346   5.524   1.689   1.093
10149SOL    HW231347   5.656   1.658   1.184
10150SOL     OW31348   4.488   3.735   0.804
10150SOL    HW131349   4.516   3.708   0.712
10150SOL    HW231350   4.539   3.681   0.871
10151SOL     OW31351   1.004   6.508   6.753
10151SOL    HW131352   0.979   6.417   6.720
10151SOL    HW231353   1.072   6.499   6.825
10152SOL     OW31354   1.088   6.504   4.766
10152SOL    HW131355   1.187   6.505   4.783
10152SOL    HW231356   1.052   6.597   4.778
10153SOL     OW31357   5.084   5.954   4.185
10153SOL    HW131358   5.183   5.968   4.187
10153SOL    HW231359   5.039   6.021   4.243
10154SOL     OW31360   5.918   0.276   4.898
10154SOL    HW131361   5.957   0.328   4.822
10154SOL    HW231362   5.991   0.231   4.949
10155SOL     OW31363   3.820   2.014   5.566
10155SOL    HW131364   3.850   2.052   5.654
10155SOL    HW231365   3.723   2.036   5.552
10156SOL     OW31366   6.223   0.708   2.116
10156SOL    HW131367   6.175   0.765   2.182
10156SOL    HW231368   6.292   0.763   2.068
10157SOL     OW31369   6.211   3.386   6.222
10157SOL    HW131370   6.245   3.353   6.133
10157SOL    HW231371   6.256   3.335   6.295
10158SOL     OW31372   5.317   3.471   0.414
10158SOL    HW131373   5.309   3.430   0.505
10158SOL    HW231374   5.232   3.458   0.364
10159SOL     OW31375   2.829   3.525   6.208
10159SOL    HW131376   2.923   3.524   6.242
10159SOL    HW231377   2.829   3.512   6.109
10160SOL     OW31378   2.162   3.295   2.394
10160SOL    HW131379   2.258   3.316   2.414
10160SOL    HW231380   2.140   3.204   2.428
10161SOL     OW31381   3.536   3.611   6.706
10161SOL    HW131382   3.478   3.692   6.711
10161SOL    HW231383   3.613   3.629   6.644
10162SOL     OW31384   3.134   5.171   0.534
10162SOL    HW131385   3.086   5.222   0.605
10162SOL    HW231386   3.201   5.110   0.577
10163SOL     OW31387   5.555   5.356   6.470
10163SOL    HW131388   5.479   5.305   6.429
10163SOL    HW231389   5.556   5.449   6.434
10164SOL     OW31390   5.581   3.241   4.717
10164SOL    HW131391   5.534   3.264   4.803
10164SOL    HW231392   5.594   3.142   4.712
10165SOL     OW31393   0.438   1.635   3.400
10165SOL    HW131394   0.387   1.714   3.365
10165SOL    HW231395   0.434   1.635   3.500
10166SOL     OW31396   3.799   1.325   2.067
10166SOL    HW131397   3.860   1.404   2.060
10166SOL    HW231398   3.705   1.357   2.080
10167SOL     OW31399   3.355   2.516   6.314
10167SOL    HW131400   3.281   2.517   6.381
10167SOL    HW231401   3.323   2.473   6.229
10168SOL     OW31402   6.062   4.266   5.460
10168SOL    HW131403   6.094   4.300   5.371
10168SOL    HW231404   5.997   4.192   5.447
10169SOL     OW31405   6.206   3.967   3.242
10169SOL    HW131406   6.216   3.902   3.318
10169SOL    HW231407   6.121   3.948   3.193
10170SOL     OW31408   1.450   4.740   5.844
10170SOL    HW131409   1.519   4.797   5.889
10170SOL    HW231410   1.409   4.790   5.768
10171SOL     OW31411   6.538   3.337   5.501
10171SOL    HW131412   6.601   3.392   5.556
10171SOL    HW231413   6.510   3.256   5.554
10172SOL     OW31414   6.575   6.595   4.606
10172SOL    HW131415   6.562   6.546   4.521
10172SOL    HW231416   6.667   6.579   4.641
10173SOL     OW31417   1.116   2.636   1.198
10173SOL    HW131418   1.050   2.621   1.124
10173SOL    HW231419   1.067   2.658   1.282
10174SOL     OW31420   5.291   5.296   2.289
10174SOL    HW131421   5.230   5.298   2.210
10174SOL    HW231422   5.375   5.247   2.266
10175SOL     OW31423   6.323   2.599   3.634
10175SOL    HW131424   6.418   2.580   3.610
10175SOL    HW231425   6.316   2.614   3.733
10176SOL     OW31426   1.671   3.157   5.829
10176SOL    HW131427   1.761   3.123   5.802
10176SOL    HW231428   1.657   3.142   5.927
10177SOL     OW31429   2.107   1.110   0.244
10177SOL    HW131430   2.173   1.050   0.289
10177SOL    HW231431   2.015   1.075   0.259
10178SOL     OW31432   7.016   1.553   5.266
10178SOL    HW131433   0.002   1.600   5.178
10178SOL    HW231434   0.041   1.464   5.259
10179SOL     OW31435   1.006   2.142   6.131
10179SOL    HW131436   0.971   2.181   6.216
10179SOL    HW231437   1.002   2.042   6.137
10180SOL     OW31438   3.798   0.444   0.046
10180SOL    HW131439   3.783   0.452   6.967
10180SOL    HW231440   3.891   0.412   0.063
10181SOL     OW31441   5.155   3.073   2.207
10181SOL    HW131442   5.244   3.039   2.176
10181SOL    HW231443   5.118   3.136   2.140
10182SOL     OW31444   5.372   1.058   1.844
10182SOL    HW131445   5.386   1.154   1.868
10182SOL    HW231446   5.395   1.044   1.748
10183SOL     OW31447   0.317   2.124   6.479
10183SOL    HW131448   0.413   2.151   6.487
10183SOL    HW231449   0.283   2.097   6.569
10184SOL     OW31450   3.809   1.160   6.947
10184SOL    HW131451   3.908   1.171   6.936
10184SOL    HW231452   3.791   1.087   7.014
10185SOL     OW31453   5.369   5.664   1.729
10185SOL    HW131454   5.340   5.666   1.633
10185SOL    HW231455   5.324   5.588   1.776
10186SOL     OW31456   6.253   3.686   3.407
10186SOL    HW131457   6.298   3.619   3.466
10186SOL    HW231458   6.237   3.770   3.458
10187SOL     OW31459   1.013   3.067   0.937
10187SOL    HW131460   0.947   3.008   0.984
10187SOL    HW231461   1.089   3.012   0.902
10188SOL     OW31462   3.639   5.716   0.483
10188SOL    HW131463   3.635   5.627   0.438
10188SOL    HW231464   3.730   5.729   0.523
10189SOL     OW31465   1.431   0.454   6.143
10189SOL    HW131466   1.344   0.479   6.101
10189SOL    HW231467   1.416   0.429   6.239
10190SOL     OW31468   5.031   3.149   1.561
10190SOL    HW131469   5.117   3.101   1.580
10190SOL    HW231470   4.955   3.095   1.596
10191SOL     OW31471   5.083   5.315   5.690
10191SOL    HW131472   5.058   5.257   5.614
10191SOL    HW231473   5.163   5.276   5.737
10192SOL     OW31474   4.580   2.016   6.145
10192SOL    HW131475   4.530   2.046   6.226
10192SOL    HW231476   4.661   1.964   6.174
10193SOL     OW31477   4.154   3.626   1.889
10193SOL    HW131478   4.250   3.654   1.881
10193SOL    HW231479   4.124   3.637   1.984
10194SOL     OW31480   6.048   4.914   4.708
10194SOL    HW131481   6.109   4.901   4.786
10194SOL    HW231482   5.955   4.930   4.740
10195SOL     OW31483   6.149   5.335   1.133
10195SOL    HW131484   6.065   5.367   1.090
10195SOL    HW231485   6.190   5.262   1.078
10196SOL     OW31486   4.054   1.564   3.946
10196SOL    HW131487   3.992   1.520   3.881
10196SOL    HW231488   4.087   1.650   3.907
10197SOL     OW31489   6.557   2.338   5.038
10197SOL    HW131490   6.614   2.256   5.026
10197SOL    HW231491   6.482   2.317   5.100
10198SOL     OW31492   3.268   0.611   1.638
10198SOL    HW131493   3.352   0.632   1.588
10198SOL    HW231494   3.256   0.512   1.644
10199SOL     OW31495   2.577   2.574   6.043
10199SOL    HW131496   2.634   2.546   6.120
10199SOL    HW231497   2.619   2.543   5.958
10200SOL     OW31498   5.161   1.274   0.800
10200SOL    HW131499   5.119   1.353   0.755
10200SOL    HW231500   5.096   1.198   0.800
10201SOL     OW31501   1.309   4.344   0.579
10201SOL    HW131502   1.342   4.252   0.559
10201SOL    HW231503   1.237   4.339   0.648
10202SOL     OW31504   3.810   2.905   0.217
10202SOL    HW131505   3.847   2.974   0.155
10202SOL    HW231506   3.712   2.894   0.199
10203SOL     OW31507   6.331   2.908   3.902
10203SOL    HW131508   6.237   2.942   3.902
10203SOL    HW231509   6.369   2.916   3.809
10204SOL     OW31510   5.007   6.663   6.814
10204SOL    HW131511   5.075   6.636   6.745
10204SOL    HW231512   5.034   6.625   6.902
10205SOL     OW31513   2.088   0.943   1.646
10205SOL    HW131514   2.058   1.016   1.707
10205SOL    HW231515   2.009   0.910   1.593
10206SOL     OW31516   0.210   1.064   6.707
10206SOL    HW131517   0.195   1.008   6.789
10206SOL    HW231518   0.135   1.130   6.697
10207SOL     OW31519   1.587   1.868   6.993
10207SOL    HW131520   1.600   1.810   6.912
10207SOL    HW231521   1.661   1.935   6.999
10208SOL     OW31522   5.741   4.749   3.889
10208SOL    HW131523   5.833   4.712   3.905
10208SOL    HW231524   5.714   4.806   3.966
10209SOL     OW31525   6.561   6.861   6.105
10209SOL    HW131526   6.593   6.895   6.017
10209SOL    HW231527   6.616   6.782   6.133
10210SOL     OW31528   4.942   6.733   2.002
10210SOL    HW131529   4.921   6.639   1.978
10210SOL    HW231530   4.873   6.794   1.964
10211SOL     OW31531   3.845   6.498   4.139
10211SOL    HW131532   3.847   6.592   4.173
10211SOL    HW231533   3.887   6.495   4.048
10212SOL     OW31534   1.239   0.170   5.583
10212SOL    HW131535   1.330   0.129   5.594
10212SOL    HW231536   1.203   0.146   5.493
10213SOL     OW31537   4.619   2.851   1.327
10213SOL    HW131538   4.572   2.904   1.398
10213SOL    HW231539   4.629   2.756   1.358
10214SOL     OW31540   1.349   1.467   1.578
10214SOL    HW131541   1.250   1.478   1.576
10214SOL    HW231542   1.380   1.461   1.673
10215SOL     OW31543   3.672   2.853   3.503
10215SOL    HW131544   3.576   2.829   3.519
10215SOL    HW231545   3.717   2.867   3.591
10216SOL     OW31546   6.827   0.670   0.546
10216SOL    HW131547   6.824   0.571   0.556
10216SOL    HW231548   6.922   0.701   0.546
10217SOL     OW31549   2.582   1.187   3.122
10217SOL    HW131550   2.649   1.118   3.094
10217SOL    HW231551   2.621   1.244   3.194
10218SOL     OW31552   1.127   1.918   2.019
10218SOL    HW131553   1.046   1.928   1.962
10218SOL    HW231554   1.200   1.977   1.984
10219SOL     OW31555   0.113   2.043   2.904
10219SOL    HW131556   0.054   1.964   2.886
10219SOL    HW231557   0.085   2.120   2.847
10220SOL     OW31558   4.394   2.514   1.239
10220SOL    HW131559   4.362   2.608   1.236
10220SOL    HW231560   4.412   2.488   1.334
10221SOL     OW31561   0.430   5.819   3.128
10221SOL    HW131562   0.508   5.763   3.154
10221SOL    HW231563   0.425   5.900   3.187
10222SOL     OW31564   2.958   3.046   5.426
10222SOL    HW131565   2.879   2.989   5.447
10222SOL    HW231566   2.973   3.048   5.327
10223SOL     OW31567   0.735   4.505   1.304
10223SOL    HW131568   0.799   4.582   1.307
10223SOL    HW231569   0.651   4.531   1.351
10224SOL     OW31570   6.848   2.738   3.990
10224SOL    HW131571   6.778   2.771   4.053
10224SOL    HW231572   6.838   2.784   3.901
10225SOL     OW31573   1.859   4.755   5.936
10225SOL    HW131574   1.840   4.771   5.839
10225SOL    HW231575   1.892   4.840   5.978
10226SOL     OW31576   3.241   0.876   6.840
10226SOL    HW131577   3.272   0.889   6.934
10226SOL    HW231578   3.157   0.822   6.839
10227SOL     OW31579   5.246   3.945   0.175
10227SOL    HW131580   5.207   3.884   0.106
10227SOL    HW231581   5.261   4.036   0.136
10228SOL     OW31582   6.619   6.976   1.038
10228SOL    HW131583   6.556   0.029   1.014
10228SOL    HW231584   6.591   6.891   0.994
10229SOL     OW31585   1.037   2.517   4.967
10229SOL    HW131586   1.000   2.549   5.054
10229SOL    HW231587   0.967   2.465   4.918
10230SOL     OW31588   6.062   5.597   2.978
10230SOL    HW131589   6.014   5.663   3.036
10230SOL    HW231590   6.026   5.505   2.994
10231SOL     OW31591   1.242   5.520   4.961
10231SOL    HW131592   1.289   5.468   4.890
10231SOL    HW231593   1.151   5.481   4.977
10232SOL     OW31594   2.707   1.031   3.515
10232SOL    HW131595   2.632   1.018   3.450
10232SOL    HW231596   2.693   0.972   3.595
10233SOL     OW31597   4.106   3.762   4.847
10233SOL    HW131598   4.198   3.778   4.882
10233SOL    HW231599   4.084   3.665   4.854
10234SOL     OW31600   6.189   0.097   1.100
10234SOL    HW131601   6.123   0.165   1.068
10234SOL    HW231602   6.176   0.011   1.051
10235SOL     OW31603   2.021   2.369   2.062
10235SOL    HW131604   2.092   2.424   2.018
10235SOL    HW231605   2.063   2.288   2.104
10236SOL     OW31606   2.324   6.540   0.717
10236SOL    HW131607   2.300   6.509   0.809
10236SOL    HW231608   2.253   6.602   0.683
10237SOL     OW31609   6.639   3.348   0.389
10237SOL    HW131610   6.728   3.380   0.356
10237SOL    HW231611   6.589   3.424   0.429
10238SOL     OW31612   4.210   4.402   1.512
10238SOL    HW131613   4.220   4.331   1.582
10238SOL    HW231614   4.299   4.421   1.472
10239SOL     OW31615   1.354   2.945   5.274
10239SOL    HW131616   1.385   2.851   5.262
10239SOL    HW231617   1.260   2.954   5.239
10240SOL     OW31618   2.532   6.082   2.558
10240SOL    HW131619   2.464   6.018   2.523
10240SOL    HW231620   2.620   6.036   2.568
10241SOL     OW31621   5.548   1.152   2.311
10241SOL    HW131622   5.511   1.243   2.289
10241SOL    HW231623   5.473   1.090   2.332
10242SOL     OW31624   6.549   1.293   0.701
10242SOL    HW131625   6.619   1.297   0.630
10242SOL    HW231626   6.545   1.201   0.738
10243SOL     OW31627   2.744   4.336   1.407
10243SOL    HW131628   2.784   4.375   1.490
10243SOL    HW231629   2.711   4.410   1.348
10244SOL     OW31630   2.274   4.260   0.655
10244SOL    HW131631   2.242   4.355   0.645
10244SOL    HW231632   2.206   4.198   0.615
10245SOL     OW31633   3.591   4.273   1.121
10245SOL    HW131634   3.587   4.174   1.119
10245SOL    HW231635   3.671   4.303   1.172
10246SOL     OW31636   3.195   4.104   4.522
10246SOL    HW131637   3.286   4.115   4.483
10246SOL    HW231638   3.126   4.119   4.450
10247SOL     OW31639   0.331   3.866   6.304
10247SOL    HW131640   0.376   3.867   6.393
10247SOL    HW231641   0.317   3.771   6.275
10248SOL     OW31642   0.866   0.710   2.823
10248SOL    HW131643   0.891   0.765   2.902
10248SOL    HW231644   0.767   0.711   2.811
10249SOL     OW31645   2.717   4.864   6.925
10249SOL    HW131646   2.756   4.772   6.915
10249SOL    HW231647   2.787   4.932   6.905
10250SOL     OW31648   6.749   3.649   0.923
10250SOL    HW131649   6.782   3.737   0.956
10250SOL    HW231650   6.737   3.652   0.824
10251SOL     OW31651   1.971   1.221   4.119
10251SOL    HW131652   1.896   1.272   4.076
10251SOL    HW231653   2.050   1.221   4.058
10252SOL     OW31654   4.420   3.793   6.099
10252SOL    HW131655   4.325   3.772   6.120
10252SOL    HW231656   4.475   3.788   6.183
10253SOL     OW31657   3.144   6.406   0.943
10253SOL    HW131658   3.047   6.379   0.940
10253SOL    HW231659   3.158   6.486   0.886
10254SOL     OW31660   4.444   1.730   5.461
10254SOL    HW131661   4.434   1.702   5.365
10254SOL    HW231662   4.390   1.812   5.477
10255SOL     OW31663   2.223   6.935   0.897
10255SOL    HW131664   2.192   7.007   0.959
10255SOL    HW231665   2.271   6.864   0.949
10256SOL     OW31666   4.556   0.813   2.448
10256SOL    HW131667   4.529   0.850   2.358
10256SOL    HW231668   4.598   0.724   2.436
10257SOL     OW31669   1.817   5.352   4.147
10257SOL    HW131670   1.883   5.308   4.208
10257SOL    HW231671   1.865   5.394   4.071
10258SOL     OW31672   3.816   1.923   3.720
10258SOL    HW131673   3.750   1.916   3.794
10258SOL    HW231674   3.789   1.996   3.658
10259SOL     OW31675   1.012   4.448   3.269
10259SOL    HW131676   1.093   4.400   3.303
10259SOL    HW231677   0.948   4.463   3.344
10260SOL     OW31678   0.566   1.353   3.627
10260SOL    HW131679   0.629   1.430   3.614
10260SOL    HW231680   0.592   1.303   3.710
10261SOL     OW31681   6.634   4.816   0.485
10261SOL    HW131682   6.545   4.836   0.443
10261SOL    HW231683   6.623   4.742   0.552
10262SOL     OW31684   3.130   6.873   6.361
10262SOL    HW131685   3.104   6.852   6.455
10262SOL    HW231686   3.109   6.794   6.303
10263SOL     OW31687   6.036   0.300   0.631
10263SOL    HW131688   6.123   0.260   0.657
10263SOL    HW231689   6.048   0.361   0.552
10264SOL     OW31690   6.506   5.336   6.714
10264SOL    HW131691   6.548   5.281   6.785
10264SOL    HW231692   6.406   5.332   6.723
10265SOL     OW31693   3.480   2.696   0.009
10265SOL    HW131694   3.547   2.769   0.000
10265SOL    HW231695   3.492   2.648   0.096
10266SOL     OW31696   3.790   3.152   2.787
10266SOL    HW131697   3.839   3.094   2.722
10266SOL    HW231698   3.825   3.136   2.879
10267SOL     OW31699   5.341   0.964   0.809
10267SOL    HW131700   5.366   0.915   0.892
10267SOL    HW231701   5.407   1.036   0.791
10268SOL     OW31702   5.552   6.226   2.221
10268SOL    HW131703   5.631   6.259   2.169
10268SOL    HW231704   5.557   6.260   2.315
10269SOL     OW31705   1.610   2.395   6.267
10269SOL    HW131706   1.695   2.442   6.292
10269SOL    HW231707   1.630   2.298   6.252
10270SOL     OW31708   3.025   5.569   3.176
10270SOL    HW131709   3.019   5.613   3.087
10270SOL    HW231710   2.991   5.475   3.170
10271SOL     OW31711   2.962   3.197   0.175
10271SOL    HW131712   2.947   3.149   0.261
10271SOL    HW231713   2.890   3.265   0.162
10272SOL     OW31714   1.382   0.496   3.963
10272SOL    HW131715   1.323   0.543   3.897
10272SOL    HW231716   1.329   0.424   4.008
10273SOL     OW31717   2.984   5.163   4.232
10273SOL    HW131718   3.078   5.186   4.259
10273SOL    HW231719   2.987   5.100   4.155
10274SOL     OW31720   1.362   4.375   5.996
10274SOL    HW131721   1.330   4.294   6.044
10274SOL    HW231722   1.431   4.350   5.929
10275SOL     OW31723   0.053   0.597   1.895
10275SOL    HW131724   0.151   0.577   1.882
10275SOL    HW231725   0.001   0.511   1.892
10276SOL     OW31726   4.402   5.913   5.999
10276SOL    HW131727   4.377   5.835   6.056
10276SOL    HW231728   4.411   5.883   5.904
10277SOL     OW31729   1.262   6.963   4.754
10277SOL    HW131730   1.286   6.982   4.849
10277SOL    HW231731   1.331   6.902   4.713
10278SOL     OW31732   0.870   0.855   3.905
10278SOL    HW131733   0.925   0.929   3.943
10278SOL    HW231734   0.777   0.858   3.943
10279SOL     OW31735   2.332   5.366   4.058
10279SOL    HW131736   2.265   5.292   4.066
10279SOL    HW231737   2.287   5.447   4.019
10280SOL     OW31738   5.739   2.914   0.018
10280SOL    HW131739   5.688   2.966   6.969
10280SOL    HW231740   5.837   2.919   7.017
10281SOL     OW31741   6.815   2.091   3.811
10281SOL    HW131742   6.804   2.001   3.770
10281SOL    HW231743   6.878   2.146   3.756
10282SOL     OW31744   5.221   3.152   3.672
10282SOL    HW131745   5.210   3.248   3.649
10282SOL    HW231746   5.241   3.142   3.769
10283SOL     OW31747   1.333   2.909   1.026
10283SOL    HW131748   1.433   2.907   1.028
10283SOL    HW231749   1.298   2.815   1.024
10284SOL     OW31750   6.246   1.759   4.934
10284SOL    HW131751   6.313   1.690   4.963
10284SOL    HW231752   6.268   1.790   4.842
10285SOL     OW31753   4.273   6.588   3.309
10285SOL    HW131754   4.283   6.649   3.230
10285SOL    HW231755   4.326   6.624   3.386
10286SOL     OW31756   3.168   0.452   3.988
10286SOL    HW131757   3.203   0.531   4.038
10286SOL    HW231758   3.224   0.436   3.907
10287SOL     OW31759   2.288   5.307   2.242
10287SOL    HW131760   2.300   5.401   2.210
10287SOL    HW231761   2.362   5.250   2.206
10288SOL     OW31762   4.111   0.030   4.095
10288SOL    HW131763   4.162   6.989   4.034
10288SOL    HW231764   4.021   0.049   4.054
10289SOL     OW31765   2.839   6.379   0.474
10289SOL    HW131766   2.903   6.356   0.548
10289SOL    HW231767   2.756   6.325   0.484
10290SOL     OW31768   3.103   3.066   2.740
10290SOL    HW131769   3.097   3.087   2.838
10290SOL    HW231770   3.098   2.967   2.727
10291SOL     OW31771   3.625   1.859   3.246
10291SOL    HW131772   3.618   1.958   3.257
10291SOL    HW231773   3.688   1.838   3.171
10292SOL     OW31774   0.867   1.760   5.770
10292SOL    HW131775   0.840   1.846   5.812
10292SOL    HW231776   0.931   1.778   5.696
10293SOL     OW31777   0.840   3.270   3.818
10293SOL    HW131778   0.836   3.311   3.727
10293SOL    HW231779   0.879   3.178   3.812
10294SOL     OW31780   4.373   1.344   2.758
10294SOL    HW131781   4.288   1.364   2.807
10294SOL    HW231782   4.401   1.249   2.776
10295SOL     OW31783   1.208   3.073   5.547
10295SOL    HW131784   1.308   3.084   5.550
10295SOL    HW231785   1.167   3.130   5.618
10296SOL     OW31786   5.765   1.914   5.757
10296SOL    HW131787   5.857   1.896   5.723
10296SOL    HW231788   5.718   1.977   5.695
10297SOL     OW31789   2.606   1.253   6.753
10297SOL    HW131790   2.561   1.320   6.694
10297SOL    HW231791   2.577   1.161   6.727
10298SOL     OW31792   1.784   4.610   1.214
10298SOL    HW131793   1.762   4.542   1.144
10298SOL    HW231794   1.725   4.596   1.294
10299SOL     OW31795   3.588   5.496   2.848
10299SOL    HW131796   3.622   5.502   2.942
10299SOL    HW231797   3.638   5.425   2.800
10300SOL     OW31798   1.493   4.336   1.800
10300SOL    HW131799   1.578   4.352   1.850
10300SOL    HW231800   1.483   4.238   1.781
10301SOL     OW31801   4.441   2.029   5.468
10301SOL    HW131802   4.358   2.062   5.514
10301SOL    HW231803   4.522   2.060   5.518
10302SOL     OW31804   1.977   6.025   4.987
10302SOL    HW131805   1.985   5.936   4.943
10302SOL    HW231806   2.049   6.086   4.953
10303SOL     OW31807   0.841   5.659   3.498
10303SOL    HW131808   0.764   5.638   3.559
10303SOL    HW231809   0.921   5.607   3.527
10304SOL     OW31810   5.639   0.142   0.942
10304SOL    HW131811   5.691   0.154   0.858
10304SOL    HW231812   5.636   0.229   0.992
10305SOL     OW31813   1.936   4.362   5.542
10305SOL    HW131814   2.026   4.358   5.501
10305SOL    HW231815   1.866   4.346   5.472
10306SOL     OW31816   5.541   5.941   0.325
10306SOL    HW131817   5.593   5.953   0.240
10306SOL    HW231818   5.576   5.861   0.374
10307SOL     OW31819   3.076   1.602   4.901
10307SOL    HW131820   3.014   1.530   4.870
10307SOL    HW231821   3.083   1.673   4.831
10308SOL     OW31822   1.849   4.036   1.908
10308SOL    HW131823   1.785   3.967   1.873
10308SOL    HW231824   1.918   3.991   1.964
10309SOL     OW31825   6.769   1.579   0.026
10309SOL    HW131826   6.669   1.577   0.033
10309SOL    HW231827   6.802   1.668   0.057
10310SOL     OW31828   2.727   4.003   0.587
10310SOL    HW131829   2.639   4.046   0.564
10310SOL    HW231830   2.790   4.014   0.509
10311SOL     OW31831   6.403   5.946   0.219
10311SOL    HW131832   6.459   5.982   0.145
10311SOL    HW231833   6.317   5.997   0.224
10312SOL     OW31834   4.778   6.497   2.439
10312SOL    HW131835   4.777   6.508   2.538
10312SOL    HW231836   4.684   6.493   2.405
10313SOL     OW31837   3.352   5.772   2.003
10313SOL    HW131838   3.356   5.872   1.991
10313SOL    HW231839   3.277   5.749   2.064
10314SOL     OW31840   6.606   0.106   0.187
10314SOL    HW131841   6.689   0.155   0.215
10314SOL    HW231842   6.587   0.034   0.254
10315SOL     OW31843   5.910   6.262   4.460
10315SOL    HW131844   5.840   6.286   4.393
10315SOL    HW231845   5.966   6.187   4.424
10316SOL     OW31846   6.791   2.701   5.969
10316SOL    HW131847   6.823   2.616   6.010
10316SOL    HW231848   6.748   2.758   6.039
10317SOL     OW31849   3.920   6.434   6.544
10317SOL    HW131850   3.928   6.440   6.444
10317SOL    HW231851   3.969   6.353   6.577
10318SOL     OW31852   4.971   0.997   6.211
10318SOL    HW131853   5.032   0.978   6.287
10318SOL    HW231854   4.924   1.084   6.226
10319SOL     OW31855   0.781   3.606   5.697
10319SOL    HW131856   0.871   3.634   5.665
10319SOL    HW231857   0.782   3.508   5.718
10320SOL     OW31858   0.654   6.270   2.699
10320SOL    HW131859   0.740   6.311   2.670
10320SOL    HW231860   0.599   6.248   2.618
10321SOL     OW31861   6.015   1.685   1.723
10321SOL    HW131862   5.931   1.635   1.701
10321SOL    HW231863   6.056   1.719   1.638
10322SOL     OW31864   4.278   4.932   4.571
10322SOL    HW131865   4.308   4.992   4.645
10322SOL    HW231866   4.339   4.943   4.492
10323SOL     OW31867   6.051   4.904   5.293
10323SOL    HW131868   6.117   4.834   5.318
10323SOL    HW231869   6.069   4.987   5.345
10324SOL     OW31870   3.856   2.984   2.093
10324SOL    HW131871   3.872   2.947   2.001
10324SOL    HW231872   3.940   3.023   2.128
10325SOL     OW31873   6.728   4.329   2.250
10325SOL    HW131874   6.672   4.322   2.333
10325SOL    HW231875   6.800   4.261   2.253
10326SOL     OW31876   5.550   4.393   6.364
10326SOL    HW131877   5.581   4.486   6.382
10326SOL    HW231878   5.620   4.344   6.313
10327SOL     OW31879   2.252   2.722   1.299
10327SOL    HW131880   2.334   2.679   1.259
10327SOL    HW231881   2.280   2.788   1.368
10328SOL     OW31882   6.257   2.980   0.258
10328SOL    HW131883   6.306   2.916   0.199
10328SOL    HW231884   6.159   2.960   0.255
10329SOL     OW31885   2.461   0.617   3.718
10329SOL    HW131886   2.426   0.634   3.626
10329SOL    HW231887   2.505   0.527   3.721
10330SOL     OW31888   4.314   1.184   2.199
10330SOL    HW131889   4.266   1.133   2.269
10330SOL    HW231890   4.339   1.123   2.124
10331SOL     OW31891   6.634   6.299   5.940
10331SOL    HW131892   6.655   6.307   5.843
10331SOL    HW231893   6.714   6.323   5.995
10332SOL     OW31894   0.050   0.165   0.029
10332SOL    HW131895   0.077   0.105   6.973
10332SOL    HW231896   0.015   0.110   0.104
10333SOL     OW31897   1.037   4.882   4.848
10333SOL    HW131898   1.083   4.962   4.811
10333SOL    HW231899   1.100   4.804   4.849
10334SOL     OW31900   3.499   0.836   4.776
10334SOL    HW131901   3.505   0.848   4.875
10334SOL    HW231902   3.428   0.895   4.739
10335SOL     OW31903   1.841   3.866   0.112
10335SOL    HW131904   1.745   3.885   0.091
10335SOL    HW231905   1.899   3.918   0.050
10336SOL     OW31906   5.845   0.132   1.729
10336SOL    HW131907   5.813   0.042   1.758
10336SOL    HW231908   5.886   0.126   1.638
10337SOL     OW31909   0.594   6.159   6.427
10337SOL    HW131910   0.648   6.075   6.430
10337SOL    HW231911   0.654   6.237   6.410
10338SOL     OW31912   1.771   6.304   2.536
10338SOL    HW131913   1.690   6.312   2.594
10338SOL    HW231914   1.749   6.250   2.455
10339SOL     OW31915   5.793   3.479   6.119
10339SOL    HW131916   5.718   3.440   6.065
10339SOL    HW231917   5.767   3.481   6.215
10340SOL     OW31918   1.490   3.516   0.149
10340SOL    HW131919   1.493   3.417   0.134
10340SOL    HW231920   1.557   3.541   0.219
10341SOL     OW31921   2.088   3.623   2.189
10341SOL    HW131922   2.152   3.577   2.127
10341SOL    HW231923   2.113   3.603   2.284
10342SOL     OW31924   2.274   0.124   4.455
10342SOL    HW131925   2.296   0.195   4.522
10342SOL    HW231926   2.317   0.038   4.482
10343SOL     OW31927   3.096   4.808   0.078
10343SOL    HW131928   3.175   4.867   0.095
10343SOL    HW231929   3.052   4.836   7.013
10344SOL     OW31930   4.103   3.218   0.443
10344SOL    HW131931   4.151   3.285   0.499
10344SOL    HW231932   4.034   3.265   0.387
10345SOL     OW31933   1.724   1.966   6.689
10345SOL    HW131934   1.790   1.918   6.632
10345SOL    HW231935   1.638   1.979   6.639
10346SOL     OW31936   0.418   5.574   1.311
10346SOL    HW131937   0.378   5.549   1.223
10346SOL    HW231938   0.387   5.510   1.381
10347SOL     OW31939   3.844   1.215   3.195
10347SOL    HW131940   3.877   1.134   3.243
10347SOL    HW231941   3.783   1.187   3.121
10348SOL     OW31942   6.594   2.642   0.275
10348SOL    HW131943   6.591   2.721   0.337
10348SOL    HW231944   6.643   2.567   0.319
10349SOL     OW31945   1.526   1.117   0.243
10349SOL    HW131946   1.526   1.018   0.239
10349SOL    HW231947   1.435   1.152   0.219
10350SOL     OW31948   2.656   5.305   5.162
10350SOL    HW131949   2.655   5.293   5.261
10350SOL    HW231950   2.606   5.389   5.138
10351SOL     OW31951   4.530   5.032   7.017
10351SOL    HW131952   4.536   4.989   6.927
10351SOL    HW231953   4.527   4.961   0.068
10352SOL     OW31954   3.638   1.060   6.354
10352SOL    HW131955   3.560   0.999   6.366
10352SOL    HW231956   3.710   1.013   6.305
10353SOL     OW31957   6.547   3.135   4.903
10353SOL    HW131958   6.467   3.187   4.934
10353SOL    HW231959   6.518   3.057   4.848
10354SOL     OW31960   5.855   2.131   2.119
10354SOL    HW131961   5.881   2.038   2.094
10354SOL    HW231962   5.900   2.158   2.204
10355SOL     OW31963   2.548   6.843   1.678
10355SOL    HW131964   2.484   6.883   1.744
10355SOL    HW231965   2.615   6.787   1.727
10356SOL     OW31966   0.386   5.137   5.340
10356SOL    HW131967   0.414   5.183   5.256
10356SOL    HW231968   0.431   5.048   5.346
10357SOL     OW31969   2.180   2.799   6.202
10357SOL    HW131970   2.277   2.798   6.227
10357SOL    HW231971   2.156   2.889   6.167
10358SOL     OW31972   0.255   2.576   3.688
10358SOL    HW131973   0.319   2.555   3.615
10358SOL    HW231974   0.301   2.565   3.777
10359SOL     OW31975   0.666   2.005   0.882
10359SOL    HW131976   0.616   2.056   0.953
10359SOL    HW231977   0.711   2.070   0.821
10360SOL     OW31978   4.872   4.957   3.176
10360SOL    HW131979   4.786   4.993   3.139
10360SOL    HW231980   4.854   4.869   3.219
10361SOL     OW31981   2.364   6.523   2.607
10361SOL    HW131982   2.431   6.455   2.579
10361SOL    HW231983   2.370   6.603   2.546
10362SOL     OW31984   1.735   5.062   5.057
10362SOL    HW131985   1.771   4.984   5.108
10362SOL    HW231986   1.724   5.037   4.961
10363SOL     OW31987   4.991   0.688   2.850
10363SOL    HW131988   4.965   0.778   2.815
10363SOL    HW231989   5.058   0.698   2.923
10364SOL     OW31990   3.046   3.337   1.569
10364SOL    HW131991   3.140   3.324   1.536
10364SOL    HW231992   3.040   3.309   1.664
10365SOL     OW31993   3.853   5.047   0.025
10365SOL    HW131994   3.807   4.964   7.012
10365SOL    HW231995   3.844   5.052   0.125
10366SOL     OW31996   2.629   0.152   4.118
10366SOL    HW131997   2.662   0.063   4.087
10366SOL    HW231998   2.623   0.153   4.217
10367SOL     OW31999   5.630   2.679   2.364
10367SOL    HW132000   5.622   2.647   2.459
10367SOL    HW232001   5.648   2.602   2.304
10368SOL     OW32002   2.308   1.637   1.018
10368SOL    HW132003   2.245   1.698   0.969
10368SOL    HW232004   2.322   1.554   0.964
10369SOL     OW32005   4.029   1.296   6.633
10369SOL    HW132006   3.931   1.277   6.627
10369SOL    HW232007   4.050   1.378   6.579
10370SOL     OW32008   4.777   1.659   4.979
10370SOL    HW132009   4.810   1.633   4.889
10370SOL    HW232010   4.767   1.758   4.984
10371SOL     OW32011   3.690   5.714   5.387
10371SOL    HW132012   3.744   5.630   5.386
10371SOL    HW232013   3.749   5.792   5.366
10372SOL     OW32014   1.849   1.349   5.559
10372SOL    HW132015   1.888   1.308   5.641
10372SOL    HW232016   1.917   1.349   5.485
10373SOL     OW32017   2.052   6.551   4.799
10373SOL    HW132018   1.971   6.495   4.810
10373SOL    HW232019   2.058   6.616   4.875
10374SOL     OW32020   3.167   1.579   2.833
10374SOL    HW132021   3.087   1.531   2.867
10374SOL    HW232022   3.160   1.677   2.856
10375SOL     OW32023   4.465   1.908   0.011
10375SOL    HW132024   4.484   1.992   0.062
10375SOL    HW232025   4.509   1.830   0.056
10376SOL     OW32026   1.148   6.696   3.806
10376SOL    HW132027   1.141   6.678   3.904
10376SOL    HW232028   1.211   6.630   3.764
10377SOL     OW32029   6.185   0.733   3.804
10377SOL    HW132030   6.184   0.657   3.870
10377SOL    HW232031   6.270   0.731   3.752
10378SOL     OW32032   6.851   0.902   5.589
10378SOL    HW132033   6.860   0.947   5.678
10378SOL    HW232034   6.822   0.808   5.602
10379SOL     OW32035   4.592   0.485   4.878
10379SOL    HW132036   4.676   0.504   4.827
10379SOL    HW232037   4.543   0.409   4.834
10380SOL     OW32038   5.616   0.719   2.966
10380SOL    HW132039   5.692   0.671   2.921
10380SOL    HW232040   5.642   0.814   2.982
10381SOL     OW32041   5.050   5.814   5.994
10381SOL    HW132042   5.001   5.733   6.026
10381SOL    HW232043   5.059   5.812   5.895
10382SOL     OW32044   2.578   4.873   6.266
10382SOL    HW132045   2.623   4.917   6.188
10382SOL    HW232046   2.567   4.776   6.248
10383SOL     OW32047   0.663   3.275   0.822
10383SOL    HW132048   0.579   3.223   0.807
10383SOL    HW232049   0.706   3.294   0.734
10384SOL     OW32050   0.497   0.156   0.642
10384SOL    HW132051   0.496   0.097   0.561
10384SOL    HW232052   0.404   0.177   0.669
10385SOL     OW32053   5.014   6.807   5.928
10385SOL    HW132054   5.023   6.711   5.956
10385SOL    HW232055   5.104   6.850   5.928
10386SOL     OW32056   6.829   3.603   5.237
10386SOL    HW132057   6.776   3.688   5.224
10386SOL    HW232058   6.766   3.527   5.252
10387SOL     OW32059   2.697   2.017   2.566
10387SOL    HW132060   2.612   2.065   2.587
10387SOL    HW232061   2.768   2.083   2.543
10388SOL     OW32062   1.279   5.581   4.082
10388SOL    HW132063   1.322   5.614   3.998
10388SOL    HW232064   1.349   5.552   4.147
10389SOL     OW32065   0.730   5.407   2.445
10389SOL    HW132066   0.736   5.503   2.473
10389SOL    HW232067   0.819   5.364   2.454
10390SOL     OW32068   1.457   3.816   2.729
10390SOL    HW132069   1.542   3.867   2.748
10390SOL    HW232070   1.454   3.793   2.632
10391SOL     OW32071   1.180   5.999   6.674
10391SOL    HW132072   1.208   6.087   6.713
10391SOL    HW232073   1.109   6.014   6.605
10392SOL     OW32074   6.503   3.851   0.647
10392SOL    HW132075   6.465   3.842   0.555
10392SOL    HW232076   6.601   3.867   0.642
10393SOL     OW32077   0.736   1.602   3.673
10393SOL    HW132078   0.794   1.678   3.704
10393SOL    HW232079   0.771   1.567   3.586
10394SOL     OW32080   2.318   6.960   6.729
10394SOL    HW132081   2.324   6.945   6.828
10394SOL    HW232082   2.270   6.884   6.687
10395SOL     OW32083   6.770   0.995   4.010
10395SOL    HW132084   6.707   1.002   3.933
10395SOL    HW232085   6.738   0.923   4.072
10396SOL     OW32086   1.256   0.563   3.445
10396SOL    HW132087   1.173   0.520   3.478
10396SOL    HW232088   1.333   0.501   3.456
10397SOL     OW32089   3.673   0.788   3.489
10397SOL    HW132090   3.661   0.874   3.439
10397SOL    HW232091   3.703   0.808   3.582
10398SOL     OW32092   6.413   2.665   0.573
10398SOL    HW132093   6.346   2.718   0.522
10398SOL    HW232094   6.365   2.604   0.637
10399SOL     OW32095   4.595   2.192   5.650
10399SOL    HW132096   4.528   2.235   5.710
10399SOL    HW232097   4.648   2.126   5.702
10400SOL     OW32098   2.650   5.825   2.861
10400SOL    HW132099   2.704   5.862   2.786
10400SOL    HW232100   2.701   5.753   2.908
10401SOL     OW32101   6.400   5.964   2.167
10401SOL    HW132102   6.383   5.870   2.136
10401SOL    HW232103   6.492   5.992   2.139
10402SOL     OW32104   0.111   2.726   5.427
10402SOL    HW132105   0.174   2.652   5.403
10402SOL    HW232106   0.076   2.711   5.519
10403SOL     OW32107   5.280   1.492   2.360
10403SOL    HW132108   5.330   1.544   2.429
10403SOL    HW232109   5.232   1.416   2.404
10404SOL     OW32110   1.008   6.815   4.099
10404SOL    HW132111   0.983   6.808   4.195
10404SOL    HW232112   1.107   6.814   4.089
10405SOL     OW32113   1.187   5.654   5.306
10405SOL    HW132114   1.215   5.720   5.235
10405SOL    HW232115   1.183   5.562   5.266
10406SOL     OW32116   1.946   4.698   5.586
10406SOL    HW132117   1.856   4.735   5.610
10406SOL    HW232118   1.934   4.624   5.519
10407SOL     OW32119   1.288   1.106   6.025
10407SOL    HW132120   1.295   1.176   5.954
10407SOL    HW232121   1.260   1.019   5.984
10408SOL     OW32122   4.618   5.078   3.147
10408SOL    HW132123   4.550   5.143   3.182
10408SOL    HW232124   4.647   5.106   3.056
10409SOL     OW32125   0.177   3.862   1.879
10409SOL    HW132126   0.274   3.845   1.898
10409SOL    HW232127   0.139   3.782   1.832
10410SOL     OW32128   4.897   1.094   1.309
10410SOL    HW132129   4.862   1.178   1.349
10410SOL    HW232130   4.960   1.116   1.234
10411SOL     OW32131   2.103   4.831   3.251
10411SOL    HW132132   2.084   4.810   3.155
10411SOL    HW232133   2.115   4.929   3.262
10412SOL     OW32134   0.953   2.307   6.568
10412SOL    HW132135   0.878   2.365   6.600
10412SOL    HW232136   0.997   2.262   6.646
10413SOL     OW32137   0.594   1.635   0.161
10413SOL    HW132138   0.646   1.620   0.245
10413SOL    HW232139   0.527   1.708   0.176
10414SOL     OW32140   4.932   6.285   6.711
10414SOL    HW132141   4.858   6.272   6.776
10414SOL    HW232142   4.921   6.373   6.665
10415SOL     OW32143   0.629   5.364   3.337
10415SOL    HW132144   0.544   5.324   3.301
10415SOL    HW232145   0.707   5.323   3.292
10416SOL     OW32146   6.359   2.605   5.475
10416SOL    HW132147   6.321   2.647   5.392
10416SOL    HW232148   6.457   2.588   5.460
10417SOL     OW32149   3.996   5.129   2.818
10417SOL    HW132150   4.042   5.167   2.898
10417SOL    HW232151   4.030   5.175   2.736
10418SOL     OW32152   6.813   3.968   5.616
10418SOL    HW132153   6.855   4.049   5.575
10418SOL    HW232154   6.810   3.978   5.715
10419SOL     OW32155   3.528   0.761   5.305
10419SOL    HW132156   3.457   0.804   5.250
10419SOL    HW232157   3.618   0.794   5.275
10420SOL     OW32158   6.586   3.218   3.061
10420SOL    HW132159   6.599   3.182   2.969
10420SOL    HW232160   6.675   3.244   3.099
10421SOL     OW32161   1.022   4.802   3.303
10421SOL    HW132162   1.049   4.715   3.263
10421SOL    HW232163   0.923   4.802   3.321
10422SOL     OW32164   6.850   3.465   4.831
10422SOL    HW132165   6.914   3.446   4.905
10422SOL    HW232166   6.793   3.544   4.855
10423SOL     OW32167   3.552   5.230   4.293
10423SOL    HW132168   3.648   5.257   4.294
10423SOL    HW232169   3.528   5.193   4.203
10424SOL     OW32170   4.061   1.246   6.918
10424SOL    HW132171   4.023   1.297   6.841
10424SOL    HW232172   4.114   1.168   6.884
10425SOL     OW32173   2.213   0.383   1.131
10425SOL    HW132174   2.211   0.481   1.109
10425SOL    HW232175   2.308   0.352   1.138
10426SOL     OW32176   4.926   2.933   5.535
10426SOL    HW132177   4.868   2.889   5.467
10426SOL    HW232178   4.986   2.999   5.490
10427SOL     OW32179   4.839   6.255   5.005
10427SOL    HW132180   4.831   6.355   5.007
10427SOL    HW232181   4.749   6.214   4.992
10428SOL     OW32182   1.445   1.721   3.515
10428SOL    HW132183   1.529   1.714   3.460
10428SOL    HW232184   1.457   1.792   3.584
10429SOL     OW32185   1.060   3.496   2.668
10429SOL    HW132186   1.066   3.589   2.631
10429SOL    HW232187   1.105   3.494   2.757
10430SOL     OW32188   3.826   6.820   3.765
10430SOL    HW132189   3.901   6.883   3.740
10430SOL    HW232190   3.797   6.770   3.683
10431SOL     OW32191   2.848   2.053   3.872
10431SOL    HW132192   2.927   1.993   3.880
10431SOL    HW232193   2.828   2.069   3.775
10432SOL     OW32194   6.789   6.964   5.928
10432SOL    HW132195   6.728   0.020   5.904
10432SOL    HW232196   6.853   6.994   5.999
10433SOL     OW32197   2.312   6.719   1.730
10433SOL    HW132198   2.292   6.642   1.790
10433SOL    HW232199   2.312   6.804   1.783
10434SOL     OW32200   4.805   0.484   6.044
10434SOL    HW132201   4.877   0.536   6.090
10434SOL    HW232202   4.843   0.402   6.004
10435SOL     OW32203   0.885   2.086   6.413
10435SOL    HW132204   0.953   2.014   6.400
10435SOL    HW232205   0.917   2.150   6.483
10436SOL     OW32206   0.824   4.366   5.021
10436SOL    HW132207   0.736   4.376   4.974
10436SOL    HW232208   0.887   4.315   4.963
10437SOL     OW32209   5.324   4.916   5.191
10437SOL    HW132210   5.286   4.879   5.276
10437SOL    HW232211   5.417   4.883   5.179
10438SOL     OW32212   6.776   6.174   6.416
10438SOL    HW132213   6.712   6.151   6.342
10438SOL    HW232214   6.726   6.220   6.489
10439SOL     OW32215   0.310   0.104   4.420
10439SOL    HW132216   0.325   0.164   4.342
10439SOL    HW232217   0.212   0.101   4.441
10440SOL     OW32218   0.276   2.023   6.721
10440SOL    HW132219   0.188   1.996   6.760
10440SOL    HW232220   0.308   1.951   6.659
10441SOL     OW32221   3.618   1.597   1.021
10441SOL    HW132222   3.716   1.618   1.025
10441SOL    HW232223   3.592   1.578   0.926
10442SOL     OW32224   2.962   1.219   5.484
10442SOL    HW132225   3.037   1.155   5.500
10442SOL    HW232226   2.979   1.304   5.534
10443SOL     OW32227   6.938   1.056   3.260
10443SOL    HW132228   6.934   1.097   3.169
10443SOL    HW232229   6.884   1.111   3.324
10444SOL     OW32230   3.842   5.857   3.601
10444SOL    HW132231   3.848   5.817   3.509
10444SOL    HW232232   3.908   5.932   3.609
10445SOL     OW32233   1.422   4.120   2.740
10445SOL    HW132234   1.485   4.136   2.664
10445SOL    HW232235   1.397   4.023   2.744
10446SOL     OW32236   1.863   4.496   4.997
10446SOL    HW132237   1.805   4.428   5.043
10446SOL    HW232238   1.896   4.459   4.911
10447SOL     OW32239   6.872   1.908   2.603
10447SOL    HW132240   6.862   1.964   2.685
10447SOL    HW232241   6.871   1.811   2.629
10448SOL     OW32242   2.070   6.936   3.081
10448SOL    HW132243   2.133   6.931   3.159
10448SOL    HW232244   2.006   7.012   3.095
10449SOL     OW32245   3.313   5.755   6.551
10449SOL    HW132246   3.405   5.783   6.576
10449SOL    HW232247   3.316   5.702   6.466
10450SOL     OW32248   6.004   0.281   5.593
10450SOL    HW132249   6.037   0.322   5.677
10450SOL    HW232250   5.963   0.352   5.535
10451SOL     OW32251   1.872   0.192   4.240
10451SOL    HW132252   1.922   0.235   4.164
10451SOL    HW232253   1.929   0.121   4.282
10452SOL     OW32254   0.115   3.659   3.949
10452SOL    HW132255   0.181   3.647   3.875
10452SOL    HW232256   0.068   3.573   3.965
10453SOL     OW32257   4.371   5.963   3.545
10453SOL    HW132258   4.345   6.057   3.523
10453SOL    HW232259   4.362   5.906   3.464
10454SOL     OW32260   6.456   1.647   6.237
10454SOL    HW132261   6.366   1.689   6.242
10454SOL    HW232262   6.467   1.602   6.148
10455SOL     OW32263   6.199   6.401   4.467
10455SOL    HW132264   6.167   6.316   4.426
10455SOL    HW232265   6.237   6.461   4.396
10456SOL     OW32266   0.019   5.340   7.011
10456SOL    HW132267   0.065   5.283   6.943
10456SOL    HW232268   7.002   5.422   6.967
10457SOL     OW32269   3.965   2.676   0.309
10457SOL    HW132270   4.064   2.668   0.317
10457SOL    HW232271   3.941   2.766   0.273
10458SOL     OW32272   6.695   6.624   6.190
10458SOL    HW132273   6.752   6.566   6.132
10458SOL    HW232274   6.624   6.568   6.234
10459SOL     OW32275   0.209   5.487   0.464
10459SOL    HW132276   0.257   5.433   0.395
10459SOL    HW232277   0.127   5.439   0.493
10460SOL     OW32278   6.898   3.883   1.004
10460SOL    HW132279   6.962   3.915   1.074
10460SOL    HW232280   6.944   3.878   0.916
10461SOL     OW32281   6.998   4.750   5.265
10461SOL    HW132282   0.046   4.774   5.334
10461SOL    HW232283   6.906   4.763   5.303
10462SOL     OW32284   4.948   1.479   1.312
10462SOL    HW132285   4.915   1.495   1.219
10462SOL    HW232286   4.878   1.508   1.378
10463SOL     OW32287   4.579   2.792   6.359
10463SOL    HW132288   4.645   2.828   6.293
10463SOL    HW232289   4.508   2.741   6.310
10464SOL     OW32290   5.467   5.395   2.937
10464SOL    HW132291   5.368   5.403   2.950
10464SOL    HW232292   5.495   5.455   2.861
10465SOL     OW32293   5.650   3.284   2.180
10465SOL    HW132294   5.562   3.332   2.189
10465SOL    HW232295   5.664   3.260   2.084
10466SOL     OW32296   5.488   4.939   6.295
10466SOL    HW132297   5.584   4.928   6.321
10466SOL    HW232298   5.432   4.944   6.378
10467SOL     OW32299   2.059   2.891   6.696
10467SOL    HW132300   1.996   2.960   6.659
10467SOL    HW232301   2.153   2.915   6.671
10468SOL     OW32302   2.523   4.894   3.769
10468SOL    HW132303   2.514   4.990   3.797
10468SOL    HW232304   2.594   4.850   3.824
10469SOL     OW32305   5.695   2.399   5.321
10469SOL    HW132306   5.793   2.385   5.337
10469SOL    HW232307   5.644   2.365   5.400
10470SOL     OW32308   2.317   2.409   3.919
10470SOL    HW132309   2.221   2.381   3.914
10470SOL    HW232310   2.354   2.415   3.827
10471SOL     OW32311   2.693   0.888   0.278
10471SOL    HW132312   2.735   0.804   0.312
10471SOL    HW232313   2.593   0.880   0.282
10472SOL     OW32314   3.646   5.173   0.384
10472SOL    HW132315   3.686   5.134   0.467
10472SOL    HW232316   3.718   5.191   0.317
10473SOL     OW32317   5.527   5.622   6.427
10473SOL    HW132318   5.548   5.719   6.439
10473SOL    HW232319   5.427   5.610   6.425
10474SOL     OW32320   5.153   1.007   3.776
10474SOL    HW132321   5.172   0.925   3.722
10474SOL    HW232322   5.237   1.040   3.819
10475SOL     OW32323   2.162   6.066   2.067
10475SOL    HW132324   2.160   6.131   2.143
10475SOL    HW232325   2.246   6.078   2.014
10476SOL     OW32326   3.942   6.301   0.099
10476SOL    HW132327   3.946   6.308   0.199
10476SOL    HW232328   3.854   6.263   0.072
10477SOL     OW32329   6.921   6.311   4.031
10477SOL    HW132330   6.963   6.224   4.057
10477SOL    HW232331   6.823   6.297   4.015
10478SOL     OW32332   5.970   6.816   0.291
10478SOL    HW132333   5.932   6.858   0.373
10478SOL    HW232334   6.023   6.885   0.240
10479SOL     OW32335   6.881   2.437   2.924
10479SOL    HW132336   6.903   2.382   3.004
10479SOL    HW232337   6.786   2.468   2.930
10480SOL     OW32338   1.599   6.794   2.323
10480SOL    HW132339   1.537   6.869   2.343
10480SOL    HW232340   1.573   6.751   2.237
10481SOL     OW32341   0.882   6.913   3.078
10481SOL    HW132342   0.957   6.978   3.068
10481SOL    HW232343   0.891   6.841   3.009
10482SOL     OW32344   5.900   4.222   4.151
10482SOL    HW132345   5.877   4.209   4.055
10482SOL    HW232346   5.845   4.161   4.207
10483SOL     OW32347   5.857   5.469   0.067
10483SOL    HW132348   5.791   5.504   0.001
10483SOL    HW232349   5.835   5.374   0.090
10484SOL     OW32350   5.798   0.983   0.812
10484SOL    HW132351   5.857   1.026   0.879
10484SOL    HW232352   5.774   1.050   0.741
10485SOL     OW32353   4.114   4.346   6.208
10485SOL    HW132354   4.164   4.289   6.273
10485SOL    HW232355   4.115   4.302   6.118
10486SOL     OW32356   6.610   2.872   0.518
10486SOL    HW132357   6.537   2.806   0.534
10486SOL    HW232358   6.576   2.964   0.538
10487SOL     OW32359   5.829   6.493   1.568
10487SOL    HW132360   5.735   6.486   1.535
10487SOL    HW232361   5.870   6.402   1.572
10488SOL     OW32362   2.746   3.222   6.131
10488SOL    HW132363   2.783   3.303   6.086
10488SOL    HW232364   2.679   3.250   6.199
10489SOL     OW32365   0.687   6.403   6.020
10489SOL    HW132366   0.683   6.472   5.947
10489SOL    HW232367   0.775   6.410   6.067
10490SOL     OW32368   6.104   1.353   3.432
10490SOL    HW132369   6.021   1.299   3.448
10490SOL    HW232370   6.090   1.415   3.355
10491SOL     OW32371   1.677   3.957   6.022
10491SOL    HW132372   1.635   3.904   5.948
10491SOL    HW232373   1.763   3.996   5.990
10492SOL     OW32374   4.917   3.666   5.280
10492SOL    HW132375   4.859   3.621   5.212
10492SOL    HW232376   4.988   3.719   5.233
10493SOL     OW32377   3.472   0.717   1.236
10493SOL    HW132378   3.403   0.771   1.189
10493SOL    HW232379   3.433   0.677   1.319
10494SOL     OW32380   5.547   2.380   4.414
10494SOL    HW132381   5.508   2.415   4.329
10494SOL    HW232382   5.567   2.456   4.475
10495SOL     OW32383   1.856   6.688   0.918
10495SOL    HW132384   1.774   6.633   0.902
10495SOL    HW232385   1.863   6.709   1.016
10496SOL     OW32386   0.279   6.880   0.517
10496SOL    HW132387   0.299   6.793   0.473
10496SOL    HW232388   0.197   6.871   0.573
10497SOL     OW32389   1.495   0.340   0.995
10497SOL    HW132390   1.499   0.361   0.897
10497SOL    HW232391   1.415   0.385   1.035
10498SOL     OW32392   2.628   0.021   0.201
10498SOL    HW132393   2.677   6.954   0.193
10498SOL    HW232394   2.693   0.093   0.224
10499SOL     OW32395   2.746   6.418   3.193
10499SOL    HW132396   2.689   6.440   3.115
10499SOL    HW232397   2.765   6.320   3.195
10500SOL     OW32398   0.087   1.673   5.849
10500SOL    HW132399   7.018   1.653   5.891
10500SOL    HW232400   0.155   1.608   5.883
10501SOL     OW32401   2.209   5.038   2.818
10501SOL    HW132402   2.111   5.053   2.825
10501SOL    HW232403   2.231   4.947   2.854
10502SOL     OW32404   3.071   6.982   1.019
10502SOL    HW132405   3.134   6.908   0.993
10502SOL    HW232406   3.095   7.015   1.110
10503SOL     OW32407   4.054   2.917   0.523
10503SOL    HW132408   4.137   2.864   0.535
10503SOL    HW232409   4.078   3.013   0.506
10504SOL     OW32410   1.575   2.921   0.088
10504SOL    HW132411   1.588   2.984   0.164
10504SOL    HW232412   1.661   2.908   0.040
10505SOL     OW32413   5.771   5.943   0.949
10505SOL    HW132414   5.844   5.935   0.881
10505SOL    HW232415   5.781   5.870   1.017
10506SOL     OW32416   0.307   4.541   6.422
10506SOL    HW132417   0.223   4.567   6.469
10506SOL    HW232418   0.285   4.489   6.340
10507SOL     OW32419   2.017   0.311   0.239
10507SOL    HW132420   1.982   0.324   0.146
10507SOL    HW232421   1.991   0.220   0.272
10508SOL     OW32422   5.388   5.274   3.389
10508SOL    HW132423   5.459   5.216   3.428
10508SOL    HW232424   5.428   5.362   3.361
10509SOL     OW32425   0.899   6.637   6.535
10509SOL    HW132426   0.857   6.728   6.544
10509SOL    HW232427   0.925   6.604   6.626
10510SOL     OW32428   6.131   4.862   6.310
10510SOL    HW132429   6.141   4.847   6.408
10510SOL    HW232430   6.036   4.847   6.283
10511SOL     OW32431   4.462   3.245   0.824
10511SOL    HW132432   4.419   3.185   0.891
10511SOL    HW232433   4.426   3.338   0.835
10512SOL     OW32434   4.389   1.014   6.431
10512SOL    HW132435   4.332   1.027   6.350
10512SOL    HW232436   4.343   1.052   6.511
10513SOL     OW32437   6.855   2.175   6.143
10513SOL    HW132438   6.927   2.201   6.079
10513SOL    HW232439   6.892   2.175   6.236
10514SOL     OW32440   6.331   4.264   0.688
10514SOL    HW132441   6.243   4.276   0.642
10514SOL    HW232442   6.337   4.172   0.725
10515SOL     OW32443   6.661   2.097   3.088
10515SOL    HW132444   6.583   2.138   3.040
10515SOL    HW232445   6.631   2.062   3.177
10516SOL     OW32446   4.794   0.768   6.333
10516SOL    HW132447   4.782   0.728   6.424
10516SOL    HW232448   4.820   0.864   6.342
10517SOL     OW32449   0.205   2.155   2.118
10517SOL    HW132450   0.156   2.211   2.185
10517SOL    HW232451   0.291   2.123   2.158
10518SOL     OW32452   1.171   5.104   0.105
10518SOL    HW132453   1.083   5.151   0.108
10518SOL    HW232454   1.157   5.007   0.086
10519SOL     OW32455   3.186   2.889   5.531
10519SOL    HW132456   3.178   2.810   5.593
10519SOL    HW232457   3.114   2.955   5.551
10520SOL     OW32458   2.886   2.912   6.575
10520SOL    HW132459   2.869   3.006   6.604
10520SOL    HW232460   2.978   2.884   6.602
10521SOL     OW32461   6.448   6.416   1.167
10521SOL    HW132462   6.479   6.455   1.254
10521SOL    HW232463   6.506   6.339   1.143
10522SOL     OW32464   6.676   0.679   0.151
10522SOL    HW132465   6.698   0.741   0.075
10522SOL    HW232466   6.665   0.733   0.234
10523SOL     OW32467   0.312   6.016   4.433
10523SOL    HW132468   0.265   5.931   4.411
10523SOL    HW232469   0.356   6.008   4.522
10524SOL     OW32470   1.801   0.409   4.904
10524SOL    HW132471   1.733   0.336   4.896
10524SOL    HW232472   1.758   0.497   4.883
10525SOL     OW32473   3.080   6.313   5.500
10525SOL    HW132474   3.123   6.242   5.555
10525SOL    HW232475   3.038   6.381   5.560
10526SOL     OW32476   0.314   0.541   2.612
10526SOL    HW132477   0.230   0.517   2.563
10526SOL    HW232478   0.318   0.640   2.624
10527SOL     OW32479   1.265   2.654   4.433
10527SOL    HW132480   1.319   2.695   4.507
10527SOL    HW232481   1.282   2.555   4.431
10528SOL     OW32482   1.478   4.450   5.187
10528SOL    HW132483   1.424   4.410   5.261
10528SOL    HW232484   1.508   4.378   5.124
10529SOL     OW32485   1.027   5.759   2.371
10529SOL    HW132486   0.942   5.803   2.398
10529SOL    HW232487   1.035   5.762   2.271
10530SOL     OW32488   2.271   1.743   6.493
10530SOL    HW132489   2.178   1.760   6.459
10530SOL    HW232490   2.307   1.827   6.535
10531SOL     OW32491   2.104   3.692   4.334
10531SOL    HW132492   2.137   3.623   4.270
10531SOL    HW232493   2.049   3.760   4.285
10532SOL     OW32494   2.066   2.919   0.337
10532SOL    HW132495   2.043   2.881   0.248
10532SOL    HW232496   2.165   2.925   0.347
10533SOL     OW32497   2.800   1.535   4.400
10533SOL    HW132498   2.819   1.591   4.319
10533SOL    HW232499   2.720   1.477   4.382
10534SOL     OW32500   7.003   5.785   0.897
10534SOL    HW132501   0.008   5.869   0.946
10534SOL    HW232502   0.024   5.786   0.806
10535SOL     OW32503   7.015   1.614   2.400
10535SOL    HW132504   0.016   1.712   2.401
10535SOL    HW232505   0.073   1.563   2.436
10536SOL     OW32506   3.920   0.385   2.664
10536SOL    HW132507   3.932   0.310   2.598
10536SOL    HW232508   3.922   0.348   2.757
10537SOL     OW32509   3.274   5.456   3.401
10537SOL    HW132510   3.330   5.380   3.433
10537SOL    HW232511   3.177   5.432   3.409
10538SOL     OW32512   4.279   3.398   6.648
10538SOL    HW132513   4.236   3.329   6.589
10538SOL    HW232514   4.334   3.460   6.592
10539SOL     OW32515   0.405   3.742   6.662
10539SOL    HW132516   0.472   3.736   6.588
10539SOL    HW232517   0.445   3.706   6.747
10540SOL     OW32518   1.490   0.665   5.944
10540SOL    HW132519   1.541   0.597   5.996
10540SOL    HW232520   1.554   0.728   5.899
10541SOL     OW32521   3.454   3.819   1.516
10541SOL    HW132522   3.429   3.908   1.477
10541SOL    HW232523   3.476   3.830   1.613
10542SOL     OW32524   6.969   1.538   0.621
10542SOL    HW132525   6.870   1.528   0.628
10542SOL    HW232526   6.999   1.516   0.528
10543SOL     OW32527   6.888   1.557   5.516
10543SOL    HW132528   6.960   1.545   5.584
10543SOL    HW232529   6.927   1.545   5.424
10544SOL     OW32530   2.517   1.624   2.543
10544SOL    HW132531   2.492   1.706   2.491
10544SOL    HW232532   2.540   1.550   2.480
10545SOL     OW32533   6.881   6.660   2.202
10545SOL    HW132534   6.935   6.589   2.247
10545SOL    HW232535   6.828   6.620   2.128
10546SOL     OW32536   1.612   0.327   5.180
10546SOL    HW132537   1.578   0.419   5.160
10546SOL    HW232538   1.712   0.327   5.176
10547SOL     OW32539   4.992   1.241   2.701
10547SOL    HW132540   4.921   1.308   2.725
10547SOL    HW232541   4.995   1.231   2.602
10548SOL     OW32542   5.339   3.681   4.628
10548SOL    HW132543   5.371   3.689   4.723
10548SOL    HW232544   5.391   3.743   4.570
10549SOL     OW32545   6.727   0.397   2.490
10549SOL    HW132546   6.754   0.477   2.438
10549SOL    HW232547   6.640   0.362   2.455
10550SOL     OW32548   4.642   6.606   4.305
10550SOL    HW132549   4.708   6.653   4.247
10550SOL    HW232550   4.561   6.663   4.317
10551SOL     OW32551   1.683   2.348   4.908
10551SOL    HW132552   1.627   2.405   4.847
10551SOL    HW232553   1.724   2.406   4.978
10552SOL     OW32554   3.937   1.709   5.073
10552SOL    HW132555   3.842   1.738   5.084
10552SOL    HW232556   3.964   1.652   5.151
10553SOL     OW32557   1.031   4.878   1.188
10553SOL    HW132558   0.942   4.839   1.166
10553SOL    HW232559   1.094   4.861   1.112
10554SOL     OW32560   6.039   4.623   6.872
10554SOL    HW132561   5.950   4.638   6.916
10554SOL    HW232562   6.112   4.633   6.940
10555SOL     OW32563   3.308   2.188   1.633
10555SOL    HW132564   3.353   2.229   1.554
10555SOL    HW232565   3.229   2.135   1.603
10556SOL     OW32566   2.048   3.150   4.814
10556SOL    HW132567   2.102   3.066   4.813
10556SOL    HW232568   2.101   3.225   4.774
10557SOL     OW32569   0.717   2.293   3.425
10557SOL    HW132570   0.714   2.345   3.510
10557SOL    HW232571   0.763   2.206   3.441
10558SOL     OW32572   4.416   0.274   5.107
10558SOL    HW132573   4.323   0.238   5.118
10558SOL    HW232574   4.432   0.346   5.174
10559SOL     OW32575   4.225   1.474   1.323
10559SOL    HW132576   4.130   1.458   1.350
10559SOL    HW232577   4.237   1.448   1.228
10560SOL     OW32578   1.917   5.441   5.165
10560SOL    HW132579   1.853   5.501   5.117
10560SOL    HW232580   2.005   5.487   5.174
10561SOL     OW32581   2.213   4.945   0.431
10561SOL    HW132582   2.146   4.920   0.361
10561SOL    HW232583   2.305   4.928   0.396
10562SOL     OW32584   4.961   6.967   0.792
10562SOL    HW132585   4.903   6.886   0.777
10562SOL    HW232586   4.947   7.001   0.885
10563SOL     OW32587   1.776   1.014   4.551
10563SOL    HW132588   1.809   0.952   4.622
10563SOL    HW232589   1.851   1.039   4.491
10564SOL     OW32590   5.479   6.858   1.580
10564SOL    HW132591   5.427   6.777   1.608
10564SOL    HW232592   5.506   6.849   1.484
10565SOL     OW32593   0.492   1.093   5.570
10565SOL    HW132594   0.531   1.094   5.662
10565SOL    HW232595   0.444   1.179   5.554
10566SOL     OW32596   3.894   3.833   6.684
10566SOL    HW132597   3.918   3.768   6.756
10566SOL    HW232598   3.846   3.785   6.611
10567SOL     OW32599   2.105   3.463   4.171
10567SOL    HW132600   2.137   3.478   4.077
10567SOL    HW232601   2.013   3.500   4.181
10568SOL     OW32602   5.646   1.380   2.616
10568SOL    HW132603   5.561   1.396   2.666
10568SOL    HW232604   5.657   1.452   2.547
10569SOL     OW32605   6.651   3.287   2.327
10569SOL    HW132606   6.677   3.351   2.255
10569SOL    HW232607   6.637   3.196   2.288
10570SOL     OW32608   1.299   4.358   2.636
10570SOL    HW132609   1.279   4.447   2.676
10570SOL    HW232610   1.323   4.293   2.708
10571SOL     OW32611   6.572   5.478   3.428
10571SOL    HW132612   6.558   5.411   3.355
10571SOL    HW232613   6.593   5.430   3.514
10572SOL     OW32614   5.963   3.926   3.107
10572SOL    HW132615   5.902   3.969   3.040
10572SOL    HW232616   5.976   3.830   3.083
10573SOL     OW32617   5.953   6.436   2.928
10573SOL    HW132618   6.019   6.403   2.861
10573SOL    HW232619   5.921   6.527   2.903
10574SOL     OW32620   1.783   1.960   3.607
10574SOL    HW132621   1.870   1.948   3.654
10574SOL    HW232622   1.765   1.879   3.550
10575SOL     OW32623   0.365   0.278   3.747
10575SOL    HW132624   0.329   0.368   3.771
10575SOL    HW232625   0.465   0.279   3.752
10576SOL     OW32626   0.872   6.738   4.779
10576SOL    HW132627   0.779   6.713   4.751
10576SOL    HW232628   0.914   6.792   4.706
10577SOL     OW32629   1.366   3.206   6.398
10577SOL    HW132630   1.383   3.167   6.489
10577SOL    HW232631   1.353   3.132   6.332
10578SOL     OW32632   6.323   1.219   4.896
10578SOL    HW132633   6.398   1.158   4.873
10578SOL    HW232634   6.259   1.171   4.957
10579SOL     OW32635   4.435   1.164   1.061
10579SOL    HW132636   4.520   1.196   1.102
10579SOL    HW232637   4.431   1.064   1.066
10580SOL     OW32638   6.713   6.849   6.638
10580SOL    HW132639   6.746   6.936   6.601
10580SOL    HW232640   6.649   6.807   6.574
10581SOL     OW32641   6.250   0.181   2.734
10581SOL    HW132642   6.309   0.156   2.657
10581SOL    HW232643   6.248   0.105   2.800
10582SOL     OW32644   3.769   4.754   6.985
10582SOL    HW132645   3.706   4.763   6.907
10582SOL    HW232646   3.861   4.734   6.951
10583SOL     OW32647   4.111   0.817   6.743
10583SOL    HW132648   4.080   0.746   6.805
10583SOL    HW232649   4.159   0.776   6.666
10584SOL     OW32650   5.026   6.323   1.203
10584SOL    HW132651   5.057   6.391   1.270
10584SOL    HW232652   5.009   6.236   1.249
10585SOL     OW32653   1.846   2.942   5.745
10585SOL    HW132654   1.819   2.980   5.657
10585SOL    HW232655   1.820   2.845   5.749
10586SOL     OW32656   1.995   5.902   5.985
10586SOL    HW132657   1.993   6.002   5.987
10586SOL    HW232658   1.969   5.870   5.894
10587SOL     OW32659   5.619   3.058   0.505
10587SOL    HW132660   5.526   3.056   0.542
10587SOL    HW232661   5.637   3.148   0.466
10588SOL     OW32662   1.267   4.002   1.736
10588SOL    HW132663   1.364   4.026   1.735
10588SOL    HW232664   1.212   4.084   1.753
10589SOL     OW32665   5.824   1.793   4.121
10589SOL    HW132666   5.789   1.725   4.056
10589SOL    HW232667   5.748   1.832   4.172
10590SOL     OW32668   1.483   6.723   2.079
10590SOL    HW132669   1.410   6.662   2.048
10590SOL    HW232670   1.472   6.813   2.038
10591SOL     OW32671   1.800   1.678   6.225
10591SOL    HW132672   1.793   1.583   6.193
10591SOL    HW232673   1.719   1.701   6.277
10592SOL     OW32674   5.193   1.950   0.056
10592SOL    HW132675   5.161   1.994   6.992
10592SOL    HW232676   5.115   1.912   0.106
10593SOL     OW32677   2.864   6.358   0.910
10593SOL    HW132678   2.775   6.336   0.870
10593SOL    HW232679   2.872   6.457   0.924
10594SOL     OW32680   6.338   1.707   3.918
10594SOL    HW132681   6.272   1.780   3.939
10594SOL    HW232682   6.412   1.709   3.986
10595SOL     OW32683   3.434   0.081   6.011
10595SOL    HW132684   3.351   0.135   6.023
10595SOL    HW232685   3.418   7.007   6.042
10596SOL     OW32686   3.935   6.970   1.651
10596SOL    HW132687   3.929   6.894   1.715
10596SOL    HW232688   3.896   6.942   1.563
10597SOL     OW32689   2.590   1.304   4.563
10597SOL    HW132690   2.645   1.355   4.630
10597SOL    HW232691   2.641   1.294   4.478
10598SOL     OW32692   2.319   2.426   6.586
10598SOL    HW132693   2.405   2.442   6.634
10598SOL    HW232694   2.242   2.438   6.649
10599SOL     OW32695   5.484   1.318   0.029
10599SOL    HW132696   5.464   1.367   6.964
10599SOL    HW232697   5.446   1.369   0.107
10600SOL     OW32698   2.163   3.545   6.719
10600SOL    HW132699   2.254   3.546   6.761
10600SOL    HW232700   2.149   3.457   6.673
10601SOL     OW32701   3.051   5.368   6.020
10601SOL    HW132702   2.952   5.376   6.014
10601SOL    HW232703   3.082   5.399   6.110
10602SOL     OW32704   5.254   1.516   1.936
10602SOL    HW132705   5.215   1.577   2.005
10602SOL    HW232706   5.217   1.540   1.846
10603SOL     OW32707   1.328   6.518   3.717
10603SOL    HW132708   1.292   6.472   3.636
10603SOL    HW232709   1.383   6.454   3.770
10604SOL     OW32710   5.866   4.409   4.529
10604SOL    HW132711   5.789   4.433   4.587
10604SOL    HW232712   5.936   4.480   4.535
10605SOL     OW32713   0.701   4.941   0.208
10605SOL    HW132714   0.671   5.008   0.276
10605SOL    HW232715   0.624   4.881   0.184
10606SOL     OW32716   6.565   0.813   1.493
10606SOL    HW132717   6.579   0.911   1.509
10606SOL    HW232718   6.641   0.762   1.534
10607SOL     OW32719   3.659   4.549   6.051
10607SOL    HW132720   3.673   4.648   6.055
10607SOL    HW232721   3.732   4.503   6.100
10608SOL     OW32722   5.998   1.749   4.741
10608SOL    HW132723   6.059   1.709   4.810
10608SOL    HW232724   6.026   1.844   4.724
10609SOL     OW32725   3.368   6.018   1.353
10609SOL    HW132726   3.465   5.996   1.362
10609SOL    HW232727   3.333   5.982   1.266
10610SOL     OW32728   1.038   4.066   6.711
10610SOL    HW132729   1.082   4.009   6.641
10610SOL    HW232730   1.106   4.092   6.779
10611SOL     OW32731   5.834   3.213   6.785
10611SOL    HW132732   5.875   3.209   6.877
10611SOL    HW232733   5.907   3.217   6.717
10612SOL     OW32734   2.482   0.001   6.515
10612SOL    HW132735   2.486   0.101   6.508
10612SOL    HW232736   2.431   6.996   6.598
10613SOL     OW32737   6.381   0.201   5.879
10613SOL    HW132738   6.479   0.183   5.876
10613SOL    HW232739   6.348   0.190   5.973
10614SOL     OW32740   6.570   0.497   3.954
10614SOL    HW132741   6.626   0.556   4.011
10614SOL    HW232742   6.578   0.525   3.858
10615SOL     OW32743   4.299   5.508   5.590
10615SOL    HW132744   4.235   5.432   5.578
10615SOL    HW232745   4.385   5.485   5.544
10616SOL     OW32746   2.854   6.539   0.256
10616SOL    HW132747   2.852   6.472   0.330
10616SOL    HW232748   2.889   6.497   0.173
10617SOL     OW32749   1.934   2.370   0.632
10617SOL    HW132750   2.028   2.337   0.623
10617SOL    HW232751   1.904   2.359   0.726
10618SOL     OW32752   6.143   2.678   0.436
10618SOL    HW132753   6.125   2.756   0.375
10618SOL    HW232754   6.074   2.674   0.507
10619SOL     OW32755   0.842   4.041   3.248
10619SOL    HW132756   0.924   3.989   3.271
10619SOL    HW232757   0.866   4.137   3.234
10620SOL     OW32758   1.193   5.904   5.607
10620SOL    HW132759   1.119   5.879   5.545
10620SOL    HW232760   1.270   5.841   5.595
10621SOL     OW32761   1.756   5.673   0.158
10621SOL    HW132762   1.696   5.753   0.157
10621SOL    HW232763   1.850   5.701   0.142
10622SOL     OW32764   4.580   0.799   2.135
10622SOL    HW132765   4.630   0.882   2.162
10622SOL    HW232766   4.635   0.746   2.070
10623SOL     OW32767   5.782   2.565   3.599
10623SOL    HW132768   5.741   2.565   3.507
10623SOL    HW232769   5.761   2.479   3.644
10624SOL     OW32770   1.112   1.411   5.333
10624SOL    HW132771   1.107   1.407   5.233
10624SOL    HW232772   1.025   1.446   5.369
10625SOL     OW32773   0.527   4.371   6.866
10625SOL    HW132774   0.507   4.277   6.897
10625SOL    HW232775   0.567   4.423   6.941
10626SOL     OW32776   1.539   2.173   1.750
10626SOL    HW132777   1.565   2.085   1.709
10626SOL    HW232778   1.621   2.229   1.762
10627SOL     OW32779   6.511   6.162   2.435
10627SOL    HW132780   6.569   6.117   2.503
10627SOL    HW232781   6.488   6.254   2.466
10628SOL     OW32782   6.045   5.322   5.372
10628SOL    HW132783   5.966   5.261   5.379
10628SOL    HW232784   6.063   5.364   5.461
10629SOL     OW32785   2.423   4.661   6.139
10629SOL    HW132786   2.419   4.719   6.058
10629SOL    HW232787   2.488   4.586   6.123
10630SOL     OW32788   6.274   0.271   3.639
10630SOL    HW132789   6.209   0.223   3.578
10630SOL    HW232790   6.235   0.276   3.731
10631SOL     OW32791   1.294   6.805   4.386
10631SOL    HW132792   1.305   6.899   4.354
10631SOL    HW232793   1.299   6.743   4.308
10632SOL     OW32794   6.214   2.179   4.637
10632SOL    HW132795   6.252   2.134   4.718
10632SOL    HW232796   6.206   2.112   4.563
10633SOL     OW32797   2.426   4.571   1.112
10633SOL    HW132798   2.381   4.488   1.080
10633SOL    HW232799   2.449   4.629   1.034
10634SOL     OW32800   2.929   5.764   0.374
10634SOL    HW132801   2.873   5.796   0.297
10634SOL    HW232802   2.890   5.680   0.411
10635SOL     OW32803   3.558   1.222   1.006
10635SOL    HW132804   3.548   1.249   1.102
10635SOL    HW232805   3.468   1.215   0.964
10636SOL     OW32806   0.482   1.777   1.115
10636SOL    HW132807   0.425   1.696   1.098
10636SOL    HW232808   0.426   1.859   1.108
10637SOL     OW32809   3.113   3.933   5.367
10637SOL    HW132810   3.132   3.844   5.326
10637SOL    HW232811   3.044   3.980   5.313
10638SOL     OW32812   0.490   6.511   4.042
10638SOL    HW132813   0.531   6.596   4.075
10638SOL    HW232814   0.560   6.453   4.000
10639SOL     OW32815   0.516   1.381   4.276
10639SOL    HW132816   0.525   1.475   4.242
10639SOL    HW232817   0.567   1.372   4.362
10640SOL     OW32818   4.492   0.227   0.047
10640SOL    HW132819   4.537   0.168   0.114
10640SOL    HW232820   4.421   0.174   7.020
10641SOL     OW32821   4.869   1.711   0.064
10641SOL    HW132822   4.958   1.712   0.110
10641SOL    HW232823   4.837   1.617   0.055
10642SOL     OW32824   0.320   2.235   1.251
10642SOL    HW132825   0.338   2.186   1.336
10642SOL    HW232826   0.249   2.303   1.266
10643SOL     OW32827   2.386   3.788   5.637
10643SOL    HW132828   2.422   3.802   5.729
10643SOL    HW232829   2.432   3.850   5.574
10644SOL     OW32830   4.436   1.866   3.962
10644SOL    HW132831   4.408   1.845   4.055
10644SOL    HW232832   4.464   1.962   3.956
10645SOL     OW32833   0.998   0.806   4.836
10645SOL    HW132834   0.955   0.895   4.821
10645SOL    HW232835   0.997   0.784   4.933
10646SOL     OW32836   0.344   2.786   5.931
10646SOL    HW132837   0.252   2.753   5.950
10646SOL    HW232838   0.393   2.800   6.017
10647SOL     OW32839   6.248   5.232   0.057
10647SOL    HW132840   6.224   5.263   0.149
10647SOL    HW232841   6.346   5.242   0.043
10648SOL     OW32842   5.046   3.634   6.781
10648SOL    HW132843   5.118   3.591   6.726
10648SOL    HW232844   5.013   3.716   6.734
10649SOL     OW32845   0.074   4.940   4.583
10649SOL    HW132846   7.002   4.961   4.550
10649SOL    HW232847   0.097   5.001   4.659
10650SOL     OW32848   2.055   6.428   3.981
10650SOL    HW132849   2.128   6.374   3.938
10650SOL    HW232850   2.078   6.525   3.976
10651SOL     OW32851   4.430   0.105   5.615
10651SOL    HW132852   4.476   0.072   5.533
10651SOL    HW232853   4.374   0.031   5.653
10652SOL     OW32854   3.203   0.182   6.115
10652SOL    HW132855   3.164   0.269   6.085
10652SOL    HW232856   3.182   0.168   6.212
10653SOL     OW32857   5.096   4.413   4.585
10653SOL    HW132858   5.166   4.401   4.515
10653SOL    HW232859   5.091   4.331   4.642
10654SOL     OW32860   2.784   0.284   1.547
10654SOL    HW132861   2.707   0.221   1.559
10654SOL    HW232862   2.860   0.236   1.504
10655SOL     OW32863   3.117   5.402   2.076
10655SOL    HW132864   3.112   5.309   2.112
10655SOL    HW232865   3.160   5.400   1.985
10656SOL     OW32866   6.077   2.235   6.887
10656SOL    HW132867   6.020   2.275   6.816
10656SOL    HW232868   6.172   2.263   6.873
10657SOL     OW32869   5.883   6.905   0.956
10657SOL    HW132870   5.820   6.930   1.030
10657SOL    HW232871   5.918   6.987   0.912
10658SOL     OW32872   1.335   4.779   4.848
10658SOL    HW132873   1.371   4.725   4.924
10658SOL    HW232874   1.387   4.863   4.839
10659SOL     OW32875   5.765   6.717   0.714
10659SOL    HW132876   5.688   6.758   0.763
10659SOL    HW232877   5.767   6.618   0.729
10660SOL     OW32878   4.731   3.681   5.813
10660SOL    HW132879   4.765   3.754   5.873
10660SOL    HW232880   4.680   3.721   5.737
10661SOL     OW32881   0.129   6.721   1.937
10661SOL    HW132882   0.085   6.661   2.004
10661SOL    HW232883   0.077   6.718   1.851
10662SOL     OW32884   0.003   1.195   0.607
10662SOL    HW132885   6.987   1.118   0.659
10662SOL    HW232886   0.071   1.243   0.661
10663SOL     OW32887   0.432   0.316   1.871
10663SOL    HW132888   0.338   0.332   1.842
10663SOL    HW232889   0.494   0.372   1.816
10664SOL     OW32890   2.103   4.018   0.202
10664SOL    HW132891   2.075   4.032   0.107
10664SOL    HW232892   2.054   4.081   0.262
10665SOL     OW32893   0.406   1.824   0.186
10665SOL    HW132894   0.374   1.769   0.263
10665SOL    HW232895   0.329   1.872   0.145
10666SOL     OW32896   3.620   5.568   6.857
10666SOL    HW132897   3.534   5.532   6.821
10666SOL    HW232898   3.603   5.654   6.904
10667SOL     OW32899   3.846   1.925   5.310
10667SOL    HW132900   3.882   1.962   5.396
10667SOL    HW232901   3.749   1.905   5.321
10668SOL     OW32902   1.504   1.948   6.248
10668SOL    HW132903   1.488   1.852   6.267
10668SOL    HW232904   1.439   2.004   6.299
10669SOL     OW32905   1.041   0.044   0.636
10669SOL    HW132906   1.091   0.059   0.721
10669SOL    HW232907   1.102   0.063   0.559
10670SOL     OW32908   5.663   4.644   5.857
10670SOL    HW132909   5.657   4.656   5.758
10670SOL    HW232910   5.573   4.621   5.893
10671SOL     OW32911   2.372   2.634   2.902
10671SOL    HW132912   2.290   2.614   2.848
10671SOL    HW232913   2.363   2.595   2.993
10672SOL     OW32914   0.356   2.290   0.295
10672SOL    HW132915   0.363   2.344   0.212
10672SOL    HW232916   0.443   2.242   0.311
10673SOL     OW32917   2.738   2.896   5.466
10673SOL    HW132918   2.759   2.805   5.502
10673SOL    HW232919   2.640   2.905   5.454
10674SOL     OW32920   3.854   3.866   0.853
10674SOL    HW132921   3.916   3.808   0.905
10674SOL    HW232922   3.906   3.936   0.805
10675SOL     OW32923   0.042   0.370   6.027
10675SOL    HW132924   0.072   0.462   6.053
10675SOL    HW232925   0.067   0.305   6.099
10676SOL     OW32926   6.093   0.545   6.129
10676SOL    HW132927   6.030   0.609   6.085
10676SOL    HW232928   6.070   0.452   6.100
10677SOL     OW32929   0.250   0.708   2.265
10677SOL    HW132930   0.314   0.632   2.276
10677SOL    HW232931   0.301   0.792   2.248
10678SOL     OW32932   2.804   5.398   2.599
10678SOL    HW132933   2.900   5.390   2.626
10678SOL    HW232934   2.748   5.346   2.663
10679SOL     OW32935   6.148   5.431   4.335
10679SOL    HW132936   6.049   5.428   4.348
10679SOL    HW232937   6.194   5.402   4.419
10680SOL     OW32938   1.395   3.039   2.533
10680SOL    HW132939   1.444   3.030   2.446
10680SOL    HW232940   1.299   3.061   2.515
10681SOL     OW32941   6.175   3.647   6.167
10681SOL    HW132942   6.131   3.681   6.249
10681SOL    HW232943   6.189   3.548   6.175
10682SOL     OW32944   0.857   1.635   2.664
10682SOL    HW132945   0.890   1.728   2.675
10682SOL    HW232946   0.854   1.612   2.567
10683SOL     OW32947   1.597   2.186   4.621
10683SOL    HW132948   1.638   2.115   4.678
10683SOL    HW232949   1.638   2.274   4.643
10684SOL     OW32950   6.088   3.977   0.548
10684SOL    HW132951   5.995   3.942   0.553
10684SOL    HW232952   6.131   3.971   0.638
10685SOL     OW32953   0.714   3.821   3.533
10685SOL    HW132954   0.662   3.736   3.520
10685SOL    HW232955   0.786   3.827   3.464
10686SOL     OW32956   3.470   6.326   0.060
10686SOL    HW132957   3.385   6.289   0.023
10686SOL    HW232958   3.449   6.401   0.122
10687SOL     OW32959   0.043   4.731   2.746
10687SOL    HW132960   7.010   4.794   2.803
10687SOL    HW232961   0.098   4.783   2.681
10688SOL     OW32962   0.032   4.558   2.164
10688SOL    HW132963   0.016   4.575   2.262
10688SOL    HW232964   7.008   4.472   2.138
10689SOL     OW32965   0.036   0.619   2.708
10689SOL    HW132966   6.993   0.638   2.784
10689SOL    HW232967   0.062   0.523   2.710
10690SOL     OW32968   4.235   5.699   2.339
10690SOL    HW132969   4.137   5.711   2.351
10690SOL    HW232970   4.253   5.662   2.247
10691SOL     OW32971   6.928   0.981   1.404
10691SOL    HW132972   6.940   1.069   1.450
10691SOL    HW232973   6.953   0.991   1.308
10692SOL     OW32974   3.713   6.305   3.702
10692SOL    HW132975   3.702   6.253   3.787
10692SOL    HW232976   3.776   6.257   3.641
10693SOL     OW32977   0.327   1.665   1.419
10693SOL    HW132978   0.409   1.610   1.437
10693SOL    HW232979   0.297   1.649   1.325
10694SOL     OW32980   3.629   5.949   1.467
10694SOL    HW132981   3.691   5.970   1.391
10694SOL    HW232982   3.639   6.019   1.538
10695SOL     OW32983   0.594   2.490   4.314
10695SOL    HW132984   0.585   2.551   4.235
10695SOL    HW232985   0.511   2.495   4.369
10696SOL     OW32986   0.039   6.159   1.279
10696SOL    HW132987   0.117   6.159   1.341
10696SOL    HW232988   7.003   6.240   1.295
10697SOL     OW32989   0.655   6.322   3.940
10697SOL    HW132990   0.622   6.299   3.848
10697SOL    HW232991   0.709   6.246   3.976
10698SOL     OW32992   2.884   0.160   3.310
10698SOL    HW132993   2.929   0.247   3.331
10698SOL    HW232994   2.827   0.133   3.387
10699SOL     OW32995   4.035   1.688   2.727
10699SOL    HW132996   3.992   1.761   2.673
10699SOL    HW232997   4.108   1.645   2.674
10700SOL     OW32998   6.952   6.421   1.149
10700SOL    HW132999   6.884   6.494   1.138
10700SOL    HW233000   0.015   6.445   1.098
10701SOL     OW33001   3.680   6.185   0.066
10701SOL    HW133002   3.649   6.099   0.106
10701SOL    HW233003   3.601   6.246   0.054
10702SOL     OW33004   6.067   2.474   0.080
10702SOL    HW133005   6.032   2.402   0.020
10702SOL    HW233006   6.106   2.433   0.163
10703SOL     OW33007   3.987   3.879   3.411
10703SOL    HW133008   3.923   3.802   3.414
10703SOL    HW233009   4.062   3.863   3.476
10704SOL     OW33010   5.123   0.439   2.208
10704SOL    HW133011   5.029   0.435   2.173
10704SOL    HW233012   5.174   0.511   2.160
10705SOL     OW33013   1.216   3.326   6.098
10705SOL    HW133014   1.158   3.307   6.178
10705SOL    HW233015   1.241   3.422   6.097
10706SOL     OW33016   4.078   0.851   1.692
10706SOL    HW133017   3.992   0.821   1.650
10706SOL    HW233018   4.061   0.873   1.788
10707SOL     OW33019   6.116   6.814   5.679
10707SOL    HW133020   6.172   6.783   5.755
10707SOL    HW233021   6.133   6.912   5.663
10708SOL     OW33022   5.018   1.041   0.824
10708SOL    HW133023   4.974   0.982   0.757
10708SOL    HW233024   5.117   1.024   0.824
10709SOL     OW33025   6.062   6.956   5.329
10709SOL    HW133026   5.973   7.001   5.317
10709SOL    HW233027   6.086   6.908   5.245
10710SOL     OW33028   6.019   6.002   3.594
10710SOL    HW133029   5.987   6.031   3.503
10710SOL    HW233030   5.965   6.048   3.664
10711SOL     OW33031   1.689   6.951   4.416
10711SOL    HW133032   1.774   6.898   4.420
10711SOL    HW233033   1.671   6.977   4.321
10712SOL     OW33034   3.920   0.905   4.846
10712SOL    HW133035   3.885   0.914   4.752
10712SOL    HW233036   3.843   0.902   4.909
10713SOL     OW33037   2.271   6.085   1.666
10713SOL    HW133038   2.289   6.180   1.641
10713SOL    HW233039   2.273   6.075   1.765
10714SOL     OW33040   0.433   5.321   4.929
10714SOL    HW133041   0.490   5.317   5.011
10714SOL    HW233042   0.448   5.239   4.873
10715SOL     OW33043   4.791   2.016   4.012
10715SOL    HW133044   4.885   2.026   4.044
10715SOL    HW233045   4.783   1.931   3.960
10716SOL     OW33046   6.304   0.776   4.121
10716SOL    HW133047   6.309   0.833   4.038
10716SOL    HW233048   6.280   0.682   4.095
10717SOL     OW33049   6.795   0.624   1.596
10717SOL    HW133050   6.867   0.685   1.628
10717SOL    HW233051   6.794   0.542   1.654
10718SOL     OW33052   6.548   5.190   6.461
10718SOL    HW133053   6.567   5.251   6.385
10718SOL    HW233054   6.550   5.241   6.547
10719SOL     OW33055   5.738   1.042   1.944
10719SOL    HW133056   5.644   1.061   1.919
10719SOL    HW233057   5.791   1.127   1.946
10720SOL     OW33058   0.296   3.438   6.637
10720SOL    HW133059   0.367   3.508   6.622
10720SOL    HW233060   0.275   3.393   6.550
10721SOL     OW33061   6.078   2.284   4.316
10721SOL    HW133062   5.999   2.328   4.356
10721SOL    HW233063   6.102   2.202   4.368
10722SOL     OW33064   6.516   3.575   0.456
10722SOL    HW133065   6.423   3.566   0.493
10722SOL    HW233066   6.526   3.665   0.414
10723SOL     OW33067   5.500   4.179   6.849
10723SOL    HW133068   5.529   4.197   6.755
10723SOL    HW233069   5.581   4.160   6.905
10724SOL     OW33070   4.017   6.438   6.240
10724SOL    HW133071   4.070   6.507   6.191
10724SOL    HW233072   4.034   6.348   6.200
10725SOL     OW33073   0.473   6.083   4.153
10725SOL    HW133074   0.558   6.033   4.170
10725SOL    HW233075   0.418   6.084   4.237
10726SOL     OW33076   5.805   0.193   4.417
10726SOL    HW133077   5.871   0.159   4.485
10726SOL    HW233078   5.738   0.122   4.397
10727SOL     OW33079   2.161   5.588   5.897
10727SOL    HW133080   2.118   5.581   5.987
10727SOL    HW233081   2.210   5.503   5.877
10728SOL     OW33082   4.545   6.583   3.038
10728SOL    HW133083   4.628   6.575   3.093
10728SOL    HW233084   4.566   6.560   2.943
10729SOL     OW33085   6.135   2.600   2.911
10729SOL    HW133086   6.055   2.651   2.943
10729SOL    HW233087   6.158   2.530   2.978
10730SOL     OW33088   1.608   6.777   2.589
10730SOL    HW133089   1.604   6.780   2.489
10730SOL    HW233090   1.522   6.743   2.625
10731SOL     OW33091   3.337   6.666   0.119
10731SOL    HW133092   3.269   6.629   0.055
10731SOL    HW233093   3.325   6.623   0.208
10732SOL     OW33094   5.753   5.920   2.846
10732SOL    HW133095   5.759   5.853   2.920
10732SOL    HW233096   5.795   6.006   2.875
10733SOL     OW33097   6.296   1.164   6.040
10733SOL    HW133098   6.327   1.173   5.945
10733SOL    HW233099   6.362   1.209   6.101
10734SOL     OW33100   1.800   1.066   6.190
10734SOL    HW133101   1.708   1.026   6.186
10734SOL    HW233102   1.864   0.999   6.226
10735SOL     OW33103   1.596   4.953   1.822
10735SOL    HW133104   1.541   4.925   1.744
10735SOL    HW233105   1.682   4.993   1.790
10736SOL     OW33106   6.829   7.002   3.476
10736SOL    HW133107   6.860   6.923   3.423
10736SOL    HW233108   6.908   0.033   3.510
10737SOL     OW33109   6.970   1.262   1.468
10737SOL    HW133110   6.903   1.288   1.399
10737SOL    HW233111   0.031   1.321   1.460
10738SOL     OW33112   2.730   0.606   2.955
10738SOL    HW133113   2.732   0.536   2.884
10738SOL    HW233114   2.820   0.647   2.965
10739SOL     OW33115   5.943   1.874   2.481
10739SOL    HW133116   5.996   1.790   2.469
10739SOL    HW233117   5.846   1.852   2.488
10740SOL     OW33118   1.653   6.652   5.782
10740SOL    HW133119   1.683   6.623   5.691
10740SOL    HW233120   1.662   6.752   5.789
10741SOL     OW33121   1.742   2.666   3.312
10741SOL    HW133122   1.721   2.680   3.408
10741SOL    HW233123   1.660   2.637   3.263
10742SOL     OW33124   6.200   5.587   2.425
10742SOL    HW133125   6.274   5.652   2.443
10742SOL    HW233126   6.147   5.572   2.508
10743SOL     OW33127   3.432   1.143   5.345
10743SOL    HW133128   3.525   1.107   5.342
10743SOL    HW233129   3.386   1.123   5.258
10744SOL     OW33130   2.704   0.339   0.884
10744SOL    HW133131   2.714   0.365   0.981
10744SOL    HW233132   2.610   0.308   0.868
10745SOL     OW33133   2.085   4.547   1.153
10745SOL    HW133134   2.010   4.543   1.218
10745SOL    HW233135   2.116   4.454   1.133
10746SOL     OW33136   1.972   6.444   6.770
10746SOL    HW133137   1.892   6.500   6.790
10746SOL    HW233138   1.987   6.441   6.671
10747SOL     OW33139   6.680   2.006   4.264
10747SOL    HW133140   6.716   1.941   4.331
10747SOL    HW233141   6.754   2.035   4.203
10748SOL     OW33142   3.983   5.252   1.118
10748SOL    HW133143   4.062   5.203   1.155
10748SOL    HW233144   4.001   5.278   1.023
10749SOL     OW33145   6.540   5.114   2.979
10749SOL    HW133146   6.472   5.182   2.950
10749SOL    HW233147   6.617   5.116   2.916
10750SOL     OW33148   4.735   2.768   3.898
10750SOL    HW133149   4.656   2.708   3.895
10750SOL    HW233150   4.761   2.785   3.994
10751SOL     OW33151   1.118   4.041   5.117
10751SOL    HW133152   1.029   4.027   5.074
10751SOL    HW233153   1.126   3.982   5.198
10752SOL     OW33154   5.757   6.149   0.680
10752SOL    HW133155   5.729   6.111   0.768
10752SOL    HW233156   5.676   6.172   0.626
10753SOL     OW33157   5.242   6.139   4.072
10753SOL    HW133158   5.206   6.196   3.998
10753SOL    HW233159   5.252   6.194   4.155
10754SOL     OW33160   1.552   2.944   2.042
10754SOL    HW133161   1.597   3.030   2.019
10754SOL    HW233162   1.600   2.868   1.998
10755SOL     OW33163   6.447   2.937   0.859
10755SOL    HW133164   6.417   3.014   0.803
10755SOL    HW233165   6.547   2.931   0.858
10756SOL     OW33166   0.318   2.858   0.713
10756SOL    HW133167   0.360   2.934   0.764
10756SOL    HW233168   0.233   2.890   0.671
10757SOL     OW33169   6.316   4.317   1.112
10757SOL    HW133170   6.219   4.338   1.101
10757SOL    HW233171   6.330   4.218   1.104
10758SOL     OW33172   0.464   6.663   6.799
10758SOL    HW133173   0.472   6.759   6.827
10758SOL    HW233174   0.369   6.642   6.778
10759SOL     OW33175   2.165   2.012   6.789
10759SOL    HW133176   2.082   2.055   6.755
10759SOL    HW233177   2.146   1.916   6.812
10760SOL     OW33178   0.338   5.624   0.060
10760SOL    HW133179   0.403   5.681   0.009
10760SOL    HW233180   0.247   5.667   0.057
10761SOL     OW33181   0.659   1.655   6.167
10761SOL    HW133182   0.593   1.719   6.205
10761SOL    HW233183   0.748   1.670   6.210
10762SOL     OW33184   4.105   0.323   5.652
10762SOL    HW133185   4.028   0.291   5.596
10762SOL    HW233186   4.096   0.287   5.744
10763SOL     OW33187   5.543   0.143   3.069
10763SOL    HW133188   5.485   0.065   3.049
10763SOL    HW233189   5.573   0.140   3.164
10764SOL     OW33190   4.431   1.381   5.181
10764SOL    HW133191   4.465   1.364   5.088
10764SOL    HW233192   4.438   1.298   5.235
10765SOL     OW33193   6.422   2.365   2.754
10765SOL    HW133194   6.363   2.436   2.714
10765SOL    HW233195   6.454   2.304   2.681
10766SOL     OW33196   1.255   4.885   6.844
10766SOL    HW133197   1.212   4.814   6.788
10766SOL    HW233198   1.215   4.884   6.936
10767SOL     OW33199   1.728   5.830   0.943
10767SOL    HW133200   1.693   5.737   0.951
10767SOL    HW233201   1.769   5.843   0.852
10768SOL     OW33202   5.833   6.157   0.309
10768SOL    HW133203   5.789   6.073   0.276
10768SOL    HW233204   5.871   6.142   0.400
10769SOL     OW33205   2.913   3.611   5.075
10769SOL    HW133206   2.912   3.594   4.977
10769SOL    HW233207   2.999   3.578   5.113
10770SOL     OW33208   5.592   6.670   4.341
10770SOL    HW133209   5.687   6.693   4.362
10770SOL    HW233210   5.532   6.725   4.399
10771SOL     OW33211   5.254   6.335   5.673
10771SOL    HW133212   5.189   6.410   5.672
10771SOL    HW233213   5.256   6.291   5.583
10772SOL     OW33214   5.872   5.086   3.217
10772SOL    HW133215   5.790   5.121   3.173
10772SOL    HW233216   5.847   5.046   3.306
10773SOL     OW33217   6.782   4.514   0.950
10773SOL    HW133218   6.824   4.546   0.865
10773SOL    HW233219   6.806   4.418   0.966
10774SOL     OW33220   1.032   2.178   1.143
10774SOL    HW133221   1.037   2.242   1.220
10774SOL    HW233222   1.004   2.228   1.061
10775SOL     OW33223   1.488   4.427   0.860
10775SOL    HW133224   1.428   4.405   0.937
10775SOL    HW233225   1.503   4.345   0.805
10776SOL     OW33226   6.979   0.844   3.059
10776SOL    HW133227   0.058   0.842   3.068
10776SOL    HW233228   6.939   0.875   3.145
10777SOL     OW33229   2.994   0.954   3.011
10777SOL    HW133230   3.017   0.859   2.992
10777SOL    HW233231   2.896   0.968   2.999
10778SOL     OW33232   6.279   6.497   3.963
10778SOL    HW133233   6.188   6.533   3.985
10778SOL    HW233234   6.321   6.554   3.892
10779SOL     OW33235   5.714   4.079   4.272
10779SOL    HW133236   5.620   4.105   4.296
10779SOL    HW233237   5.728   3.982   4.292
10780SOL     OW33238   0.979   5.906   4.719
10780SOL    HW133239   1.071   5.866   4.729
10780SOL    HW233240   0.931   5.902   4.806
10781SOL     OW33241   5.786   2.679   4.811
10781SOL    HW133242   5.776   2.599   4.871
10781SOL    HW233243   5.882   2.702   4.802
10782SOL     OW33244   0.904   3.160   5.496
10782SOL    HW133245   0.916   3.086   5.562
10782SOL    HW233246   0.837   3.132   5.427
10783SOL     OW33247   0.856   2.303   2.583
10783SOL    HW133248   0.921   2.373   2.555
10783SOL    HW233249   0.805   2.271   2.503
10784SOL     OW33250   3.262   6.055   2.336
10784SOL    HW133251   3.211   5.987   2.284
10784SOL    HW233252   3.319   6.009   2.404
10785SOL     OW33253   1.825   5.478   2.422
10785SOL    HW133254   1.794   5.545   2.489
10785SOL    HW233255   1.769   5.483   2.340
10786SOL     OW33256   4.974   1.756   2.374
10786SOL    HW133257   5.009   1.780   2.464
10786SOL    HW233258   4.965   1.656   2.367
10787SOL     OW33259   3.372   1.046   3.633
10787SOL    HW133260   3.432   1.126   3.629
10787SOL    HW233261   3.277   1.076   3.644
10788SOL     OW33262   0.426   4.283   0.154
10788SOL    HW133263   0.462   4.364   0.200
10788SOL    HW233264   0.502   4.224   0.127
10789SOL     OW33265   6.051   1.256   0.146
10789SOL    HW133266   6.143   1.227   0.122
10789SOL    HW233267   5.989   1.239   0.070
10790SOL     OW33268   0.431   2.219   4.789
10790SOL    HW133269   0.502   2.157   4.823
10790SOL    HW233270   0.457   2.313   4.808
10791SOL     OW33271   1.815   1.608   2.854
10791SOL    HW133272   1.733   1.569   2.896
10791SOL    HW233273   1.790   1.686   2.797
10792SOL     OW33274   3.933   2.362   1.327
10792SOL    HW133275   3.999   2.373   1.400
10792SOL    HW233276   3.851   2.316   1.362
10793SOL     OW33277   4.766   1.914   4.988
10793SOL    HW133278   4.836   1.968   5.035
10793SOL    HW233279   4.691   1.896   5.052
10794SOL     OW33280   4.406   3.171   1.704
10794SOL    HW133281   4.455   3.131   1.781
10794SOL    HW233282   4.428   3.269   1.698
10795SOL     OW33283   0.020   3.651   3.255
10795SOL    HW133284   0.009   3.551   3.256
10795SOL    HW233285   0.064   3.679   3.170
10796SOL     OW33286   6.480   6.417   6.567
10796SOL    HW133287   6.546   6.366   6.624
10796SOL    HW233288   6.396   6.430   6.619
10797SOL     OW33289   4.213   3.381   0.846
10797SOL    HW133290   4.210   3.284   0.820
10797SOL    HW233291   4.162   3.395   0.931
10798SOL     OW33292   2.891   6.991   6.367
10798SOL    HW133293   2.833   6.932   6.423
10798SOL    HW233294   2.976   6.943   6.345
10799SOL     OW33295   2.948   1.384   2.832
10799SOL    HW133296   2.988   1.342   2.913
10799SOL    HW233297   2.986   1.341   2.750
10800SOL     OW33298   1.697   0.414   6.154
10800SOL    HW133299   1.726   0.318   6.163
10800SOL    HW233300   1.598   0.420   6.165
10801SOL     OW33301   2.264   5.791   6.336
10801SOL    HW133302   2.169   5.805   6.308
10801SOL    HW233303   2.299   5.708   6.294
10802SOL     OW33304   0.954   3.368   4.433
10802SOL    HW133305   0.980   3.428   4.508
10802SOL    HW233306   0.903   3.420   4.364
10803SOL     OW33307   6.468   4.835   5.176
10803SOL    HW133308   6.496   4.901   5.106
10803SOL    HW233309   6.384   4.790   5.147
10804SOL     OW33310   5.485   4.757   2.010
10804SOL    HW133311   5.443   4.824   2.072
10804SOL    HW233312   5.507   4.674   2.061
10805SOL     OW33313   4.407   6.877   0.593
10805SOL    HW133314   4.310   6.854   0.592
10805SOL    HW233315   4.421   6.968   0.554
10806SOL     OW33316   5.573   3.924   0.075
10806SOL    HW133317   5.660   3.921   0.026
10806SOL    HW233318   5.534   3.832   0.077
10807SOL     OW33319   3.893   6.304   3.152
10807SOL    HW133320   3.892   6.206   3.172
10807SOL    HW233321   3.821   6.350   3.203
10808SOL     OW33322   0.178   3.039   5.639
10808SOL    HW133323   0.095   3.028   5.693
10808SOL    HW233324   0.255   3.060   5.700
10809SOL     OW33325   2.389   0.389   3.553
10809SOL    HW133326   2.393   0.299   3.596
10809SOL    HW233327   2.296   0.407   3.520
10810SOL     OW33328   0.173   1.330   5.275
10810SOL    HW133329   0.160   1.301   5.370
10810SOL    HW233330   0.154   1.252   5.214
10811SOL     OW33331   4.636   4.900   5.065
10811SOL    HW133332   4.602   4.882   4.973
10811SOL    HW233333   4.589   4.840   5.130
10812SOL     OW33334   6.220   2.567   2.675
10812SOL    HW133335   6.196   2.588   2.770
10812SOL    HW233336   6.139   2.534   2.626
10813SOL     OW33337   2.814   6.000   1.946
10813SOL    HW133338   2.848   6.082   1.992
10813SOL    HW233339   2.889   5.955   1.899
10814SOL     OW33340   2.019   0.447   5.072
10814SOL    HW133341   2.029   0.547   5.072
10814SOL    HW233342   1.939   0.422   5.019
10815SOL     OW33343   5.058   4.149   3.166
10815SOL    HW133344   4.966   4.171   3.198
10815SOL    HW233345   5.062   4.053   3.139
10816SOL     OW33346   1.627   0.934   2.228
10816SOL    HW133347   1.717   0.939   2.185
10816SOL    HW233348   1.557   0.955   2.161
10817SOL     OW33349   4.810   0.083   2.388
10817SOL    HW133350   4.881   0.040   2.444
10817SOL    HW233351   4.732   0.106   2.446
10818SOL     OW33352   4.882   2.836   7.018
10818SOL    HW133353   4.882   2.844   6.918
10818SOL    HW233354   4.790   2.856   0.033
10819SOL     OW33355   6.891   4.493   6.662
10819SOL    HW133356   6.875   4.530   6.753
10819SOL    HW233357   6.980   4.524   6.628
10820SOL     OW33358   0.231   6.548   4.009
10820SOL    HW133359   0.331   6.540   4.007
10820SOL    HW233360   0.197   6.516   4.097
10821SOL     OW33361   6.633   0.543   0.990
10821SOL    HW133362   6.709   0.599   0.958
10821SOL    HW233363   6.647   0.521   1.087
10822SOL     OW33364   0.624   3.812   2.368
10822SOL    HW133365   0.632   3.879   2.442
10822SOL    HW233366   0.535   3.824   2.323
10823SOL     OW33367   2.139   6.114   1.212
10823SOL    HW133368   2.219   6.069   1.251
10823SOL    HW233369   2.056   6.080   1.257
10824SOL     OW33370   5.278   0.602   2.628
10824SOL    HW133371   5.349   0.606   2.557
10824SOL    HW233372   5.320   0.620   2.717
10825SOL     OW33373   3.670   1.003   0.883
10825SOL    HW133374   3.761   0.995   0.923
10825SOL    HW233375   3.629   1.090   0.910
10826SOL     OW33376   0.287   3.296   2.444
10826SOL    HW133377   0.322   3.311   2.536
10826SOL    HW233378   0.187   3.298   2.446
10827SOL     OW33379   7.004   2.990   4.385
10827SOL    HW133380   6.945   2.964   4.309
10827SOL    HW233381   6.949   2.997   4.469
10828SOL     OW33382   1.491   5.435   0.513
10828SOL    HW133383   1.559   5.504   0.490
10828SOL    HW233384   1.532   5.365   0.572
10829SOL     OW33385   3.247   3.938   2.213
10829SOL    HW133386   3.163   3.925   2.159
10829SOL    HW233387   3.226   3.991   2.295
10830SOL     OW33388   5.234   2.945   4.530
10830SOL    HW133389   5.324   2.907   4.509
10830SOL    HW233390   5.232   3.042   4.505
10831SOL     OW33391   5.302   1.346   3.174
10831SOL    HW133392   5.351   1.259   3.164
10831SOL    HW233393   5.311   1.400   3.091
10832SOL     OW33394   0.616   2.053   0.518
10832SOL    HW133395   0.533   2.108   0.523
10832SOL    HW233396   0.689   2.098   0.569
10833SOL     OW33397   2.514   0.483   4.459
10833SOL    HW133398   2.562   0.396   4.455
10833SOL    HW233399   2.580   0.556   4.479
10834SOL     OW33400   1.057   1.764   5.529
10834SOL    HW133401   1.117   1.843   5.544
10834SOL    HW233402   1.062   1.737   5.433
10835SOL     OW33403   5.582   1.682   2.371
10835SOL    HW133404   5.558   1.713   2.279
10835SOL    HW233405   5.663   1.623   2.367
10836SOL     OW33406   1.876   1.822   6.537
10836SOL    HW133407   1.903   1.728   6.558
10836SOL    HW233408   1.928   1.855   6.458
10837SOL     OW33409   6.632   4.586   0.634
10837SOL    HW133410   6.605   4.516   0.700
10837SOL    HW233411   6.599   4.562   0.543
10838SOL     OW33412   5.858   6.826   6.333
10838SOL    HW133413   5.901   6.741   6.364
10838SOL    HW233414   5.803   6.808   6.251
10839SOL     OW33415   1.849   2.302   0.251
10839SOL    HW133416   1.860   2.222   0.310
10839SOL    HW233417   1.842   2.384   0.308
10840SOL     OW33418   3.832   5.170   1.803
10840SOL    HW133419   3.742   5.198   1.834
10840SOL    HW233420   3.827   5.077   1.767
10841SOL     OW33421   3.938   5.441   5.604
10841SOL    HW133422   3.918   5.455   5.701
10841SOL    HW233423   4.025   5.394   5.593
10842SOL     OW33424   6.009   3.564   1.295
10842SOL    HW133425   5.943   3.617   1.348
10842SOL    HW233426   6.101   3.600   1.313
10843SOL     OW33427   0.524   1.582   2.246
10843SOL    HW133428   0.571   1.650   2.301
10843SOL    HW233429   0.590   1.532   2.190
10844SOL     OW33430   5.057   0.509   3.281
10844SOL    HW133431   5.024   0.592   3.237
10844SOL    HW233432   5.157   0.505   3.275
10845SOL     OW33433   1.127   1.148   1.333
10845SOL    HW133434   1.144   1.246   1.338
10845SOL    HW233435   1.082   1.117   1.416
10846SOL     OW33436   4.182   1.954   1.053
10846SOL    HW133437   4.093   1.956   1.007
10846SOL    HW233438   4.169   1.967   1.152
10847SOL     OW33439   3.890   2.534   6.284
10847SOL    HW133440   3.968   2.578   6.239
10847SOL    HW233441   3.813   2.529   6.221
10848SOL     OW33442   0.780   1.007   0.149
10848SOL    HW133443   0.806   1.061   0.229
10848SOL    HW233444   0.758   1.067   0.073
10849SOL     OW33445   3.061   5.355   4.626
10849SOL    HW133446   2.977   5.310   4.596
10849SOL    HW233447   3.065   5.352   4.726
10850SOL     OW33448   5.085   6.496   0.499
10850SOL    HW133449   5.184   6.500   0.483
10850SOL    HW233450   5.065   6.523   0.593
10851SOL     OW33451   3.321   2.143   6.724
10851SOL    HW133452   3.303   2.195   6.807
10851SOL    HW233453   3.240   2.146   6.665
10852SOL     OW33454   0.514   0.961   6.421
10852SOL    HW133455   0.494   0.900   6.497
10852SOL    HW233456   0.612   0.980   6.418
10853SOL     OW33457   2.692   1.516   4.723
10853SOL    HW133458   2.761   1.476   4.783
10853SOL    HW233459   2.728   1.601   4.684
10854SOL     OW33460   6.694   6.619   6.801
10854SOL    HW133461   6.744   6.547   6.755
10854SOL    HW233462   6.691   6.701   6.743
10855SOL     OW33463   1.646   6.194   1.583
10855SOL    HW133464   1.711   6.151   1.646
10855SOL    HW233465   1.694   6.219   1.499
10856SOL     OW33466   6.167   6.925   6.886
10856SOL    HW133467   6.122   6.866   6.953
10856SOL    HW233468   6.099   6.981   6.840
10857SOL     OW33469   5.877   1.390   3.815
10857SOL    HW133470   5.957   1.450   3.819
10857SOL    HW233471   5.839   1.392   3.723
10858SOL     OW33472   1.585   3.264   0.043
10858SOL    HW133473   1.680   3.236   0.031
10858SOL    HW233474   1.542   3.275   6.974
10859SOL     OW33475   0.980   4.303   2.781
10859SOL    HW133476   0.889   4.266   2.763
10859SOL    HW233477   0.987   4.330   2.877
10860SOL     OW33478   6.145   1.647   0.019
10860SOL    HW133479   6.050   1.680   0.022
10860SOL    HW233480   6.204   1.712   0.066
10861SOL     OW33481   3.278   2.965   1.633
10861SOL    HW133482   3.362   2.937   1.587
10861SOL    HW233483   3.287   2.947   1.731
10862SOL     OW33484   3.466   2.822   5.589
10862SOL    HW133485   3.553   2.838   5.635
10862SOL    HW233486   3.396   2.882   5.629
10863SOL     OW33487   2.426   1.269   2.914
10863SOL    HW133488   2.376   1.352   2.939
10863SOL    HW233489   2.499   1.252   2.980
10864SOL     OW33490   2.546   4.561   2.068
10864SOL    HW133491   2.629   4.613   2.050
10864SOL    HW233492   2.556   4.468   2.034
10865SOL     OW33493   4.241   1.992   3.138
10865SOL    HW133494   4.321   2.012   3.194
10865SOL    HW233495   4.160   2.035   3.179
10866SOL     OW33496   0.228   4.081   2.874
10866SOL    HW133497   0.308   4.036   2.913
10866SOL    HW233498   0.252   4.175   2.849
10867SOL     OW33499   3.604   3.263   0.619
10867SOL    HW133500   3.644   3.337   0.672
10867SOL    HW233501   3.558   3.198   0.680
10868SOL     OW33502   1.382   1.817   3.955
10868SOL    HW133503   1.377   1.721   3.928
10868SOL    HW233504   1.427   1.824   4.044
10869NA      NA33505   0.099   2.136   5.755
10870NA      NA33506   4.250   4.639   5.285
10871NA      NA33507   1.103   5.332   2.548
10872NA      NA33508   5.422   4.072   3.767
10873NA      NA33509   4.286   2.387   5.253
10874NA      NA33510   2.418   5.363   0.876
10875NA      NA33511   1.166   5.318   6.783
10876NA      NA33512   3.387   4.336   1.029
10877NA      NA33513   4.428   5.152   0.960
10878NA      NA33514   3.595   1.265   6.447
10879NA      NA33515   5.406   5.845   1.866
10880NA      NA33516   1.740   6.729   5.461
10881NA      NA33517   4.300   5.107   1.581
10882NA      NA33518   3.314   3.207   6.782
   7.02005   7.02005   7.02005
