Generated by trjconv : CNT in water t= 272.00000
33518
    1C        C    1   2.847   2.772   4.748
    1C        C    2   2.899   2.721   4.869
    1C        C    3   2.851   2.778   4.988
    1C        C    4   2.851   2.778   4.264
    1C        C    5   2.900   2.726   4.386
    1C        C    6   2.843   2.773   4.506
    1C        C    7   3.014   2.641   4.626
    1C        C    8   2.899   2.723   4.626
    1C        C    9   3.078   2.601   4.745
    1C        C   10   3.008   2.632   4.863
    1C        C   11   3.180   2.493   4.977
    1C        C   12   3.057   2.560   4.973
    1C        C   13   2.855   2.776   3.775
    1C        C   14   2.906   2.731   3.899
    1C        C   15   2.849   2.780   4.019
    1C        C   16   3.022   2.655   4.137
    1C        C   17   2.905   2.734   4.140
    1C        C   18   3.086   2.627   4.259
    1C        C   19   3.020   2.651   4.382
    1C        C   20   3.211   2.562   4.503
    1C        C   21   3.078   2.609   4.504
    1C        C   22   3.282   2.539   4.624
    1C        C   23   3.209   2.545   4.744
    1C        C   24   3.412   2.490   4.863
    1C        C   25   3.269   2.498   4.865
    1C        C   26   3.489   2.477   4.979
    1C        C   27   2.854   2.776   3.282
    1C        C   28   2.905   2.731   3.406
    1C        C   29   2.850   2.772   3.530
    1C        C   30   3.017   2.640   3.653
    1C        C   31   2.904   2.726   3.652
    1C        C   32   3.080   2.605   3.774
    1C        C   33   3.021   2.648   3.895
    1C        C   34   3.214   2.558   4.018
    1C        C   35   3.086   2.617   4.017
    1C        C   36   3.284   2.544   4.140
    1C        C   37   3.216   2.572   4.261
    1C        C   38   3.418   2.509   4.382
    1C        C   39   3.280   2.538   4.382
    1C        C   40   3.490   2.499   4.502
    1C        C   41   3.417   2.499   4.623
    1C        C   42   3.630   2.477   4.745
    1C        C   43   3.488   2.479   4.744
    1C        C   44   3.703   2.486   4.865
    1C        C   45   3.628   2.480   4.983
    1C        C   46   2.839   2.762   2.796
    1C        C   47   2.897   2.717   2.917
    1C        C   48   2.845   2.768   3.038
    1C        C   49   3.019   2.645   3.165
    1C        C   50   2.904   2.727   3.159
    1C        C   51   3.081   2.612   3.288
    1C        C   52   3.018   2.646   3.409
    1C        C   53   3.211   2.556   3.528
    1C        C   54   3.081   2.611   3.530
    1C        C   55   3.278   2.532   3.650
    1C        C   56   3.210   2.550   3.772
    1C        C   57   3.417   2.505   3.896
    1C        C   58   3.279   2.532   3.895
    1C        C   59   3.490   2.501   4.017
    1C        C   60   3.422   2.513   4.140
    1C        C   61   3.633   2.491   4.260
    1C        C   62   3.492   2.498   4.262
    1C        C   63   3.702   2.503   4.383
    1C        C   64   3.631   2.506   4.505
    1C        C   65   3.840   2.536   4.623
    1C        C   66   3.703   2.499   4.626
    1C        C   67   3.907   2.552   4.746
    1C        C   68   3.841   2.519   4.866
    1C        C   69   4.054   2.585   4.978
    1C        C   70   3.922   2.536   4.979
    1C        C   71   2.825   2.735   2.310
    1C        C   72   2.883   2.694   2.432
    1C        C   73   2.836   2.749   2.553
    1C        C   74   3.008   2.628   2.673
    1C        C   75   2.891   2.707   2.676
    1C        C   76   3.073   2.601   2.795
    1C        C   77   3.017   2.641   2.918
    1C        C   78   3.207   2.551   3.039
    1C        C   79   3.078   2.609   3.042
    1C        C   80   3.277   2.535   3.161
    1C        C   81   3.210   2.555   3.284
    1C        C   82   3.415   2.502   3.405
    1C        C   83   3.276   2.529   3.406
    1C        C   84   3.485   2.495   3.527
    1C        C   85   3.416   2.501   3.650
    1C        C   86   3.627   2.505   3.772
    1C        C   87   3.486   2.496   3.773
    1C        C   88   3.699   2.513   3.893
    1C        C   89   3.631   2.503   4.017
    1C        C   90   3.839   2.544   4.135
    1C        C   91   3.703   2.507   4.138
    1C        C   92   3.906   2.566   4.258
    1C        C   93   3.838   2.539   4.379
    1C        C   94   4.031   2.628   4.500
    1C        C   95   3.907   2.560   4.501
    1C        C   96   4.089   2.672   4.621
    1C        C   97   4.031   2.621   4.740
    1C        C   98   4.189   2.764   4.861
    1C        C   99   4.098   2.654   4.861
    1C        C  100   4.216   2.841   4.975
    1C        C  101   2.819   2.734   2.070
    1C        C  102   2.989   2.595   2.189
    1C        C  103   2.877   2.685   2.188
    1C        C  104   3.065   2.579   2.308
    1C        C  105   3.002   2.617   2.429
    1C        C  106   3.201   2.542   2.548
    1C        C  107   3.070   2.595   2.550
    1C        C  108   3.269   2.522   2.670
    1C        C  109   3.202   2.542   2.793
    1C        C  110   3.409   2.498   2.916
    1C        C  111   3.270   2.525   2.915
    1C        C  112   3.481   2.488   3.037
    1C        C  113   3.414   2.502   3.161
    1C        C  114   3.626   2.494   3.278
    1C        C  115   3.485   2.489   3.283
    1C        C  116   3.694   2.506   3.401
    1C        C  117   3.627   2.497   3.526
    1C        C  118   3.832   2.543   3.646
    1C        C  119   3.696   2.507   3.648
    1C        C  120   3.900   2.572   3.766
    1C        C  121   3.836   2.549   3.890
    1C        C  122   4.027   2.639   4.014
    1C        C  123   3.903   2.572   4.012
    1C        C  124   4.086   2.679   4.136
    1C        C  125   4.031   2.631   4.257
    1C        C  126   4.195   2.765   4.378
    1C        C  127   4.093   2.667   4.379
    1C        C  128   4.244   2.819   4.498
    1C        C  129   4.192   2.768   4.619
    1C        C  130   4.322   2.938   4.740
    1C        C  131   4.239   2.822   4.741
    1C        C  132   4.358   3.000   4.862
    1C        C  133   4.290   2.958   4.977
    1C        C  134   3.168   2.470   2.085
    1C        C  135   3.035   2.511   2.083
    1C        C  136   3.262   2.483   2.189
    1C        C  137   3.197   2.527   2.306
    1C        C  138   3.406   2.484   2.426
    1C        C  139   3.267   2.511   2.428
    1C        C  140   3.478   2.489   2.548
    1C        C  141   3.409   2.502   2.671
    1C        C  142   3.619   2.493   2.790
    1C        C  143   3.478   2.489   2.793
    1C        C  144   3.689   2.505   2.912
    1C        C  145   3.622   2.490   3.035
    1C        C  146   3.833   2.536   3.154
    1C        C  147   3.696   2.500   3.155
    1C        C  148   3.896   2.562   3.278
    1C        C  149   3.830   2.543   3.401
    1C        C  150   4.024   2.628   3.523
    1C        C  151   3.899   2.562   3.523
    1C        C  152   4.087   2.668   3.643
    1C        C  153   4.027   2.634   3.767
    1C        C  154   4.193   2.764   3.889
    1C        C  155   4.084   2.674   3.890
    1C        C  156   4.250   2.814   4.009
    1C        C  157   4.194   2.770   4.131
    1C        C  158   4.335   2.923   4.254
    1C        C  159   4.244   2.815   4.255
    1C        C  160   4.374   2.985   4.375
    1C        C  161   4.331   2.931   4.498
    1C        C  162   4.439   3.116   4.617
    1C        C  163   4.367   2.995   4.619
    1C        C  164   4.465   3.185   4.738
    1C        C  165   4.433   3.120   4.859
    1C        C  166   4.516   3.320   4.971
    1C        C  167   4.480   3.185   4.974
    1C        C  168   3.477   2.439   2.069
    1C        C  169   3.400   2.456   2.184
    1C        C  170   3.616   2.467   2.309
    1C        C  171   3.474   2.460   2.305
    1C        C  172   3.692   2.487   2.427
    1C        C  173   3.619   2.486   2.548
    1C        C  174   3.828   2.535   2.668
    1C        C  175   3.691   2.500   2.669
    1C        C  176   3.896   2.559   2.790
    1C        C  177   3.828   2.532   2.911
    1C        C  178   4.024   2.622   3.033
    1C        C  179   3.898   2.559   3.031
    1C        C  180   4.086   2.657   3.156
    1C        C  181   4.024   2.623   3.278
    1C        C  182   4.194   2.750   3.396
    1C        C  183   4.084   2.662   3.400
    1C        C  184   4.245   2.802   3.517
    1C        C  185   4.197   2.757   3.642
    1C        C  186   4.336   2.916   3.765
    1C        C  187   4.244   2.808   3.765
    1C        C  188   4.378   2.977   3.885
    1C        C  189   4.337   2.925   4.010
    1C        C  190   4.445   3.105   4.126
    1C        C  191   4.378   2.981   4.133
    1C        C  192   4.473   3.171   4.247
    1C        C  193   4.440   3.110   4.371
    1C        C  194   4.498   3.315   4.492
    1C        C  195   4.460   3.179   4.492
    1C        C  196   4.513   3.389   4.611
    1C        C  197   4.506   3.321   4.735
    1C        C  198   4.554   3.536   4.851
    1C        C  199   4.533   3.395   4.854
    1C        C  200   4.588   3.621   4.961
    1C        C  201   3.616   2.419   2.074
    1C        C  202   3.825   2.510   2.184
    1C        C  203   3.690   2.460   2.188
    1C        C  204   3.897   2.539   2.303
    1C        C  205   3.829   2.520   2.425
    1C        C  206   4.019   2.620   2.542
    1C        C  207   3.896   2.552   2.545
    1C        C  208   4.081   2.658   2.663
    1C        C  209   4.020   2.627   2.787
    1C        C  210   4.194   2.746   2.907
    1C        C  211   4.077   2.666   2.910
    1C        C  212   4.249   2.790   3.029
    1C        C  213   4.195   2.746   3.153
    1C        C  214   4.335   2.908   3.271
    1C        C  215   4.245   2.799   3.274
    1C        C  216   4.373   2.969   3.393
    1C        C  217   4.332   2.914   3.517
    1C        C  218   4.435   3.097   3.638
    1C        C  219   4.370   2.972   3.640
    1C        C  220   4.465   3.166   3.758
    1C        C  221   4.444   3.102   3.882
    1C        C  222   4.503   3.308   4.003
    1C        C  223   4.467   3.171   4.003
    1C        C  224   4.516   3.378   4.125
    1C        C  225   4.503   3.309   4.247
    1C        C  226   4.519   3.522   4.364
    1C        C  227   4.513   3.381   4.368
    1C        C  228   4.525   3.595   4.485
    1C        C  229   4.529   3.529   4.610
    1C        C  230   4.505   3.744   4.726
    1C        C  231   4.538   3.606   4.728
    1C        C  232   4.503   3.822   4.844
    1C        C  233   4.551   3.756   4.958
    1C        C  234   4.022   2.600   2.063
    1C        C  235   3.896   2.541   2.067
    1C        C  236   4.087   2.645   2.179
    1C        C  237   4.025   2.602   2.298
    1C        C  238   4.197   2.730   2.421
    1C        C  239   4.085   2.643   2.419
    1C        C  240   4.252   2.783   2.540
    1C        C  241   4.196   2.741   2.663
    1C        C  242   4.335   2.903   2.782
    1C        C  243   4.245   2.794   2.784
    1C        C  244   4.372   2.962   2.906
    1C        C  245   4.334   2.903   3.028
    1C        C  246   4.436   3.093   3.146
    1C        C  247   4.373   2.966   3.149
    1C        C  248   4.453   3.161   3.268
    1C        C  249   4.428   3.099   3.393
    1C        C  250   4.494   3.300   3.514
    1C        C  251   4.457   3.164   3.515
    1C        C  252   4.506   3.372   3.635
    1C        C  253   4.500   3.303   3.758
    1C        C  254   4.518   3.515   3.878
    1C        C  255   4.516   3.374   3.879
    1C        C  256   4.518   3.589   3.998
    1C        C  257   4.521   3.520   4.121
    1C        C  258   4.495   3.732   4.241
    1C        C  259   4.511   3.592   4.242
    1C        C  260   4.477   3.803   4.362
    1C        C  261   4.496   3.734   4.484
    1C        C  262   4.425   3.939   4.601
    1C        C  263   4.482   3.809   4.603
    1C        C  264   4.401   4.008   4.721
    1C        C  265   4.437   3.947   4.843
    1C        C  266   4.308   4.125   4.957
    1C        C  267   4.392   4.014   4.958
    1C        C  268   4.263   2.775   2.059
    1C        C  269   4.198   2.732   2.176
    1C        C  270   4.338   2.890   2.297
    1C        C  271   4.250   2.778   2.299
    1C        C  272   4.377   2.953   2.417
    1C        C  273   4.338   2.894   2.540
    1C        C  274   4.440   3.085   2.658
    1C        C  275   4.373   2.961   2.659
    1C        C  276   4.465   3.152   2.780
    1C        C  277   4.434   3.089   2.902
    1C        C  278   4.499   3.293   3.021
    1C        C  279   4.463   3.157   3.023
    1C        C  280   4.510   3.363   3.144
    1C        C  281   4.495   3.296   3.268
    1C        C  282   4.511   3.508   3.387
    1C        C  283   4.507   3.367   3.390
    1C        C  284   4.516   3.581   3.508
    1C        C  285   4.515   3.513   3.632
    1C        C  286   4.485   3.722   3.752
    1C        C  287   4.513   3.584   3.754
    1C        C  288   4.472   3.793   3.873
    1C        C  289   4.492   3.728   3.997
    1C        C  290   4.423   3.930   4.117
    1C        C  291   4.479   3.800   4.118
    1C        C  292   4.396   3.999   4.237
    1C        C  293   4.426   3.934   4.359
    1C        C  294   4.325   4.126   4.481
    1C        C  295   4.394   4.002   4.478
    1C        C  296   4.284   4.188   4.601
    1C        C  297   4.330   4.131   4.722
    1C        C  298   4.200   4.313   4.838
    1C        C  299   4.281   4.195   4.839
    1C        C  300   4.171   4.401   4.947
    1C        C  301   4.350   2.883   2.058
    1C        C  302   4.471   3.064   2.178
    1C        C  303   4.393   2.944   2.177
    1C        C  304   4.475   3.145   2.295
    1C        C  305   4.441   3.079   2.415
    1C        C  306   4.504   3.285   2.533
    1C        C  307   4.469   3.148   2.535
    1C        C  308   4.514   3.358   2.654
    1C        C  309   4.497   3.290   2.776
    1C        C  310   4.517   3.502   2.896
    1C        C  311   4.512   3.361   2.898
    1C        C  312   4.515   3.572   3.019
    1C        C  313   4.516   3.504   3.143
    1C        C  314   4.485   3.716   3.262
    1C        C  315   4.510   3.577   3.263
    1C        C  316   4.467   3.786   3.383
    1C        C  317   4.488   3.719   3.506
    1C        C  318   4.420   3.921   3.628
    1C        C  319   4.465   3.787   3.628
    1C        C  320   4.389   3.986   3.750
    1C        C  321   4.418   3.923   3.873
    1C        C  322   4.318   4.113   3.990
    1C        C  323   4.389   3.991   3.994
    1C        C  324   4.276   4.170   4.112
    1C        C  325   4.323   4.120   4.236
    1C        C  326   4.180   4.276   4.354
    1C        C  327   4.283   4.180   4.357
    1C        C  328   4.132   4.332   4.475
    1C        C  329   4.187   4.290   4.598
    1C        C  330   4.022   4.433   4.715
    1C        C  331   4.138   4.351   4.715
    1C        C  332   3.968   4.489   4.833
    1C        C  333   4.056   4.481   4.942
    1C        C  334   4.552   3.264   2.063
    1C        C  335   4.529   3.126   2.064
    1C        C  336   4.532   3.350   2.172
    1C        C  337   4.509   3.283   2.294
    1C        C  338   4.524   3.499   2.410
    1C        C  339   4.518   3.358   2.413
    1C        C  340   4.523   3.570   2.532
    1C        C  341   4.526   3.499   2.654
    1C        C  342   4.493   3.712   2.773
    1C        C  343   4.520   3.573   2.774
    1C        C  344   4.478   3.780   2.896
    1C        C  345   4.495   3.712   3.018
    1C        C  346   4.425   3.916   3.139
    1C        C  347   4.474   3.783   3.138
    1C        C  348   4.398   3.983   3.260
    1C        C  349   4.427   3.921   3.383
    1C        C  350   4.316   4.102   3.501
    1C        C  351   4.400   3.988   3.505
    1C        C  352   4.269   4.158   3.622
    1C        C  353   4.314   4.105   3.745
    1C        C  354   4.172   4.265   3.866
    1C        C  355   4.270   4.163   3.867
    1C        C  356   4.116   4.310   3.988
    1C        C  357   4.178   4.271   4.109
    1C        C  358   4.006   4.396   4.231
    1C        C  359   4.124   4.319   4.231
    1C        C  360   3.948   4.440   4.352
    1C        C  361   4.017   4.414   4.473
    1C        C  362   3.826   4.512   4.593
    1C        C  363   3.956   4.457   4.593
    1C        C  364   3.759   4.547   4.713
    1C        C  365   3.835   4.538   4.831
    1C        C  366   3.626   4.593   4.948
    1C        C  367   3.762   4.564   4.948
    1C        C  368   4.512   3.564   2.050
    1C        C  369   4.526   3.491   2.169
    1C        C  370   4.505   3.708   2.288
    1C        C  371   4.519   3.568   2.287
    1C        C  372   4.492   3.782   2.408
    1C        C  373   4.501   3.710   2.530
    1C        C  374   4.427   3.912   2.649
    1C        C  375   4.475   3.779   2.650
    1C        C  376   4.397   3.976   2.771
    1C        C  377   4.427   3.912   2.894
    1C        C  378   4.318   4.094   3.011
    1C        C  379   4.400   3.979   3.015
    1C        C  380   4.274   4.151   3.132
    1C        C  381   4.321   4.101   3.256
    1C        C  382   4.172   4.254   3.374
    1C        C  383   4.274   4.156   3.378
    1C        C  384   4.120   4.301   3.496
    1C        C  385   4.170   4.258   3.621
    1C        C  386   4.002   4.387   3.744
    1C        C  387   4.120   4.310   3.743
    1C        C  388   3.939   4.425   3.865
    1C        C  389   3.999   4.389   3.988
    1C        C  390   3.815   4.493   4.108
    1C        C  391   3.942   4.432   4.110
    1C        C  392   3.749   4.518   4.230
    1C        C  393   3.819   4.497   4.350
    1C        C  394   3.616   4.552   4.472
    1C        C  395   3.755   4.527   4.472
    1C        C  396   3.544   4.558   4.593
    1C        C  397   3.619   4.563   4.713
    1C        C  398   3.407   4.556   4.837
    1C        C  399   3.546   4.581   4.833
    1C        C  400   3.339   4.519   4.953
    1C        C  401   4.503   3.703   2.051
    1C        C  402   4.456   3.917   2.162
    1C        C  403   4.493   3.780   2.167
    1C        C  404   4.416   3.981   2.282
    1C        C  405   4.442   3.913   2.403
    1C        C  406   4.326   4.093   2.523
    1C        C  407   4.400   3.973   2.525
    1C        C  408   4.281   4.150   2.644
    1C        C  409   4.319   4.094   2.768
    1C        C  410   4.176   4.253   2.887
    1C        C  411   4.275   4.152   2.889
    1C        C  412   4.121   4.298   3.009
    1C        C  413   4.175   4.252   3.132
    1C        C  414   3.998   4.374   3.253
    1C        C  415   4.117   4.299   3.252
    1C        C  416   3.939   4.409   3.376
    1C        C  417   4.003   4.381   3.499
    1C        C  418   3.813   4.475   3.617
    1C        C  419   3.941   4.417   3.620
    1C        C  420   3.744   4.492   3.740
    1C        C  421   3.809   4.480   3.865
    1C        C  422   3.607   4.538   3.985
    1C        C  423   3.746   4.514   3.986
    1C        C  424   3.539   4.548   4.108
    1C        C  425   3.610   4.544   4.230
    1C        C  426   3.400   4.553   4.355
    1C        C  427   3.541   4.561   4.352
    1C        C  428   3.329   4.543   4.477
    1C        C  429   3.403   4.555   4.597
    1C        C  430   3.192   4.523   4.721
    1C        C  431   3.331   4.552   4.718
    1C        C  432   3.122   4.496   4.842
    1C        C  433   3.203   4.494   4.957
    1C        C  434   4.382   4.120   2.048
    1C        C  435   4.448   3.996   2.047
    1C        C  436   4.305   4.163   2.160
    1C        C  437   4.338   4.100   2.283
    1C        C  438   4.180   4.248   2.400
    1C        C  439   4.284   4.153   2.402
    1C        C  440   4.127   4.297   2.522
    1C        C  441   4.181   4.250   2.643
    1C        C  442   4.007   4.376   2.763
    1C        C  443   4.121   4.293   2.764
    1C        C  444   3.945   4.414   2.885
    1C        C  445   4.005   4.378   3.008
    1C        C  446   3.810   4.466   3.130
    1C        C  447   3.937   4.406   3.129
    1C        C  448   3.743   4.490   3.253
    1C        C  449   3.810   4.467   3.375
    1C        C  450   3.608   4.534   3.495
    1C        C  451   3.746   4.502   3.496
    1C        C  452   3.540   4.546   3.618
    1C        C  453   3.608   4.531   3.741
    1C        C  454   3.396   4.547   3.863
    1C        C  455   3.537   4.545   3.862
    1C        C  456   3.329   4.537   3.987
    1C        C  457   3.397   4.548   4.110
    1C        C  458   3.192   4.506   4.236
    1C        C  459   3.329   4.542   4.233
    1C        C  460   3.123   4.489   4.358
    1C        C  461   3.191   4.515   4.479
    1C        C  462   2.994   4.438   4.604
    1C        C  463   3.122   4.498   4.601
    1C        C  464   2.930   4.401   4.724
    1C        C  465   2.990   4.441   4.847
    1C        C  466   2.798   4.338   4.960
    1C        C  467   2.906   4.428   4.962
    1C        C  468   4.123   4.279   2.041
    1C        C  469   4.191   4.250   2.161
    1C        C  470   4.007   4.372   2.278
    1C        C  471   4.130   4.300   2.279
    1C        C  472   3.942   4.399   2.400
    1C        C  473   4.007   4.372   2.523
    1C        C  474   3.811   4.461   2.642
    1C        C  475   3.943   4.411   2.642
    1C        C  476   3.746   4.487   2.765
    1C        C  477   3.816   4.470   2.887
    1C        C  478   3.607   4.519   3.007
    1C        C  479   3.747   4.497   3.007
    1C        C  480   3.536   4.523   3.129
    1C        C  481   3.605   4.520   3.252
    1C        C  482   3.394   4.533   3.374
    1C        C  483   3.535   4.536   3.374
    1C        C  484   3.326   4.533   3.498
    1C        C  485   3.398   4.540   3.619
    1C        C  486   3.190   4.502   3.743
    1C        C  487   3.327   4.535   3.740
    1C        C  488   3.127   4.478   3.867
    1C        C  489   3.192   4.500   3.990
    1C        C  490   3.003   4.414   4.114
    1C        C  491   3.126   4.485   4.113
    1C        C  492   2.942   4.385   4.237
    1C        C  493   2.995   4.429   4.361
    1C        C  494   2.827   4.303   4.483
    1C        C  495   2.934   4.395   4.484
    1C        C  496   2.776   4.253   4.605
    1C        C  497   2.819   4.312   4.725
    1C        C  498   2.665   4.164   4.843
    1C        C  499   2.753   4.274   4.844
    1C        C  500   2.595   4.121   4.957
    1C        C  501   4.008   4.357   2.042
    1C        C  502   3.814   4.463   2.154
    1C        C  503   3.941   4.401   2.156
    1C        C  504   3.744   4.476   2.276
    1C        C  505   3.811   4.451   2.398
    1C        C  506   3.605   4.509   2.518
    1C        C  507   3.743   4.479   2.519
    1C        C  508   3.535   4.509   2.641
    1C        C  509   3.606   4.507   2.763
    1C        C  510   3.396   4.527   2.885
    1C        C  511   3.537   4.526   2.885
    1C        C  512   3.323   4.521   3.006
    1C        C  513   3.395   4.527   3.128
    1C        C  514   3.187   4.494   3.253
    1C        C  515   3.324   4.527   3.251
    1C        C  516   3.123   4.468   3.376
    1C        C  517   3.189   4.497   3.497
    1C        C  518   3.000   4.408   3.622
    1C        C  519   3.124   4.475   3.621
    1C        C  520   2.941   4.374   3.747
    1C        C  521   2.999   4.417   3.868
    1C        C  522   2.839   4.281   3.996
    1C        C  523   2.944   4.376   3.991
    1C        C  524   2.791   4.233   4.120
    1C        C  525   2.837   4.291   4.240
    1C        C  526   2.695   4.134   4.364
    1C        C  527   2.782   4.245   4.362
    1C        C  528   2.648   4.079   4.485
    1C        C  529   2.690   4.141   4.605
    1C        C  530   2.582   3.959   4.731
    1C        C  531   2.641   4.088   4.727
    1C        C  532   2.540   3.900   4.853
    1C        C  533   2.531   3.996   4.959
    1C        C  534   3.614   4.557   2.041
    1C        C  535   3.750   4.523   2.045
    1C        C  536   3.534   4.531   2.157
    1C        C  537   3.606   4.512   2.279
    1C        C  538   3.391   4.517   2.400
    1C        C  539   3.532   4.522   2.398
    1C        C  540   3.320   4.508   2.522
    1C        C  541   3.394   4.518   2.642
    1C        C  542   3.185   4.486   2.765
    1C        C  543   3.323   4.516   2.765
    1C        C  544   3.119   4.465   2.888
    1C        C  545   3.186   4.490   3.010
    1C        C  546   2.993   4.403   3.135
    1C        C  547   3.118   4.468   3.132
    1C        C  548   2.933   4.369   3.259
    1C        C  549   2.995   4.408   3.380
    1C        C  550   2.828   4.279   3.503
    1C        C  551   2.936   4.370   3.503
    1C        C  552   2.781   4.231   3.628
    1C        C  553   2.835   4.282   3.749
    1C        C  554   2.706   4.118   3.873
    1C        C  555   2.792   4.230   3.873
    1C        C  556   2.664   4.063   3.997
    1C        C  557   2.705   4.121   4.119
    1C        C  558   2.607   3.939   4.247
    1C        C  559   2.670   4.065   4.244
    1C        C  560   2.569   3.878   4.368
    1C        C  561   2.589   3.950   4.488
    1C        C  562   2.529   3.750   4.615
    1C        C  563   2.560   3.887   4.611
    1C        C  564   2.512   3.681   4.737
    1C        C  565   2.516   3.759   4.856
    1C        C  566   2.531   3.546   4.978
    1C        C  567   2.518   3.685   4.975
    1C        C  568   3.325   4.469   2.041
    1C        C  569   3.394   4.511   2.156
    1C        C  570   3.182   4.476   2.279
    1C        C  571   3.321   4.508   2.278
    1C        C  572   3.114   4.458   2.401
    1C        C  573   3.182   4.479   2.523
    1C        C  574   2.988   4.396   2.647
    1C        C  575   3.114   4.460   2.646
    1C        C  576   2.933   4.359   2.771
    1C        C  577   2.997   4.393   2.892
    1C        C  578   2.824   4.271   3.014
    1C        C  579   2.932   4.362   3.014
    1C        C  580   2.777   4.220   3.138
    1C        C  581   2.824   4.280   3.257
    1C        C  582   2.696   4.114   3.386
    1C        C  583   2.779   4.228   3.381
    1C        C  584   2.660   4.054   3.509
    1C        C  585   2.701   4.115   3.630
    1C        C  586   2.599   3.931   3.758
    1C        C  587   2.668   4.054   3.753
    1C        C  588   2.572   3.869   3.882
    1C        C  589   2.602   3.936   4.002
    1C        C  590   2.533   3.739   4.129
    1C        C  591   2.578   3.872   4.126
    1C        C  592   2.521   3.670   4.252
    1C        C  593   2.532   3.742   4.373
    1C        C  594   2.508   3.533   4.500
    1C        C  595   2.520   3.674   4.497
    1C        C  596   2.513   3.462   4.622
    1C        C  597   2.508   3.539   4.740
    1C        C  598   2.534   3.328   4.863
    1C        C  599   2.518   3.468   4.862
    1C        C  600   2.534   3.250   4.980
    1C        C  601   3.191   4.433   2.041
    1C        C  602   2.981   4.394   2.159
    1C        C  603   3.114   4.446   2.157
    1C        C  604   2.924   4.354   2.282
    1C        C  605   2.988   4.394   2.402
    1C        C  606   2.819   4.269   2.527
    1C        C  607   2.927   4.360   2.524
    1C        C  608   2.770   4.219   2.650
    1C        C  609   2.820   4.274   2.770
    1C        C  610   2.686   4.111   2.894
    1C        C  611   2.769   4.225   2.893
    1C        C  612   2.649   4.053   3.018
    1C        C  613   2.690   4.109   3.141
    1C        C  614   2.591   3.927   3.264
    1C        C  615   2.654   4.053   3.265
    1C        C  616   2.568   3.865   3.389
    1C        C  617   2.597   3.928   3.512
    1C        C  618   2.536   3.728   3.638
    1C        C  619   2.572   3.865   3.636
    1C        C  620   2.521   3.664   3.763
    1C        C  621   2.531   3.733   3.886
    1C        C  622   2.508   3.525   4.011
    1C        C  623   2.521   3.665   4.009
    1C        C  624   2.512   3.456   4.135
    1C        C  625   2.511   3.529   4.256
    1C        C  626   2.535   3.321   4.380
    1C        C  627   2.510   3.460   4.379
    1C        C  628   2.548   3.252   4.503
    1C        C  629   2.536   3.322   4.624
    1C        C  630   2.588   3.115   4.746
    1C        C  631   2.552   3.252   4.746
    1C        C  632   2.622   3.050   4.868
    1C        C  633   2.568   3.114   4.984
    1C        C  634   2.781   4.296   2.054
    1C        C  635   2.886   4.389   2.052
    1C        C  636   2.747   4.225   2.170
    1C        C  637   2.811   4.267   2.288
    1C        C  638   2.675   4.104   2.409
    1C        C  639   2.760   4.217   2.410
    1C        C  640   2.638   4.047   2.533
    1C        C  641   2.682   4.108   2.652
    1C        C  642   2.583   3.921   2.778
    1C        C  643   2.647   4.047   2.774
    1C        C  644   2.563   3.854   2.901
    1C        C  645   2.592   3.924   3.020
    1C        C  646   2.526   3.723   3.149
    1C        C  647   2.568   3.858   3.143
    1C        C  648   2.508   3.657   3.273
    1C        C  649   2.527   3.729   3.393
    1C        C  650   2.509   3.519   3.521
    1C        C  651   2.520   3.660   3.516
    1C        C  652   2.511   3.450   3.645
    1C        C  653   2.514   3.523   3.766
    1C        C  654   2.529   3.315   3.893
    1C        C  655   2.506   3.454   3.889
    1C        C  656   2.545   3.247   4.015
    1C        C  657   2.533   3.317   4.137
    1C        C  658   2.603   3.117   4.259
    1C        C  659   2.550   3.248   4.260
    1C        C  660   2.632   3.055   4.382
    1C        C  661   2.600   3.120   4.503
    1C        C  662   2.706   2.936   4.626
    1C        C  663   2.628   3.053   4.625
    1C        C  664   2.754   2.880   4.747
    1C        C  665   2.698   2.929   4.868
    1C        C  666   2.748   2.871   4.985
    1C        C  667   2.683   4.017   2.054
    1C        C  668   2.684   4.099   2.168
    1C        C  669   2.588   3.908   2.292
    1C        C  670   2.640   4.040   2.289
    1C        C  671   2.558   3.844   2.415
    1C        C  672   2.581   3.918   2.533
    1C        C  673   2.511   3.719   2.661
    1C        C  674   2.554   3.854   2.657
    1C        C  675   2.506   3.647   2.782
    1C        C  676   2.528   3.717   2.903
    1C        C  677   2.499   3.512   3.030
    1C        C  678   2.513   3.653   3.028
    1C        C  679   2.502   3.444   3.154
    1C        C  680   2.505   3.516   3.276
    1C        C  681   2.530   3.308   3.401
    1C        C  682   2.507   3.448   3.399
    1C        C  683   2.547   3.239   3.523
    1C        C  684   2.536   3.311   3.645
    1C        C  685   2.595   3.114   3.770
    1C        C  686   2.547   3.247   3.770
    1C        C  687   2.628   3.052   3.893
    1C        C  688   2.595   3.114   4.015
    1C        C  689   2.709   2.935   4.138
    1C        C  690   2.631   3.053   4.137
    1C        C  691   2.758   2.884   4.261
    1C        C  692   2.708   2.935   4.382
    1C        C  693   2.748   2.878   4.505
    1C        C  694   2.639   3.884   2.057
    1C        C  695   2.524   3.702   2.176
    1C        C  696   2.582   3.831   2.174
    1C        C  697   2.509   3.634   2.298
    1C        C  698   2.519   3.709   2.418
    1C        C  699   2.482   3.504   2.543
    1C        C  700   2.497   3.645   2.542
    1C        C  701   2.493   3.434   2.665
    1C        C  702   2.496   3.507   2.787
    1C        C  703   2.520   3.297   2.913
    1C        C  704   2.500   3.437   2.910
    1C        C  705   2.537   3.229   3.036
    1C        C  706   2.527   3.305   3.155
    1C        C  707   2.597   3.107   3.279
    1C        C  708   2.548   3.240   3.279
    1C        C  709   2.629   3.045   3.402
    1C        C  710   2.601   3.109   3.525
    1C        C  711   2.714   2.935   3.650
    1C        C  712   2.633   3.051   3.650
    1C        C  713   2.761   2.881   3.772
    1C        C  714   2.710   2.937   3.891
    1C        C  715   2.756   2.885   4.014
    1C        C  716   2.450   3.496   2.062
    1C        C  717   2.493   3.630   2.060
    1C        C  718   2.460   3.421   2.183
    1C        C  719   2.480   3.495   2.303
    1C        C  720   2.502   3.287   2.425
    1C        C  721   2.474   3.425   2.426
    1C        C  722   2.530   3.223   2.548
    1C        C  723   2.515   3.295   2.669
    1C        C  724   2.584   3.096   2.792
    1C        C  725   2.530   3.227   2.792
    1C        C  726   2.612   3.032   2.915
    1C        C  727   2.574   3.093   3.037
    1C        C  728   2.703   2.924   3.159
    1C        C  729   2.618   3.037   3.159
    1C        C  730   2.755   2.877   3.282
    1C        C  731   2.710   2.929   3.405
    1C        C  732   2.755   2.876   3.528
    1C        C  733   2.487   3.199   2.070
    1C        C  734   2.487   3.280   2.184
    1C        C  735   2.579   3.085   2.305
    1C        C  736   2.521   3.215   2.305
    1C        C  737   2.617   3.025   2.427
    1C        C  738   2.585   3.093   2.547
    1C        C  739   2.694   2.914   2.669
    1C        C  740   2.616   3.032   2.670
    1C        C  741   2.739   2.862   2.792
    1C        C  742   2.700   2.921   2.914
    1C        C  743   2.747   2.870   3.037
    1C        C  744   2.544   3.072   2.072
    1C        C  745   2.682   2.898   2.189
    1C        C  746   2.602   3.014   2.185
    1C        C  747   2.729   2.841   2.309
    1C        C  748   2.689   2.904   2.429
    1C        C  749   2.737   2.850   2.551
    1C        C  750   2.730   2.841   2.070
    1C        C  751   3.657   2.307   1.986
    1C        O  752   3.617   2.193   2.019
    1C        O  753   3.699   2.325   1.853
    1C        C  754   4.632   3.057   1.983
    1C        O  755   4.639   3.059   1.857
    1C        O  756   4.733   2.977   2.039
    1C        C  757   4.406   4.193   1.921
    1C        O  758   4.473   4.299   1.920
    1C        O  759   4.379   4.143   1.793
    1C        C  760   3.571   4.651   1.935
    1C        O  761   3.604   4.772   1.951
    1C        O  762   3.570   4.628   1.797
    1C        C  763   2.877   4.489   1.943
    1C        O  764   2.888   4.454   1.823
    1C        O  765   2.809   4.611   1.954
    1C        C  766   2.357   3.468   1.951
    1C        O  767   2.396   3.452   1.832
    1C        O  768   2.218   3.450   1.959
    1C        C  769   4.657   3.571   5.081
    1C        O  770   4.597   3.550   5.190
    1C        O  771   4.795   3.546   5.092
    1C        C  772   4.272   4.431   5.051
    1C        O  773   4.250   4.410   5.173
    1C        O  774   4.368   4.533   5.052
    1C        C  775   4.159   2.503   5.041
    1C        O  776   4.227   2.413   4.986
    1C        O  777   4.222   2.550   5.157
    1C        C  778   2.907   4.544   5.054
    1C        O  779   2.807   4.619   5.057
    1C        O  780   2.972   4.542   5.178
    1C        C  781   2.467   3.042   5.066
    1C        O  782   2.345   3.050   5.037
    1C        O  783   2.496   3.020   5.200
    1C        C  784   2.407   4.003   5.041
    1C        O  785   2.313   4.077   5.001
    1C        O  786   2.412   3.965   5.175
    1C        C  787   2.941   2.426   2.005
    1C        O  788   2.869   2.461   1.908
    1C        O  789   2.904   2.302   2.056
    1C        C  790   3.184   2.370   5.059
    1C        O  791   3.152   2.259   5.009
    1C        O  792   3.189   2.371   5.199
    1C        H  793   4.273   3.024   5.059
    1C        H  794   4.198   2.801   5.073
    1C        H  795   4.488   3.132   5.066
    1C        H  796   4.489   3.379   5.056
    1C        H  797   4.576   3.808   5.048
    1C        H  798   4.386   3.955   5.047
    1C        H  799   4.253   4.152   5.045
    1C        H  800   4.041   4.550   5.023
    1C        H  801   3.816   4.611   5.028
    1C        H  802   3.587   4.641   5.035
    1C        H  803   3.380   4.543   5.049
    1C        H  804   3.167   4.461   5.052
    1C        H  805   3.901   2.471   5.061
    1C        H  806   3.675   2.451   5.075
    1C        H  807   3.024   2.584   5.071
    1C        H  808   3.441   2.472   5.075
    1C        H  809   2.884   2.736   5.081
    1C        H  810   2.730   2.917   5.080
    1C        H  811   2.461   3.284   5.051
    1C        H  812   2.605   3.522   5.051
    1C        H  813   2.509   3.727   5.073
    1C        H  814   2.557   4.204   5.012
    1C        H  815   2.742   4.327   5.050
    1C        H  816   2.653   2.832   1.996
    1C        H  817   2.863   2.714   1.975
    1C        H  818   3.196   2.398   2.011
    1C        H  819   3.427   2.394   1.986
    1C        H  820   3.867   2.493   1.976
    1C        H  821   4.044   2.627   1.962
    1C        H  822   4.268   2.708   1.976
    1C        H  823   4.338   2.944   1.971
    1C        H  824   4.620   3.301   1.988
    1C        H  825   4.491   3.514   1.958
    1C        H  826   4.528   3.750   1.958
    1C        H  827   3.806   4.541   1.956
    1C        H  828   3.966   4.384   1.947
    1C        H  829   4.165   4.246   1.948
    1C        H  830   4.478   3.959   1.951
    1C        H  831   2.712   3.819   2.013
    1C        H  832   2.750   4.037   1.973
    1C        H  833   2.714   4.291   1.971
    1C        H  834   3.382   4.423   1.964
    1C        H  835   3.168   4.350   1.977
    1C        H  836   2.524   3.014   1.984
    1C        H  837   2.503   3.244   1.974
    1C        H  838   2.464   3.688   1.975
    2V3OU   H29  839   2.806   3.548   2.520
    2V3OU   C27  840   2.791   3.502   2.621
    2V3OU   H27  841   2.730   3.569   2.687
    2V3OU   H28  842   2.737   3.405   2.605
    2V3OU   O11  843   2.912   3.477   2.693
    2V3OU   C15  844   2.921   3.404   2.810
    2V3OU   C13  845   3.051   3.382   2.861
    2V3OU   C14  846   3.081   3.268   2.936
    2V3OU   C16  847   2.979   3.184   2.980
    2V3OU    H6  848   2.997   3.104   3.053
    2V3OU   C12  849   3.216   3.232   2.987
    2V3OU    O2  850   3.240   3.126   3.049
    2V3OU   C10  851   3.329   3.310   2.933
    2V3OU    C8  852   3.459   3.271   2.963
    2V3OU   O10  853   3.488   3.159   3.034
    2V3OU   H26  854   3.403   3.116   3.053
    2V3OU    C6  855   3.567   3.354   2.919
    2V3OU    C5  856   3.538   3.470   2.848
    2V3OU    C4  857   3.704   3.296   2.913
    2V3OU    H4  858   3.723   3.231   3.003
    2V3OU    H5  859   3.716   3.229   2.823
    2V3OU    C2  860   3.817   3.399   2.917
    2V3OU    O6  861   3.805   3.478   3.036
    2V3OU   H21  862   3.767   3.559   3.000
    2V3OU    C3  863   3.782   3.497   2.805
    2V3OU    H2  864   3.870   3.567   2.802
    2V3OU    H3  865   3.778   3.435   2.711
    2V3OU   C25  866   3.953   3.329   2.904
    2V3OU    O7  867   4.000   3.296   2.796
    2V3OU   C26  868   4.030   3.292   3.030
    2V3OU   H22  869   4.071   3.381   3.083
    2V3OU   H23  870   4.119   3.230   3.001
    2V3OU    O8  871   3.961   3.213   3.124
    2V3OU   H24  872   3.921   3.266   3.194
    2V3OU    C1  873   3.648   3.567   2.817
    2V3OU    H1  874   3.623   3.616   2.718
    2V3OU    O3  875   3.661   3.657   2.927
    2V3OU   C19  876   3.621   3.795   2.923
    2V3OU    H9  877   3.525   3.803   2.865
    2V3OU    O4  878   3.712   3.852   2.831
    2V3OU   C20  879   3.840   3.873   2.891
    2V3OU   H10  880   3.894   3.775   2.904
    2V3OU   C24  881   3.609   3.862   3.060
    2V3OU   H16  882   3.537   3.800   3.121
    2V3OU   H17  883   3.563   3.961   3.036
    2V3OU   C23  884   3.749   3.872   3.120
    2V3OU   H15  885   3.787   3.765   3.134
    2V3OU    N1  886   3.736   3.956   3.238
    2V3OU   H19  887   3.811   3.920   3.293
    2V3OU   H20  888   3.647   3.923   3.270
    2V3OU   C21  889   3.846   3.948   3.025
    2V3OU   H11  890   3.954   3.933   3.053
    2V3OU    O5  891   3.823   4.088   3.019
    2V3OU   H18  892   3.782   4.113   3.103
    2V3OU   C22  893   3.915   3.947   2.781
    2V3OU   H12  894   3.866   4.045   2.759
    2V3OU   H13  895   3.906   3.889   2.686
    2V3OU   H14  896   4.022   3.954   2.810
    2V3OU   C11  897   3.162   3.474   2.834
    2V3OU    O1  898   3.136   3.589   2.791
    2V3OU    C9  899   3.300   3.423   2.852
    2V3OU    C7  900   3.405   3.501   2.806
    2V3OU    O9  901   3.388   3.620   2.738
    2V3OU   H25  902   3.291   3.624   2.732
    2V3OU   C17  903   2.823   3.317   2.861
    2V3OU    H7  904   2.730   3.341   2.809
    2V3OU   C18  905   2.847   3.213   2.950
    2V3OU    H8  906   2.781   3.167   3.026
    3SOL     OW  907   2.085   5.392   6.560
    3SOL    HW1  908   2.058   5.331   6.486
    3SOL    HW2  909   2.027   5.473   6.561
    4SOL     OW  910   6.835   0.740   2.070
    4SOL    HW1  911   6.783   0.818   2.106
    4SOL    HW2  912   6.772   0.675   2.026
    5SOL     OW  913   4.129   2.257   2.270
    5SOL    HW1  914   4.150   2.183   2.333
    5SOL    HW2  915   4.048   2.233   2.216
    6SOL     OW  916   4.157   1.154   1.495
    6SOL    HW1  917   4.082   1.101   1.457
    6SOL    HW2  918   4.192   1.217   1.425
    7SOL     OW  919   0.908   4.090   3.600
    7SOL    HW1  920   0.812   4.102   3.627
    7SOL    HW2  921   0.967   4.129   3.671
    8SOL     OW  922   3.353   1.065   5.572
    8SOL    HW1  923   3.301   1.112   5.643
    8SOL    HW2  924   3.428   1.013   5.614
    9SOL     OW  925   4.809   1.608   5.634
    9SOL    HW1  926   4.757   1.680   5.589
    9SOL    HW2  927   4.787   1.607   5.731
   10SOL     OW  928   2.288   4.905   5.245
   10SOL    HW1  929   2.233   4.972   5.194
   10SOL    HW2  930   2.227   4.844   5.296
   11SOL     OW  931   3.217   0.963   5.360
   11SOL    HW1  932   3.221   1.024   5.281
   11SOL    HW2  933   3.285   0.992   5.428
   12SOL     OW  934   2.776   5.382   3.696
   12SOL    HW1  935   2.873   5.377   3.670
   12SOL    HW2  936   2.720   5.347   3.621
   13SOL     OW  937   3.614   6.598   4.299
   13SOL    HW1  938   3.609   6.546   4.214
   13SOL    HW2  939   3.528   6.645   4.315
   14SOL     OW  940   3.611   5.055   6.214
   14SOL    HW1  941   3.645   4.968   6.179
   14SOL    HW2  942   3.686   5.105   6.257
   15SOL     OW  943   1.086   6.670   1.100
   15SOL    HW1  944   1.166   6.610   1.090
   15SOL    HW2  945   1.019   6.627   1.159
   16SOL     OW  946   5.632   2.629   6.143
   16SOL    HW1  947   5.656   2.579   6.227
   16SOL    HW2  948   5.640   2.727   6.159
   17SOL     OW  949   5.801   5.793   6.050
   17SOL    HW1  950   5.865   5.867   6.034
   17SOL    HW2  951   5.851   5.710   6.075
   18SOL     OW  952   3.557   1.324   5.642
   18SOL    HW1  953   3.578   1.280   5.730
   18SOL    HW2  954   3.595   1.268   5.568
   19SOL     OW  955   0.274   1.395   2.765
   19SOL    HW1  956   0.294   1.448   2.682
   19SOL    HW2  957   0.351   1.402   2.828
   20SOL     OW  958   4.950   1.988   4.318
   20SOL    HW1  959   4.947   2.024   4.225
   20SOL    HW2  960   4.876   1.922   4.331
   21SOL     OW  961   3.187   0.665   1.905
   21SOL    HW1  962   3.276   0.620   1.903
   21SOL    HW2  963   3.122   0.613   1.850
   22SOL     OW  964   1.294   6.367   6.981
   22SOL    HW1  965   1.198   6.348   7.002
   22SOL    HW2  966   1.336   6.287   6.939
   23SOL     OW  967   5.379   5.240   2.478
   23SOL    HW1  968   5.403   5.331   2.446
   23SOL    HW2  969   5.280   5.231   2.484
   24SOL     OW  970   3.379   0.533   2.824
   24SOL    HW1  971   3.319   0.482   2.886
   24SOL    HW2  972   3.383   0.629   2.852
   25SOL     OW  973   3.899   0.142   3.815
   25SOL    HW1  974   3.847   0.223   3.791
   25SOL    HW2  975   3.925   0.092   3.732
   26SOL     OW  976   6.579   0.940   0.634
   26SOL    HW1  977   6.636   0.981   0.705
   26SOL    HW2  978   6.483   0.962   0.651
   27SOL     OW  979   1.901   0.843   2.510
   27SOL    HW1  980   1.989   0.891   2.509
   27SOL    HW2  981   1.906   0.766   2.573
   28SOL     OW  982   2.255   0.658   5.010
   28SOL    HW1  983   2.320   0.614   4.949
   28SOL    HW2  984   2.166   0.612   5.002
   29SOL     OW  985   6.066   1.619   1.568
   29SOL    HW1  986   6.035   1.598   1.475
   29SOL    HW2  987   6.157   1.660   1.564
   30SOL     OW  988   4.070   0.730   3.350
   30SOL    HW1  989   3.990   0.746   3.408
   30SOL    HW2  990   4.153   0.730   3.407
   31SOL     OW  991   0.624   2.229   6.268
   31SOL    HW1  992   0.603   2.164   6.195
   31SOL    HW2  993   0.542   2.281   6.291
   32SOL     OW  994   0.214   1.716   3.170
   32SOL    HW1  995   0.292   1.665   3.135
   32SOL    HW2  996   0.226   1.734   3.267
   33SOL     OW  997   0.722   4.407   4.905
   33SOL    HW1  998   0.721   4.483   4.970
   33SOL    HW2  999   0.634   4.405   4.856
   34SOL     OW 1000   2.577   6.944   5.291
   34SOL    HW1 1001   2.665   6.933   5.246
   34SOL    HW2 1002   2.560   6.866   5.350
   35SOL     OW 1003   4.894   2.955   5.870
   35SOL    HW1 1004   4.860   2.994   5.956
   35SOL    HW2 1005   4.867   2.859   5.864
   36SOL     OW 1006   4.710   1.312   4.666
   36SOL    HW1 1007   4.743   1.248   4.598
   36SOL    HW2 1008   4.650   1.379   4.623
   37SOL     OW 1009   1.239   1.672   5.612
   37SOL    HW1 1010   1.243   1.661   5.711
   37SOL    HW2 1011   1.331   1.688   5.577
   38SOL     OW 1012   0.961   5.239   2.553
   38SOL    HW1 1013   0.961   5.146   2.516
   38SOL    HW2 1014   1.029   5.294   2.505
   39SOL     OW 1015   6.424   4.617   6.226
   39SOL    HW1 1016   6.491   4.554   6.187
   39SOL    HW2 1017   6.440   4.709   6.191
   40SOL     OW 1018   4.697   1.723   0.479
   40SOL    HW1 1019   4.611   1.732   0.429
   40SOL    HW2 1020   4.767   1.779   0.435
   41SOL     OW 1021   0.015   4.843   3.101
   41SOL    HW1 1022   6.968   4.779   3.070
   41SOL    HW2 1023   7.019   4.934   3.063
   42SOL     OW 1024   3.271   5.153   3.956
   42SOL    HW1 1025   3.175   5.147   3.982
   42SOL    HW2 1026   3.318   5.216   4.017
   43SOL     OW 1027   5.324   6.916   5.673
   43SOL    HW1 1028   5.292   6.824   5.648
   43SOL    HW2 1029   5.275   6.947   5.755
   44SOL     OW 1030   4.681   2.378   5.980
   44SOL    HW1 1031   4.723   2.469   5.981
   44SOL    HW2 1032   4.624   2.368   6.061
   45SOL     OW 1033   4.896   5.379   1.219
   45SOL    HW1 1034   4.824   5.310   1.214
   45SOL    HW2 1035   4.859   5.462   1.262
   46SOL     OW 1036   0.617   2.746   3.484
   46SOL    HW1 1037   0.691   2.760   3.551
   46SOL    HW2 1038   0.541   2.700   3.528
   47SOL     OW 1039   4.670   4.402   1.067
   47SOL    HW1 1040   4.755   4.390   1.015
   47SOL    HW2 1041   4.599   4.439   1.007
   48SOL     OW 1042   6.711   2.821   6.316
   48SOL    HW1 1043   6.802   2.849   6.285
   48SOL    HW2 1044   6.692   2.728   6.284
   49SOL     OW 1045   5.743   3.202   2.357
   49SOL    HW1 1046   5.705   3.162   2.273
   49SOL    HW2 1047   5.678   3.190   2.432
   50SOL     OW 1048   5.464   1.102   4.764
   50SOL    HW1 1049   5.442   1.197   4.741
   50SOL    HW2 1050   5.561   1.096   4.790
   51SOL     OW 1051   2.623   6.282   2.999
   51SOL    HW1 1052   2.701   6.222   2.987
   51SOL    HW2 1053   2.632   6.333   3.085
   52SOL     OW 1054   6.190   3.122   2.281
   52SOL    HW1 1055   6.273   3.170   2.252
   52SOL    HW2 1056   6.166   3.149   2.374
   53SOL     OW 1057   4.287   0.780   3.928
   53SOL    HW1 1058   4.289   0.874   3.895
   53SOL    HW2 1059   4.379   0.741   3.925
   54SOL     OW 1060   5.185   5.435   0.937
   54SOL    HW1 1061   5.104   5.380   0.957
   54SOL    HW2 1062   5.244   5.385   0.873
   55SOL     OW 1063   2.131   3.170   5.926
   55SOL    HW1 1064   2.221   3.160   5.969
   55SOL    HW2 1065   2.127   3.114   5.843
   56SOL     OW 1066   0.358   0.664   1.625
   56SOL    HW1 1067   0.443   0.710   1.650
   56SOL    HW2 1068   0.281   0.706   1.674
   57SOL     OW 1069   4.626   1.008   1.145
   57SOL    HW1 1070   4.541   1.055   1.169
   57SOL    HW2 1071   4.669   1.054   1.067
   58SOL     OW 1072   1.253   6.954   5.209
   58SOL    HW1 1073   1.299   6.897   5.140
   58SOL    HW2 1074   1.161   6.918   5.225
   59SOL     OW 1075   0.310   2.679   5.920
   59SOL    HW1 1076   0.217   2.712   5.938
   59SOL    HW2 1077   0.353   2.737   5.851
   60SOL     OW 1078   5.365   2.726   4.329
   60SOL    HW1 1079   5.393   2.809   4.281
   60SOL    HW2 1080   5.339   2.656   4.263
   61SOL     OW 1081   6.584   2.239   4.284
   61SOL    HW1 1082   6.620   2.180   4.211
   61SOL    HW2 1083   6.507   2.292   4.247
   62SOL     OW 1084   2.068   0.830   2.140
   62SOL    HW1 1085   1.999   0.762   2.116
   62SOL    HW2 1086   2.139   0.787   2.195
   63SOL     OW 1087   5.398   1.171   3.978
   63SOL    HW1 1088   5.394   1.178   4.077
   63SOL    HW2 1089   5.474   1.110   3.952
   64SOL     OW 1090   0.051   2.795   5.897
   64SOL    HW1 1091   0.052   2.771   5.800
   64SOL    HW2 1092   0.015   2.717   5.950
   65SOL     OW 1093   0.543   4.410   6.377
   65SOL    HW1 1094   0.471   4.455   6.429
   65SOL    HW2 1095   0.569   4.325   6.422
   66SOL     OW 1096   3.757   0.505   4.199
   66SOL    HW1 1097   3.795   0.413   4.187
   66SOL    HW2 1098   3.691   0.504   4.275
   67SOL     OW 1099   6.690   2.637   5.791
   67SOL    HW1 1100   6.754   2.563   5.770
   67SOL    HW2 1101   6.739   2.710   5.839
   68SOL     OW 1102   7.007   1.332   6.860
   68SOL    HW1 1103   0.020   1.273   6.789
   68SOL    HW2 1104   0.047   1.408   6.876
   69SOL     OW 1105   0.682   3.048   6.479
   69SOL    HW1 1106   0.591   3.038   6.441
   69SOL    HW2 1107   0.682   3.121   6.548
   70SOL     OW 1108   5.181   4.657   4.355
   70SOL    HW1 1109   5.219   4.621   4.440
   70SOL    HW2 1110   5.145   4.582   4.300
   71SOL     OW 1111   4.220   2.010   3.030
   71SOL    HW1 1112   4.199   1.930   3.086
   71SOL    HW2 1113   4.141   2.035   2.975
   72SOL     OW 1114   1.478   1.054   3.451
   72SOL    HW1 1115   1.425   1.058   3.536
   72SOL    HW2 1116   1.575   1.052   3.473
   73SOL     OW 1117   4.016   0.400   1.295
   73SOL    HW1 1118   4.001   0.346   1.212
   73SOL    HW2 1119   4.043   0.339   1.370
   74SOL     OW 1120   3.591   0.748   0.042
   74SOL    HW1 1121   3.598   0.823   0.107
   74SOL    HW2 1122   3.683   0.713   0.021
   75SOL     OW 1123   4.432   0.428   1.257
   75SOL    HW1 1124   4.450   0.525   1.237
   75SOL    HW2 1125   4.463   0.407   1.349
   76SOL     OW 1126   2.931   3.003   0.977
   76SOL    HW1 1127   2.914   3.071   1.047
   76SOL    HW2 1128   2.850   2.995   0.918
   77SOL     OW 1129   0.690   0.294   3.703
   77SOL    HW1 1130   0.747   0.260   3.778
   77SOL    HW2 1131   0.604   0.329   3.740
   78SOL     OW 1132   5.042   1.646   0.221
   78SOL    HW1 1133   5.012   1.558   0.185
   78SOL    HW2 1134   5.024   1.650   0.319
   79SOL     OW 1135   3.340   5.742   0.967
   79SOL    HW1 1136   3.363   5.658   0.918
   79SOL    HW2 1137   3.367   5.821   0.912
   80SOL     OW 1138   4.817   0.806   3.748
   80SOL    HW1 1139   4.898   0.756   3.780
   80SOL    HW2 1140   4.813   0.801   3.648
   81SOL     OW 1141   2.463   0.347   2.400
   81SOL    HW1 1142   2.554   0.367   2.363
   81SOL    HW2 1143   2.395   0.362   2.328
   82SOL     OW 1144   5.838   4.980   0.541
   82SOL    HW1 1145   5.925   5.028   0.550
   82SOL    HW2 1146   5.810   4.980   0.445
   83SOL     OW 1147   0.226   0.108   0.625
   83SOL    HW1 1148   0.193   0.027   0.576
   83SOL    HW2 1149   0.325   0.101   0.637
   84SOL     OW 1150   6.194   3.187   2.573
   84SOL    HW1 1151   6.140   3.104   2.587
   84SOL    HW2 1152   6.173   3.253   2.645
   85SOL     OW 1153   1.727   1.047   3.561
   85SOL    HW1 1154   1.738   1.136   3.604
   85SOL    HW2 1155   1.770   0.977   3.618
   86SOL     OW 1156   0.529   1.315   6.219
   86SOL    HW1 1157   0.459   1.278   6.280
   86SOL    HW2 1158   0.600   1.246   6.204
   87SOL     OW 1159   5.218   4.473   0.942
   87SOL    HW1 1160   5.139   4.425   0.981
   87SOL    HW2 1161   5.186   4.543   0.879
   88SOL     OW 1162   3.026   1.698   6.363
   88SOL    HW1 1163   3.021   1.628   6.292
   88SOL    HW2 1164   3.035   1.788   6.321
   89SOL     OW 1165   2.527   2.943   6.750
   89SOL    HW1 1166   2.496   2.961   6.843
   89SOL    HW2 1167   2.473   2.868   6.710
   90SOL     OW 1168   4.106   5.432   1.827
   90SOL    HW1 1169   4.011   5.447   1.855
   90SOL    HW2 1170   4.160   5.514   1.846
   91SOL     OW 1171   6.319   4.082   6.148
   91SOL    HW1 1172   6.288   4.062   6.056
   91SOL    HW2 1173   6.415   4.111   6.145
   92SOL     OW 1174   4.576   4.467   1.322
   92SOL    HW1 1175   4.479   4.486   1.332
   92SOL    HW2 1176   4.593   4.419   1.236
   93SOL     OW 1177   3.154   3.570   0.371
   93SOL    HW1 1178   3.155   3.606   0.277
   93SOL    HW2 1179   3.123   3.641   0.434
   94SOL     OW 1180   3.181   5.440   6.410
   94SOL    HW1 1181   3.280   5.432   6.398
   94SOL    HW2 1182   3.145   5.506   6.344
   95SOL     OW 1183   1.852   0.546   2.620
   95SOL    HW1 1184   1.778   0.614   2.625
   95SOL    HW2 1185   1.851   0.489   2.702
   96SOL     OW 1186   3.986   6.852   5.776
   96SOL    HW1 1187   3.942   6.783   5.833
   96SOL    HW2 1188   4.049   6.906   5.832
   97SOL     OW 1189   2.372   3.017   5.962
   97SOL    HW1 1190   2.458   3.037   6.010
   97SOL    HW2 1191   2.393   2.973   5.875
   98SOL     OW 1192   1.199   2.779   0.794
   98SOL    HW1 1193   1.142   2.699   0.776
   98SOL    HW2 1194   1.176   2.852   0.729
   99SOL     OW 1195   4.337   3.308   1.475
   99SOL    HW1 1196   4.393   3.255   1.539
   99SOL    HW2 1197   4.369   3.403   1.473
  100SOL     OW 1198   1.388   6.470   3.707
  100SOL    HW1 1199   1.371   6.373   3.690
  100SOL    HW2 1200   1.316   6.507   3.766
  101SOL     OW 1201   1.384   4.351   2.084
  101SOL    HW1 1202   1.451   4.389   2.148
  101SOL    HW2 1203   1.415   4.367   1.990
  102SOL     OW 1204   2.993   5.385   1.886
  102SOL    HW1 1205   3.056   5.332   1.942
  102SOL    HW2 1206   3.043   5.455   1.836
  103SOL     OW 1207   2.520   1.652   1.969
  103SOL    HW1 1208   2.555   1.741   1.942
  103SOL    HW2 1209   2.527   1.589   1.891
  104SOL     OW 1210   1.470   5.430   2.680
  104SOL    HW1 1211   1.555   5.460   2.724
  104SOL    HW2 1212   1.453   5.486   2.599
  105SOL     OW 1213   5.681   0.958   6.438
  105SOL    HW1 1214   5.707   0.863   6.424
  105SOL    HW2 1215   5.599   0.962   6.496
  106SOL     OW 1216   3.412   5.978   3.821
  106SOL    HW1 1217   3.428   5.957   3.918
  106SOL    HW2 1218   3.376   6.072   3.813
  107SOL     OW 1219   0.911   1.242   0.098
  107SOL    HW1 1220   0.938   1.174   0.030
  107SOL    HW2 1221   0.982   1.249   0.168
  108SOL     OW 1222   3.929   7.017   6.220
  108SOL    HW1 1223   3.887   0.066   6.164
  108SOL    HW2 1224   3.866   6.992   6.294
  109SOL     OW 1225   2.318   1.291   2.748
  109SOL    HW1 1226   2.373   1.369   2.718
  109SOL    HW2 1227   2.372   1.234   2.810
  110SOL     OW 1228   3.016   5.159   4.059
  110SOL    HW1 1229   2.987   5.255   4.054
  110SOL    HW2 1230   2.981   5.109   3.980
  111SOL     OW 1231   2.092   1.289   4.237
  111SOL    HW1 1232   2.083   1.296   4.137
  111SOL    HW2 1233   2.027   1.351   4.280
  112SOL     OW 1234   3.259   5.787   0.288
  112SOL    HW1 1235   3.164   5.756   0.288
  112SOL    HW2 1236   3.319   5.709   0.310
  113SOL     OW 1237   1.098   6.330   2.347
  113SOL    HW1 1238   1.095   6.263   2.421
  113SOL    HW2 1239   1.103   6.422   2.386
  114SOL     OW 1240   1.071   6.408   1.253
  114SOL    HW1 1241   1.048   6.417   1.350
  114SOL    HW2 1242   1.037   6.321   1.219
  115SOL     OW 1243   4.739   1.030   2.886
  115SOL    HW1 1244   4.798   1.097   2.931
  115SOL    HW2 1245   4.793   0.953   2.854
  116SOL     OW 1246   6.745   6.374   0.780
  116SOL    HW1 1247   6.824   6.356   0.721
  116SOL    HW2 1248   6.776   6.381   0.875
  117SOL     OW 1249   0.117   1.652   1.312
  117SOL    HW1 1250   0.108   1.675   1.409
  117SOL    HW2 1251   0.041   1.693   1.261
  118SOL     OW 1252   1.657   0.997   2.594
  118SOL    HW1 1253   1.648   1.015   2.496
  118SOL    HW2 1254   1.607   1.068   2.645
  119SOL     OW 1255   0.183   0.171   6.969
  119SOL    HW1 1256   0.084   0.186   6.965
  119SOL    HW2 1257   0.230   0.258   6.959
  120SOL     OW 1258   5.130   1.663   5.700
  120SOL    HW1 1259   5.096   1.570   5.712
  120SOL    HW2 1260   5.146   1.680   5.602
  121SOL     OW 1261   1.879   3.279   0.439
  121SOL    HW1 1262   1.858   3.318   0.350
  121SOL    HW2 1263   1.939   3.199   0.427
  122SOL     OW 1264   1.385   3.792   0.425
  122SOL    HW1 1265   1.406   3.699   0.454
  122SOL    HW2 1266   1.457   3.854   0.456
  123SOL     OW 1267   1.313   1.803   2.963
  123SOL    HW1 1268   1.297   1.782   2.867
  123SOL    HW2 1269   1.347   1.897   2.971
  124SOL     OW 1270   3.638   2.631   0.829
  124SOL    HW1 1271   3.574   2.586   0.892
  124SOL    HW2 1272   3.629   2.591   0.738
  125SOL     OW 1273   3.929   2.803   0.587
  125SOL    HW1 1274   3.925   2.835   0.492
  125SOL    HW2 1275   3.926   2.704   0.589
  126SOL     OW 1276   3.688   3.638   1.836
  126SOL    HW1 1277   3.726   3.554   1.875
  126SOL    HW2 1278   3.759   3.708   1.830
  127SOL     OW 1279   0.752   4.966   6.405
  127SOL    HW1 1280   0.698   4.882   6.415
  127SOL    HW2 1281   0.774   4.980   6.309
  128SOL     OW 1282   4.495   3.200   1.262
  128SOL    HW1 1283   4.563   3.192   1.334
  128SOL    HW2 1284   4.416   3.252   1.295
  129SOL     OW 1285   2.947   3.669   6.250
  129SOL    HW1 1286   3.021   3.612   6.214
  129SOL    HW2 1287   2.960   3.763   6.219
  130SOL     OW 1288   1.205   1.287   4.076
  130SOL    HW1 1289   1.231   1.202   4.121
  130SOL    HW2 1290   1.140   1.337   4.133
  131SOL     OW 1291   4.921   0.640   3.208
  131SOL    HW1 1292   4.838   0.584   3.209
  131SOL    HW2 1293   4.913   0.710   3.138
  132SOL     OW 1294   2.863   2.638   1.681
  132SOL    HW1 1295   2.952   2.684   1.688
  132SOL    HW2 1296   2.859   2.564   1.748
  133SOL     OW 1297   5.172   1.015   4.306
  133SOL    HW1 1298   5.150   0.917   4.309
  133SOL    HW2 1299   5.117   1.059   4.235
  134SOL     OW 1300   0.162   1.217   2.563
  134SOL    HW1 1301   0.227   1.259   2.627
  134SOL    HW2 1302   0.122   1.135   2.606
  135SOL     OW 1303   4.876   3.821   4.357
  135SOL    HW1 1304   4.884   3.752   4.430
  135SOL    HW2 1305   4.855   3.775   4.271
  136SOL     OW 1306   1.530   5.289   5.275
  136SOL    HW1 1307   1.583   5.250   5.351
  136SOL    HW2 1308   1.543   5.389   5.273
  137SOL     OW 1309   4.436   1.397   3.174
  137SOL    HW1 1310   4.383   1.435   3.098
  137SOL    HW2 1311   4.511   1.460   3.197
  138SOL     OW 1312   1.050   3.685   3.027
  138SOL    HW1 1313   1.116   3.758   3.047
  138SOL    HW2 1314   0.974   3.721   2.974
  139SOL     OW 1315   1.993   6.682   5.692
  139SOL    HW1 1316   2.043   6.612   5.743
  139SOL    HW2 1317   1.902   6.648   5.669
  140SOL     OW 1318   2.000   6.823   3.998
  140SOL    HW1 1319   2.031   6.849   4.089
  140SOL    HW2 1320   2.060   6.864   3.929
  141SOL     OW 1321   0.125   2.626   4.668
  141SOL    HW1 1322   0.093   2.540   4.709
  141SOL    HW2 1323   0.051   2.666   4.614
  142SOL     OW 1324   2.077   3.650   2.113
  142SOL    HW1 1325   1.978   3.650   2.096
  142SOL    HW2 1326   2.117   3.566   2.078
  143SOL     OW 1327   6.019   5.205   0.566
  143SOL    HW1 1328   6.109   5.207   0.610
  143SOL    HW2 1329   5.988   5.299   0.550
  144SOL     OW 1330   1.619   4.734   5.995
  144SOL    HW1 1331   1.570   4.775   5.918
  144SOL    HW2 1332   1.665   4.651   5.964
  145SOL     OW 1333   1.524   4.426   1.850
  145SOL    HW1 1334   1.610   4.412   1.801
  145SOL    HW2 1335   1.463   4.483   1.794
  146SOL     OW 1336   5.225   0.313   6.180
  146SOL    HW1 1337   5.245   0.222   6.216
  146SOL    HW2 1338   5.300   0.342   6.120
  147SOL     OW 1339   5.615   2.157   6.137
  147SOL    HW1 1340   5.670   2.227   6.092
  147SOL    HW2 1341   5.550   2.200   6.199
  148SOL     OW 1342   0.071   5.453   0.671
  148SOL    HW1 1343   0.129   5.403   0.606
  148SOL    HW2 1344   0.084   5.551   0.658
  149SOL     OW 1345   3.614   2.042   4.808
  149SOL    HW1 1346   3.522   2.078   4.825
  149SOL    HW2 1347   3.653   2.086   4.727
  150SOL     OW 1348   5.368   6.450   6.767
  150SOL    HW1 1349   5.384   6.464   6.670
  150SOL    HW2 1350   5.456   6.440   6.815
  151SOL     OW 1351   3.382   0.762   1.230
  151SOL    HW1 1352   3.393   0.692   1.159
  151SOL    HW2 1353   3.291   0.755   1.270
  152SOL     OW 1354   0.293   1.477   1.196
  152SOL    HW1 1355   0.244   1.550   1.243
  152SOL    HW2 1356   0.275   1.389   1.241
  153SOL     OW 1357   2.929   6.933   3.498
  153SOL    HW1 1358   3.011   6.889   3.462
  153SOL    HW2 1359   2.884   6.985   3.425
  154SOL     OW 1360   1.120   3.328   0.639
  154SOL    HW1 1361   1.028   3.352   0.670
  154SOL    HW2 1362   1.161   3.264   0.704
  155SOL     OW 1363   0.853   1.155   4.221
  155SOL    HW1 1364   0.806   1.098   4.289
  155SOL    HW2 1365   0.789   1.222   4.183
  156SOL     OW 1366   6.932   0.890   0.882
  156SOL    HW1 1367   6.962   0.958   0.815
  156SOL    HW2 1368   7.012   0.845   0.921
  157SOL     OW 1369   6.042   3.759   0.646
  157SOL    HW1 1370   6.042   3.665   0.613
  157SOL    HW2 1371   6.067   3.821   0.571
  158SOL     OW 1372   1.464   3.245   2.141
  158SOL    HW1 1373   1.375   3.254   2.187
  158SOL    HW2 1374   1.469   3.156   2.096
  159SOL     OW 1375   4.682   5.050   1.541
  159SOL    HW1 1376   4.632   5.061   1.627
  159SOL    HW2 1377   4.734   5.134   1.522
  160SOL     OW 1378   5.648   6.595   1.052
  160SOL    HW1 1379   5.554   6.560   1.042
  160SOL    HW2 1380   5.663   6.621   1.148
  161SOL     OW 1381   1.201   0.201   3.676
  161SOL    HW1 1382   1.108   0.200   3.711
  161SOL    HW2 1383   1.225   0.293   3.646
  162SOL     OW 1384   4.129   6.150   0.122
  162SOL    HW1 1385   4.220   6.111   0.137
  162SOL    HW2 1386   4.062   6.103   0.179
  163SOL     OW 1387   6.692   5.838   2.197
  163SOL    HW1 1388   6.612   5.863   2.252
  163SOL    HW2 1389   6.665   5.832   2.101
  164SOL     OW 1390   1.099   4.178   3.380
  164SOL    HW1 1391   1.197   4.178   3.359
  164SOL    HW2 1392   1.075   4.092   3.426
  165SOL     OW 1393   4.836   4.213   0.350
  165SOL    HW1 1394   4.796   4.258   0.430
  165SOL    HW2 1395   4.806   4.118   0.348
  166SOL     OW 1396   0.953   2.888   2.190
  166SOL    HW1 1397   0.853   2.888   2.188
  166SOL    HW2 1398   0.985   2.854   2.278
  167SOL     OW 1399   5.456   2.314   6.853
  167SOL    HW1 1400   5.430   2.218   6.859
  167SOL    HW2 1401   5.526   2.325   6.782
  168SOL     OW 1402   3.485   1.861   0.674
  168SOL    HW1 1403   3.525   1.777   0.712
  168SOL    HW2 1404   3.535   1.940   0.710
  169SOL     OW 1405   6.368   2.503   1.118
  169SOL    HW1 1406   6.353   2.574   1.049
  169SOL    HW2 1407   6.386   2.416   1.072
  170SOL     OW 1408   6.992   6.679   2.273
  170SOL    HW1 1409   7.003   6.706   2.369
  170SOL    HW2 1410   0.049   6.629   2.243
  171SOL     OW 1411   2.960   4.638   0.039
  171SOL    HW1 1412   3.027   4.616   0.109
  171SOL    HW2 1413   2.956   4.737   0.027
  172SOL     OW 1414   6.257   1.489   3.308
  172SOL    HW1 1415   6.269   1.425   3.232
  172SOL    HW2 1416   6.346   1.511   3.348
  173SOL     OW 1417   5.844   1.164   3.913
  173SOL    HW1 1418   5.898   1.248   3.914
  173SOL    HW2 1419   5.792   1.156   3.998
  174SOL     OW 1420   3.888   5.248   3.885
  174SOL    HW1 1421   3.798   5.204   3.871
  174SOL    HW2 1422   3.924   5.276   3.796
  175SOL     OW 1423   3.104   0.383   1.494
  175SOL    HW1 1424   3.012   0.387   1.456
  175SOL    HW2 1425   3.146   0.474   1.491
  176SOL     OW 1426   6.663   4.771   2.030
  176SOL    HW1 1427   6.723   4.801   2.104
  176SOL    HW2 1428   6.570   4.805   2.046
  177SOL     OW 1429   5.112   3.688   4.236
  177SOL    HW1 1430   5.105   3.648   4.327
  177SOL    HW2 1431   5.024   3.681   4.189
  178SOL     OW 1432   3.030   3.697   5.393
  178SOL    HW1 1433   2.952   3.700   5.330
  178SOL    HW2 1434   3.100   3.762   5.364
  179SOL     OW 1435   4.222   1.459   6.199
  179SOL    HW1 1436   4.179   1.507   6.275
  179SOL    HW2 1437   4.178   1.370   6.187
  180SOL     OW 1438   1.805   0.009   0.938
  180SOL    HW1 1439   1.864   6.991   0.868
  180SOL    HW2 1440   1.826   6.992   1.027
  181SOL     OW 1441   3.205   3.208   5.959
  181SOL    HW1 1442   3.269   3.140   5.996
  181SOL    HW2 1443   3.144   3.240   6.032
  182SOL     OW 1444   4.279   1.813   6.212
  182SOL    HW1 1445   4.339   1.810   6.292
  182SOL    HW2 1446   4.316   1.752   6.141
  183SOL     OW 1447   3.446   1.530   3.745
  183SOL    HW1 1448   3.465   1.452   3.804
  183SOL    HW2 1449   3.458   1.504   3.649
  184SOL     OW 1450   0.675   6.097   3.848
  184SOL    HW1 1451   0.578   6.075   3.838
  184SOL    HW2 1452   0.718   6.098   3.758
  185SOL     OW 1453   1.047   1.125   4.723
  185SOL    HW1 1454   1.034   1.071   4.640
  185SOL    HW2 1455   1.118   1.194   4.707
  186SOL     OW 1456   6.305   1.211   4.117
  186SOL    HW1 1457   6.306   1.190   4.019
  186SOL    HW2 1458   6.224   1.266   4.139
  187SOL     OW 1459   4.993   6.313   2.652
  187SOL    HW1 1460   4.914   6.253   2.638
  187SOL    HW2 1461   5.009   6.367   2.570
  188SOL     OW 1462   0.999   3.233   3.617
  188SOL    HW1 1463   1.064   3.232   3.542
  188SOL    HW2 1464   0.921   3.291   3.594
  189SOL     OW 1465   1.777   5.676   0.444
  189SOL    HW1 1466   1.873   5.701   0.438
  189SOL    HW2 1467   1.753   5.618   0.367
  190SOL     OW 1468   6.013   4.195   5.720
  190SOL    HW1 1469   6.053   4.279   5.683
  190SOL    HW2 1470   5.950   4.217   5.794
  191SOL     OW 1471   6.042   0.437   0.265
  191SOL    HW1 1472   6.042   0.449   0.364
  191SOL    HW2 1473   6.028   0.526   0.221
  192SOL     OW 1474   0.746   5.325   1.324
  192SOL    HW1 1475   0.723   5.227   1.324
  192SOL    HW2 1476   0.665   5.378   1.304
  193SOL     OW 1477   4.519   3.683   5.402
  193SOL    HW1 1478   4.581   3.758   5.427
  193SOL    HW2 1479   4.546   3.648   5.312
  194SOL     OW 1480   4.157   6.604   3.426
  194SOL    HW1 1481   4.074   6.655   3.449
  194SOL    HW2 1482   4.216   6.661   3.369
  195SOL     OW 1483   1.302   0.851   4.363
  195SOL    HW1 1484   1.205   0.840   4.388
  195SOL    HW2 1485   1.354   0.773   4.399
  196SOL     OW 1486   2.668   0.120   6.804
  196SOL    HW1 1487   2.644   0.039   6.750
  196SOL    HW2 1488   2.603   0.194   6.784
  197SOL     OW 1489   2.474   0.085   1.580
  197SOL    HW1 1490   2.498   0.180   1.598
  197SOL    HW2 1491   2.446   0.075   1.485
  198SOL     OW 1492   4.729   6.777   1.991
  198SOL    HW1 1493   4.801   6.843   1.973
  198SOL    HW2 1494   4.650   6.823   2.031
  199SOL     OW 1495   6.297   1.698   3.728
  199SOL    HW1 1496   6.285   1.792   3.694
  199SOL    HW2 1497   6.394   1.679   3.741
  200SOL     OW 1498   1.083   4.262   1.788
  200SOL    HW1 1499   1.112   4.222   1.875
  200SOL    HW2 1500   1.089   4.361   1.793
  201SOL     OW 1501   5.675   6.979   6.141
  201SOL    HW1 1502   5.667   0.056   6.149
  201SOL    HW2 1503   5.694   6.940   6.231
  202SOL     OW 1504   5.262   0.310   5.532
  202SOL    HW1 1505   5.176   0.302   5.482
  202SOL    HW2 1506   5.245   0.300   5.630
  203SOL     OW 1507   4.518   2.572   4.542
  203SOL    HW1 1508   4.571   2.642   4.589
  203SOL    HW2 1509   4.449   2.536   4.605
  204SOL     OW 1510   6.622   0.549   6.122
  204SOL    HW1 1511   6.630   0.557   6.222
  204SOL    HW2 1512   6.711   0.569   6.080
  205SOL     OW 1513   0.717   0.787   3.198
  205SOL    HW1 1514   0.699   0.822   3.290
  205SOL    HW2 1515   0.684   0.693   3.191
  206SOL     OW 1516   0.279   5.236   2.021
  206SOL    HW1 1517   0.227   5.301   2.075
  206SOL    HW2 1518   0.355   5.284   1.975
  207SOL     OW 1519   4.651   0.656   4.272
  207SOL    HW1 1520   4.553   0.637   4.264
  207SOL    HW2 1521   4.693   0.653   4.181
  208SOL     OW 1522   5.352   3.637   5.718
  208SOL    HW1 1523   5.396   3.574   5.782
  208SOL    HW2 1524   5.357   3.598   5.625
  209SOL     OW 1525   0.785   4.674   4.435
  209SOL    HW1 1526   0.809   4.583   4.471
  209SOL    HW2 1527   0.860   4.737   4.454
  210SOL     OW 1528   4.178   2.140   1.240
  210SOL    HW1 1529   4.176   2.239   1.234
  210SOL    HW2 1530   4.098   2.102   1.193
  211SOL     OW 1531   2.036   6.212   3.516
  211SOL    HW1 1532   2.069   6.138   3.575
  211SOL    HW2 1533   2.059   6.300   3.557
  212SOL     OW 1534   1.476   4.769   0.989
  212SOL    HW1 1535   1.513   4.705   1.056
  212SOL    HW2 1536   1.537   4.849   0.983
  213SOL     OW 1537   3.630   1.209   5.898
  213SOL    HW1 1538   3.553   1.198   5.961
  213SOL    HW2 1539   3.672   1.120   5.882
  214SOL     OW 1540   4.661   5.533   1.850
  214SOL    HW1 1541   4.749   5.578   1.867
  214SOL    HW2 1542   4.587   5.590   1.886
  215SOL     OW 1543   2.179   3.781   1.398
  215SOL    HW1 1544   2.245   3.845   1.359
  215SOL    HW2 1545   2.200   3.688   1.367
  216SOL     OW 1546   2.167   5.929   4.594
  216SOL    HW1 1547   2.254   5.973   4.575
  216SOL    HW2 1548   2.181   5.831   4.607
  217SOL     OW 1549   2.295   2.829   3.666
  217SOL    HW1 1550   2.225   2.899   3.651
  217SOL    HW2 1551   2.321   2.789   3.578
  218SOL     OW 1552   1.091   2.612   4.573
  218SOL    HW1 1553   1.013   2.550   4.581
  218SOL    HW2 1554   1.077   2.672   4.493
  219SOL     OW 1555   4.051   6.797   6.083
  219SOL    HW1 1556   3.971   6.740   6.070
  219SOL    HW2 1557   4.023   6.886   6.120
  220SOL     OW 1558   3.682   6.589   0.342
  220SOL    HW1 1559   3.737   6.671   0.356
  220SOL    HW2 1560   3.587   6.607   0.370
  221SOL     OW 1561   6.474   3.730   2.679
  221SOL    HW1 1562   6.544   3.744   2.748
  221SOL    HW2 1563   6.474   3.634   2.650
  222SOL     OW 1564   2.916   4.813   5.645
  222SOL    HW1 1565   2.844   4.841   5.581
  222SOL    HW2 1566   2.899   4.856   5.734
  223SOL     OW 1567   5.949   3.613   1.281
  223SOL    HW1 1568   5.976   3.699   1.323
  223SOL    HW2 1569   5.857   3.621   1.244
  224SOL     OW 1570   2.657   2.161   4.309
  224SOL    HW1 1571   2.565   2.130   4.333
  224SOL    HW2 1572   2.724   2.099   4.351
  225SOL     OW 1573   6.210   1.982   5.950
  225SOL    HW1 1574   6.266   1.909   5.910
  225SOL    HW2 1575   6.128   1.995   5.895
  226SOL     OW 1576   1.980   0.384   6.491
  226SOL    HW1 1577   1.899   0.441   6.481
  226SOL    HW2 1578   2.026   0.404   6.577
  227SOL     OW 1579   1.709   3.444   2.833
  227SOL    HW1 1580   1.766   3.516   2.872
  227SOL    HW2 1581   1.676   3.473   2.743
  228SOL     OW 1582   3.354   6.247   3.393
  228SOL    HW1 1583   3.443   6.248   3.439
  228SOL    HW2 1584   3.282   6.250   3.462
  229SOL     OW 1585   4.989   6.006   0.233
  229SOL    HW1 1586   4.902   5.973   0.197
  229SOL    HW2 1587   4.994   6.106   0.222
  230SOL     OW 1588   2.737   4.863   2.506
  230SOL    HW1 1589   2.734   4.890   2.410
  230SOL    HW2 1590   2.790   4.929   2.559
  231SOL     OW 1591   6.264   1.443   6.479
  231SOL    HW1 1592   6.294   1.512   6.544
  231SOL    HW2 1593   6.335   1.373   6.469
  232SOL     OW 1594   1.260   4.186   6.119
  232SOL    HW1 1595   1.255   4.284   6.140
  232SOL    HW2 1596   1.337   4.169   6.058
  233SOL     OW 1597   1.975   1.962   4.191
  233SOL    HW1 1598   1.968   2.062   4.187
  233SOL    HW2 1599   2.004   1.927   4.102
  234SOL     OW 1600   4.380   6.058   5.155
  234SOL    HW1 1601   4.457   6.118   5.179
  234SOL    HW2 1602   4.316   6.055   5.232
  235SOL     OW 1603   3.303   3.177   1.585
  235SOL    HW1 1604   3.387   3.135   1.618
  235SOL    HW2 1605   3.311   3.197   1.487
  236SOL     OW 1606   5.641   2.801   6.483
  236SOL    HW1 1607   5.652   2.836   6.390
  236SOL    HW2 1608   5.705   2.725   6.498
  237SOL     OW 1609   6.202   5.709   1.875
  237SOL    HW1 1610   6.153   5.793   1.900
  237SOL    HW2 1611   6.191   5.691   1.778
  238SOL     OW 1612   5.878   2.140   6.987
  238SOL    HW1 1613   5.807   2.069   6.981
  238SOL    HW2 1614   5.909   2.164   6.895
  239SOL     OW 1615   0.221   5.570   6.065
  239SOL    HW1 1616   0.142   5.546   6.007
  239SOL    HW2 1617   0.250   5.489   6.116
  240SOL     OW 1618   0.926   2.740   5.378
  240SOL    HW1 1619   0.888   2.650   5.397
  240SOL    HW2 1620   0.867   2.811   5.417
  241SOL     OW 1621   1.856   6.900   4.643
  241SOL    HW1 1622   1.940   6.846   4.643
  241SOL    HW2 1623   1.837   6.932   4.550
  242SOL     OW 1624   2.887   3.510   5.567
  242SOL    HW1 1625   2.798   3.551   5.587
  242SOL    HW2 1626   2.915   3.534   5.474
  243SOL     OW 1627   5.026   0.967   5.922
  243SOL    HW1 1628   5.008   0.986   6.019
  243SOL    HW2 1629   4.940   0.944   5.877
  244SOL     OW 1630   5.087   2.774   4.418
  244SOL    HW1 1631   5.183   2.751   4.402
  244SOL    HW2 1632   5.038   2.693   4.448
  245SOL     OW 1633   0.123   3.691   5.403
  245SOL    HW1 1634   0.167   3.761   5.460
  245SOL    HW2 1635   0.183   3.668   5.326
  246SOL     OW 1636   4.877   2.679   2.915
  246SOL    HW1 1637   4.925   2.750   2.863
  246SOL    HW2 1638   4.855   2.712   3.006
  247SOL     OW 1639   2.939   0.846   1.533
  247SOL    HW1 1640   2.841   0.865   1.530
  247SOL    HW2 1641   2.970   0.846   1.628
  248SOL     OW 1642   3.761   1.861   3.121
  248SOL    HW1 1643   3.693   1.931   3.141
  248SOL    HW2 1644   3.787   1.814   3.205
  249SOL     OW 1645   4.634   6.995   6.065
  249SOL    HW1 1646   4.686   6.914   6.091
  249SOL    HW2 1647   4.618   6.994   5.966
  250SOL     OW 1648   5.771   2.959   0.923
  250SOL    HW1 1649   5.843   3.027   0.930
  250SOL    HW2 1650   5.803   2.873   0.964
  251SOL     OW 1651   4.490   4.129   6.324
  251SOL    HW1 1652   4.500   4.063   6.250
  251SOL    HW2 1653   4.447   4.212   6.289
  252SOL     OW 1654   5.916   0.443   6.650
  252SOL    HW1 1655   5.972   0.384   6.709
  252SOL    HW2 1656   5.930   0.416   6.554
  253SOL     OW 1657   1.887   4.414   6.887
  253SOL    HW1 1658   1.971   4.379   6.928
  253SOL    HW2 1659   1.809   4.361   6.918
  254SOL     OW 1660   5.198   3.599   3.205
  254SOL    HW1 1661   5.182   3.543   3.286
  254SOL    HW2 1662   5.145   3.562   3.128
  255SOL     OW 1663   1.829   3.293   4.189
  255SOL    HW1 1664   1.792   3.205   4.161
  255SOL    HW2 1665   1.824   3.357   4.113
  256SOL     OW 1666   6.248   4.723   6.458
  256SOL    HW1 1667   6.158   4.747   6.494
  256SOL    HW2 1668   6.269   4.779   6.378
  257SOL     OW 1669   4.631   6.877   4.151
  257SOL    HW1 1670   4.547   6.829   4.177
  257SOL    HW2 1671   4.609   6.951   4.088
  258SOL     OW 1672   6.633   5.247   4.828
  258SOL    HW1 1673   6.598   5.199   4.746
  258SOL    HW2 1674   6.636   5.345   4.810
  259SOL     OW 1675   1.304   2.675   2.252
  259SOL    HW1 1676   1.222   2.628   2.221
  259SOL    HW2 1677   1.279   2.762   2.295
  260SOL     OW 1678   4.206   0.725   0.809
  260SOL    HW1 1679   4.193   0.682   0.899
  260SOL    HW2 1680   4.177   0.820   0.813
  261SOL     OW 1681   0.210   3.882   1.267
  261SOL    HW1 1682   0.236   3.819   1.340
  261SOL    HW2 1683   0.194   3.973   1.305
  262SOL     OW 1684   0.560   3.750   0.806
  262SOL    HW1 1685   0.608   3.831   0.840
  262SOL    HW2 1686   0.468   3.776   0.776
  263SOL     OW 1687   0.837   1.637   4.021
  263SOL    HW1 1688   0.848   1.736   4.014
  263SOL    HW2 1689   0.765   1.617   4.087
  264SOL     OW 1690   4.804   3.885   5.966
  264SOL    HW1 1691   4.822   3.973   5.922
  264SOL    HW2 1692   4.819   3.893   6.065
  265SOL     OW 1693   4.483   4.583   3.412
  265SOL    HW1 1694   4.440   4.557   3.499
  265SOL    HW2 1695   4.444   4.670   3.380
  266SOL     OW 1696   3.995   3.699   5.590
  266SOL    HW1 1697   4.048   3.614   5.600
  266SOL    HW2 1698   4.007   3.755   5.672
  267SOL     OW 1699   6.107   2.306   5.905
  267SOL    HW1 1700   6.086   2.270   5.815
  267SOL    HW2 1701   6.199   2.344   5.906
  268SOL     OW 1702   4.210   6.894   5.204
  268SOL    HW1 1703   4.168   6.985   5.210
  268SOL    HW2 1704   4.291   6.897   5.146
  269SOL     OW 1705   1.765   3.151   1.036
  269SOL    HW1 1706   1.764   3.204   0.951
  269SOL    HW2 1707   1.809   3.205   1.108
  270SOL     OW 1708   6.690   0.132   1.624
  270SOL    HW1 1709   6.625   0.101   1.694
  270SOL    HW2 1710   6.649   0.121   1.534
  271SOL     OW 1711   2.606   1.718   0.479
  271SOL    HW1 1712   2.654   1.654   0.419
  271SOL    HW2 1713   2.580   1.672   0.564
  272SOL     OW 1714   3.473   5.355   4.035
  272SOL    HW1 1715   3.534   5.280   4.010
  272SOL    HW2 1716   3.528   5.434   4.063
  273SOL     OW 1717   1.987   4.861   5.042
  273SOL    HW1 1718   1.906   4.916   5.022
  273SOL    HW2 1719   1.968   4.765   5.023
  274SOL     OW 1720   4.659   2.633   3.809
  274SOL    HW1 1721   4.695   2.581   3.887
  274SOL    HW2 1722   4.678   2.730   3.823
  275SOL     OW 1723   6.259   5.892   5.792
  275SOL    HW1 1724   6.271   5.793   5.781
  275SOL    HW2 1725   6.296   5.938   5.711
  276SOL     OW 1726   0.814   5.184   3.291
  276SOL    HW1 1727   0.734   5.176   3.350
  276SOL    HW2 1728   0.850   5.277   3.295
  277SOL     OW 1729   2.332   3.115   0.880
  277SOL    HW1 1730   2.235   3.091   0.880
  277SOL    HW2 1731   2.361   3.135   0.974
  278SOL     OW 1732   0.145   5.119   1.707
  278SOL    HW1 1733   0.109   5.073   1.788
  278SOL    HW2 1734   0.123   5.216   1.711
  279SOL     OW 1735   0.294   2.949   4.354
  279SOL    HW1 1736   0.328   2.903   4.436
  279SOL    HW2 1737   0.369   2.960   4.289
  280SOL     OW 1738   2.498   6.950   2.943
  280SOL    HW1 1739   2.532   0.010   2.898
  280SOL    HW2 1740   2.567   6.878   2.937
  281SOL     OW 1741   3.662   5.033   2.035
  281SOL    HW1 1742   3.725   5.065   1.964
  281SOL    HW2 1743   3.629   4.942   2.011
  282SOL     OW 1744   4.213   2.070   5.498
  282SOL    HW1 1745   4.219   2.162   5.535
  282SOL    HW2 1746   4.117   2.045   5.486
  283SOL     OW 1747   6.481   1.031   5.915
  283SOL    HW1 1748   6.480   0.933   5.931
  283SOL    HW2 1749   6.409   1.075   5.969
  284SOL     OW 1750   0.184   4.479   4.805
  284SOL    HW1 1751   0.152   4.439   4.718
  284SOL    HW2 1752   0.105   4.491   4.866
  285SOL     OW 1753   5.371   5.300   6.653
  285SOL    HW1 1754   5.464   5.321   6.623
  285SOL    HW2 1755   5.354   5.345   6.741
  286SOL     OW 1756   3.083   5.047   4.909
  286SOL    HW1 1757   3.135   5.123   4.869
  286SOL    HW2 1758   2.989   5.050   4.877
  287SOL     OW 1759   0.436   4.663   6.232
  287SOL    HW1 1760   0.341   4.632   6.229
  287SOL    HW2 1761   0.497   4.584   6.233
  288SOL     OW 1762   4.264   2.242   0.351
  288SOL    HW1 1763   4.288   2.279   0.261
  288SOL    HW2 1764   4.201   2.304   0.397
  289SOL     OW 1765   0.253   5.324   4.944
  289SOL    HW1 1766   0.285   5.263   5.017
  289SOL    HW2 1767   0.154   5.335   4.951
  290SOL     OW 1768   4.840   1.470   3.704
  290SOL    HW1 1769   4.928   1.430   3.679
  290SOL    HW2 1770   4.788   1.490   3.621
  291SOL     OW 1771   3.306   0.692   4.804
  291SOL    HW1 1772   3.247   0.618   4.772
  291SOL    HW2 1773   3.369   0.717   4.730
  292SOL     OW 1774   3.611   2.100   2.891
  292SOL    HW1 1775   3.634   2.123   2.985
  292SOL    HW2 1776   3.640   2.006   2.872
  293SOL     OW 1777   4.511   5.289   2.026
  293SOL    HW1 1778   4.551   5.341   1.950
  293SOL    HW2 1779   4.526   5.338   2.112
  294SOL     OW 1780   6.934   5.389   6.260
  294SOL    HW1 1781   6.932   5.425   6.167
  294SOL    HW2 1782   6.876   5.308   6.266
  295SOL     OW 1783   3.360   1.298   5.144
  295SOL    HW1 1784   3.287   1.233   5.164
  295SOL    HW2 1785   3.339   1.347   5.059
  296SOL     OW 1786   6.021   1.695   1.996
  296SOL    HW1 1787   5.931   1.725   2.028
  296SOL    HW2 1788   6.060   1.765   1.936
  297SOL     OW 1789   3.041   4.868   2.545
  297SOL    HW1 1790   2.981   4.824   2.479
  297SOL    HW2 1791   3.038   4.818   2.631
  298SOL     OW 1792   3.624   6.725   0.685
  298SOL    HW1 1793   3.593   6.638   0.648
  298SOL    HW2 1794   3.548   6.790   0.683
  299SOL     OW 1795   4.625   2.891   7.022
  299SOL    HW1 1796   4.715   2.886   0.042
  299SOL    HW2 1797   4.636   2.903   6.924
  300SOL     OW 1798   5.115   0.984   1.583
  300SOL    HW1 1799   5.149   1.071   1.620
  300SOL    HW2 1800   5.131   0.981   1.484
  301SOL     OW 1801   5.386   2.690   0.762
  301SOL    HW1 1802   5.443   2.709   0.682
  301SOL    HW2 1803   5.323   2.766   0.777
  302SOL     OW 1804   0.233   0.760   3.619
  302SOL    HW1 1805   0.316   0.757   3.674
  302SOL    HW2 1806   0.181   0.843   3.640
  303SOL     OW 1807   6.780   6.541   2.043
  303SOL    HW1 1808   6.793   6.465   1.979
  303SOL    HW2 1809   6.840   6.616   2.017
  304SOL     OW 1810   2.169   6.487   5.794
  304SOL    HW1 1811   2.222   6.475   5.878
  304SOL    HW2 1812   2.179   6.407   5.735
  305SOL     OW 1813   1.472   2.750   0.496
  305SOL    HW1 1814   1.496   2.769   0.591
  305SOL    HW2 1815   1.374   2.766   0.482
  306SOL     OW 1816   1.783   0.694   3.397
  306SOL    HW1 1817   1.691   0.702   3.358
  306SOL    HW2 1818   1.791   0.755   3.476
  307SOL     OW 1819   5.146   5.173   0.721
  307SOL    HW1 1820   5.108   5.129   0.803
  307SOL    HW2 1821   5.088   5.154   0.642
  308SOL     OW 1822   5.379   3.145   4.352
  308SOL    HW1 1823   5.335   3.232   4.372
  308SOL    HW2 1824   5.336   3.072   4.407
  309SOL     OW 1825   2.152   5.552   0.289
  309SOL    HW1 1826   2.059   5.527   0.313
  309SOL    HW2 1827   2.216   5.512   0.355
  310SOL     OW 1828   5.162   6.662   5.768
  310SOL    HW1 1829   5.196   6.710   5.849
  310SOL    HW2 1830   5.164   6.563   5.784
  311SOL     OW 1831   3.915   5.227   2.754
  311SOL    HW1 1832   4.012   5.204   2.763
  311SOL    HW2 1833   3.889   5.289   2.829
  312SOL     OW 1834   4.339   0.955   4.211
  312SOL    HW1 1835   4.277   1.029   4.186
  312SOL    HW2 1836   4.289   0.869   4.214
  313SOL     OW 1837   2.953   3.438   2.099
  313SOL    HW1 1838   3.045   3.437   2.060
  313SOL    HW2 1839   2.944   3.365   2.166
  314SOL     OW 1840   2.685   4.417   6.628
  314SOL    HW1 1841   2.715   4.387   6.538
  314SOL    HW2 1842   2.608   4.480   6.618
  315SOL     OW 1843   1.301   3.328   4.104
  315SOL    HW1 1844   1.389   3.288   4.078
  315SOL    HW2 1845   1.251   3.263   4.161
  316SOL     OW 1846   2.961   1.409   4.530
  316SOL    HW1 1847   2.906   1.359   4.463
  316SOL    HW2 1848   2.921   1.499   4.545
  317SOL     OW 1849   6.944   1.391   1.302
  317SOL    HW1 1850   0.001   1.434   1.345
  317SOL    HW2 1851   6.974   1.314   1.247
  318SOL     OW 1852   0.482   5.538   6.621
  318SOL    HW1 1853   0.448   5.499   6.706
  318SOL    HW2 1854   0.422   5.511   6.546
  319SOL     OW 1855   6.489   1.655   3.452
  319SOL    HW1 1856   6.450   1.732   3.401
  319SOL    HW2 1857   6.483   1.673   3.550
  320SOL     OW 1858   6.288   2.661   1.325
  320SOL    HW1 1859   6.214   2.726   1.303
  320SOL    HW2 1860   6.310   2.608   1.243
  321SOL     OW 1861   3.164   1.163   0.204
  321SOL    HW1 1862   3.117   1.170   0.116
  321SOL    HW2 1863   3.106   1.200   0.276
  322SOL     OW 1864   3.213   2.969   3.651
  322SOL    HW1 1865   3.277   2.928   3.716
  322SOL    HW2 1866   3.142   3.018   3.701
  323SOL     OW 1867   1.444   3.029   5.937
  323SOL    HW1 1868   1.347   3.052   5.944
  323SOL    HW2 1869   1.475   3.042   5.843
  324SOL     OW 1870   2.803   0.619   4.110
  324SOL    HW1 1871   2.843   0.530   4.131
  324SOL    HW2 1872   2.707   0.620   4.136
  325SOL     OW 1873   0.476   2.670   1.741
  325SOL    HW1 1874   0.486   2.765   1.709
  325SOL    HW2 1875   0.381   2.642   1.731
  326SOL     OW 1876   1.398   5.381   6.870
  326SOL    HW1 1877   1.341   5.341   6.942
  326SOL    HW2 1878   1.395   5.323   6.789
  327SOL     OW 1879   1.591   4.448   2.845
  327SOL    HW1 1880   1.567   4.415   2.937
  327SOL    HW2 1881   1.566   4.544   2.837
  328SOL     OW 1882   1.558   5.554   1.986
  328SOL    HW1 1883   1.646   5.512   2.008
  328SOL    HW2 1884   1.573   5.645   1.947
  329SOL     OW 1885   3.458   2.922   4.065
  329SOL    HW1 1886   3.547   2.885   4.092
  329SOL    HW2 1887   3.437   2.893   3.972
  330SOL     OW 1888   3.512   6.214   1.358
  330SOL    HW1 1889   3.474   6.202   1.450
  330SOL    HW2 1890   3.458   6.281   1.308
  331SOL     OW 1891   3.942   5.729   0.158
  331SOL    HW1 1892   3.906   5.712   0.250
  331SOL    HW2 1893   3.876   5.698   0.090
  332SOL     OW 1894   4.845   2.354   5.047
  332SOL    HW1 1895   4.880   2.445   5.027
  332SOL    HW2 1896   4.856   2.335   5.145
  333SOL     OW 1897   3.466   0.596   6.370
  333SOL    HW1 1898   3.366   0.599   6.364
  333SOL    HW2 1899   3.499   0.516   6.321
  334SOL     OW 1900   3.339   1.279   1.050
  334SOL    HW1 1901   3.300   1.309   1.138
  334SOL    HW2 1902   3.291   1.326   0.975
  335SOL     OW 1903   4.267   6.889   5.475
  335SOL    HW1 1904   4.252   6.891   5.376
  335SOL    HW2 1905   4.284   6.795   5.504
  336SOL     OW 1906   2.775   0.895   3.652
  336SOL    HW1 1907   2.808   0.960   3.583
  336SOL    HW2 1908   2.678   0.910   3.669
  337SOL     OW 1909   0.895   2.593   6.562
  337SOL    HW1 1910   0.948   2.650   6.500
  337SOL    HW2 1911   0.920   2.615   6.657
  338SOL     OW 1912   3.252   2.832   1.470
  338SOL    HW1 1913   3.253   2.834   1.370
  338SOL    HW2 1914   3.160   2.852   1.504
  339SOL     OW 1915   3.985   6.076   4.072
  339SOL    HW1 1916   3.975   6.144   4.145
  339SOL    HW2 1917   3.901   6.073   4.017
  340SOL     OW 1918   4.764   4.269   4.672
  340SOL    HW1 1919   4.764   4.187   4.616
  340SOL    HW2 1920   4.772   4.244   4.769
  341SOL     OW 1921   6.585   0.147   4.435
  341SOL    HW1 1922   6.577   0.054   4.401
  341SOL    HW2 1923   6.599   0.146   4.534
  342SOL     OW 1924   6.415   3.408   0.038
  342SOL    HW1 1925   6.495   3.349   0.039
  342SOL    HW2 1926   6.441   3.499   0.006
  343SOL     OW 1927   1.953   5.709   1.019
  343SOL    HW1 1928   1.886   5.645   0.982
  343SOL    HW2 1929   1.970   5.689   1.115
  344SOL     OW 1930   1.201   3.304   1.909
  344SOL    HW1 1931   1.242   3.220   1.943
  344SOL    HW2 1932   1.270   3.359   1.862
  345SOL     OW 1933   4.130   2.165   2.672
  345SOL    HW1 1934   4.185   2.229   2.726
  345SOL    HW2 1935   4.181   2.138   2.590
  346SOL     OW 1936   2.268   0.875   2.979
  346SOL    HW1 1937   2.236   0.847   3.070
  346SOL    HW2 1938   2.205   0.841   2.909
  347SOL     OW 1939   2.605   5.875   6.459
  347SOL    HW1 1940   2.634   5.967   6.431
  347SOL    HW2 1941   2.658   5.845   6.538
  348SOL     OW 1942   5.320   4.515   1.979
  348SOL    HW1 1943   5.273   4.430   1.954
  348SOL    HW2 1944   5.391   4.495   2.046
  349SOL     OW 1945   6.672   5.630   0.972
  349SOL    HW1 1946   6.669   5.532   0.993
  349SOL    HW2 1947   6.632   5.647   0.882
  350SOL     OW 1948   3.250   3.208   0.898
  350SOL    HW1 1949   3.193   3.287   0.921
  350SOL    HW2 1950   3.332   3.239   0.850
  351SOL     OW 1951   1.907   3.280   1.252
  351SOL    HW1 1952   1.857   3.263   1.338
  351SOL    HW2 1953   1.876   3.367   1.213
  352SOL     OW 1954   3.123   0.170   4.567
  352SOL    HW1 1955   3.086   0.252   4.610
  352SOL    HW2 1956   3.125   0.183   4.468
  353SOL     OW 1957   1.998   0.350   0.843
  353SOL    HW1 1958   1.953   0.430   0.882
  353SOL    HW2 1959   1.929   0.286   0.808
  354SOL     OW 1960   3.941   2.409   1.076
  354SOL    HW1 1961   3.876   2.431   1.148
  354SOL    HW2 1962   3.976   2.316   1.090
  355SOL     OW 1963   1.511   3.683   2.278
  355SOL    HW1 1964   1.538   3.591   2.306
  355SOL    HW2 1965   1.414   3.697   2.300
  356SOL     OW 1966   3.108   6.921   6.081
  356SOL    HW1 1967   3.151   6.995   6.028
  356SOL    HW2 1968   3.009   6.927   6.070
  357SOL     OW 1969   6.784   5.744   6.058
  357SOL    HW1 1970   6.803   5.834   6.096
  357SOL    HW2 1971   6.734   5.689   6.125
  358SOL     OW 1972   4.140   6.760   0.403
  358SOL    HW1 1973   4.121   6.845   0.451
  358SOL    HW2 1974   4.227   6.722   0.436
  359SOL     OW 1975   2.279   2.373   1.950
  359SOL    HW1 1976   2.207   2.400   2.014
  359SOL    HW2 1977   2.354   2.331   2.001
  360SOL     OW 1978   1.172   5.099   6.320
  360SOL    HW1 1979   1.101   5.032   6.340
  360SOL    HW2 1980   1.137   5.191   6.335
  361SOL     OW 1981   6.006   6.528   2.931
  361SOL    HW1 1982   6.019   6.485   3.021
  361SOL    HW2 1983   5.911   6.557   2.921
  362SOL     OW 1984   3.548   3.380   1.117
  362SOL    HW1 1985   3.484   3.433   1.173
  362SOL    HW2 1986   3.618   3.340   1.176
  363SOL     OW 1987   5.257   4.082   3.349
  363SOL    HW1 1988   5.204   3.999   3.334
  363SOL    HW2 1989   5.220   4.156   3.292
  364SOL     OW 1990   6.567   5.563   6.620
  364SOL    HW1 1991   6.532   5.566   6.713
  364SOL    HW2 1992   6.619   5.646   6.601
  365SOL     OW 1993   6.157   5.983   1.875
  365SOL    HW1 1994   6.064   6.017   1.863
  365SOL    HW2 1995   6.200   6.032   1.951
  366SOL     OW 1996   5.456   0.781   6.127
  366SOL    HW1 1997   5.445   0.701   6.186
  366SOL    HW2 1998   5.375   0.790   6.069
  367SOL     OW 1999   5.630   3.361   1.295
  367SOL    HW1 2000   5.586   3.281   1.255
  367SOL    HW2 2001   5.561   3.426   1.326
  368SOL     OW 2002   7.014   3.112   4.775
  368SOL    HW1 2003   0.052   3.073   4.845
  368SOL    HW2 2004   0.029   3.096   4.685
  369SOL     OW 2005   6.170   5.311   2.284
  369SOL    HW1 2006   6.148   5.409   2.281
  369SOL    HW2 2007   6.093   5.259   2.248
  370SOL     OW 2008   2.578   1.210   5.584
  370SOL    HW1 2009   2.553   1.278   5.515
  370SOL    HW2 2010   2.623   1.133   5.539
  371SOL     OW 2011   2.503   3.723   5.991
  371SOL    HW1 2012   2.593   3.685   6.012
  371SOL    HW2 2013   2.511   3.822   5.980
  372SOL     OW 2014   0.828   6.845   5.984
  372SOL    HW1 2015   0.762   6.911   6.018
  372SOL    HW2 2016   0.907   6.842   6.046
  373SOL     OW 2017   6.589   6.494   4.674
  373SOL    HW1 2018   6.570   6.521   4.768
  373SOL    HW2 2019   6.506   6.501   4.619
  374SOL     OW 2020   2.852   1.842   3.885
  374SOL    HW1 2021   2.951   1.829   3.888
  374SOL    HW2 2022   2.819   1.866   3.976
  375SOL     OW 2023   0.663   4.151   4.127
  375SOL    HW1 2024   0.761   4.139   4.144
  375SOL    HW2 2025   0.611   4.114   4.204
  376SOL     OW 2026   2.654   1.078   5.179
  376SOL    HW1 2027   2.622   1.059   5.272
  376SOL    HW2 2028   2.651   0.994   5.125
  377SOL     OW 2029   1.417   1.598   1.352
  377SOL    HW1 2030   1.391   1.512   1.308
  377SOL    HW2 2031   1.516   1.610   1.347
  378SOL     OW 2032   4.597   2.608   6.612
  378SOL    HW1 2033   4.616   2.698   6.651
  378SOL    HW2 2034   4.512   2.612   6.559
  379SOL     OW 2035   6.374   3.368   1.049
  379SOL    HW1 2036   6.296   3.410   1.094
  379SOL    HW2 2037   6.447   3.435   1.036
  380SOL     OW 2038   2.142   1.460   0.903
  380SOL    HW1 2039   2.140   1.430   0.808
  380SOL    HW2 2040   2.049   1.478   0.934
  381SOL     OW 2041   1.399   3.590   2.830
  381SOL    HW1 2042   1.412   3.586   2.929
  381SOL    HW2 2043   1.454   3.663   2.791
  382SOL     OW 2044   5.982   0.349   6.414
  382SOL    HW1 2045   5.900   0.298   6.388
  382SOL    HW2 2046   6.059   0.320   6.357
  383SOL     OW 2047   4.216   3.742   6.101
  383SOL    HW1 2048   4.246   3.831   6.067
  383SOL    HW2 2049   4.171   3.754   6.190
  384SOL     OW 2050   6.861   5.680   4.003
  384SOL    HW1 2051   6.799   5.752   3.972
  384SOL    HW2 2052   6.810   5.595   4.015
  385SOL     OW 2053   3.889   5.398   5.355
  385SOL    HW1 2054   3.790   5.406   5.342
  385SOL    HW2 2055   3.919   5.308   5.325
  386SOL     OW 2056   2.043   6.850   5.498
  386SOL    HW1 2057   2.023   6.787   5.573
  386SOL    HW2 2058   1.984   6.828   5.420
  387SOL     OW 2059   1.201   6.674   3.450
  387SOL    HW1 2060   1.264   6.629   3.387
  387SOL    HW2 2061   1.233   6.660   3.544
  388SOL     OW 2062   1.391   1.930   4.747
  388SOL    HW1 2063   1.483   1.906   4.777
  388SOL    HW2 2064   1.326   1.911   4.821
  389SOL     OW 2065   3.671   4.458   1.127
  389SOL    HW1 2066   3.577   4.432   1.105
  389SOL    HW2 2067   3.722   4.378   1.158
  390SOL     OW 2068   3.421   1.162   0.137
  390SOL    HW1 2069   3.456   1.069   0.152
  390SOL    HW2 2070   3.325   1.166   0.164
  391SOL     OW 2071   2.325   3.410   6.066
  391SOL    HW1 2072   2.240   3.444   6.026
  391SOL    HW2 2073   2.391   3.391   5.993
  392SOL     OW 2074   1.290   4.469   0.637
  392SOL    HW1 2075   1.195   4.494   0.616
  392SOL    HW2 2076   1.332   4.426   0.557
  393SOL     OW 2077   1.540   4.618   6.249
  393SOL    HW1 2078   1.536   4.519   6.235
  393SOL    HW2 2079   1.562   4.663   6.162
  394SOL     OW 2080   6.932   2.305   0.711
  394SOL    HW1 2081   7.004   2.235   0.710
  394SOL    HW2 2082   6.871   2.290   0.633
  395SOL     OW 2083   5.137   4.237   3.189
  395SOL    HW1 2084   5.060   4.207   3.132
  395SOL    HW2 2085   5.172   4.324   3.153
  396SOL     OW 2086   2.824   3.411   1.881
  396SOL    HW1 2087   2.872   3.424   1.968
  396SOL    HW2 2088   2.793   3.316   1.874
  397SOL     OW 2089   5.948   1.715   6.103
  397SOL    HW1 2090   5.956   1.676   6.195
  397SOL    HW2 2091   5.927   1.812   6.110
  398SOL     OW 2092   1.232   0.048   3.090
  398SOL    HW1 2093   1.205   0.102   3.170
  398SOL    HW2 2094   1.264   0.109   3.018
  399SOL     OW 2095   5.225   6.418   3.228
  399SOL    HW1 2096   5.235   6.489   3.298
  399SOL    HW2 2097   5.140   6.368   3.243
  400SOL     OW 2098   6.271   6.484   5.059
  400SOL    HW1 2099   6.357   6.522   5.023
  400SOL    HW2 2100   6.241   6.539   5.137
  401SOL     OW 2101   5.433   0.117   6.600
  401SOL    HW1 2102   5.371   0.094   6.526
  401SOL    HW2 2103   5.380   0.142   6.681
  402SOL     OW 2104   6.527   0.211   3.856
  402SOL    HW1 2105   6.485   0.298   3.880
  402SOL    HW2 2106   6.548   0.160   3.940
  403SOL     OW 2107   4.057   1.681   4.811
  403SOL    HW1 2108   4.128   1.711   4.875
  403SOL    HW2 2109   3.969   1.720   4.839
  404SOL     OW 2110   1.576   4.935   3.706
  404SOL    HW1 2111   1.558   4.865   3.637
  404SOL    HW2 2112   1.648   4.903   3.767
  405SOL     OW 2113   2.203   3.018   2.665
  405SOL    HW1 2114   2.151   3.103   2.663
  405SOL    HW2 2115   2.238   2.998   2.573
  406SOL     OW 2116   0.826   4.449   4.655
  406SOL    HW1 2117   0.770   4.492   4.726
  406SOL    HW2 2118   0.802   4.353   4.646
  407SOL     OW 2119   0.251   1.204   4.880
  407SOL    HW1 2120   0.209   1.174   4.966
  407SOL    HW2 2121   0.350   1.204   4.890
  408SOL     OW 2122   2.419   2.180   3.056
  408SOL    HW1 2123   2.416   2.086   3.091
  408SOL    HW2 2124   2.500   2.192   2.998
  409SOL     OW 2125   6.015   3.515   2.382
  409SOL    HW1 2126   5.973   3.486   2.296
  409SOL    HW2 2127   6.090   3.579   2.362
  410SOL     OW 2128   1.146   1.570   1.164
  410SOL    HW1 2129   1.219   1.510   1.197
  410SOL    HW2 2130   1.105   1.531   1.081
  411SOL     OW 2131   6.632   1.114   1.421
  411SOL    HW1 2132   6.715   1.059   1.414
  411SOL    HW2 2133   6.656   1.211   1.429
  412SOL     OW 2134   3.194   5.811   3.191
  412SOL    HW1 2135   3.254   5.787   3.115
  412SOL    HW2 2136   3.239   5.880   3.249
  413SOL     OW 2137   5.564   3.969   1.874
  413SOL    HW1 2138   5.518   3.918   1.801
  413SOL    HW2 2139   5.649   4.008   1.840
  414SOL     OW 2140   3.586   5.380   3.292
  414SOL    HW1 2141   3.509   5.321   3.266
  414SOL    HW2 2142   3.551   5.467   3.327
  415SOL     OW 2143   0.641   6.589   6.028
  415SOL    HW1 2144   0.676   6.682   6.026
  415SOL    HW2 2145   0.543   6.589   6.008
  416SOL     OW 2146   4.757   6.300   4.685
  416SOL    HW1 2147   4.774   6.385   4.635
  416SOL    HW2 2148   4.662   6.271   4.670
  417SOL     OW 2149   2.295   6.302   5.652
  417SOL    HW1 2150   2.250   6.332   5.567
  417SOL    HW2 2151   2.388   6.340   5.655
  418SOL     OW 2152   3.881   6.763   6.419
  418SOL    HW1 2153   3.862   6.728   6.511
  418SOL    HW2 2154   3.816   6.836   6.397
  419SOL     OW 2155   1.426   6.259   2.370
  419SOL    HW1 2156   1.464   6.218   2.287
  419SOL    HW2 2157   1.430   6.359   2.362
  420SOL     OW 2158   6.004   1.747   0.205
  420SOL    HW1 2159   6.088   1.695   0.195
  420SOL    HW2 2160   5.941   1.697   0.264
  421SOL     OW 2161   6.501   3.971   5.137
  421SOL    HW1 2162   6.537   3.885   5.175
  421SOL    HW2 2163   6.486   4.036   5.211
  422SOL     OW 2164   5.390   3.822   1.408
  422SOL    HW1 2165   5.413   3.901   1.351
  422SOL    HW2 2166   5.300   3.837   1.449
  423SOL     OW 2167   0.988   2.751   6.135
  423SOL    HW1 2168   1.060   2.719   6.073
  423SOL    HW2 2169   0.953   2.673   6.187
  424SOL     OW 2170   1.495   5.036   1.367
  424SOL    HW1 2171   1.397   5.017   1.361
  424SOL    HW2 2172   1.522   5.099   1.294
  425SOL     OW 2173   4.959   2.010   3.101
  425SOL    HW1 2174   4.968   2.097   3.054
  425SOL    HW2 2175   4.982   1.935   3.039
  426SOL     OW 2176   2.633   1.845   4.618
  426SOL    HW1 2177   2.644   1.835   4.717
  426SOL    HW2 2178   2.575   1.924   4.599
  427SOL     OW 2179   5.606   6.864   3.887
  427SOL    HW1 2180   5.590   6.957   3.853
  427SOL    HW2 2181   5.696   6.833   3.855
  428SOL     OW 2182   4.090   6.994   3.202
  428SOL    HW1 2183   4.134   0.057   3.227
  428SOL    HW2 2184   4.008   7.012   3.149
  429SOL     OW 2185   0.677   5.092   2.936
  429SOL    HW1 2186   0.609   5.115   3.005
  429SOL    HW2 2187   0.767   5.125   2.965
  430SOL     OW 2188   1.413   5.991   4.049
  430SOL    HW1 2189   1.433   6.084   4.019
  430SOL    HW2 2190   1.490   5.956   4.102
  431SOL     OW 2191   3.180   0.132   1.253
  431SOL    HW1 2192   3.116   0.087   1.316
  431SOL    HW2 2193   3.231   0.203   1.302
  432SOL     OW 2194   6.630   2.367   1.360
  432SOL    HW1 2195   6.575   2.430   1.415
  432SOL    HW2 2196   6.615   2.386   1.263
  433SOL     OW 2197   2.211   6.661   5.322
  433SOL    HW1 2198   2.273   6.693   5.250
  433SOL    HW2 2199   2.159   6.738   5.358
  434SOL     OW 2200   3.915   5.688   3.210
  434SOL    HW1 2201   3.899   5.710   3.114
  434SOL    HW2 2202   3.847   5.734   3.266
  435SOL     OW 2203   4.486   2.069   6.552
  435SOL    HW1 2204   4.446   2.027   6.633
  435SOL    HW2 2205   4.494   2.168   6.566
  436SOL     OW 2206   3.068   4.843   1.667
  436SOL    HW1 2207   3.049   4.809   1.759
  436SOL    HW2 2208   3.141   4.912   1.671
  437SOL     OW 2209   0.360   1.427   5.996
  437SOL    HW1 2210   0.424   1.401   6.068
  437SOL    HW2 2211   0.309   1.347   5.966
  438SOL     OW 2212   2.176   4.131   4.369
  438SOL    HW1 2213   2.222   4.125   4.281
  438SOL    HW2 2214   2.197   4.049   4.423
  439SOL     OW 2215   6.048   6.270   2.682
  439SOL    HW1 2216   5.958   6.226   2.692
  439SOL    HW2 2217   6.059   6.339   2.753
  440SOL     OW 2218   2.686   1.989   5.378
  440SOL    HW1 2219   2.594   2.020   5.404
  440SOL    HW2 2220   2.754   2.053   5.413
  441SOL     OW 2221   0.421   2.951   3.428
  441SOL    HW1 2222   0.513   2.912   3.429
  441SOL    HW2 2223   0.362   2.895   3.370
  442SOL     OW 2224   4.170   5.842   5.234
  442SOL    HW1 2225   4.116   5.878   5.157
  442SOL    HW2 2226   4.159   5.902   5.313
  443SOL     OW 2227   5.800   4.342   4.324
  443SOL    HW1 2228   5.828   4.258   4.278
  443SOL    HW2 2229   5.781   4.322   4.420
  444SOL     OW 2230   5.223   0.775   6.365
  444SOL    HW1 2231   5.199   0.868   6.336
  444SOL    HW2 2232   5.143   0.730   6.402
  445SOL     OW 2233   1.650   5.553   2.882
  445SOL    HW1 2234   1.601   5.513   2.959
  445SOL    HW2 2235   1.732   5.499   2.863
  446SOL     OW 2236   4.057   4.800   2.803
  446SOL    HW1 2237   4.023   4.841   2.718
  446SOL    HW2 2238   4.149   4.764   2.787
  447SOL     OW 2239   0.054   3.238   5.706
  447SOL    HW1 2240   0.120   3.229   5.781
  447SOL    HW2 2241   0.045   3.150   5.658
  448SOL     OW 2242   2.506   0.681   2.897
  448SOL    HW1 2243   2.579   0.741   2.929
  448SOL    HW2 2244   2.419   0.709   2.939
  449SOL     OW 2245   2.710   1.316   3.940
  449SOL    HW1 2246   2.662   1.348   3.858
  449SOL    HW2 2247   2.806   1.302   3.918
  450SOL     OW 2248   1.501   4.732   3.551
  450SOL    HW1 2249   1.564   4.658   3.528
  450SOL    HW2 2250   1.435   4.743   3.476
  451SOL     OW 2251   1.583   2.246   4.979
  451SOL    HW1 2252   1.669   2.252   4.929
  451SOL    HW2 2253   1.514   2.305   4.936
  452SOL     OW 2254   5.029   6.468   0.654
  452SOL    HW1 2255   4.988   6.553   0.688
  452SOL    HW2 2256   4.963   6.393   0.661
  453SOL     OW 2257   3.518   0.477   6.956
  453SOL    HW1 2258   3.528   0.508   6.861
  453SOL    HW2 2259   3.505   0.555   7.016
  454SOL     OW 2260   6.856   3.676   6.401
  454SOL    HW1 2261   6.857   3.701   6.304
  454SOL    HW2 2262   6.904   3.746   6.454
  455SOL     OW 2263   5.057   2.547   4.781
  455SOL    HW1 2264   4.998   2.477   4.740
  455SOL    HW2 2265   5.144   2.550   4.731
  456SOL     OW 2266   0.640   6.935   3.973
  456SOL    HW1 2267   0.595   6.970   3.891
  456SOL    HW2 2268   0.688   6.850   3.951
  457SOL     OW 2269   1.934   4.158   4.566
  457SOL    HW1 2270   1.857   4.207   4.527
  457SOL    HW2 2271   1.997   4.131   4.492
  458SOL     OW 2272   2.969   6.171   2.722
  458SOL    HW1 2273   2.910   6.141   2.798
  458SOL    HW2 2274   2.963   6.105   2.648
  459SOL     OW 2275   2.547   0.026   6.342
  459SOL    HW1 2276   2.501   0.115   6.347
  459SOL    HW2 2277   2.480   6.978   6.320
  460SOL     OW 2278   2.003   0.235   4.510
  460SOL    HW1 2279   1.988   0.250   4.412
  460SOL    HW2 2280   1.930   0.280   4.562
  461SOL     OW 2281   0.037   5.369   5.380
  461SOL    HW1 2282   6.993   5.307   5.339
  461SOL    HW2 2283   7.016   5.424   5.451
  462SOL     OW 2284   4.298   3.324   6.465
  462SOL    HW1 2285   4.256   3.245   6.422
  462SOL    HW2 2286   4.299   3.312   6.565
  463SOL     OW 2287   6.529   6.484   4.126
  463SOL    HW1 2288   6.435   6.500   4.154
  463SOL    HW2 2289   6.592   6.517   4.197
  464SOL     OW 2290   2.941   0.647   5.567
  464SOL    HW1 2291   2.926   0.726   5.507
  464SOL    HW2 2292   3.008   0.671   5.637
  465SOL     OW 2293   0.557   2.267   0.235
  465SOL    HW1 2294   0.484   2.207   0.268
  465SOL    HW2 2295   0.517   2.347   0.190
  466SOL     OW 2296   2.268   6.541   3.972
  466SOL    HW1 2297   2.319   6.540   3.886
  466SOL    HW2 2298   2.189   6.480   3.965
  467SOL     OW 2299   1.681   1.242   2.240
  467SOL    HW1 2300   1.712   1.160   2.192
  467SOL    HW2 2301   1.590   1.225   2.279
  468SOL     OW 2302   3.353   6.049   4.994
  468SOL    HW1 2303   3.369   5.960   4.953
  468SOL    HW2 2304   3.268   6.047   5.047
  469SOL     OW 2305   2.760   3.590   6.028
  469SOL    HW1 2306   2.821   3.611   6.105
  469SOL    HW2 2307   2.785   3.502   5.988
  470SOL     OW 2308   4.069   6.057   0.889
  470SOL    HW1 2309   4.014   6.051   0.806
  470SOL    HW2 2310   4.156   6.100   0.868
  471SOL     OW 2311   2.284   2.728   4.117
  471SOL    HW1 2312   2.334   2.685   4.042
  471SOL    HW2 2313   2.341   2.728   4.199
  472SOL     OW 2314   5.393   4.535   6.582
  472SOL    HW1 2315   5.342   4.526   6.497
  472SOL    HW2 2316   5.339   4.588   6.648
  473SOL     OW 2317   1.336   1.763   2.660
  473SOL    HW1 2318   1.256   1.705   2.647
  473SOL    HW2 2319   1.387   1.769   2.574
  474SOL     OW 2320   5.421   5.912   4.490
  474SOL    HW1 2321   5.459   5.982   4.550
  474SOL    HW2 2322   5.422   5.824   4.538
  475SOL     OW 2323   6.584   2.828   0.237
  475SOL    HW1 2324   6.675   2.787   0.241
  475SOL    HW2 2325   6.518   2.767   0.279
  476SOL     OW 2326   7.021   3.874   2.187
  476SOL    HW1 2327   0.068   3.806   2.206
  476SOL    HW2 2328   6.930   3.831   2.192
  477SOL     OW 2329   2.493   6.053   3.070
  477SOL    HW1 2330   2.531   5.961   3.056
  477SOL    HW2 2331   2.554   6.121   3.027
  478SOL     OW 2332   3.883   6.184   2.796
  478SOL    HW1 2333   3.912   6.205   2.889
  478SOL    HW2 2334   3.811   6.248   2.768
  479SOL     OW 2335   3.919   3.462   5.250
  479SOL    HW1 2336   4.005   3.505   5.224
  479SOL    HW2 2337   3.938   3.374   5.294
  480SOL     OW 2338   2.441   0.378   0.896
  480SOL    HW1 2339   2.390   0.304   0.852
  480SOL    HW2 2340   2.484   0.435   0.825
  481SOL     OW 2341   1.182   6.555   1.631
  481SOL    HW1 2342   1.115   6.491   1.591
  481SOL    HW2 2343   1.218   6.517   1.716
  482SOL     OW 2344   4.400   4.949   2.188
  482SOL    HW1 2345   4.411   4.859   2.231
  482SOL    HW2 2346   4.328   4.945   2.120
  483SOL     OW 2347   6.623   2.388   2.884
  483SOL    HW1 2348   6.667   2.310   2.929
  483SOL    HW2 2349   6.541   2.357   2.836
  484SOL     OW 2350   1.718   4.022   4.771
  484SOL    HW1 2351   1.725   4.112   4.813
  484SOL    HW2 2352   1.808   3.994   4.738
  485SOL     OW 2353   4.518   4.816   2.585
  485SOL    HW1 2354   4.469   4.783   2.504
  485SOL    HW2 2355   4.564   4.902   2.563
  486SOL     OW 2356   6.414   1.516   0.495
  486SOL    HW1 2357   6.475   1.579   0.447
  486SOL    HW2 2358   6.331   1.564   0.522
  487SOL     OW 2359   0.663   0.372   3.313
  487SOL    HW1 2360   0.748   0.372   3.364
  487SOL    HW2 2361   0.607   0.293   3.339
  488SOL     OW 2362   1.010   0.361   2.810
  488SOL    HW1 2363   0.948   0.408   2.748
  488SOL    HW2 2364   1.087   0.323   2.758
  489SOL     OW 2365   5.107   6.135   5.678
  489SOL    HW1 2366   5.012   6.136   5.647
  489SOL    HW2 2367   5.154   6.218   5.646
  490SOL     OW 2368   2.014   5.981   3.728
  490SOL    HW1 2369   2.007   5.884   3.752
  490SOL    HW2 2370   2.109   6.012   3.740
  491SOL     OW 2371   1.101   2.719   1.628
  491SOL    HW1 2372   1.002   2.731   1.641
  491SOL    HW2 2373   1.147   2.807   1.636
  492SOL     OW 2374   1.451   1.097   5.967
  492SOL    HW1 2375   1.462   1.183   6.017
  492SOL    HW2 2376   1.521   1.089   5.896
  493SOL     OW 2377   3.239   6.599   5.700
  493SOL    HW1 2378   3.191   6.646   5.626
  493SOL    HW2 2379   3.189   6.612   5.786
  494SOL     OW 2380   1.079   6.609   6.565
  494SOL    HW1 2381   1.064   6.597   6.663
  494SOL    HW2 2382   1.095   6.519   6.523
  495SOL     OW 2383   3.971   5.750   3.541
  495SOL    HW1 2384   3.928   5.701   3.616
  495SOL    HW2 2385   3.902   5.776   3.474
  496SOL     OW 2386   5.659   2.829   1.981
  496SOL    HW1 2387   5.738   2.891   1.977
  496SOL    HW2 2388   5.682   2.742   1.938
  497SOL     OW 2389   3.233   1.111   4.614
  497SOL    HW1 2390   3.267   1.028   4.571
  497SOL    HW2 2391   3.289   1.133   4.693
  498SOL     OW 2392   0.697   5.316   2.536
  498SOL    HW1 2393   0.790   5.285   2.555
  498SOL    HW2 2394   0.639   5.299   2.616
  499SOL     OW 2395   1.856   5.525   4.638
  499SOL    HW1 2396   1.944   5.535   4.683
  499SOL    HW2 2397   1.783   5.527   4.707
  500SOL     OW 2398   6.749   2.666   6.609
  500SOL    HW1 2399   6.655   2.653   6.641
  500SOL    HW2 2400   6.749   2.668   6.509
  501SOL     OW 2401   4.068   6.752   0.712
  501SOL    HW1 2402   3.996   6.684   0.701
  501SOL    HW2 2403   4.047   6.811   0.790
  502SOL     OW 2404   0.685   4.532   6.147
  502SOL    HW1 2405   0.744   4.608   6.173
  502SOL    HW2 2406   0.696   4.456   6.211
  503SOL     OW 2407   0.612   4.738   6.444
  503SOL    HW1 2408   0.686   4.670   6.448
  503SOL    HW2 2409   0.556   4.723   6.363
  504SOL     OW 2410   1.083   5.616   2.438
  504SOL    HW1 2411   0.986   5.592   2.433
  504SOL    HW2 2412   1.139   5.534   2.435
  505SOL     OW 2413   3.961   5.925   4.534
  505SOL    HW1 2414   3.950   5.827   4.515
  505SOL    HW2 2415   3.875   5.963   4.567
  506SOL     OW 2416   3.964   5.495   2.619
  506SOL    HW1 2417   3.956   5.443   2.704
  506SOL    HW2 2418   3.899   5.571   2.620
  507SOL     OW 2419   3.025   6.606   2.845
  507SOL    HW1 2420   3.032   6.602   2.945
  507SOL    HW2 2421   2.946   6.552   2.815
  508SOL     OW 2422   0.124   3.377   2.678
  508SOL    HW1 2423   0.212   3.424   2.691
  508SOL    HW2 2424   0.089   3.348   2.768
  509SOL     OW 2425   2.885   1.599   0.990
  509SOL    HW1 2426   2.956   1.645   1.044
  509SOL    HW2 2427   2.865   1.654   0.909
  510SOL     OW 2428   6.225   4.296   0.018
  510SOL    HW1 2429   6.230   4.230   6.966
  510SOL    HW2 2430   6.304   4.286   0.077
  511SOL     OW 2431   0.486   3.174   6.108
  511SOL    HW1 2432   0.428   3.192   6.188
  511SOL    HW2 2433   0.572   3.223   6.119
  512SOL     OW 2434   6.903   2.004   6.580
  512SOL    HW1 2435   6.995   1.998   6.541
  512SOL    HW2 2436   6.842   1.942   6.529
  513SOL     OW 2437   5.221   6.670   3.064
  513SOL    HW1 2438   5.319   6.688   3.065
  513SOL    HW2 2439   5.205   6.571   3.054
  514SOL     OW 2440   6.116   0.498   4.520
  514SOL    HW1 2441   6.072   0.476   4.433
  514SOL    HW2 2442   6.186   0.568   4.505
  515SOL     OW 2443   1.151   1.151   0.884
  515SOL    HW1 2444   1.104   1.175   0.969
  515SOL    HW2 2445   1.173   1.235   0.834
  516SOL     OW 2446   2.658   4.662   1.742
  516SOL    HW1 2447   2.722   4.638   1.815
  516SOL    HW2 2448   2.601   4.738   1.771
  517SOL     OW 2449   3.372   4.933   1.914
  517SOL    HW1 2450   3.339   4.947   1.821
  517SOL    HW2 2451   3.443   4.862   1.914
  518SOL     OW 2452   2.179   2.581   3.769
  518SOL    HW1 2453   2.113   2.543   3.833
  518SOL    HW2 2454   2.269   2.583   3.812
  519SOL     OW 2455   1.030   6.358   2.937
  519SOL    HW1 2456   1.129   6.370   2.938
  519SOL    HW2 2457   0.989   6.422   2.872
  520SOL     OW 2458   6.293   3.600   6.680
  520SOL    HW1 2459   6.380   3.560   6.707
  520SOL    HW2 2460   6.294   3.619   6.581
  521SOL     OW 2461   6.572   6.413   5.358
  521SOL    HW1 2462   6.570   6.494   5.299
  521SOL    HW2 2463   6.543   6.333   5.306
  522SOL     OW 2464   3.875   3.391   4.036
  522SOL    HW1 2465   3.884   3.489   4.021
  522SOL    HW2 2466   3.855   3.346   3.949
  523SOL     OW 2467   0.369   5.790   0.881
  523SOL    HW1 2468   0.451   5.832   0.841
  523SOL    HW2 2469   0.327   5.854   0.944
  524SOL     OW 2470   1.334   2.506   2.971
  524SOL    HW1 2471   1.386   2.576   3.019
  524SOL    HW2 2472   1.276   2.457   3.036
  525SOL     OW 2473   1.881   4.240   6.085
  525SOL    HW1 2474   1.906   4.162   6.144
  525SOL    HW2 2475   1.914   4.223   5.992
  526SOL     OW 2476   3.409   6.495   3.900
  526SOL    HW1 2477   3.470   6.464   3.973
  526SOL    HW2 2478   3.326   6.440   3.900
  527SOL     OW 2479   6.908   2.993   0.572
  527SOL    HW1 2480   6.868   3.060   0.509
  527SOL    HW2 2481   7.007   2.990   0.559
  528SOL     OW 2482   1.662   2.326   3.267
  528SOL    HW1 2483   1.659   2.286   3.359
  528SOL    HW2 2484   1.672   2.253   3.200
  529SOL     OW 2485   1.888   6.123   5.137
  529SOL    HW1 2486   1.847   6.034   5.161
  529SOL    HW2 2487   1.831   6.196   5.173
  530SOL     OW 2488   4.023   3.722   3.326
  530SOL    HW1 2489   4.041   3.759   3.417
  530SOL    HW2 2490   4.069   3.634   3.316
  531SOL     OW 2491   0.939   1.598   2.860
  531SOL    HW1 2492   0.950   1.683   2.912
  531SOL    HW2 2493   0.926   1.619   2.764
  532SOL     OW 2494   0.907   2.054   0.403
  532SOL    HW1 2495   0.876   1.999   0.480
  532SOL    HW2 2496   0.990   2.014   0.365
  533SOL     OW 2497   4.289   6.791   3.230
  533SOL    HW1 2498   4.364   6.828   3.175
  533SOL    HW2 2499   4.207   6.847   3.217
  534SOL     OW 2500   5.443   5.895   2.374
  534SOL    HW1 2501   5.476   5.940   2.458
  534SOL    HW2 2502   5.500   5.816   2.354
  535SOL     OW 2503   6.257   3.648   3.795
  535SOL    HW1 2504   6.329   3.717   3.803
  535SOL    HW2 2505   6.266   3.581   3.869
  536SOL     OW 2506   6.087   4.587   2.805
  536SOL    HW1 2507   6.153   4.541   2.746
  536SOL    HW2 2508   6.071   4.530   2.886
  537SOL     OW 2509   3.199   6.991   4.779
  537SOL    HW1 2510   3.156   0.044   4.730
  537SOL    HW2 2511   3.180   6.906   4.729
  538SOL     OW 2512   0.921   4.636   3.914
  538SOL    HW1 2513   0.888   4.631   4.008
  538SOL    HW2 2514   1.013   4.674   3.912
  539SOL     OW 2515   1.757   4.382   1.713
  539SOL    HW1 2516   1.816   4.450   1.670
  539SOL    HW2 2517   1.706   4.333   1.642
  540SOL     OW 2518   1.651   1.680   2.919
  540SOL    HW1 2519   1.576   1.664   2.855
  540SOL    HW2 2520   1.639   1.622   3.000
  541SOL     OW 2521   5.751   5.577   4.283
  541SOL    HW1 2522   5.697   5.638   4.226
  541SOL    HW2 2523   5.824   5.629   4.328
  542SOL     OW 2524   5.139   6.972   6.696
  542SOL    HW1 2525   5.182   7.013   6.616
  542SOL    HW2 2526   5.056   6.923   6.669
  543SOL     OW 2527   6.403   3.823   4.527
  543SOL    HW1 2528   6.450   3.780   4.604
  543SOL    HW2 2529   6.405   3.762   4.448
  544SOL     OW 2530   1.296   4.786   6.938
  544SOL    HW1 2531   1.371   4.727   6.908
  544SOL    HW2 2532   1.313   4.879   6.906
  545SOL     OW 2533   3.282   1.248   0.708
  545SOL    HW1 2534   3.282   1.289   0.617
  545SOL    HW2 2535   3.316   1.154   0.703
  546SOL     OW 2536   1.455   3.574   0.650
  546SOL    HW1 2537   1.508   3.655   0.673
  546SOL    HW2 2538   1.358   3.590   0.671
  547SOL     OW 2539   3.299   1.853   6.765
  547SOL    HW1 2540   3.372   1.813   6.709
  547SOL    HW2 2541   3.333   1.867   6.858
  548SOL     OW 2542   3.389   3.320   1.792
  548SOL    HW1 2543   3.370   3.272   1.706
  548SOL    HW2 2544   3.303   3.334   1.842
  549SOL     OW 2545   5.301   2.072   1.373
  549SOL    HW1 2546   5.264   2.000   1.432
  549SOL    HW2 2547   5.231   2.100   1.307
  550SOL     OW 2548   1.495   5.481   3.891
  550SOL    HW1 2549   1.515   5.387   3.863
  550SOL    HW2 2550   1.436   5.524   3.824
  551SOL     OW 2551   0.795   0.044   1.827
  551SOL    HW1 2552   0.792   0.025   1.729
  551SOL    HW2 2553   0.883   0.017   1.864
  552SOL     OW 2554   6.173   4.987   0.225
  552SOL    HW1 2555   6.111   4.917   0.259
  552SOL    HW2 2556   6.188   4.973   0.127
  553SOL     OW 2557   2.474   6.786   4.060
  553SOL    HW1 2558   2.426   6.868   4.092
  553SOL    HW2 2559   2.409   6.721   4.023
  554SOL     OW 2560   5.565   6.755   6.651
  554SOL    HW1 2561   5.624   6.737   6.731
  554SOL    HW2 2562   5.584   6.847   6.616
  555SOL     OW 2563   3.118   4.938   4.648
  555SOL    HW1 2564   3.092   5.028   4.612
  555SOL    HW2 2565   3.112   4.938   4.748
  556SOL     OW 2566   5.044   1.738   3.520
  556SOL    HW1 2567   5.103   1.674   3.472
  556SOL    HW2 2568   4.948   1.713   3.505
  557SOL     OW 2569   6.813   5.402   0.675
  557SOL    HW1 2570   6.750   5.354   0.736
  557SOL    HW2 2571   6.906   5.393   0.709
  558SOL     OW 2572   3.010   3.433   3.210
  558SOL    HW1 2573   2.952   3.511   3.189
  558SOL    HW2 2574   2.974   3.385   3.290
  559SOL     OW 2575   0.315   5.494   6.408
  559SOL    HW1 2576   0.305   5.511   6.309
  559SOL    HW2 2577   0.234   5.447   6.442
  560SOL     OW 2578   5.771   3.765   4.087
  560SOL    HW1 2579   5.843   3.821   4.045
  560SOL    HW2 2580   5.682   3.807   4.069
  561SOL     OW 2581   0.201   2.180   1.202
  561SOL    HW1 2582   0.216   2.136   1.291
  561SOL    HW2 2583   0.118   2.142   1.160
  562SOL     OW 2584   4.455   0.022   6.323
  562SOL    HW1 2585   4.368   6.998   6.307
  562SOL    HW2 2586   4.514   0.009   6.243
  563SOL     OW 2587   3.030   0.138   3.634
  563SOL    HW1 2588   3.093   0.174   3.565
  563SOL    HW2 2589   2.991   0.052   3.602
  564SOL     OW 2590   1.164   2.316   6.915
  564SOL    HW1 2591   1.079   2.360   6.943
  564SOL    HW2 2592   1.144   2.225   6.877
  565SOL     OW 2593   3.503   3.211   4.840
  565SOL    HW1 2594   3.516   3.222   4.741
  565SOL    HW2 2595   3.506   3.301   4.884
  566SOL     OW 2596   0.363   4.295   3.493
  566SOL    HW1 2597   0.308   4.262   3.570
  566SOL    HW2 2598   0.325   4.381   3.459
  567SOL     OW 2599   2.721   2.744   1.453
  567SOL    HW1 2600   2.698   2.823   1.510
  567SOL    HW2 2601   2.765   2.674   1.509
  568SOL     OW 2602   4.878   0.285   6.928
  568SOL    HW1 2603   4.953   0.219   6.939
  568SOL    HW2 2604   4.875   0.344   7.009
  569SOL     OW 2605   1.742   2.647   0.263
  569SOL    HW1 2606   1.656   2.653   0.212
  569SOL    HW2 2607   1.728   2.683   0.355
  570SOL     OW 2608   3.946   6.331   5.989
  570SOL    HW1 2609   3.946   6.293   6.081
  570SOL    HW2 2610   4.039   6.354   5.962
  571SOL     OW 2611   3.280   5.486   2.440
  571SOL    HW1 2612   3.196   5.502   2.389
  571SOL    HW2 2613   3.347   5.441   2.379
  572SOL     OW 2614   2.585   4.785   5.563
  572SOL    HW1 2615   2.564   4.873   5.520
  572SOL    HW2 2616   2.538   4.779   5.651
  573SOL     OW 2617   5.417   1.293   5.983
  573SOL    HW1 2618   5.414   1.308   6.082
  573SOL    HW2 2619   5.474   1.364   5.941
  574SOL     OW 2620   3.546   1.502   4.935
  574SOL    HW1 2621   3.595   1.580   4.897
  574SOL    HW2 2622   3.448   1.517   4.927
  575SOL     OW 2623   5.504   3.842   0.920
  575SOL    HW1 2624   5.575   3.906   0.891
  575SOL    HW2 2625   5.518   3.817   1.015
  576SOL     OW 2626   1.459   2.046   3.035
  576SOL    HW1 2627   1.489   2.128   2.985
  576SOL    HW2 2628   1.371   2.064   3.079
  577SOL     OW 2629   1.586   1.512   3.114
  577SOL    HW1 2630   1.647   1.455   3.170
  577SOL    HW2 2631   1.491   1.487   3.135
  578SOL     OW 2632   6.622   5.149   4.251
  578SOL    HW1 2633   6.634   5.114   4.157
  578SOL    HW2 2634   6.525   5.148   4.274
  579SOL     OW 2635   1.740   3.371   3.911
  579SOL    HW1 2636   1.709   3.346   3.819
  579SOL    HW2 2637   1.840   3.366   3.916
  580SOL     OW 2638   5.000   5.466   6.028
  580SOL    HW1 2639   4.940   5.544   6.041
  580SOL    HW2 2640   5.022   5.425   6.117
  581SOL     OW 2641   1.940   3.048   1.803
  581SOL    HW1 2642   1.968   2.952   1.795
  581SOL    HW2 2643   2.017   3.107   1.778
  582SOL     OW 2644   4.577   5.999   2.087
  582SOL    HW1 2645   4.479   5.978   2.083
  582SOL    HW2 2646   4.590   6.098   2.087
  583SOL     OW 2647   2.681   6.745   5.486
  583SOL    HW1 2648   2.726   6.817   5.539
  583SOL    HW2 2649   2.606   6.706   5.540
  584SOL     OW 2650   3.159   5.215   6.569
  584SOL    HW1 2651   3.189   5.301   6.526
  584SOL    HW2 2652   3.151   5.229   6.668
  585SOL     OW 2653   4.784   1.979   6.604
  585SOL    HW1 2654   4.809   1.999   6.510
  585SOL    HW2 2655   4.687   1.958   6.609
  586SOL     OW 2656   3.643   0.774   6.251
  586SOL    HW1 2657   3.633   0.866   6.289
  586SOL    HW2 2658   3.598   0.708   6.310
  587SOL     OW 2659   4.395   1.682   4.421
  587SOL    HW1 2660   4.333   1.635   4.483
  587SOL    HW2 2661   4.463   1.618   4.387
  588SOL     OW 2662   1.933   4.726   1.794
  588SOL    HW1 2663   1.984   4.665   1.854
  588SOL    HW2 2664   1.966   4.820   1.807
  589SOL     OW 2665   3.335   4.589   1.623
  589SOL    HW1 2666   3.247   4.604   1.668
  589SOL    HW2 2667   3.409   4.620   1.683
  590SOL     OW 2668   5.315   2.963   2.301
  590SOL    HW1 2669   5.364   2.930   2.221
  590SOL    HW2 2670   5.307   2.889   2.368
  591SOL     OW 2671   3.043   5.373   3.574
  591SOL    HW1 2672   3.040   5.422   3.661
  591SOL    HW2 2673   3.095   5.288   3.586
  592SOL     OW 2674   3.885   1.720   1.286
  592SOL    HW1 2675   3.953   1.746   1.218
  592SOL    HW2 2676   3.798   1.700   1.241
  593SOL     OW 2677   4.140   2.217   4.479
  593SOL    HW1 2678   4.067   2.193   4.543
  593SOL    HW2 2679   4.209   2.272   4.527
  594SOL     OW 2680   7.004   1.432   0.105
  594SOL    HW1 2681   7.018   1.524   0.070
  594SOL    HW2 2682   6.927   1.389   0.058
  595SOL     OW 2683   5.319   0.562   4.022
  595SOL    HW1 2684   5.392   0.511   3.975
  595SOL    HW2 2685   5.251   0.497   4.056
  596SOL     OW 2686   1.136   5.267   3.166
  596SOL    HW1 2687   1.215   5.317   3.130
  596SOL    HW2 2688   1.150   5.249   3.264
  597SOL     OW 2689   2.552   0.381   0.419
  597SOL    HW1 2690   2.565   0.286   0.447
  597SOL    HW2 2691   2.565   0.389   0.320
  598SOL     OW 2692   3.917   3.765   5.348
  598SOL    HW1 2693   3.907   3.682   5.293
  598SOL    HW2 2694   3.959   3.742   5.436
  599SOL     OW 2695   2.349   6.168   1.869
  599SOL    HW1 2696   2.429   6.148   1.814
  599SOL    HW2 2697   2.268   6.173   1.809
  600SOL     OW 2698   6.733   1.365   6.938
  600SOL    HW1 2699   6.671   1.415   6.877
  600SOL    HW2 2700   6.817   1.341   6.888
  601SOL     OW 2701   1.374   0.304   4.594
  601SOL    HW1 2702   1.442   0.234   4.575
  601SOL    HW2 2703   1.350   0.301   4.691
  602SOL     OW 2704   1.432   1.621   6.261
  602SOL    HW1 2705   1.433   1.547   6.328
  602SOL    HW2 2706   1.342   1.628   6.219
  603SOL     OW 2707   2.662   2.485   5.221
  603SOL    HW1 2708   2.728   2.555   5.247
  603SOL    HW2 2709   2.702   2.424   5.153
  604SOL     OW 2710   1.069   2.079   2.175
  604SOL    HW1 2711   1.136   2.007   2.191
  604SOL    HW2 2712   0.993   2.043   2.120
  605SOL     OW 2713   6.764   6.092   0.418
  605SOL    HW1 2714   6.690   6.107   0.483
  605SOL    HW2 2715   6.763   5.997   0.387
  606SOL     OW 2716   4.783   6.440   6.889
  606SOL    HW1 2717   4.797   6.386   6.806
  606SOL    HW2 2718   4.824   6.530   6.877
  607SOL     OW 2719   6.458   5.827   5.543
  607SOL    HW1 2720   6.551   5.860   5.558
  607SOL    HW2 2721   6.398   5.904   5.523
  608SOL     OW 2722   3.852   6.032   6.670
  608SOL    HW1 2723   3.779   5.973   6.638
  608SOL    HW2 2724   3.815   6.098   6.736
  609SOL     OW 2725   3.760   2.884   2.392
  609SOL    HW1 2726   3.859   2.884   2.378
  609SOL    HW2 2727   3.723   2.971   2.360
  610SOL     OW 2728   5.628   4.490   1.908
  610SOL    HW1 2729   5.628   4.541   1.994
  610SOL    HW2 2730   5.535   4.460   1.887
  611SOL     OW 2731   4.239   6.594   1.406
  611SOL    HW1 2732   4.177   6.538   1.461
  611SOL    HW2 2733   4.214   6.585   1.309
  612SOL     OW 2734   3.970   6.220   4.730
  612SOL    HW1 2735   3.876   6.193   4.750
  612SOL    HW2 2736   4.026   6.210   4.813
  613SOL     OW 2737   4.459   6.570   5.349
  613SOL    HW1 2738   4.474   6.471   5.340
  613SOL    HW2 2739   4.366   6.592   5.320
  614SOL     OW 2740   5.524   5.422   0.550
  614SOL    HW1 2741   5.455   5.482   0.590
  614SOL    HW2 2742   5.551   5.457   0.460
  615SOL     OW 2743   6.728   2.737   1.739
  615SOL    HW1 2744   6.698   2.643   1.754
  615SOL    HW2 2745   6.648   2.795   1.722
  616SOL     OW 2746   0.441   2.620   3.655
  616SOL    HW1 2747   0.416   2.656   3.745
  616SOL    HW2 2748   0.361   2.625   3.594
  617SOL     OW 2749   6.745   4.521   5.572
  617SOL    HW1 2750   6.687   4.439   5.577
  617SOL    HW2 2751   6.776   4.546   5.663
  618SOL     OW 2752   6.985   2.446   0.043
  618SOL    HW1 2753   6.959   2.371   7.005
  618SOL    HW2 2754   0.049   2.484   0.013
  619SOL     OW 2755   4.104   0.829   0.081
  619SOL    HW1 2756   4.027   0.786   0.129
  619SOL    HW2 2757   4.068   0.901   0.021
  620SOL     OW 2758   4.410   2.933   1.519
  620SOL    HW1 2759   4.423   3.011   1.580
  620SOL    HW2 2760   4.383   2.853   1.573
  621SOL     OW 2761   2.789   6.832   7.018
  621SOL    HW1 2762   2.838   6.770   6.957
  621SOL    HW2 2763   2.855   6.885   0.049
  622SOL     OW 2764   1.217   0.199   6.218
  622SOL    HW1 2765   1.304   0.160   6.249
  622SOL    HW2 2766   1.234   0.259   6.140
  623SOL     OW 2767   0.766   5.880   4.966
  623SOL    HW1 2768   0.745   5.853   5.060
  623SOL    HW2 2769   0.852   5.838   4.938
  624SOL     OW 2770   6.635   2.926   0.869
  624SOL    HW1 2771   6.724   2.882   0.856
  624SOL    HW2 2772   6.644   3.001   0.934
  625SOL     OW 2773   1.901   1.703   1.979
  625SOL    HW1 2774   1.972   1.774   1.975
  625SOL    HW2 2775   1.944   1.613   1.969
  626SOL     OW 2776   2.298   5.642   3.695
  626SOL    HW1 2777   2.217   5.615   3.747
  626SOL    HW2 2778   2.366   5.682   3.757
  627SOL     OW 2779   5.805   6.138   0.428
  627SOL    HW1 2780   5.709   6.165   0.429
  627SOL    HW2 2781   5.813   6.042   0.456
  628SOL     OW 2782   6.075   5.661   6.050
  628SOL    HW1 2783   6.095   5.604   5.970
  628SOL    HW2 2784   6.083   5.757   6.024
  629SOL     OW 2785   6.636   6.945   6.956
  629SOL    HW1 2786   6.638   6.849   6.927
  629SOL    HW2 2787   6.669   6.953   0.026
  630SOL     OW 2788   6.811   1.826   1.827
  630SOL    HW1 2789   6.778   1.920   1.818
  630SOL    HW2 2790   6.775   1.771   1.753
  631SOL     OW 2791   3.501   6.867   5.216
  631SOL    HW1 2792   3.439   6.922   5.161
  631SOL    HW2 2793   3.575   6.833   5.158
  632SOL     OW 2794   2.470   0.993   0.691
  632SOL    HW1 2795   2.564   0.979   0.724
  632SOL    HW2 2796   2.438   0.911   0.644
  633SOL     OW 2797   4.132   3.635   0.180
  633SOL    HW1 2798   4.105   3.596   0.268
  633SOL    HW2 2799   4.074   3.715   0.160
  634SOL     OW 2800   4.166   4.157   1.123
  634SOL    HW1 2801   4.116   4.071   1.113
  634SOL    HW2 2802   4.222   4.153   1.206
  635SOL     OW 2803   4.698   5.185   1.226
  635SOL    HW1 2804   4.669   5.193   1.131
  635SOL    HW2 2805   4.631   5.230   1.285
  636SOL     OW 2806   3.921   5.554   6.886
  636SOL    HW1 2807   4.003   5.609   6.870
  636SOL    HW2 2808   3.845   5.614   6.911
  637SOL     OW 2809   6.569   3.246   3.206
  637SOL    HW1 2810   6.491   3.250   3.268
  637SOL    HW2 2811   6.553   3.177   3.136
  638SOL     OW 2812   5.026   2.236   3.558
  638SOL    HW1 2813   4.984   2.157   3.513
  638SOL    HW2 2814   4.955   2.289   3.606
  639SOL     OW 2815   5.014   3.635   2.562
  639SOL    HW1 2816   5.107   3.673   2.564
  639SOL    HW2 2817   4.961   3.673   2.638
  640SOL     OW 2818   6.776   5.269   3.643
  640SOL    HW1 2819   6.768   5.248   3.741
  640SOL    HW2 2820   6.872   5.271   3.617
  641SOL     OW 2821   6.459   5.602   4.963
  641SOL    HW1 2822   6.523   5.593   4.887
  641SOL    HW2 2823   6.469   5.524   5.024
  642SOL     OW 2824   6.842   3.194   4.997
  642SOL    HW1 2825   6.879   3.150   4.915
  642SOL    HW2 2826   6.765   3.140   5.032
  643SOL     OW 2827   5.733   6.228   4.934
  643SOL    HW1 2828   5.757   6.322   4.958
  643SOL    HW2 2829   5.810   6.185   4.887
  644SOL     OW 2830   1.530   5.755   4.690
  644SOL    HW1 2831   1.595   5.773   4.616
  644SOL    HW2 2832   1.450   5.709   4.652
  645SOL     OW 2833   4.286   0.984   3.700
  645SOL    HW1 2834   4.366   0.938   3.663
  645SOL    HW2 2835   4.204   0.930   3.679
  646SOL     OW 2836   2.567   1.208   4.831
  646SOL    HW1 2837   2.512   1.144   4.778
  646SOL    HW2 2838   2.550   1.301   4.798
  647SOL     OW 2839   4.994   2.074   4.575
  647SOL    HW1 2840   4.939   2.155   4.592
  647SOL    HW2 2841   4.972   2.036   4.486
  648SOL     OW 2842   0.158   3.330   4.084
  648SOL    HW1 2843   0.059   3.342   4.089
  648SOL    HW2 2844   0.182   3.286   3.998
  649SOL     OW 2845   2.871   3.632   0.985
  649SOL    HW1 2846   2.908   3.592   1.069
  649SOL    HW2 2847   2.913   3.588   0.905
  650SOL     OW 2848   6.132   4.759   1.194
  650SOL    HW1 2849   6.071   4.781   1.118
  650SOL    HW2 2850   6.220   4.806   1.180
  651SOL     OW 2851   6.355   6.214   6.028
  651SOL    HW1 2852   6.315   6.124   6.040
  651SOL    HW2 2853   6.293   6.272   5.975
  652SOL     OW 2854   4.834   6.019   3.984
  652SOL    HW1 2855   4.840   5.954   3.908
  652SOL    HW2 2856   4.744   6.061   3.986
  653SOL     OW 2857   2.321   6.107   5.360
  653SOL    HW1 2858   2.329   6.052   5.444
  653SOL    HW2 2859   2.252   6.066   5.301
  654SOL     OW 2860   0.221   4.095   5.789
  654SOL    HW1 2861   0.309   4.049   5.781
  654SOL    HW2 2862   0.153   4.030   5.824
  655SOL     OW 2863   0.503   5.943   1.945
  655SOL    HW1 2864   0.596   5.963   1.914
  655SOL    HW2 2865   0.503   5.860   2.001
  656SOL     OW 2866   1.817   5.135   1.319
  656SOL    HW1 2867   1.773   5.216   1.280
  656SOL    HW2 2868   1.804   5.135   1.418
  657SOL     OW 2869   1.787   2.572   1.969
  657SOL    HW1 2870   1.721   2.499   1.949
  657SOL    HW2 2871   1.773   2.648   1.906
  658SOL     OW 2872   2.860   4.122   6.337
  658SOL    HW1 2873   2.944   4.163   6.372
  658SOL    HW2 2874   2.881   4.033   6.296
  659SOL     OW 2875   2.560   5.974   6.085
  659SOL    HW1 2876   2.522   6.036   6.016
  659SOL    HW2 2877   2.618   6.026   6.148
  660SOL     OW 2878   5.332   4.822   2.484
  660SOL    HW1 2879   5.373   4.853   2.569
  660SOL    HW2 2880   5.292   4.901   2.436
  661SOL     OW 2881   4.415   5.117   3.065
  661SOL    HW1 2882   4.364   5.158   2.990
  661SOL    HW2 2883   4.427   5.184   3.138
  662SOL     OW 2884   4.363   0.367   5.431
  662SOL    HW1 2885   4.358   0.375   5.331
  662SOL    HW2 2886   4.321   0.280   5.459
  663SOL     OW 2887   2.350   3.983   6.268
  663SOL    HW1 2888   2.403   3.899   6.259
  663SOL    HW2 2889   2.398   4.059   6.224
  664SOL     OW 2890   0.181   5.055   6.218
  664SOL    HW1 2891   0.133   5.031   6.134
  664SOL    HW2 2892   0.119   5.046   6.296
  665SOL     OW 2893   5.135   4.782   1.177
  665SOL    HW1 2894   5.125   4.873   1.218
  665SOL    HW2 2895   5.163   4.716   1.247
  666SOL     OW 2896   4.787   2.145   2.428
  666SOL    HW1 2897   4.708   2.129   2.368
  666SOL    HW2 2898   4.767   2.222   2.488
  667SOL     OW 2899   0.230   4.530   3.372
  667SOL    HW1 2900   0.187   4.617   3.346
  667SOL    HW2 2901   0.244   4.474   3.290
  668SOL     OW 2902   5.631   6.285   6.522
  668SOL    HW1 2903   5.720   6.280   6.475
  668SOL    HW2 2904   5.588   6.373   6.502
  669SOL     OW 2905   4.096   0.249   2.896
  669SOL    HW1 2906   4.036   0.281   2.822
  669SOL    HW2 2907   4.067   0.290   2.982
  670SOL     OW 2908   3.265   2.726   0.838
  670SOL    HW1 2909   3.281   2.818   0.874
  670SOL    HW2 2910   3.222   2.670   0.908
  671SOL     OW 2911   1.879   6.332   0.109
  671SOL    HW1 2912   1.878   6.278   0.025
  671SOL    HW2 2913   1.957   6.396   0.106
  672SOL     OW 2914   0.778   5.257   2.283
  672SOL    HW1 2915   0.766   5.280   2.380
  672SOL    HW2 2916   0.761   5.160   2.269
  673SOL     OW 2917   0.039   6.789   1.863
  673SOL    HW1 2918   7.021   6.786   1.954
  673SOL    HW2 2919   7.010   6.852   1.806
  674SOL     OW 2920   0.556   1.573   5.100
  674SOL    HW1 2921   0.592   1.626   5.177
  674SOL    HW2 2922   0.597   1.605   5.015
  675SOL     OW 2923   0.868   1.113   2.893
  675SOL    HW1 2924   0.789   1.079   2.945
  675SOL    HW2 2925   0.852   1.208   2.867
  676SOL     OW 2926   3.193   5.917   2.691
  676SOL    HW1 2927   3.229   5.826   2.670
  676SOL    HW2 2928   3.201   5.975   2.610
  677SOL     OW 2929   5.818   2.062   0.498
  677SOL    HW1 2930   5.809   2.041   0.595
  677SOL    HW2 2931   5.915   2.074   0.474
  678SOL     OW 2932   1.962   1.179   5.546
  678SOL    HW1 2933   1.998   1.271   5.558
  678SOL    HW2 2934   2.003   1.138   5.464
  679SOL     OW 2935   4.259   1.719   3.657
  679SOL    HW1 2936   4.322   1.748   3.729
  679SOL    HW2 2937   4.240   1.796   3.596
  680SOL     OW 2938   5.494   6.182   5.378
  680SOL    HW1 2939   5.570   6.118   5.371
  680SOL    HW2 2940   5.528   6.270   5.410
  681SOL     OW 2941   5.373   5.216   1.552
  681SOL    HW1 2942   5.429   5.162   1.615
  681SOL    HW2 2943   5.418   5.219   1.463
  682SOL     OW 2944   0.525   1.237   0.696
  682SOL    HW1 2945   0.500   1.174   0.622
  682SOL    HW2 2946   0.546   1.327   0.659
  683SOL     OW 2947   4.473   3.328   0.510
  683SOL    HW1 2948   4.519   3.247   0.546
  683SOL    HW2 2949   4.495   3.408   0.566
  684SOL     OW 2950   0.542   0.761   0.061
  684SOL    HW1 2951   0.586   0.673   0.045
  684SOL    HW2 2952   0.594   0.812   0.130
  685SOL     OW 2953   4.426   0.933   3.273
  685SOL    HW1 2954   4.360   1.000   3.308
  685SOL    HW2 2955   4.489   0.907   3.346
  686SOL     OW 2956   4.894   3.089   3.534
  686SOL    HW1 2957   4.852   3.102   3.444
  686SOL    HW2 2958   4.917   3.178   3.573
  687SOL     OW 2959   0.582   2.314   4.783
  687SOL    HW1 2960   0.615   2.400   4.744
  687SOL    HW2 2961   0.628   2.238   4.738
  688SOL     OW 2962   1.130   1.920   0.337
  688SOL    HW1 2963   1.196   1.954   0.269
  688SOL    HW2 2964   1.165   1.937   0.429
  689SOL     OW 2965   6.567   4.370   6.441
  689SOL    HW1 2966   6.517   4.439   6.494
  689SOL    HW2 2967   6.569   4.398   6.345
  690SOL     OW 2968   0.504   4.373   2.812
  690SOL    HW1 2969   0.508   4.469   2.785
  690SOL    HW2 2970   0.487   4.367   2.910
  691SOL     OW 2971   2.250   6.600   0.444
  691SOL    HW1 2972   2.205   6.516   0.474
  691SOL    HW2 2973   2.296   6.583   0.357
  692SOL     OW 2974   3.391   6.907   3.607
  692SOL    HW1 2975   3.324   6.914   3.534
  692SOL    HW2 2976   3.382   6.818   3.652
  693SOL     OW 2977   5.910   1.197   3.584
  693SOL    HW1 2978   5.922   1.114   3.529
  693SOL    HW2 2979   5.995   1.218   3.632
  694SOL     OW 2980   4.227   6.205   3.271
  694SOL    HW1 2981   4.164   6.259   3.327
  694SOL    HW2 2982   4.321   6.231   3.291
  695SOL     OW 2983   4.380   6.798   3.926
  695SOL    HW1 2984   4.395   6.794   4.025
  695SOL    HW2 2985   4.398   6.708   3.886
  696SOL     OW 2986   4.205   4.708   2.116
  696SOL    HW1 2987   4.200   4.783   2.050
  696SOL    HW2 2988   4.130   4.717   2.182
  697SOL     OW 2989   2.095   3.712   3.927
  697SOL    HW1 2990   2.189   3.707   3.895
  697SOL    HW2 2991   2.033   3.715   3.849
  698SOL     OW 2992   5.021   6.653   0.425
  698SOL    HW1 2993   5.065   6.598   0.495
  698SOL    HW2 2994   5.007   6.598   0.343
  699SOL     OW 2995   2.010   3.259   6.272
  699SOL    HW1 2996   1.941   3.284   6.205
  699SOL    HW2 2997   2.001   3.318   6.353
  700SOL     OW 2998   2.697   0.348   2.276
  700SOL    HW1 2999   2.650   0.268   2.238
  700SOL    HW2 3000   2.791   0.352   2.240
  701SOL     OW 3001   6.479   3.632   5.814
  701SOL    HW1 3002   6.573   3.630   5.847
  701SOL    HW2 3003   6.458   3.546   5.767
  702SOL     OW 3004   1.530   6.348   4.528
  702SOL    HW1 3005   1.482   6.425   4.487
  702SOL    HW2 3006   1.575   6.377   4.612
  703SOL     OW 3007   3.483   3.765   5.935
  703SOL    HW1 3008   3.456   3.761   6.032
  703SOL    HW2 3009   3.497   3.672   5.901
  704SOL     OW 3010   1.714   2.350   0.381
  704SOL    HW1 3011   1.717   2.432   0.324
  704SOL    HW2 3012   1.760   2.368   0.468
  705SOL     OW 3013   5.774   5.742   3.016
  705SOL    HW1 3014   5.874   5.738   3.013
  705SOL    HW2 3015   5.739   5.662   3.064
  706SOL     OW 3016   4.302   2.364   4.629
  706SOL    HW1 3017   4.228   2.420   4.666
  706SOL    HW2 3018   4.366   2.341   4.703
  707SOL     OW 3019   4.619   5.691   2.508
  707SOL    HW1 3020   4.646   5.736   2.592
  707SOL    HW2 3021   4.657   5.740   2.430
  708SOL     OW 3022   4.361   6.556   2.046
  708SOL    HW1 3023   4.446   6.553   2.099
  708SOL    HW2 3024   4.311   6.639   2.070
  709SOL     OW 3025   0.600   6.143   1.090
  709SOL    HW1 3026   0.502   6.123   1.099
  709SOL    HW2 3027   0.630   6.198   1.168
  710SOL     OW 3028   3.630   2.815   1.591
  710SOL    HW1 3029   3.719   2.854   1.611
  710SOL    HW2 3030   3.631   2.717   1.611
  711SOL     OW 3031   6.782   3.446   5.588
  711SOL    HW1 3032   6.851   3.516   5.567
  711SOL    HW2 3033   6.822   3.378   5.650
  712SOL     OW 3034   4.820   2.688   0.974
  712SOL    HW1 3035   4.852   2.765   1.029
  712SOL    HW2 3036   4.853   2.698   0.880
  713SOL     OW 3037   4.356   2.443   5.847
  713SOL    HW1 3038   4.408   2.492   5.778
  713SOL    HW2 3039   4.363   2.492   5.935
  714SOL     OW 3040   6.895   4.386   3.488
  714SOL    HW1 3041   6.880   4.380   3.586
  714SOL    HW2 3042   6.976   4.444   3.470
  715SOL     OW 3043   5.282   5.816   0.437
  715SOL    HW1 3044   5.235   5.793   0.352
  715SOL    HW2 3045   5.271   5.914   0.456
  716SOL     OW 3046   0.624   0.707   1.691
  716SOL    HW1 3047   0.690   0.650   1.640
  716SOL    HW2 3048   0.619   0.675   1.785
  717SOL     OW 3049   6.486   4.323   4.882
  717SOL    HW1 3050   6.389   4.348   4.871
  717SOL    HW2 3051   6.500   4.231   4.845
  718SOL     OW 3052   4.847   2.606   5.996
  718SOL    HW1 3053   4.906   2.626   6.074
  718SOL    HW2 3054   4.903   2.567   5.922
  719SOL     OW 3055   6.436   0.932   2.553
  719SOL    HW1 3056   6.426   0.999   2.480
  719SOL    HW2 3057   6.464   0.844   2.514
  720SOL     OW 3058   2.681   0.421   6.234
  720SOL    HW1 3059   2.664   0.508   6.187
  720SOL    HW2 3060   2.616   0.411   6.309
  721SOL     OW 3061   2.594   1.858   3.068
  721SOL    HW1 3062   2.665   1.805   3.021
  721SOL    HW2 3063   2.524   1.886   3.002
  722SOL     OW 3064   3.429   0.205   5.754
  722SOL    HW1 3065   3.391   0.158   5.674
  722SOL    HW2 3066   3.444   0.302   5.732
  723SOL     OW 3067   1.622   4.507   3.369
  723SOL    HW1 3068   1.712   4.475   3.399
  723SOL    HW2 3069   1.634   4.583   3.306
  724SOL     OW 3070   0.878   3.030   4.623
  724SOL    HW1 3071   0.878   2.960   4.694
  724SOL    HW2 3072   0.783   3.052   4.597
  725SOL     OW 3073   2.311   5.469   1.164
  725SOL    HW1 3074   2.283   5.373   1.157
  725SOL    HW2 3075   2.332   5.504   1.073
  726SOL     OW 3076   3.456   4.832   1.209
  726SOL    HW1 3077   3.395   4.804   1.283
  726SOL    HW2 3078   3.410   4.901   1.152
  727SOL     OW 3079   5.835   5.203   5.591
  727SOL    HW1 3080   5.927   5.225   5.559
  727SOL    HW2 3081   5.777   5.183   5.512
  728SOL     OW 3082   6.907   2.782   4.749
  728SOL    HW1 3083   6.935   2.713   4.815
  728SOL    HW2 3084   6.983   2.846   4.734
  729SOL     OW 3085   0.581   1.855   1.852
  729SOL    HW1 3086   0.590   1.952   1.876
  729SOL    HW2 3087   0.492   1.821   1.881
  730SOL     OW 3088   5.600   0.333   4.652
  730SOL    HW1 3089   5.540   0.332   4.731
  730SOL    HW2 3090   5.654   0.248   4.650
  731SOL     OW 3091   4.954   4.354   6.320
  731SOL    HW1 3092   4.947   4.407   6.404
  731SOL    HW2 3093   4.934   4.412   6.241
  732SOL     OW 3094   6.779   3.342   1.499
  732SOL    HW1 3095   6.799   3.377   1.591
  732SOL    HW2 3096   6.771   3.243   1.503
  733SOL     OW 3097   5.105   6.650   5.257
  733SOL    HW1 3098   5.184   6.588   5.253
  733SOL    HW2 3099   5.087   6.676   5.352
  734SOL     OW 3100   6.322   5.001   2.548
  734SOL    HW1 3101   6.305   4.942   2.627
  734SOL    HW2 3102   6.420   5.004   2.529
  735SOL     OW 3103   4.597   1.248   0.068
  735SOL    HW1 3104   4.539   1.182   0.117
  735SOL    HW2 3105   4.541   1.325   0.039
  736SOL     OW 3106   6.555   1.651   3.792
  736SOL    HW1 3107   6.544   1.577   3.858
  736SOL    HW2 3108   6.640   1.700   3.811
  737SOL     OW 3109   5.195   1.527   4.851
  737SOL    HW1 3110   5.110   1.484   4.883
  737SOL    HW2 3111   5.174   1.585   4.773
  738SOL     OW 3112   2.075   3.987   1.549
  738SOL    HW1 3113   2.105   3.908   1.495
  738SOL    HW2 3114   2.139   4.003   1.624
  739SOL     OW 3115   5.209   0.979   3.828
  739SOL    HW1 3116   5.252   1.049   3.884
  739SOL    HW2 3117   5.111   0.998   3.820
  740SOL     OW 3118   6.271   0.881   1.636
  740SOL    HW1 3119   6.214   0.929   1.702
  740SOL    HW2 3120   6.351   0.938   1.614
  741SOL     OW 3121   1.999   0.093   3.416
  741SOL    HW1 3122   2.061   0.082   3.339
  741SOL    HW2 3123   1.906   0.072   3.387
  742SOL     OW 3124   2.592   6.295   2.043
  742SOL    HW1 3125   2.540   6.327   2.122
  742SOL    HW2 3126   2.667   6.236   2.074
  743SOL     OW 3127   0.304   4.877   3.234
  743SOL    HW1 3128   0.237   4.882   3.159
  743SOL    HW2 3129   0.381   4.819   3.206
  744SOL     OW 3130   5.406   0.825   0.607
  744SOL    HW1 3131   5.422   0.746   0.548
  744SOL    HW2 3132   5.404   0.908   0.552
  745SOL     OW 3133   1.822   5.239   4.682
  745SOL    HW1 3134   1.732   5.216   4.718
  745SOL    HW2 3135   1.833   5.339   4.679
  746SOL     OW 3136   6.984   3.780   0.075
  746SOL    HW1 3137   0.034   3.841   0.047
  746SOL    HW2 3138   6.906   3.834   0.107
  747SOL     OW 3139   3.847   6.717   4.315
  747SOL    HW1 3140   3.755   6.679   4.313
  747SOL    HW2 3141   3.912   6.649   4.283
  748SOL     OW 3142   4.229   4.953   1.996
  748SOL    HW1 3143   4.236   5.053   1.994
  748SOL    HW2 3144   4.198   4.920   1.907
  749SOL     OW 3145   5.848   3.456   4.733
  749SOL    HW1 3146   5.861   3.507   4.648
  749SOL    HW2 3147   5.847   3.519   4.810
  750SOL     OW 3148   2.317   2.181   1.517
  750SOL    HW1 3149   2.243   2.126   1.479
  750SOL    HW2 3150   2.368   2.126   1.583
  751SOL     OW 3151   3.750   2.008   0.277
  751SOL    HW1 3152   3.777   1.951   0.199
  751SOL    HW2 3153   3.832   2.039   0.325
  752SOL     OW 3154   3.518   1.259   1.687
  752SOL    HW1 3155   3.566   1.190   1.631
  752SOL    HW2 3156   3.532   1.349   1.647
  753SOL     OW 3157   1.737   3.519   5.659
  753SOL    HW1 3158   1.741   3.455   5.583
  753SOL    HW2 3159   1.822   3.571   5.663
  754SOL     OW 3160   4.873   2.392   5.329
  754SOL    HW1 3161   4.846   2.301   5.361
  754SOL    HW2 3162   4.815   2.461   5.371
  755SOL     OW 3163   1.227   4.697   5.568
  755SOL    HW1 3164   1.150   4.751   5.601
  755SOL    HW2 3165   1.275   4.748   5.496
  756SOL     OW 3166   2.853   6.708   6.774
  756SOL    HW1 3167   2.761   6.681   6.747
  756SOL    HW2 3168   2.876   6.795   6.729
  757SOL     OW 3169   0.118   0.473   4.362
  757SOL    HW1 3170   0.155   0.446   4.451
  757SOL    HW2 3171   0.022   0.445   4.356
  758SOL     OW 3172   3.170   0.153   2.897
  758SOL    HW1 3173   3.190   0.143   2.800
  758SOL    HW2 3174   3.076   0.124   2.915
  759SOL     OW 3175   0.452   1.671   2.349
  759SOL    HW1 3176   0.430   1.618   2.268
  759SOL    HW2 3177   0.408   1.761   2.344
  760SOL     OW 3178   6.236   0.065   4.610
  760SOL    HW1 3179   6.225   7.022   4.535
  760SOL    HW2 3180   6.318   0.042   4.663
  761SOL     OW 3181   5.117   3.820   6.070
  761SOL    HW1 3182   5.075   3.901   6.029
  761SOL    HW2 3183   5.142   3.755   5.998
  762SOL     OW 3184   1.940   6.629   4.794
  762SOL    HW1 3185   1.995   6.683   4.730
  762SOL    HW2 3186   1.940   6.533   4.765
  763SOL     OW 3187   4.141   5.107   6.003
  763SOL    HW1 3188   4.160   5.039   6.074
  763SOL    HW2 3189   4.155   5.199   6.040
  764SOL     OW 3190   5.287   0.784   5.188
  764SOL    HW1 3191   5.316   0.834   5.270
  764SOL    HW2 3192   5.195   0.747   5.203
  765SOL     OW 3193   1.719   5.382   1.778
  765SOL    HW1 3194   1.698   5.332   1.694
  765SOL    HW2 3195   1.751   5.474   1.756
  766SOL     OW 3196   2.648   2.449   5.760
  766SOL    HW1 3197   2.608   2.532   5.799
  766SOL    HW2 3198   2.675   2.387   5.834
  767SOL     OW 3199   6.420   5.863   2.289
  767SOL    HW1 3200   6.413   5.859   2.389
  767SOL    HW2 3201   6.388   5.952   2.257
  768SOL     OW 3202   2.614   6.066   2.583
  768SOL    HW1 3203   2.549   6.133   2.620
  768SOL    HW2 3204   2.612   6.069   2.483
  769SOL     OW 3205   2.186   0.708   5.374
  769SOL    HW1 3206   2.113   0.776   5.376
  769SOL    HW2 3207   2.271   0.751   5.344
  770SOL     OW 3208   1.822   4.296   3.042
  770SOL    HW1 3209   1.736   4.346   3.057
  770SOL    HW2 3210   1.820   4.255   2.951
  771SOL     OW 3211   1.111   4.863   2.957
  771SOL    HW1 3212   1.046   4.936   2.935
  771SOL    HW2 3213   1.170   4.847   2.879
  772SOL     OW 3214   5.306   5.419   6.914
  772SOL    HW1 3215   5.340   5.511   6.894
  772SOL    HW2 3216   5.208   5.415   6.898
  773SOL     OW 3217   0.223   4.238   3.712
  773SOL    HW1 3218   0.126   4.262   3.720
  773SOL    HW2 3219   0.233   4.139   3.718
  774SOL     OW 3220   2.062   1.426   2.002
  774SOL    HW1 3221   1.983   1.367   2.015
  774SOL    HW2 3222   2.124   1.416   2.080
  775SOL     OW 3223   1.753   3.021   3.708
  775SOL    HW1 3224   1.774   2.930   3.671
  775SOL    HW2 3225   1.658   3.022   3.739
  776SOL     OW 3226   1.116   7.013   5.852
  776SOL    HW1 3227   1.195   0.034   5.811
  776SOL    HW2 3228   1.065   0.056   5.908
  777SOL     OW 3229   1.786   4.331   1.994
  777SOL    HW1 3230   1.782   4.347   1.895
  777SOL    HW2 3231   1.711   4.270   2.020
  778SOL     OW 3232   2.692   1.293   1.856
  778SOL    HW1 3233   2.711   1.222   1.788
  778SOL    HW2 3234   2.637   1.256   1.930
  779SOL     OW 3235   6.185   2.588   2.046
  779SOL    HW1 3236   6.239   2.519   2.095
  779SOL    HW2 3237   6.246   2.643   1.989
  780SOL     OW 3238   0.488   3.666   3.912
  780SOL    HW1 3239   0.540   3.601   3.968
  780SOL    HW2 3240   0.547   3.742   3.887
  781SOL     OW 3241   6.352   6.969   0.181
  781SOL    HW1 3242   6.280   6.981   0.249
  781SOL    HW2 3243   6.335   6.886   0.129
  782SOL     OW 3244   1.246   3.803   6.647
  782SOL    HW1 3245   1.265   3.707   6.624
  782SOL    HW2 3246   1.309   3.862   6.597
  783SOL     OW 3247   4.690   4.907   2.277
  783SOL    HW1 3248   4.641   4.821   2.260
  783SOL    HW2 3249   4.787   4.888   2.293
  784SOL     OW 3250   4.667   4.885   0.763
  784SOL    HW1 3251   4.765   4.868   0.753
  784SOL    HW2 3252   4.642   4.884   0.860
  785SOL     OW 3253   0.218   2.353   3.430
  785SOL    HW1 3254   0.246   2.340   3.525
  785SOL    HW2 3255   0.119   2.345   3.423
  786SOL     OW 3256   1.104   0.495   3.035
  786SOL    HW1 3257   1.035   0.560   3.067
  786SOL    HW2 3258   1.069   0.447   2.954
  787SOL     OW 3259   1.409   0.142   6.944
  787SOL    HW1 3260   1.398   0.084   6.863
  787SOL    HW2 3261   1.391   0.237   6.919
  788SOL     OW 3262   3.601   1.639   7.010
  788SOL    HW1 3263   3.531   1.657   0.057
  788SOL    HW2 3264   3.632   1.544   7.017
  789SOL     OW 3265   4.597   4.178   1.204
  789SOL    HW1 3266   4.660   4.101   1.202
  789SOL    HW2 3267   4.629   4.249   1.141
  790SOL     OW 3268   2.319   1.086   3.391
  790SOL    HW1 3269   2.270   1.009   3.351
  790SOL    HW2 3270   2.305   1.086   3.490
  791SOL     OW 3271   1.372   5.649   4.478
  791SOL    HW1 3272   1.296   5.585   4.464
  791SOL    HW2 3273   1.446   5.627   4.414
  792SOL     OW 3274   0.550   0.831   1.280
  792SOL    HW1 3275   0.542   0.921   1.237
  792SOL    HW2 3276   0.615   0.836   1.356
  793SOL     OW 3277   4.990   4.949   3.614
  793SOL    HW1 3278   5.038   5.031   3.582
  793SOL    HW2 3279   5.056   4.877   3.635
  794SOL     OW 3280   3.047   3.882   5.578
  794SOL    HW1 3281   3.045   3.817   5.503
  794SOL    HW2 3282   3.130   3.869   5.632
  795SOL     OW 3283   3.381   6.699   4.611
  795SOL    HW1 3284   3.433   6.783   4.600
  795SOL    HW2 3285   3.415   6.649   4.690
  796SOL     OW 3286   0.025   2.103   6.229
  796SOL    HW1 3287   0.076   2.097   6.314
  796SOL    HW2 3288   0.045   2.189   6.183
  797SOL     OW 3289   5.871   2.713   1.050
  797SOL    HW1 3290   5.843   2.641   1.114
  797SOL    HW2 3291   5.971   2.722   1.052
  798SOL     OW 3292   3.674   5.748   2.164
  798SOL    HW1 3293   3.655   5.787   2.254
  798SOL    HW2 3294   3.662   5.818   2.094
  799SOL     OW 3295   0.030   6.946   6.227
  799SOL    HW1 3296   0.047   6.920   6.132
  799SOL    HW2 3297   6.982   7.015   6.230
  800SOL     OW 3298   5.374   1.748   2.930
  800SOL    HW1 3299   5.345   1.652   2.930
  800SOL    HW2 3300   5.463   1.756   2.975
  801SOL     OW 3301   2.078   4.505   4.579
  801SOL    HW1 3302   2.006   4.509   4.510
  801SOL    HW2 3303   2.070   4.420   4.632
  802SOL     OW 3304   2.713   2.139   1.181
  802SOL    HW1 3305   2.665   2.223   1.205
  802SOL    HW2 3306   2.798   2.161   1.133
  803SOL     OW 3307   0.974   0.257   5.774
  803SOL    HW1 3308   0.888   0.211   5.755
  803SOL    HW2 3309   0.957   0.355   5.786
  804SOL     OW 3310   5.787   6.287   7.001
  804SOL    HW1 3311   5.796   6.251   6.908
  804SOL    HW2 3312   5.826   6.223   0.043
  805SOL     OW 3313   3.440   0.705   3.760
  805SOL    HW1 3314   3.478   0.727   3.849
  805SOL    HW2 3315   3.344   0.734   3.757
  806SOL     OW 3316   4.876   1.330   4.202
  806SOL    HW1 3317   4.813   1.354   4.128
  806SOL    HW2 3318   4.832   1.264   4.263
  807SOL     OW 3319   1.352   1.050   4.844
  807SOL    HW1 3320   1.257   1.046   4.811
  807SOL    HW2 3321   1.380   0.959   4.876
  808SOL     OW 3322   4.074   3.733   6.364
  808SOL    HW1 3323   4.029   3.823   6.362
  808SOL    HW2 3324   4.008   3.664   6.394
  809SOL     OW 3325   0.688   4.626   1.492
  809SOL    HW1 3326   0.703   4.679   1.409
  809SOL    HW2 3327   0.635   4.544   1.469
  810SOL     OW 3328   3.395   3.798   1.144
  810SOL    HW1 3329   3.310   3.746   1.155
  810SOL    HW2 3330   3.419   3.802   1.048
  811SOL     OW 3331   5.279   5.637   5.507
  811SOL    HW1 3332   5.285   5.580   5.589
  811SOL    HW2 3333   5.264   5.732   5.534
  812SOL     OW 3334   0.191   0.571   2.492
  812SOL    HW1 3335   0.129   0.502   2.457
  812SOL    HW2 3336   0.144   0.659   2.499
  813SOL     OW 3337   4.189   0.144   4.223
  813SOL    HW1 3338   4.168   0.047   4.238
  813SOL    HW2 3339   4.158   0.171   4.132
  814SOL     OW 3340   5.723   6.348   2.727
  814SOL    HW1 3341   5.759   6.427   2.676
  814SOL    HW2 3342   5.623   6.349   2.723
  815SOL     OW 3343   0.178   3.274   3.603
  815SOL    HW1 3344   0.244   3.305   3.671
  815SOL    HW2 3345   0.135   3.189   3.635
  816SOL     OW 3346   6.304   6.183   0.470
  816SOL    HW1 3347   6.329   6.261   0.526
  816SOL    HW2 3348   6.332   6.199   0.375
  817SOL     OW 3349   1.557   5.228   1.184
  817SOL    HW1 3350   1.612   5.311   1.178
  817SOL    HW2 3351   1.461   5.249   1.166
  818SOL     OW 3352   6.234   2.665   3.071
  818SOL    HW1 3353   6.228   2.687   2.974
  818SOL    HW2 3354   6.149   2.621   3.101
  819SOL     OW 3355   6.023   2.787   2.441
  819SOL    HW1 3356   5.956   2.734   2.390
  819SOL    HW2 3357   6.109   2.789   2.391
  820SOL     OW 3358   3.801   2.111   5.025
  820SOL    HW1 3359   3.790   2.182   5.094
  820SOL    HW2 3360   3.713   2.092   4.981
  821SOL     OW 3361   0.201   4.130   0.962
  821SOL    HW1 3362   0.261   4.083   1.026
  821SOL    HW2 3363   0.109   4.136   1.000
  822SOL     OW 3364   0.741   3.792   3.778
  822SOL    HW1 3365   0.771   3.697   3.779
  822SOL    HW2 3366   0.805   3.848   3.831
  823SOL     OW 3367   5.559   3.984   6.584
  823SOL    HW1 3368   5.659   3.983   6.591
  823SOL    HW2 3369   5.532   4.040   6.505
  824SOL     OW 3370   4.570   1.520   6.715
  824SOL    HW1 3371   4.483   1.555   6.680
  824SOL    HW2 3372   4.553   1.459   6.792
  825SOL     OW 3373   6.442   5.048   1.568
  825SOL    HW1 3374   6.460   5.001   1.654
  825SOL    HW2 3375   6.529   5.078   1.528
  826SOL     OW 3376   3.983   2.759   6.028
  826SOL    HW1 3377   3.963   2.824   6.101
  826SOL    HW2 3378   4.050   2.692   6.061
  827SOL     OW 3379   2.773   4.233   5.512
  827SOL    HW1 3380   2.819   4.193   5.432
  827SOL    HW2 3381   2.675   4.234   5.498
  828SOL     OW 3382   5.541   6.167   0.391
  828SOL    HW1 3383   5.480   6.112   0.448
  828SOL    HW2 3384   5.506   6.261   0.386
  829SOL     OW 3385   3.840   3.667   2.527
  829SOL    HW1 3386   3.922   3.721   2.548
  829SOL    HW2 3387   3.762   3.727   2.516
  830SOL     OW 3388   5.409   4.818   6.757
  830SOL    HW1 3389   5.419   4.905   6.709
  830SOL    HW2 3390   5.489   4.760   6.740
  831SOL     OW 3391   6.358   0.444   0.341
  831SOL    HW1 3392   6.418   0.523   0.353
  831SOL    HW2 3393   6.263   0.473   0.347
  832SOL     OW 3394   4.383   0.868   2.608
  832SOL    HW1 3395   4.349   0.819   2.688
  832SOL    HW2 3396   4.314   0.935   2.578
  833SOL     OW 3397   1.013   4.131   6.552
  833SOL    HW1 3398   1.084   4.080   6.504
  833SOL    HW2 3399   0.928   4.128   6.501
  834SOL     OW 3400   3.825   4.043   0.963
  834SOL    HW1 3401   3.751   3.986   0.928
  834SOL    HW2 3402   3.906   3.986   0.978
  835SOL     OW 3403   3.700   0.047   5.933
  835SOL    HW1 3404   3.772   0.104   5.972
  835SOL    HW2 3405   3.714   6.975   5.960
  836SOL     OW 3406   4.100   6.231   5.651
  836SOL    HW1 3407   4.112   6.330   5.649
  836SOL    HW2 3408   4.152   6.193   5.728
  837SOL     OW 3409   5.419   0.387   0.928
  837SOL    HW1 3410   5.376   0.452   0.990
  837SOL    HW2 3411   5.351   0.323   0.893
  838SOL     OW 3412   2.292   0.878   4.463
  838SOL    HW1 3413   2.314   0.910   4.370
  838SOL    HW2 3414   2.332   0.941   4.530
  839SOL     OW 3415   1.532   1.736   2.465
  839SOL    HW1 3416   1.591   1.807   2.427
  839SOL    HW2 3417   1.492   1.683   2.390
  840SOL     OW 3418   6.938   5.715   0.237
  840SOL    HW1 3419   6.908   5.716   0.142
  840SOL    HW2 3420   6.947   5.621   0.269
  841SOL     OW 3421   3.467   5.008   6.570
  841SOL    HW1 3422   3.514   5.095   6.558
  841SOL    HW2 3423   3.400   4.995   6.497
  842SOL     OW 3424   3.821   0.131   4.524
  842SOL    HW1 3425   3.764   0.099   4.448
  842SOL    HW2 3426   3.771   0.122   4.610
  843SOL     OW 3427   1.026   1.185   1.623
  843SOL    HW1 3428   1.062   1.221   1.537
  843SOL    HW2 3429   1.081   1.107   1.652
  844SOL     OW 3430   5.730   0.689   0.318
  844SOL    HW1 3431   5.762   0.628   0.246
  844SOL    HW2 3432   5.752   0.649   0.407
  845SOL     OW 3433   4.706   4.296   4.346
  845SOL    HW1 3434   4.644   4.330   4.417
  845SOL    HW2 3435   4.771   4.232   4.387
  846SOL     OW 3436   1.952   1.607   6.102
  846SOL    HW1 3437   1.871   1.586   6.046
  846SOL    HW2 3438   2.024   1.642   6.043
  847SOL     OW 3439   1.183   2.891   1.297
  847SOL    HW1 3440   1.230   2.804   1.305
  847SOL    HW2 3441   1.089   2.882   1.330
  848SOL     OW 3442   6.417   0.237   5.868
  848SOL    HW1 3443   6.415   0.147   5.826
  848SOL    HW2 3444   6.424   0.308   5.797
  849SOL     OW 3445   6.567   3.863   5.693
  849SOL    HW1 3446   6.516   3.785   5.731
  849SOL    HW2 3447   6.504   3.923   5.644
  850SOL     OW 3448   5.085   1.061   3.571
  850SOL    HW1 3449   5.158   1.053   3.640
  850SOL    HW2 3450   5.126   1.080   3.482
  851SOL     OW 3451   6.824   2.399   2.681
  851SOL    HW1 3452   6.884   2.344   2.740
  851SOL    HW2 3453   6.747   2.433   2.735
  852SOL     OW 3454   0.966   3.661   0.314
  852SOL    HW1 3455   1.002   3.656   0.221
  852SOL    HW2 3456   0.990   3.577   0.363
  853SOL     OW 3457   0.932   4.688   1.054
  853SOL    HW1 3458   0.879   4.615   1.098
  853SOL    HW2 3459   1.015   4.650   1.015
  854SOL     OW 3460   5.535   4.890   0.923
  854SOL    HW1 3461   5.500   4.978   0.956
  854SOL    HW2 3462   5.616   4.865   0.977
  855SOL     OW 3463   6.481   6.976   1.713
  855SOL    HW1 3464   6.401   6.987   1.773
  855SOL    HW2 3465   6.481   6.885   1.673
  856SOL     OW 3466   1.091   2.481   5.530
  856SOL    HW1 3467   1.040   2.521   5.606
  856SOL    HW2 3468   1.172   2.537   5.511
  857SOL     OW 3469   6.270   4.725   2.165
  857SOL    HW1 3470   6.240   4.629   2.164
  857SOL    HW2 3471   6.321   4.743   2.249
  858SOL     OW 3472   2.627   3.345   1.098
  858SOL    HW1 3473   2.556   3.379   1.159
  858SOL    HW2 3474   2.592   3.340   1.004
  859SOL     OW 3475   5.817   6.490   5.006
  859SOL    HW1 3476   5.740   6.535   5.051
  859SOL    HW2 3477   5.860   6.555   4.942
  860SOL     OW 3478   5.870   2.917   0.444
  860SOL    HW1 3479   5.965   2.945   0.431
  860SOL    HW2 3480   5.855   2.892   0.539
  861SOL     OW 3481   2.748   5.985   3.433
  861SOL    HW1 3482   2.702   5.903   3.466
  861SOL    HW2 3483   2.724   6.063   3.490
  862SOL     OW 3484   1.488   3.780   4.701
  862SOL    HW1 3485   1.579   3.747   4.724
  862SOL    HW2 3486   1.491   3.829   4.614
  863SOL     OW 3487   5.995   1.710   0.693
  863SOL    HW1 3488   6.086   1.732   0.659
  863SOL    HW2 3489   5.935   1.789   0.681
  864SOL     OW 3490   4.324   5.317   4.080
  864SOL    HW1 3491   4.354   5.269   3.998
  864SOL    HW2 3492   4.346   5.414   4.072
  865SOL     OW 3493   1.542   6.389   5.794
  865SOL    HW1 3494   1.531   6.321   5.866
  865SOL    HW2 3495   1.531   6.480   5.833
  866SOL     OW 3496   2.330   1.652   2.197
  866SOL    HW1 3497   2.404   1.647   2.264
  866SOL    HW2 3498   2.369   1.672   2.107
  867SOL     OW 3499   4.782   3.542   0.517
  867SOL    HW1 3500   4.866   3.553   0.464
  867SOL    HW2 3501   4.800   3.485   0.598
  868SOL     OW 3502   5.533   1.306   0.531
  868SOL    HW1 3503   5.544   1.362   0.614
  868SOL    HW2 3504   5.582   1.350   0.456
  869SOL     OW 3505   0.486   4.160   3.003
  869SOL    HW1 3506   0.420   4.115   2.943
  869SOL    HW2 3507   0.471   4.131   3.098
  870SOL     OW 3508   3.899   2.889   0.339
  870SOL    HW1 3509   3.832   2.930   0.277
  870SOL    HW2 3510   3.981   2.946   0.343
  871SOL     OW 3511   4.452   2.147   2.555
  871SOL    HW1 3512   4.478   2.073   2.492
  871SOL    HW2 3513   4.474   2.235   2.514
  872SOL     OW 3514   5.158   3.340   3.913
  872SOL    HW1 3515   5.207   3.254   3.926
  872SOL    HW2 3516   5.209   3.398   3.850
  873SOL     OW 3517   5.930   6.761   4.483
  873SOL    HW1 3518   5.857   6.779   4.417
  873SOL    HW2 3519   5.901   6.792   4.573
  874SOL     OW 3520   0.859   4.293   6.020
  874SOL    HW1 3521   0.887   4.384   5.987
  874SOL    HW2 3522   0.764   4.277   5.994
  875SOL     OW 3523   4.737   3.937   0.780
  875SOL    HW1 3524   4.649   3.897   0.754
  875SOL    HW2 3525   4.728   4.036   0.789
  876SOL     OW 3526   0.741   4.234   2.148
  876SOL    HW1 3527   0.765   4.241   2.051
  876SOL    HW2 3528   0.668   4.300   2.169
  877SOL     OW 3529   3.579   4.390   5.770
  877SOL    HW1 3530   3.648   4.373   5.841
  877SOL    HW2 3531   3.620   4.376   5.680
  878SOL     OW 3532   3.545   6.173   5.186
  878SOL    HW1 3533   3.567   6.126   5.101
  878SOL    HW2 3534   3.449   6.198   5.186
  879SOL     OW 3535   3.248   2.040   0.654
  879SOL    HW1 3536   3.303   2.079   0.580
  879SOL    HW2 3537   3.307   2.019   0.732
  880SOL     OW 3538   3.068   3.770   4.227
  880SOL    HW1 3539   3.077   3.785   4.325
  880SOL    HW2 3540   3.153   3.733   4.191
  881SOL     OW 3541   5.217   3.989   5.421
  881SOL    HW1 3542   5.176   4.004   5.511
  881SOL    HW2 3543   5.156   3.933   5.365
  882SOL     OW 3544   0.875   2.447   4.601
  882SOL    HW1 3545   0.861   2.478   4.695
  882SOL    HW2 3546   0.787   2.451   4.552
  883SOL     OW 3547   4.059   0.407   0.222
  883SOL    HW1 3548   4.100   0.453   0.301
  883SOL    HW2 3549   4.113   0.326   0.199
  884SOL     OW 3550   0.075   4.202   6.995
  884SOL    HW1 3551   0.140   4.127   6.997
  884SOL    HW2 3552   7.009   4.171   0.004
  885SOL     OW 3553   5.014   6.482   5.959
  885SOL    HW1 3554   5.081   6.476   6.032
  885SOL    HW2 3555   5.041   6.421   5.884
  886SOL     OW 3556   4.276   0.841   1.091
  886SOL    HW1 3557   4.301   0.934   1.116
  886SOL    HW2 3558   4.194   0.843   1.033
  887SOL     OW 3559   3.942   5.574   3.779
  887SOL    HW1 3560   3.963   5.490   3.730
  887SOL    HW2 3561   3.904   5.553   3.869
  888SOL     OW 3562   6.776   6.510   2.539
  888SOL    HW1 3563   6.777   6.481   2.443
  888SOL    HW2 3564   6.682   6.509   2.573
  889SOL     OW 3565   0.727   0.594   6.046
  889SOL    HW1 3566   0.655   0.613   6.113
  889SOL    HW2 3567   0.774   0.680   6.023
  890SOL     OW 3568   2.032   4.951   2.059
  890SOL    HW1 3569   1.935   4.933   2.041
  890SOL    HW2 3570   2.075   4.870   2.099
  891SOL     OW 3571   6.697   3.859   0.460
  891SOL    HW1 3572   6.646   3.863   0.545
  891SOL    HW2 3573   6.695   3.766   0.424
  892SOL     OW 3574   3.720   3.965   5.305
  892SOL    HW1 3575   3.791   3.895   5.315
  892SOL    HW2 3576   3.683   3.988   5.395
  893SOL     OW 3577   1.853   0.382   2.838
  893SOL    HW1 3578   1.936   0.343   2.879
  893SOL    HW2 3579   1.791   0.411   2.911
  894SOL     OW 3580   1.319   2.869   3.055
  894SOL    HW1 3581   1.284   2.835   2.968
  894SOL    HW2 3582   1.381   2.801   3.094
  895SOL     OW 3583   1.563   5.362   3.455
  895SOL    HW1 3584   1.644   5.420   3.462
  895SOL    HW2 3585   1.562   5.318   3.365
  896SOL     OW 3586   5.965   5.805   1.616
  896SOL    HW1 3587   6.059   5.771   1.603
  896SOL    HW2 3588   5.968   5.895   1.660
  897SOL     OW 3589   4.455   0.308   6.689
  897SOL    HW1 3590   4.392   0.251   6.742
  897SOL    HW2 3591   4.449   0.403   6.722
  898SOL     OW 3592   3.522   5.868   2.421
  898SOL    HW1 3593   3.461   5.814   2.479
  898SOL    HW2 3594   3.500   5.965   2.430
  899SOL     OW 3595   0.329   5.677   0.493
  899SOL    HW1 3596   0.275   5.706   0.572
  899SOL    HW2 3597   0.291   5.718   0.410
  900SOL     OW 3598   4.786   6.275   6.662
  900SOL    HW1 3599   4.700   6.256   6.614
  900SOL    HW2 3600   4.858   6.296   6.595
  901SOL     OW 3601   1.198   0.634   4.660
  901SOL    HW1 3602   1.162   0.549   4.699
  901SOL    HW2 3603   1.283   0.614   4.610
  902SOL     OW 3604   0.954   2.456   1.321
  902SOL    HW1 3605   0.983   2.429   1.412
  902SOL    HW2 3606   1.035   2.475   1.265
  903SOL     OW 3607   0.425   2.703   6.708
  903SOL    HW1 3608   0.453   2.627   6.768
  903SOL    HW2 3609   0.432   2.674   6.613
  904SOL     OW 3610   2.246   2.588   2.478
  904SOL    HW1 3611   2.312   2.565   2.406
  904SOL    HW2 3612   2.295   2.602   2.564
  905SOL     OW 3613   5.266   4.453   6.341
  905SOL    HW1 3614   5.243   4.491   6.252
  905SOL    HW2 3615   5.246   4.355   6.341
  906SOL     OW 3616   1.180   3.097   6.360
  906SOL    HW1 3617   1.197   3.106   6.262
  906SOL    HW2 3618   1.082   3.087   6.376
  907SOL     OW 3619   5.194   2.575   2.192
  907SOL    HW1 3620   5.123   2.516   2.232
  907SOL    HW2 3621   5.151   2.652   2.145
  908SOL     OW 3622   2.664   5.145   2.698
  908SOL    HW1 3623   2.763   5.150   2.709
  908SOL    HW2 3624   2.641   5.159   2.601
  909SOL     OW 3625   3.386   5.686   2.163
  909SOL    HW1 3626   3.416   5.643   2.078
  909SOL    HW2 3627   3.456   5.673   2.234
  910SOL     OW 3628   3.032   0.763   0.964
  910SOL    HW1 3629   3.048   0.686   0.903
  910SOL    HW2 3630   3.086   0.842   0.934
  911SOL     OW 3631   0.410   5.467   6.862
  911SOL    HW1 3632   0.456   5.544   6.907
  911SOL    HW2 3633   0.311   5.477   6.871
  912SOL     OW 3634   5.103   0.408   3.718
  912SOL    HW1 3635   5.142   0.451   3.637
  912SOL    HW2 3636   5.160   0.330   3.745
  913SOL     OW 3637   2.328   1.265   4.053
  913SOL    HW1 3638   2.323   1.331   4.128
  913SOL    HW2 3639   2.387   1.301   3.980
  914SOL     OW 3640   2.737   5.895   5.513
  914SOL    HW1 3641   2.827   5.861   5.486
  914SOL    HW2 3642   2.669   5.867   5.446
  915SOL     OW 3643   0.970   3.126   0.995
  915SOL    HW1 3644   1.067   3.127   0.975
  915SOL    HW2 3645   0.933   3.219   0.986
  916SOL     OW 3646   2.226   2.912   2.371
  916SOL    HW1 3647   2.220   3.003   2.330
  916SOL    HW2 3648   2.189   2.845   2.307
  917SOL     OW 3649   6.209   1.285   2.899
  917SOL    HW1 3650   6.126   1.265   2.951
  917SOL    HW2 3651   6.274   1.333   2.958
  918SOL     OW 3652   3.527   7.021   1.010
  918SOL    HW1 3653   3.496   6.995   0.919
  918SOL    HW2 3654   3.500   0.093   1.028
  919SOL     OW 3655   6.303   6.210   3.560
  919SOL    HW1 3656   6.378   6.193   3.623
  919SOL    HW2 3657   6.336   6.203   3.466
  920SOL     OW 3658   2.266   4.673   2.467
  920SOL    HW1 3659   2.362   4.685   2.490
  920SOL    HW2 3660   2.215   4.754   2.496
  921SOL     OW 3661   4.207   4.720   3.167
  921SOL    HW1 3662   4.125   4.759   3.124
  921SOL    HW2 3663   4.267   4.682   3.097
  922SOL     OW 3664   3.496   3.634   5.519
  922SOL    HW1 3665   3.555   3.707   5.554
  922SOL    HW2 3666   3.445   3.593   5.594
  923SOL     OW 3667   2.648   4.394   5.837
  923SOL    HW1 3668   2.706   4.461   5.790
  923SOL    HW2 3669   2.616   4.325   5.773
  924SOL     OW 3670   5.684   2.729   3.038
  924SOL    HW1 3671   5.613   2.738   2.968
  924SOL    HW2 3672   5.720   2.820   3.060
  925SOL     OW 3673   0.352   1.502   6.558
  925SOL    HW1 3674   0.442   1.495   6.516
  925SOL    HW2 3675   0.355   1.464   6.650
  926SOL     OW 3676   6.101   1.340   0.823
  926SOL    HW1 3677   6.051   1.330   0.909
  926SOL    HW2 3678   6.181   1.281   0.824
  927SOL     OW 3679   5.717   3.911   3.339
  927SOL    HW1 3680   5.707   3.942   3.245
  927SOL    HW2 3681   5.626   3.903   3.382
  928SOL     OW 3682   0.932   6.090   0.311
  928SOL    HW1 3683   0.977   6.010   0.272
  928SOL    HW2 3684   0.838   6.095   0.278
  929SOL     OW 3685   0.481   0.676   1.034
  929SOL    HW1 3686   0.507   0.727   1.116
  929SOL    HW2 3687   0.534   0.592   1.028
  930SOL     OW 3688   5.334   5.954   3.879
  930SOL    HW1 3689   5.324   5.963   3.978
  930SOL    HW2 3690   5.258   6.000   3.833
  931SOL     OW 3691   5.799   1.981   3.913
  931SOL    HW1 3692   5.862   2.059   3.909
  931SOL    HW2 3693   5.852   1.896   3.921
  932SOL     OW 3694   2.560   6.782   3.610
  932SOL    HW1 3695   2.491   6.854   3.603
  932SOL    HW2 3696   2.643   6.819   3.652
  933SOL     OW 3697   1.853   5.500   3.541
  933SOL    HW1 3698   1.878   5.432   3.609
  933SOL    HW2 3699   1.784   5.562   3.579
  934SOL     OW 3700   1.468   6.767   6.154
  934SOL    HW1 3701   1.410   6.688   6.172
  934SOL    HW2 3702   1.442   6.808   6.067
  935SOL     OW 3703   4.403   4.664   4.342
  935SOL    HW1 3704   4.406   4.721   4.260
  935SOL    HW2 3705   4.437   4.573   4.320
  936SOL     OW 3706   0.951   0.203   6.524
  936SOL    HW1 3707   0.892   0.123   6.535
  936SOL    HW2 3708   0.955   0.229   6.427
  937SOL     OW 3709   5.471   1.363   5.113
  937SOL    HW1 3710   5.471   1.409   5.201
  937SOL    HW2 3711   5.402   1.290   5.113
  938SOL     OW 3712   6.590   5.163   6.082
  938SOL    HW1 3713   6.677   5.153   6.130
  938SOL    HW2 3714   6.606   5.206   5.993
  939SOL     OW 3715   6.801   6.465   5.476
  939SOL    HW1 3716   6.718   6.487   5.425
  939SOL    HW2 3717   6.878   6.460   5.413
  940SOL     OW 3718   0.431   3.257   1.911
  940SOL    HW1 3719   0.514   3.254   1.966
  940SOL    HW2 3720   0.394   3.350   1.910
  941SOL     OW 3721   5.467   1.316   6.280
  941SOL    HW1 3722   5.466   1.224   6.240
  941SOL    HW2 3723   5.561   1.340   6.304
  942SOL     OW 3724   4.999   0.186   3.060
  942SOL    HW1 3725   4.924   0.250   3.080
  942SOL    HW2 3726   4.978   0.134   2.977
  943SOL     OW 3727   2.075   3.580   4.235
  943SOL    HW1 3728   2.103   3.489   4.266
  943SOL    HW2 3729   2.082   3.585   4.135
  944SOL     OW 3730   0.173   4.693   5.888
  944SOL    HW1 3731   0.249   4.753   5.914
  944SOL    HW2 3732   0.087   4.743   5.894
  945SOL     OW 3733   6.456   4.652   5.328
  945SOL    HW1 3734   6.399   4.726   5.292
  945SOL    HW2 3735   6.551   4.683   5.333
  946SOL     OW 3736   4.894   2.760   6.226
  946SOL    HW1 3737   4.801   2.796   6.237
  946SOL    HW2 3738   4.952   2.791   6.301
  947SOL     OW 3739   3.811   2.962   3.652
  947SOL    HW1 3740   3.818   2.960   3.752
  947SOL    HW2 3741   3.901   2.983   3.613
  948SOL     OW 3742   3.695   0.343   2.036
  948SOL    HW1 3743   3.721   0.401   1.959
  948SOL    HW2 3744   3.596   0.333   2.038
  949SOL     OW 3745   1.090   6.115   6.015
  949SOL    HW1 3746   1.165   6.085   6.074
  949SOL    HW2 3747   1.008   6.129   6.071
  950SOL     OW 3748   4.586   5.544   2.151
  950SOL    HW1 3749   4.681   5.514   2.158
  950SOL    HW2 3750   4.580   5.621   2.088
  951SOL     OW 3751   2.255   0.845   4.072
  951SOL    HW1 3752   2.189   0.890   4.012
  951SOL    HW2 3753   2.284   0.759   4.030
  952SOL     OW 3754   4.442   1.743   3.075
  952SOL    HW1 3755   4.500   1.750   2.995
  952SOL    HW2 3756   4.367   1.679   3.057
  953SOL     OW 3757   5.631   4.561   3.822
  953SOL    HW1 3758   5.594   4.490   3.762
  953SOL    HW2 3759   5.608   4.538   3.917
  954SOL     OW 3760   3.589   5.110   1.319
  954SOL    HW1 3761   3.612   5.175   1.247
  954SOL    HW2 3762   3.566   5.022   1.278
  955SOL     OW 3763   0.172   3.760   2.792
  955SOL    HW1 3764   0.211   3.800   2.875
  955SOL    HW2 3765   0.079   3.796   2.779
  956SOL     OW 3766   6.619   1.510   3.057
  956SOL    HW1 3767   6.685   1.505   2.982
  956SOL    HW2 3768   6.534   1.550   3.024
  957SOL     OW 3769   6.180   3.983   5.151
  957SOL    HW1 3770   6.108   4.052   5.143
  957SOL    HW2 3771   6.150   3.910   5.212
  958SOL     OW 3772   4.237   1.712   1.635
  958SOL    HW1 3773   4.206   1.798   1.676
  958SOL    HW2 3774   4.257   1.645   1.707
  959SOL     OW 3775   4.539   6.145   2.508
  959SOL    HW1 3776   4.490   6.181   2.429
  959SOL    HW2 3777   4.494   6.061   2.539
  960SOL     OW 3778   1.449   6.378   1.633
  960SOL    HW1 3779   1.385   6.388   1.556
  960SOL    HW2 3780   1.445   6.284   1.667
  961SOL     OW 3781   4.548   7.004   3.898
  961SOL    HW1 3782   4.476   6.937   3.878
  961SOL    HW2 3783   4.592   0.008   3.813
  962SOL     OW 3784   0.449   1.243   5.448
  962SOL    HW1 3785   0.369   1.182   5.450
  962SOL    HW2 3786   0.532   1.190   5.462
  963SOL     OW 3787   6.351   1.640   6.636
  963SOL    HW1 3788   6.372   1.737   6.622
  963SOL    HW2 3789   6.276   1.632   6.702
  964SOL     OW 3790   5.513   4.131   0.410
  964SOL    HW1 3791   5.560   4.198   0.352
  964SOL    HW2 3792   5.505   4.168   0.503
  965SOL     OW 3793   5.020   2.096   1.146
  965SOL    HW1 3794   5.066   2.128   1.063
  965SOL    HW2 3795   4.980   2.174   1.193
  966SOL     OW 3796   5.283   2.441   1.984
  966SOL    HW1 3797   5.241   2.497   2.055
  966SOL    HW2 3798   5.320   2.358   2.025
  967SOL     OW 3799   2.409   4.261   1.029
  967SOL    HW1 3800   2.394   4.309   0.942
  967SOL    HW2 3801   2.505   4.232   1.035
  968SOL     OW 3802   3.614   0.630   1.353
  968SOL    HW1 3803   3.584   0.559   1.417
  968SOL    HW2 3804   3.535   0.667   1.305
  969SOL     OW 3805   2.983   6.319   6.506
  969SOL    HW1 3806   3.031   6.388   6.452
  969SOL    HW2 3807   3.033   6.233   6.501
  970SOL     OW 3808   5.389   1.063   6.172
  970SOL    HW1 3809   5.297   1.066   6.133
  970SOL    HW2 3810   5.421   0.968   6.174
  971SOL     OW 3811   6.781   2.031   3.132
  971SOL    HW1 3812   6.734   1.960   3.186
  971SOL    HW2 3813   6.847   2.078   3.191
  972SOL     OW 3814   5.272   3.321   2.578
  972SOL    HW1 3815   5.218   3.374   2.513
  972SOL    HW2 3816   5.224   3.235   2.597
  973SOL     OW 3817   0.130   4.743   6.541
  973SOL    HW1 3818   0.069   4.821   6.545
  973SOL    HW2 3819   0.223   4.774   6.520
  974SOL     OW 3820   5.396   6.232   2.276
  974SOL    HW1 3821   5.469   6.167   2.256
  974SOL    HW2 3822   5.364   6.218   2.370
  975SOL     OW 3823   1.609   6.972   6.312
  975SOL    HW1 3824   1.538   0.019   6.319
  975SOL    HW2 3825   1.574   6.894   6.261
  976SOL     OW 3826   6.452   3.489   2.907
  976SOL    HW1 3827   6.456   3.451   2.815
  976SOL    HW2 3828   6.540   3.474   2.953
  977SOL     OW 3829   0.959   0.421   2.540
  977SOL    HW1 3830   0.871   0.426   2.492
  977SOL    HW2 3831   1.012   0.504   2.521
  978SOL     OW 3832   4.707   3.452   6.010
  978SOL    HW1 3833   4.722   3.407   6.098
  978SOL    HW2 3834   4.661   3.389   5.947
  979SOL     OW 3835   0.148   2.033   1.443
  979SOL    HW1 3836   0.078   2.071   1.504
  979SOL    HW2 3837   0.192   1.955   1.487
  980SOL     OW 3838   4.335   2.370   3.834
  980SOL    HW1 3839   4.294   2.423   3.760
  980SOL    HW2 3840   4.382   2.290   3.796
  981SOL     OW 3841   0.055   1.548   4.522
  981SOL    HW1 3842   6.988   1.572   4.558
  981SOL    HW2 3843   0.114   1.517   4.597
  982SOL     OW 3844   2.064   1.970   4.879
  982SOL    HW1 3845   2.042   2.031   4.956
  982SOL    HW2 3846   2.140   1.910   4.906
  983SOL     OW 3847   6.274   2.807   4.570
  983SOL    HW1 3848   6.292   2.761   4.483
  983SOL    HW2 3849   6.347   2.873   4.588
  984SOL     OW 3850   2.398   2.054   4.807
  984SOL    HW1 3851   2.335   1.978   4.824
  984SOL    HW2 3852   2.402   2.072   4.708
  985SOL     OW 3853   5.578   4.161   5.155
  985SOL    HW1 3854   5.620   4.105   5.083
  985SOL    HW2 3855   5.609   4.129   5.245
  986SOL     OW 3856   5.944   4.958   1.341
  986SOL    HW1 3857   6.023   4.897   1.337
  986SOL    HW2 3858   5.871   4.922   1.283
  987SOL     OW 3859   4.501   6.849   2.163
  987SOL    HW1 3860   4.521   6.927   2.222
  987SOL    HW2 3861   4.406   6.820   2.177
  988SOL     OW 3862   3.670   3.116   2.106
  988SOL    HW1 3863   3.694   3.133   2.202
  988SOL    HW2 3864   3.627   3.198   2.068
  989SOL     OW 3865   5.795   0.965   6.189
  989SOL    HW1 3866   5.755   1.024   6.119
  989SOL    HW2 3867   5.743   0.974   6.274
  990SOL     OW 3868   4.477   1.714   2.110
  990SOL    HW1 3869   4.432   1.685   2.026
  990SOL    HW2 3870   4.558   1.768   2.088
  991SOL     OW 3871   0.642   3.661   5.232
  991SOL    HW1 3872   0.580   3.715   5.175
  991SOL    HW2 3873   0.706   3.611   5.174
  992SOL     OW 3874   6.990   2.920   2.207
  992SOL    HW1 3875   6.918   2.864   2.165
  992SOL    HW2 3876   0.051   2.911   2.155
  993SOL     OW 3877   0.320   4.572   1.298
  993SOL    HW1 3878   0.320   4.598   1.394
  993SOL    HW2 3879   0.235   4.524   1.276
  994SOL     OW 3880   4.379   4.812   0.977
  994SOL    HW1 3881   4.280   4.805   0.987
  994SOL    HW2 3882   4.419   4.720   0.985
  995SOL     OW 3883   3.687   2.858   5.316
  995SOL    HW1 3884   3.608   2.918   5.332
  995SOL    HW2 3885   3.718   2.869   5.222
  996SOL     OW 3886   3.208   5.241   4.795
  996SOL    HW1 3887   3.306   5.227   4.788
  996SOL    HW2 3888   3.179   5.309   4.727
  997SOL     OW 3889   1.282   7.002   3.502
  997SOL    HW1 3890   1.203   6.948   3.472
  997SOL    HW2 3891   1.250   0.064   3.544
  998SOL     OW 3892   4.985   0.676   5.014
  998SOL    HW1 3893   5.083   0.664   4.996
  998SOL    HW2 3894   4.943   0.723   4.936
  999SOL     OW 3895   4.854   4.567   2.403
  999SOL    HW1 3896   4.901   4.504   2.342
  999SOL    HW2 3897   4.922   4.617   2.457
 1000SOL     OW 3898   2.505   1.383   1.372
 1000SOL    HW1 3899   2.528   1.408   1.466
 1000SOL    HW2 3900   2.406   1.384   1.360
 1001SOL     OW 3901   4.750   5.666   0.598
 1001SOL    HW1 3902   4.784   5.671   0.691
 1001SOL    HW2 3903   4.751   5.757   0.557
 1002SOL     OW 3904   6.034   1.438   1.304
 1002SOL    HW1 3905   5.948   1.419   1.351
 1002SOL    HW2 3906   6.095   1.359   1.312
 1003SOL     OW 3907   2.339   6.600   2.725
 1003SOL    HW1 3908   2.303   6.578   2.634
 1003SOL    HW2 3909   2.410   6.533   2.749
 1004SOL     OW 3910   0.543   6.966   2.291
 1004SOL    HW1 3911   0.504   6.929   2.207
 1004SOL    HW2 3912   0.625   6.914   2.316
 1005SOL     OW 3913   2.228   3.069   4.168
 1005SOL    HW1 3914   2.312   3.047   4.218
 1005SOL    HW2 3915   2.228   3.021   4.081
 1006SOL     OW 3916   0.754   4.528   1.188
 1006SOL    HW1 3917   0.691   4.488   1.121
 1006SOL    HW2 3918   0.800   4.454   1.238
 1007SOL     OW 3919   4.699   0.363   5.420
 1007SOL    HW1 3920   4.632   0.404   5.358
 1007SOL    HW2 3921   4.655   0.294   5.477
 1008SOL     OW 3922   0.921   3.179   5.825
 1008SOL    HW1 3923   0.977   3.128   5.759
 1008SOL    HW2 3924   0.885   3.116   5.894
 1009SOL     OW 3925   0.579   5.357   4.564
 1009SOL    HW1 3926   0.534   5.300   4.633
 1009SOL    HW2 3927   0.585   5.451   4.597
 1010SOL     OW 3928   3.734   2.273   6.230
 1010SOL    HW1 3929   3.812   2.214   6.206
 1010SOL    HW2 3930   3.660   2.216   6.266
 1011SOL     OW 3931   2.142   4.419   2.410
 1011SOL    HW1 3932   2.180   4.503   2.448
 1011SOL    HW2 3933   2.103   4.363   2.483
 1012SOL     OW 3934   6.396   6.854   2.512
 1012SOL    HW1 3935   6.488   6.891   2.505
 1012SOL    HW2 3936   6.343   6.879   2.431
 1013SOL     OW 3937   0.923   1.182   5.890
 1013SOL    HW1 3938   0.955   1.262   5.838
 1013SOL    HW2 3939   0.824   1.172   5.878
 1014SOL     OW 3940   6.219   5.245   5.882
 1014SOL    HW1 3941   6.258   5.160   5.916
 1014SOL    HW2 3942   6.285   5.319   5.893
 1015SOL     OW 3943   2.631   6.904   5.957
 1015SOL    HW1 3944   2.571   6.831   5.988
 1015SOL    HW2 3945   2.586   6.956   5.885
 1016SOL     OW 3946   3.990   3.327   0.157
 1016SOL    HW1 3947   3.947   3.370   0.237
 1016SOL    HW2 3948   3.953   3.235   0.145
 1017SOL     OW 3949   4.025   3.328   1.212
 1017SOL    HW1 3950   4.070   3.283   1.289
 1017SOL    HW2 3951   4.055   3.285   1.126
 1018SOL     OW 3952   0.284   4.213   4.221
 1018SOL    HW1 3953   0.291   4.181   4.127
 1018SOL    HW2 3954   0.246   4.306   4.222
 1019SOL     OW 3955   7.010   6.851   0.820
 1019SOL    HW1 3956   7.007   6.753   0.835
 1019SOL    HW2 3957   7.011   6.870   0.721
 1020SOL     OW 3958   6.954   1.143   1.120
 1020SOL    HW1 3959   6.900   1.077   1.171
 1020SOL    HW2 3960   6.894   1.209   1.075
 1021SOL     OW 3961   5.814   6.997   1.635
 1021SOL    HW1 3962   5.873   0.003   1.710
 1021SOL    HW2 3963   5.800   6.898   1.640
 1022SOL     OW 3964   3.345   4.291   5.288
 1022SOL    HW1 3965   3.253   4.332   5.287
 1022SOL    HW2 3966   3.342   4.202   5.243
 1023SOL     OW 3967   0.852   0.194   2.968
 1023SOL    HW1 3968   0.760   0.233   2.959
 1023SOL    HW2 3969   0.916   0.248   2.912
 1024SOL     OW 3970   0.784   2.650   4.347
 1024SOL    HW1 3971   0.756   2.555   4.359
 1024SOL    HW2 3972   0.760   2.680   4.255
 1025SOL     OW 3973   3.499   3.816   1.578
 1025SOL    HW1 3974   3.488   3.876   1.657
 1025SOL    HW2 3975   3.409   3.786   1.546
 1026SOL     OW 3976   2.131   2.595   1.092
 1026SOL    HW1 3977   2.078   2.648   1.159
 1026SOL    HW2 3978   2.228   2.603   1.113
 1027SOL     OW 3979   3.488   6.043   1.852
 1027SOL    HW1 3980   3.571   6.095   1.873
 1027SOL    HW2 3981   3.449   6.007   1.936
 1028SOL     OW 3982   2.616   6.113   1.346
 1028SOL    HW1 3983   2.573   6.075   1.428
 1028SOL    HW2 3984   2.699   6.063   1.324
 1029SOL     OW 3985   1.475   6.981   6.634
 1029SOL    HW1 3986   1.555   6.973   6.574
 1029SOL    HW2 3987   1.408   6.912   6.610
 1030SOL     OW 3988   3.175   2.894   1.984
 1030SOL    HW1 3989   3.272   2.911   1.964
 1030SOL    HW2 3990   3.165   2.800   2.015
 1031SOL     OW 3991   5.187   4.069   1.210
 1031SOL    HW1 3992   5.285   4.074   1.229
 1031SOL    HW2 3993   5.167   4.120   1.126
 1032SOL     OW 3994   2.323   2.396   5.322
 1032SOL    HW1 3995   2.327   2.484   5.368
 1032SOL    HW2 3996   2.391   2.334   5.361
 1033SOL     OW 3997   1.622   6.600   1.884
 1033SOL    HW1 3998   1.559   6.523   1.897
 1033SOL    HW2 3999   1.611   6.636   1.792
 1034SOL     OW 4000   0.509   4.771   4.447
 1034SOL    HW1 4001   0.448   4.693   4.438
 1034SOL    HW2 4002   0.604   4.740   4.444
 1035SOL     OW 4003   0.215   1.069   5.119
 1035SOL    HW1 4004   0.285   1.000   5.137
 1035SOL    HW2 4005   0.247   1.158   5.148
 1036SOL     OW 4006   3.852   0.597   1.171
 1036SOL    HW1 4007   3.789   0.626   1.243
 1036SOL    HW2 4008   3.915   0.529   1.209
 1037SOL     OW 4009   1.718   1.030   2.067
 1037SOL    HW1 4010   1.730   0.964   2.142
 1037SOL    HW2 4011   1.626   1.020   2.028
 1038SOL     OW 4012   1.521   0.925   5.360
 1038SOL    HW1 4013   1.480   0.834   5.358
 1038SOL    HW2 4014   1.517   0.966   5.269
 1039SOL     OW 4015   3.816   3.722   4.669
 1039SOL    HW1 4016   3.891   3.788   4.673
 1039SOL    HW2 4017   3.730   3.771   4.657
 1040SOL     OW 4018   4.883   1.164   2.591
 1040SOL    HW1 4019   4.792   1.126   2.608
 1040SOL    HW2 4020   4.917   1.133   2.502
 1041SOL     OW 4021   0.087   6.214   3.832
 1041SOL    HW1 4022   0.024   6.287   3.802
 1041SOL    HW2 4023   0.159   6.254   3.888
 1042SOL     OW 4024   4.249   5.231   2.022
 1042SOL    HW1 4025   4.345   5.248   2.001
 1042SOL    HW2 4026   4.196   5.313   1.999
 1043SOL     OW 4027   3.015   1.963   4.642
 1043SOL    HW1 4028   3.010   2.044   4.700
 1043SOL    HW2 4029   3.020   1.881   4.700
 1044SOL     OW 4030   5.878   5.201   2.818
 1044SOL    HW1 4031   5.915   5.123   2.768
 1044SOL    HW2 4032   5.953   5.257   2.854
 1045SOL     OW 4033   4.081   0.169   2.228
 1045SOL    HW1 4034   4.100   0.113   2.148
 1045SOL    HW2 4035   4.022   0.247   2.202
 1046SOL     OW 4036   1.765   0.294   0.477
 1046SOL    HW1 4037   1.824   0.228   0.523
 1046SOL    HW2 4038   1.780   0.385   0.514
 1047SOL     OW 4039   1.796   0.784   3.706
 1047SOL    HW1 4040   1.877   0.732   3.732
 1047SOL    HW2 4041   1.727   0.778   3.778
 1048SOL     OW 4042   3.664   6.588   3.567
 1048SOL    HW1 4043   3.727   6.515   3.540
 1048SOL    HW2 4044   3.675   6.607   3.665
 1049SOL     OW 4045   6.535   6.219   3.732
 1049SOL    HW1 4046   6.503   6.207   3.826
 1049SOL    HW2 4047   6.546   6.316   3.713
 1050SOL     OW 4048   4.305   4.570   1.338
 1050SOL    HW1 4049   4.254   4.511   1.276
 1050SOL    HW2 4050   4.312   4.662   1.299
 1051SOL     OW 4051   1.551   5.893   0.590
 1051SOL    HW1 4052   1.650   5.899   0.603
 1051SOL    HW2 4053   1.509   5.977   0.623
 1052SOL     OW 4054   3.869   0.721   4.815
 1052SOL    HW1 4055   3.942   0.758   4.873
 1052SOL    HW2 4056   3.901   0.713   4.721
 1053SOL     OW 4057   6.471   5.424   2.706
 1053SOL    HW1 4058   6.422   5.377   2.632
 1053SOL    HW2 4059   6.563   5.386   2.715
 1054SOL     OW 4060   3.133   3.826   6.436
 1054SOL    HW1 4061   3.112   3.905   6.494
 1054SOL    HW2 4062   3.086   3.834   6.349
 1055SOL     OW 4063   3.682   6.242   4.435
 1055SOL    HW1 4064   3.601   6.203   4.391
 1055SOL    HW2 4065   3.655   6.319   4.493
 1056SOL     OW 4066   2.463   4.568   6.501
 1056SOL    HW1 4067   2.400   4.494   6.478
 1056SOL    HW2 4068   2.502   4.606   6.417
 1057SOL     OW 4069   2.821   3.165   1.785
 1057SOL    HW1 4070   2.831   3.237   1.717
 1057SOL    HW2 4071   2.910   3.122   1.801
 1058SOL     OW 4072   4.829   1.601   3.072
 1058SOL    HW1 4073   4.919   1.559   3.064
 1058SOL    HW2 4074   4.831   1.693   3.033
 1059SOL     OW 4075   2.966   0.576   1.763
 1059SOL    HW1 4076   2.870   0.595   1.785
 1059SOL    HW2 4077   2.999   0.646   1.700
 1060SOL     OW 4078   0.100   4.395   4.554
 1060SOL    HW1 4079   0.002   4.403   4.534
 1060SOL    HW2 4080   0.133   4.306   4.521
 1061SOL     OW 4081   6.260   3.043   0.202
 1061SOL    HW1 4082   6.348   3.082   0.230
 1061SOL    HW2 4083   6.262   3.023   0.104
 1062SOL     OW 4084   5.382   4.969   6.188
 1062SOL    HW1 4085   5.338   5.043   6.138
 1062SOL    HW2 4086   5.436   5.006   6.264
 1063SOL     OW 4087   1.262   4.788   1.253
 1063SOL    HW1 4088   1.258   4.830   1.162
 1063SOL    HW2 4089   1.352   4.748   1.267
 1064SOL     OW 4090   1.392   4.177   2.527
 1064SOL    HW1 4091   1.486   4.146   2.509
 1064SOL    HW2 4092   1.341   4.105   2.573
 1065SOL     OW 4093   4.068   0.410   3.493
 1065SOL    HW1 4094   4.114   0.406   3.581
 1065SOL    HW2 4095   3.998   0.338   3.489
 1066SOL     OW 4096   4.822   6.450   3.407
 1066SOL    HW1 4097   4.918   6.446   3.436
 1066SOL    HW2 4098   4.768   6.387   3.462
 1067SOL     OW 4099   0.651   3.292   0.837
 1067SOL    HW1 4100   0.729   3.340   0.797
 1067SOL    HW2 4101   0.665   3.193   0.828
 1068SOL     OW 4102   6.087   5.408   2.986
 1068SOL    HW1 4103   6.178   5.385   2.953
 1068SOL    HW2 4104   6.070   5.361   3.073
 1069SOL     OW 4105   4.267   5.333   1.087
 1069SOL    HW1 4106   4.203   5.368   1.156
 1069SOL    HW2 4107   4.230   5.350   0.996
 1070SOL     OW 4108   0.021   0.085   2.210
 1070SOL    HW1 4109   0.038   0.102   2.308
 1070SOL    HW2 4110   0.080   0.010   2.179
 1071SOL     OW 4111   1.258   0.243   4.169
 1071SOL    HW1 4112   1.275   0.146   4.153
 1071SOL    HW2 4113   1.238   0.288   4.083
 1072SOL     OW 4114   1.723   0.868   0.956
 1072SOL    HW1 4115   1.689   0.906   1.042
 1072SOL    HW2 4116   1.704   0.931   0.881
 1073SOL     OW 4117   5.252   0.106   2.481
 1073SOL    HW1 4118   5.237   0.007   2.479
 1073SOL    HW2 4119   5.203   0.145   2.558
 1074SOL     OW 4120   2.077   5.263   1.307
 1074SOL    HW1 4121   1.987   5.222   1.315
 1074SOL    HW2 4122   2.132   5.211   1.241
 1075SOL     OW 4123   4.885   0.384   3.854
 1075SOL    HW1 4124   4.824   0.419   3.782
 1075SOL    HW2 4125   4.971   0.354   3.813
 1076SOL     OW 4126   7.019   2.058   5.316
 1076SOL    HW1 4127   0.054   1.991   5.362
 1076SOL    HW2 4128   6.931   2.016   5.295
 1077SOL     OW 4129   5.602   0.404   1.245
 1077SOL    HW1 4130   5.609   0.500   1.219
 1077SOL    HW2 4131   5.534   0.394   1.318
 1078SOL     OW 4132   1.273   0.828   2.694
 1078SOL    HW1 4133   1.265   0.923   2.723
 1078SOL    HW2 4134   1.303   0.772   2.771
 1079SOL     OW 4135   1.792   6.709   2.132
 1079SOL    HW1 4136   1.718   6.679   2.071
 1079SOL    HW2 4137   1.753   6.756   2.211
 1080SOL     OW 4138   2.102   4.326   3.045
 1080SOL    HW1 4139   2.004   4.308   3.032
 1080SOL    HW2 4140   2.131   4.396   2.980
 1081SOL     OW 4141   0.575   5.672   5.381
 1081SOL    HW1 4142   0.593   5.579   5.412
 1081SOL    HW2 4143   0.483   5.699   5.410
 1082SOL     OW 4144   4.324   1.925   4.750
 1082SOL    HW1 4145   4.288   2.013   4.781
 1082SOL    HW2 4146   4.296   1.853   4.813
 1083SOL     OW 4147   4.014   3.809   0.672
 1083SOL    HW1 4148   3.955   3.837   0.597
 1083SOL    HW2 4149   4.109   3.831   0.649
 1084SOL     OW 4150   5.939   6.531   6.989
 1084SOL    HW1 4151   5.979   6.533   0.058
 1084SOL    HW2 4152   5.872   6.458   6.984
 1085SOL     OW 4153   1.604   3.536   4.106
 1085SOL    HW1 4154   1.612   3.484   4.192
 1085SOL    HW2 4155   1.637   3.480   4.030
 1086SOL     OW 4156   0.043   5.879   0.423
 1086SOL    HW1 4157   7.018   5.833   0.348
 1086SOL    HW2 4158   0.097   5.954   0.387
 1087SOL     OW 4159   6.013   1.735   4.789
 1087SOL    HW1 4160   5.940   1.760   4.853
 1087SOL    HW2 4161   6.085   1.804   4.793
 1088SOL     OW 4162   0.425   4.027   3.237
 1088SOL    HW1 4163   0.485   4.103   3.262
 1088SOL    HW2 4164   0.344   4.027   3.296
 1089SOL     OW 4165   0.890   6.483   4.402
 1089SOL    HW1 4166   0.978   6.493   4.356
 1089SOL    HW2 4167   0.880   6.388   4.434
 1090SOL     OW 4168   2.672   2.385   3.679
 1090SOL    HW1 4169   2.761   2.357   3.716
 1090SOL    HW2 4170   2.681   2.403   3.581
 1091SOL     OW 4171   3.327   2.095   4.867
 1091SOL    HW1 4172   3.262   2.053   4.804
 1091SOL    HW2 4173   3.280   2.163   4.924
 1092SOL     OW 4174   1.502   3.712   1.221
 1092SOL    HW1 4175   1.474   3.629   1.172
 1092SOL    HW2 4176   1.508   3.788   1.156
 1093SOL     OW 4177   2.255   1.086   2.380
 1093SOL    HW1 4178   2.178   1.113   2.323
 1093SOL    HW2 4179   2.332   1.149   2.365
 1094SOL     OW 4180   7.016   6.799   3.303
 1094SOL    HW1 4181   0.076   6.811   3.357
 1094SOL    HW2 4182   7.023   6.717   3.248
 1095SOL     OW 4183   1.346   2.816   6.168
 1095SOL    HW1 4184   1.436   2.773   6.178
 1095SOL    HW2 4185   1.359   2.911   6.137
 1096SOL     OW 4186   3.532   4.352   1.706
 1096SOL    HW1 4187   3.555   4.442   1.743
 1096SOL    HW2 4188   3.449   4.318   1.750
 1097SOL     OW 4189   2.209   4.506   4.243
 1097SOL    HW1 4190   2.294   4.491   4.192
 1097SOL    HW2 4191   2.187   4.603   4.244
 1098SOL     OW 4192   4.271   3.330   0.166
 1098SOL    HW1 4193   4.288   3.416   0.118
 1098SOL    HW2 4194   4.173   3.312   0.168
 1099SOL     OW 4195   3.965   1.141   5.483
 1099SOL    HW1 4196   3.946   1.235   5.457
 1099SOL    HW2 4197   3.983   1.136   5.581
 1100SOL     OW 4198   3.081   1.811   4.930
 1100SOL    HW1 4199   3.168   1.811   4.980
 1100SOL    HW2 4200   3.070   1.724   4.882
 1101SOL     OW 4201   6.182   2.691   6.548
 1101SOL    HW1 4202   6.113   2.763   6.558
 1101SOL    HW2 4203   6.228   2.700   6.460
 1102SOL     OW 4204   0.319   6.545   4.827
 1102SOL    HW1 4205   0.364   6.613   4.885
 1102SOL    HW2 4206   0.313   6.579   4.734
 1103SOL     OW 4207   4.131   1.657   0.197
 1103SOL    HW1 4208   4.092   1.705   0.276
 1103SOL    HW2 4209   4.066   1.589   0.164
 1104SOL     OW 4210   1.861   3.062   6.001
 1104SOL    HW1 4211   1.873   2.966   5.977
 1104SOL    HW2 4212   1.948   3.110   5.994
 1105SOL     OW 4213   6.493   3.504   5.065
 1105SOL    HW1 4214   6.568   3.458   5.018
 1105SOL    HW2 4215   6.412   3.504   5.006
 1106SOL     OW 4216   0.127   2.592   1.985
 1106SOL    HW1 4217   0.049   2.586   1.923
 1106SOL    HW2 4218   0.187   2.513   1.971
 1107SOL     OW 4219   0.282   0.650   6.894
 1107SOL    HW1 4220   0.343   0.572   6.876
 1107SOL    HW2 4221   0.333   0.723   6.938
 1108SOL     OW 4222   3.636   6.846   5.438
 1108SOL    HW1 4223   3.691   6.922   5.473
 1108SOL    HW2 4224   3.571   6.880   5.371
 1109SOL     OW 4225   4.865   1.447   4.441
 1109SOL    HW1 4226   4.901   1.540   4.432
 1109SOL    HW2 4227   4.942   1.383   4.450
 1110SOL     OW 4228   3.435   1.762   3.276
 1110SOL    HW1 4229   3.448   1.823   3.355
 1110SOL    HW2 4230   3.387   1.811   3.204
 1111SOL     OW 4231   4.715   5.393   6.364
 1111SOL    HW1 4232   4.794   5.454   6.373
 1111SOL    HW2 4233   4.677   5.401   6.272
 1112SOL     OW 4234   4.726   1.814   2.081
 1112SOL    HW1 4235   4.769   1.770   2.002
 1112SOL    HW2 4236   4.754   1.910   2.084
 1113SOL     OW 4237   5.950   4.442   2.191
 1113SOL    HW1 4238   5.910   4.394   2.268
 1113SOL    HW2 4239   6.049   4.448   2.203
 1114SOL     OW 4240   3.453   1.572   6.103
 1114SOL    HW1 4241   3.483   1.637   6.173
 1114SOL    HW2 4242   3.368   1.604   6.061
 1115SOL     OW 4243   4.523   3.057   6.469
 1115SOL    HW1 4244   4.515   3.111   6.553
 1115SOL    HW2 4245   4.512   3.118   6.390
 1116SOL     OW 4246   5.013   0.030   5.991
 1116SOL    HW1 4247   5.027   0.028   5.892
 1116SOL    HW2 4248   4.993   0.124   6.020
 1117SOL     OW 4249   2.519   2.285   2.698
 1117SOL    HW1 4250   2.482   2.266   2.607
 1117SOL    HW2 4251   2.488   2.376   2.727
 1118SOL     OW 4252   2.636   4.429   0.527
 1118SOL    HW1 4253   2.630   4.355   0.460
 1118SOL    HW2 4254   2.559   4.491   0.514
 1119SOL     OW 4255   3.923   4.644   1.390
 1119SOL    HW1 4256   3.866   4.657   1.310
 1119SOL    HW2 4257   4.015   4.617   1.362
 1120SOL     OW 4258   6.115   6.759   6.696
 1120SOL    HW1 4259   6.187   6.803   6.641
 1120SOL    HW2 4260   6.103   6.810   6.781
 1121SOL     OW 4261   5.855   4.657   4.557
 1121SOL    HW1 4262   5.904   4.735   4.519
 1121SOL    HW2 4263   5.921   4.594   4.599
 1122SOL     OW 4264   5.947   2.514   0.272
 1122SOL    HW1 4265   5.957   2.609   0.243
 1122SOL    HW2 4266   5.897   2.463   0.202
 1123SOL     OW 4267   5.102   1.490   3.022
 1123SOL    HW1 4268   5.098   1.544   2.937
 1123SOL    HW2 4269   5.090   1.393   3.001
 1124SOL     OW 4270   0.474   3.440   4.960
 1124SOL    HW1 4271   0.410   3.442   4.884
 1124SOL    HW2 4272   0.428   3.468   5.044
 1125SOL     OW 4273   2.844   2.286   4.065
 1125SOL    HW1 4274   2.824   2.235   4.149
 1125SOL    HW2 4275   2.786   2.367   4.062
 1126SOL     OW 4276   5.890   4.994   6.951
 1126SOL    HW1 4277   5.867   5.089   6.971
 1126SOL    HW2 4278   5.838   4.933   7.010
 1127SOL     OW 4279   5.315   5.506   4.960
 1127SOL    HW1 4280   5.283   5.569   4.889
 1127SOL    HW2 4281   5.239   5.449   4.991
 1128SOL     OW 4282   5.815   1.819   4.964
 1128SOL    HW1 4283   5.800   1.910   4.925
 1128SOL    HW2 4284   5.743   1.799   5.031
 1129SOL     OW 4285   1.514   0.230   0.397
 1129SOL    HW1 4286   1.602   0.261   0.431
 1129SOL    HW2 4287   1.526   0.187   0.308
 1130SOL     OW 4288   3.017   4.775   0.815
 1130SOL    HW1 4289   2.938   4.793   0.756
 1130SOL    HW2 4290   2.985   4.756   0.908
 1131SOL     OW 4291   1.086   5.392   5.274
 1131SOL    HW1 4292   1.105   5.315   5.335
 1131SOL    HW2 4293   1.089   5.477   5.327
 1132SOL     OW 4294   5.187   6.676   2.644
 1132SOL    HW1 4295   5.186   6.727   2.730
 1132SOL    HW2 4296   5.100   6.687   2.597
 1133SOL     OW 4297   1.245   0.616   1.175
 1133SOL    HW1 4298   1.339   0.616   1.209
 1133SOL    HW2 4299   1.239   0.673   1.093
 1134SOL     OW 4300   5.449   0.652   1.807
 1134SOL    HW1 4301   5.418   0.608   1.891
 1134SOL    HW2 4302   5.393   0.733   1.790
 1135SOL     OW 4303   2.737   0.335   2.559
 1135SOL    HW1 4304   2.697   0.416   2.603
 1135SOL    HW2 4305   2.753   0.354   2.462
 1136SOL     OW 4306   4.301   4.699   2.739
 1136SOL    HW1 4307   4.358   4.658   2.668
 1136SOL    HW2 4308   4.341   4.681   2.829
 1137SOL     OW 4309   1.028   0.592   6.703
 1137SOL    HW1 4310   0.940   0.544   6.697
 1137SOL    HW2 4311   1.049   0.610   6.799
 1138SOL     OW 4312   0.103   0.448   6.060
 1138SOL    HW1 4313   0.163   0.528   6.066
 1138SOL    HW2 4314   0.156   0.365   6.077
 1139SOL     OW 4315   3.157   4.870   2.037
 1139SOL    HW1 4316   3.172   4.868   2.136
 1139SOL    HW2 4317   3.240   4.902   1.992
 1140SOL     OW 4318   3.579   1.274   1.304
 1140SOL    HW1 4319   3.565   1.279   1.403
 1140SOL    HW2 4320   3.579   1.178   1.275
 1141SOL     OW 4321   0.089   6.352   6.458
 1141SOL    HW1 4322   0.016   6.304   6.508
 1141SOL    HW2 4323   0.094   6.447   6.490
 1142SOL     OW 4324   3.130   6.733   4.702
 1142SOL    HW1 4325   3.227   6.731   4.678
 1142SOL    HW2 4326   3.088   6.646   4.674
 1143SOL     OW 4327   1.897   3.356   3.484
 1143SOL    HW1 4328   1.850   3.367   3.571
 1143SOL    HW2 4329   1.848   3.406   3.413
 1144SOL     OW 4330   6.381   4.879   4.178
 1144SOL    HW1 4331   6.361   4.858   4.273
 1144SOL    HW2 4332   6.299   4.864   4.122
 1145SOL     OW 4333   6.418   3.528   2.402
 1145SOL    HW1 4334   6.473   3.548   2.322
 1145SOL    HW2 4335   6.374   3.438   2.392
 1146SOL     OW 4336   0.094   0.142   2.475
 1146SOL    HW1 4337   0.189   0.149   2.446
 1146SOL    HW2 4338   0.085   0.173   2.570
 1147SOL     OW 4339   2.609   5.192   1.518
 1147SOL    HW1 4340   2.552   5.253   1.573
 1147SOL    HW2 4341   2.593   5.098   1.546
 1148SOL     OW 4342   4.921   5.980   0.540
 1148SOL    HW1 4343   4.980   5.920   0.594
 1148SOL    HW2 4344   4.953   5.980   0.445
 1149SOL     OW 4345   6.695   3.787   2.883
 1149SOL    HW1 4346   6.737   3.697   2.893
 1149SOL    HW2 4347   6.642   3.809   2.965
 1150SOL     OW 4348   2.042   3.810   0.341
 1150SOL    HW1 4349   2.077   3.717   0.349
 1150SOL    HW2 4350   1.986   3.831   0.421
 1151SOL     OW 4351   5.115   4.578   0.027
 1151SOL    HW1 4352   5.075   4.512   0.091
 1151SOL    HW2 4353   5.213   4.559   0.018
 1152SOL     OW 4354   5.673   4.728   6.411
 1152SOL    HW1 4355   5.631   4.645   6.373
 1152SOL    HW2 4356   5.772   4.720   6.406
 1153SOL     OW 4357   1.381   0.340   1.662
 1153SOL    HW1 4358   1.347   0.400   1.735
 1153SOL    HW2 4359   1.337   0.365   1.576
 1154SOL     OW 4360   6.858   4.752   1.115
 1154SOL    HW1 4361   6.791   4.816   1.077
 1154SOL    HW2 4362   6.909   4.796   1.189
 1155SOL     OW 4363   2.848   5.274   6.165
 1155SOL    HW1 4364   2.764   5.284   6.218
 1155SOL    HW2 4365   2.839   5.323   6.079
 1156SOL     OW 4366   4.275   1.553   4.639
 1156SOL    HW1 4367   4.218   1.590   4.713
 1156SOL    HW2 4368   4.368   1.537   4.674
 1157SOL     OW 4369   5.909   2.013   5.832
 1157SOL    HW1 4370   5.875   1.973   5.917
 1157SOL    HW2 4371   5.845   2.083   5.800
 1158SOL     OW 4372   0.523   5.163   5.102
 1158SOL    HW1 4373   0.438   5.112   5.116
 1158SOL    HW2 4374   0.575   5.165   5.187
 1159SOL     OW 4375   6.465   6.758   3.826
 1159SOL    HW1 4376   6.478   6.724   3.733
 1159SOL    HW2 4377   6.545   6.733   3.882
 1160SOL     OW 4378   5.242   4.779   0.833
 1160SOL    HW1 4379   5.285   4.852   0.885
 1160SOL    HW2 4380   5.295   4.762   0.749
 1161SOL     OW 4381   5.900   0.219   5.834
 1161SOL    HW1 4382   5.887   0.123   5.859
 1161SOL    HW2 4383   5.931   0.270   5.914
 1162SOL     OW 4384   3.283   2.182   6.928
 1162SOL    HW1 4385   3.270   2.089   6.894
 1162SOL    HW2 4386   3.216   2.201   7.000
 1163SOL     OW 4387   6.985   4.019   1.938
 1163SOL    HW1 4388   0.012   3.947   1.986
 1163SOL    HW2 4389   6.948   3.982   1.852
 1164SOL     OW 4390   6.477   3.593   4.721
 1164SOL    HW1 4391   6.442   3.648   4.797
 1164SOL    HW2 4392   6.401   3.551   4.672
 1165SOL     OW 4393   3.351   4.925   3.602
 1165SOL    HW1 4394   3.388   4.889   3.688
 1165SOL    HW2 4395   3.310   5.015   3.618
 1166SOL     OW 4396   3.989   0.027   0.076
 1166SOL    HW1 4397   3.917   0.006   0.142
 1166SOL    HW2 4398   3.948   0.051   7.011
 1167SOL     OW 4399   4.414   6.485   6.954
 1167SOL    HW1 4400   4.456   6.439   0.009
 1167SOL    HW2 4401   4.331   6.437   6.928
 1168SOL     OW 4402   4.765   2.459   3.017
 1168SOL    HW1 4403   4.823   2.527   2.973
 1168SOL    HW2 4404   4.717   2.405   2.947
 1169SOL     OW 4405   4.950   2.329   6.250
 1169SOL    HW1 4406   4.858   2.362   6.230
 1169SOL    HW2 4407   4.989   2.289   6.168
 1170SOL     OW 4408   5.193   0.724   3.388
 1170SOL    HW1 4409   5.211   0.634   3.427
 1170SOL    HW2 4410   5.129   0.715   3.312
 1171SOL     OW 4411   2.422   5.803   0.053
 1171SOL    HW1 4412   2.331   5.792   0.014
 1171SOL    HW2 4413   2.437   5.899   0.079
 1172SOL     OW 4414   3.031   4.216   1.725
 1172SOL    HW1 4415   2.995   4.214   1.631
 1172SOL    HW2 4416   2.982   4.285   1.778
 1173SOL     OW 4417   2.925   0.731   0.013
 1173SOL    HW1 4418   2.882   0.746   6.947
 1173SOL    HW2 4419   2.940   0.819   0.058
 1174SOL     OW 4420   2.996   4.729   1.327
 1174SOL    HW1 4421   2.930   4.741   1.401
 1174SOL    HW2 4422   2.994   4.634   1.296
 1175SOL     OW 4423   4.048   4.065   6.696
 1175SOL    HW1 4424   4.108   3.989   6.670
 1175SOL    HW2 4425   4.095   4.123   6.763
 1176SOL     OW 4426   6.028   4.346   6.692
 1176SOL    HW1 4427   5.934   4.339   6.659
 1176SOL    HW2 4428   6.062   4.439   6.678
 1177SOL     OW 4429   0.440   2.955   4.745
 1177SOL    HW1 4430   0.428   3.004   4.659
 1177SOL    HW2 4431   0.537   2.932   4.757
 1178SOL     OW 4432   3.148   3.976   0.950
 1178SOL    HW1 4433   3.061   3.934   0.973
 1178SOL    HW2 4434   3.148   4.072   0.979
 1179SOL     OW 4435   2.696   6.083   0.777
 1179SOL    HW1 4436   2.674   6.056   0.870
 1179SOL    HW2 4437   2.721   6.002   0.724
 1180SOL     OW 4438   2.512   6.419   4.556
 1180SOL    HW1 4439   2.589   6.479   4.577
 1180SOL    HW2 4440   2.533   6.326   4.584
 1181SOL     OW 4441   6.955   3.917   6.133
 1181SOL    HW1 4442   0.007   3.874   6.182
 1181SOL    HW2 4443   6.875   3.858   6.136
 1182SOL     OW 4444   3.585   4.884   2.969
 1182SOL    HW1 4445   3.502   4.841   2.933
 1182SOL    HW2 4446   3.645   4.911   2.894
 1183SOL     OW 4447   3.001   5.176   1.476
 1183SOL    HW1 4448   2.939   5.253   1.490
 1183SOL    HW2 4449   3.025   5.136   1.564
 1184SOL     OW 4450   6.417   0.409   5.664
 1184SOL    HW1 4451   6.485   0.466   5.618
 1184SOL    HW2 4452   6.329   0.415   5.616
 1185SOL     OW 4453   1.058   0.866   0.505
 1185SOL    HW1 4454   1.052   0.931   0.581
 1185SOL    HW2 4455   1.113   0.788   0.532
 1186SOL     OW 4456   5.430   6.312   5.058
 1186SOL    HW1 4457   5.471   6.236   5.108
 1186SOL    HW2 4458   5.331   6.299   5.053
 1187SOL     OW 4459   5.619   6.673   5.091
 1187SOL    HW1 4460   5.573   6.735   5.028
 1187SOL    HW2 4461   5.567   6.667   5.176
 1188SOL     OW 4462   2.637   5.529   6.335
 1188SOL    HW1 4463   2.672   5.619   6.311
 1188SOL    HW2 4464   2.687   5.493   6.414
 1189SOL     OW 4465   6.284   0.960   1.367
 1189SOL    HW1 4466   6.290   0.917   1.458
 1189SOL    HW2 4467   6.234   0.900   1.305
 1190SOL     OW 4468   2.757   5.615   2.998
 1190SOL    HW1 4469   2.817   5.544   2.963
 1190SOL    HW2 4470   2.788   5.645   3.088
 1191SOL     OW 4471   3.091   6.365   4.106
 1191SOL    HW1 4472   3.027   6.321   4.170
 1191SOL    HW2 4473   3.065   6.342   4.012
 1192SOL     OW 4474   5.699   5.734   3.678
 1192SOL    HW1 4475   5.789   5.777   3.667
 1192SOL    HW2 4476   5.697   5.680   3.761
 1193SOL     OW 4477   0.027   1.243   5.266
 1193SOL    HW1 4478   0.012   1.146   5.287
 1193SOL    HW2 4479   0.122   1.257   5.237
 1194SOL     OW 4480   6.480   1.250   1.848
 1194SOL    HW1 4481   6.467   1.341   1.886
 1194SOL    HW2 4482   6.459   1.182   1.918
 1195SOL     OW 4483   0.230   3.356   0.324
 1195SOL    HW1 4484   0.261   3.262   0.340
 1195SOL    HW2 4485   0.222   3.404   0.411
 1196SOL     OW 4486   6.778   4.064   3.237
 1196SOL    HW1 4487   6.855   4.025   3.287
 1196SOL    HW2 4488   6.797   4.160   3.216
 1197SOL     OW 4489   4.362   6.053   4.160
 1197SOL    HW1 4490   4.309   6.050   4.075
 1197SOL    HW2 4491   4.312   6.005   4.232
 1198SOL     OW 4492   1.408   3.727   2.025
 1198SOL    HW1 4493   1.476   3.735   2.098
 1198SOL    HW2 4494   1.429   3.793   1.953
 1199SOL     OW 4495   3.125   3.828   3.386
 1199SOL    HW1 4496   3.164   3.745   3.427
 1199SOL    HW2 4497   3.151   3.834   3.290
 1200SOL     OW 4498   3.741   4.056   4.221
 1200SOL    HW1 4499   3.710   4.085   4.311
 1200SOL    HW2 4500   3.676   3.992   4.182
 1201SOL     OW 4501   6.893   1.163   4.821
 1201SOL    HW1 4502   6.878   1.180   4.918
 1201SOL    HW2 4503   6.822   1.210   4.768
 1202SOL     OW 4504   0.803   5.764   5.223
 1202SOL    HW1 4505   0.880   5.787   5.283
 1202SOL    HW2 4506   0.742   5.700   5.270
 1203SOL     OW 4507   0.587   5.524   0.503
 1203SOL    HW1 4508   0.518   5.592   0.528
 1203SOL    HW2 4509   0.569   5.490   0.411
 1204SOL     OW 4510   4.632   1.329   1.297
 1204SOL    HW1 4511   4.651   1.361   1.390
 1204SOL    HW2 4512   4.715   1.291   1.257
 1205SOL     OW 4513   3.442   3.420   0.296
 1205SOL    HW1 4514   3.363   3.371   0.259
 1205SOL    HW2 4515   3.420   3.517   0.306
 1206SOL     OW 4516   1.321   3.395   5.172
 1206SOL    HW1 4517   1.270   3.408   5.088
 1206SOL    HW2 4518   1.419   3.405   5.154
 1207SOL     OW 4519   0.564   0.254   0.930
 1207SOL    HW1 4520   0.581   0.223   1.024
 1207SOL    HW2 4521   0.471   0.288   0.922
 1208SOL     OW 4522   2.885   3.566   1.656
 1208SOL    HW1 4523   2.907   3.535   1.749
 1208SOL    HW2 4524   2.861   3.663   1.657
 1209SOL     OW 4525   5.170   0.736   4.246
 1209SOL    HW1 4526   5.219   0.739   4.159
 1209SOL    HW2 4527   5.132   0.644   4.260
 1210SOL     OW 4528   3.941   6.829   3.391
 1210SOL    HW1 4529   3.846   6.800   3.387
 1210SOL    HW2 4530   3.962   6.889   3.314
 1211SOL     OW 4531   1.078   2.802   3.278
 1211SOL    HW1 4532   1.016   2.839   3.347
 1211SOL    HW2 4533   1.121   2.877   3.227
 1212SOL     OW 4534   6.379   6.981   5.778
 1212SOL    HW1 4535   6.362   6.980   5.679
 1212SOL    HW2 4536   6.301   7.022   5.825
 1213SOL     OW 4537   6.327   2.675   1.688
 1213SOL    HW1 4538   6.249   2.716   1.736
 1213SOL    HW2 4539   6.362   2.740   1.621
 1214SOL     OW 4540   0.885   2.389   6.955
 1214SOL    HW1 4541   0.864   2.317   7.020
 1214SOL    HW2 4542   0.832   2.375   6.871
 1215SOL     OW 4543   1.133   4.660   3.461
 1215SOL    HW1 4544   1.196   4.626   3.391
 1215SOL    HW2 4545   1.043   4.676   3.421
 1216SOL     OW 4546   5.298   1.593   0.430
 1216SOL    HW1 4547   5.379   1.617   0.483
 1216SOL    HW2 4548   5.287   1.658   0.355
 1217SOL     OW 4549   2.806   4.745   0.656
 1217SOL    HW1 4550   2.808   4.765   0.558
 1217SOL    HW2 4551   2.712   4.738   0.687
 1218SOL     OW 4552   1.783   3.307   5.508
 1218SOL    HW1 4553   1.861   3.247   5.522
 1218SOL    HW2 4554   1.706   3.254   5.473
 1219SOL     OW 4555   5.978   5.797   2.090
 1219SOL    HW1 4556   6.025   5.876   2.052
 1219SOL    HW2 4557   5.891   5.826   2.130
 1220SOL     OW 4558   0.520   4.356   2.481
 1220SOL    HW1 4559   0.515   4.376   2.579
 1220SOL    HW2 4560   0.499   4.259   2.466
 1221SOL     OW 4561   4.848   3.297   6.649
 1221SOL    HW1 4562   4.761   3.348   6.647
 1221SOL    HW2 4563   4.891   3.303   6.559
 1222SOL     OW 4564   6.782   0.896   6.280
 1222SOL    HW1 4565   6.702   0.935   6.325
 1222SOL    HW2 4566   6.798   0.803   6.314
 1223SOL     OW 4567   3.966   1.506   0.471
 1223SOL    HW1 4568   3.867   1.511   0.457
 1223SOL    HW2 4569   4.003   1.599   0.477
 1224SOL     OW 4570   3.126   6.362   6.994
 1224SOL    HW1 4571   3.215   6.396   6.963
 1224SOL    HW2 4572   3.058   6.376   6.922
 1225SOL     OW 4573   3.455   2.659   6.571
 1225SOL    HW1 4574   3.370   2.683   6.525
 1225SOL    HW2 4575   3.504   2.743   6.596
 1226SOL     OW 4576   3.419   6.412   1.188
 1226SOL    HW1 4577   3.341   6.431   1.128
 1226SOL    HW2 4578   3.400   6.447   1.279
 1227SOL     OW 4579   5.070   4.719   5.807
 1227SOL    HW1 4580   5.056   4.796   5.870
 1227SOL    HW2 4581   5.059   4.633   5.857
 1228SOL     OW 4582   2.757   1.935   6.205
 1228SOL    HW1 4583   2.772   1.954   6.302
 1228SOL    HW2 4584   2.767   2.019   6.152
 1229SOL     OW 4585   3.282   5.098   6.898
 1229SOL    HW1 4586   3.278   5.116   6.800
 1229SOL    HW2 4587   3.288   4.999   6.913
 1230SOL     OW 4588   5.265   6.449   2.148
 1230SOL    HW1 4589   5.327   6.397   2.206
 1230SOL    HW2 4590   5.198   6.388   2.107
 1231SOL     OW 4591   1.941   2.370   5.576
 1231SOL    HW1 4592   1.971   2.363   5.671
 1231SOL    HW2 4593   1.846   2.401   5.572
 1232SOL     OW 4594   6.774   1.850   5.078
 1232SOL    HW1 4595   6.787   1.838   5.177
 1232SOL    HW2 4596   6.842   1.795   5.029
 1233SOL     OW 4597   0.804   5.461   4.871
 1233SOL    HW1 4598   0.878   5.490   4.931
 1233SOL    HW2 4599   0.777   5.367   4.894
 1234SOL     OW 4600   5.513   2.876   5.486
 1234SOL    HW1 4601   5.513   2.856   5.388
 1234SOL    HW2 4602   5.606   2.868   5.522
 1235SOL     OW 4603   5.806   5.867   2.508
 1235SOL    HW1 4604   5.782   5.884   2.604
 1235SOL    HW2 4605   5.857   5.946   2.472
 1236SOL     OW 4606   4.472   0.216   0.667
 1236SOL    HW1 4607   4.552   0.169   0.628
 1236SOL    HW2 4608   4.460   0.305   0.622
 1237SOL     OW 4609   1.840   4.441   6.302
 1237SOL    HW1 4610   1.856   4.362   6.360
 1237SOL    HW2 4611   1.762   4.424   6.242
 1238SOL     OW 4612   1.009   0.642   6.288
 1238SOL    HW1 4613   1.048   0.734   6.283
 1238SOL    HW2 4614   1.078   0.577   6.318
 1239SOL     OW 4615   6.367   6.824   6.564
 1239SOL    HW1 4616   6.406   6.870   6.643
 1239SOL    HW2 4617   6.421   6.742   6.543
 1240SOL     OW 4618   5.514   6.429   0.850
 1240SOL    HW1 4619   5.561   6.341   0.856
 1240SOL    HW2 4620   5.448   6.437   0.925
 1241SOL     OW 4621   5.179   4.655   4.927
 1241SOL    HW1 4622   5.277   4.654   4.912
 1241SOL    HW2 4623   5.158   4.614   5.016
 1242SOL     OW 4624   0.936   3.633   1.445
 1242SOL    HW1 4625   0.875   3.620   1.367
 1242SOL    HW2 4626   0.980   3.723   1.438
 1243SOL     OW 4627   0.683   0.581   5.133
 1243SOL    HW1 4628   0.677   0.484   5.110
 1243SOL    HW2 4629   0.639   0.636   5.062
 1244SOL     OW 4630   5.633   6.699   4.103
 1244SOL    HW1 4631   5.626   6.757   4.022
 1244SOL    HW2 4632   5.542   6.677   4.136
 1245SOL     OW 4633   6.407   4.288   0.700
 1245SOL    HW1 4634   6.331   4.240   0.658
 1245SOL    HW2 4635   6.489   4.276   0.644
 1246SOL     OW 4636   2.684   0.673   1.077
 1246SOL    HW1 4637   2.775   0.684   1.117
 1246SOL    HW2 4638   2.656   0.577   1.086
 1247SOL     OW 4639   0.157   6.533   6.112
 1247SOL    HW1 4640   0.138   6.617   6.162
 1247SOL    HW2 4641   0.237   6.547   6.054
 1248SOL     OW 4642   2.316   0.201   4.932
 1248SOL    HW1 4643   2.332   0.240   4.841
 1248SOL    HW2 4644   2.374   0.121   4.944
 1249SOL     OW 4645   6.712   2.147   2.535
 1249SOL    HW1 4646   6.758   2.224   2.578
 1249SOL    HW2 4647   6.614   2.151   2.556
 1250SOL     OW 4648   5.903   5.534   3.638
 1250SOL    HW1 4649   5.900   5.599   3.561
 1250SOL    HW2 4650   5.994   5.493   3.643
 1251SOL     OW 4651   2.910   0.684   3.443
 1251SOL    HW1 4652   2.889   0.752   3.514
 1251SOL    HW2 4653   3.008   0.684   3.424
 1252SOL     OW 4654   4.945   3.599   6.179
 1252SOL    HW1 4655   4.885   3.568   6.105
 1252SOL    HW2 4656   5.014   3.662   6.142
 1253SOL     OW 4657   2.969   6.276   1.911
 1253SOL    HW1 4658   2.994   6.198   1.855
 1253SOL    HW2 4659   2.954   6.356   1.853
 1254SOL     OW 4660   1.128   3.236   2.917
 1254SOL    HW1 4661   1.096   3.285   2.836
 1254SOL    HW2 4662   1.228   3.226   2.912
 1255SOL     OW 4663   6.027   1.292   6.624
 1255SOL    HW1 4664   5.937   1.283   6.666
 1255SOL    HW2 4665   6.070   1.378   6.653
 1256SOL     OW 4666   6.708   6.435   2.992
 1256SOL    HW1 4667   6.785   6.477   2.945
 1256SOL    HW2 4668   6.631   6.498   2.992
 1257SOL     OW 4669   6.627   5.860   4.764
 1257SOL    HW1 4670   6.646   5.819   4.675
 1257SOL    HW2 4671   6.657   5.799   4.836
 1258SOL     OW 4672   1.456   4.917   3.218
 1258SOL    HW1 4673   1.497   4.974   3.289
 1258SOL    HW2 4674   1.357   4.909   3.235
 1259SOL     OW 4675   3.439   0.585   4.125
 1259SOL    HW1 4676   3.512   0.627   4.070
 1259SOL    HW2 4677   3.350   0.607   4.085
 1260SOL     OW 4678   2.699   2.643   6.920
 1260SOL    HW1 4679   2.785   2.602   6.889
 1260SOL    HW2 4680   2.625   2.614   6.860
 1261SOL     OW 4681   0.273   5.795   6.827
 1261SOL    HW1 4682   0.329   5.795   6.745
 1261SOL    HW2 4683   0.249   5.889   6.852
 1262SOL     OW 4684   6.025   4.281   1.431
 1262SOL    HW1 4685   6.051   4.363   1.381
 1262SOL    HW2 4686   6.041   4.200   1.375
 1263SOL     OW 4687   0.020   2.341   1.816
 1263SOL    HW1 4688   0.010   2.425   1.762
 1263SOL    HW2 4689   0.117   2.320   1.827
 1264SOL     OW 4690   0.028   4.141   1.642
 1264SOL    HW1 4691   7.009   4.054   1.671
 1264SOL    HW2 4692   6.980   4.201   1.607
 1265SOL     OW 4693   4.846   5.344   3.934
 1265SOL    HW1 4694   4.758   5.340   3.888
 1265SOL    HW2 4695   4.859   5.260   3.987
 1266SOL     OW 4696   0.153   1.413   4.293
 1266SOL    HW1 4697   0.248   1.383   4.304
 1266SOL    HW2 4698   0.128   1.471   4.371
 1267SOL     OW 4699   4.894   6.612   1.415
 1267SOL    HW1 4700   4.870   6.611   1.318
 1267SOL    HW2 4701   4.991   6.589   1.425
 1268SOL     OW 4702   2.720   2.842   0.345
 1268SOL    HW1 4703   2.718   2.833   0.245
 1268SOL    HW2 4704   2.765   2.929   0.369
 1269SOL     OW 4705   6.108   5.512   5.092
 1269SOL    HW1 4706   6.043   5.476   5.159
 1269SOL    HW2 4707   6.059   5.536   5.008
 1270SOL     OW 4708   1.290   2.943   3.496
 1270SOL    HW1 4709   1.249   2.865   3.448
 1270SOL    HW2 4710   1.247   2.953   3.586
 1271SOL     OW 4711   2.561   2.180   3.839
 1271SOL    HW1 4712   2.481   2.198   3.896
 1271SOL    HW2 4713   2.567   2.250   3.768
 1272SOL     OW 4714   5.527   4.967   0.109
 1272SOL    HW1 4715   5.467   4.974   0.030
 1272SOL    HW2 4716   5.553   4.872   0.124
 1273SOL     OW 4717   0.537   3.069   0.108
 1273SOL    HW1 4718   0.532   3.166   0.086
 1273SOL    HW2 4719   0.621   3.030   0.071
 1274SOL     OW 4720   6.272   4.815   1.523
 1274SOL    HW1 4721   6.319   4.848   1.441
 1274SOL    HW2 4722   6.338   4.805   1.597
 1275SOL     OW 4723   3.942   1.952   4.390
 1275SOL    HW1 4724   4.029   1.908   4.367
 1275SOL    HW2 4725   3.922   2.024   4.324
 1276SOL     OW 4726   6.744   5.991   5.113
 1276SOL    HW1 4727   6.747   5.915   5.048
 1276SOL    HW2 4728   6.676   6.058   5.082
 1277SOL     OW 4729   0.851   5.685   6.075
 1277SOL    HW1 4730   0.922   5.616   6.062
 1277SOL    HW2 4731   0.873   5.743   6.154
 1278SOL     OW 4732   0.782   0.256   4.568
 1278SOL    HW1 4733   0.808   0.209   4.483
 1278SOL    HW2 4734   0.686   0.281   4.564
 1279SOL     OW 4735   2.144   5.365   0.713
 1279SOL    HW1 4736   2.126   5.312   0.796
 1279SOL    HW2 4737   2.203   5.442   0.735
 1280SOL     OW 4738   3.651   6.489   4.553
 1280SOL    HW1 4739   3.637   6.556   4.481
 1280SOL    HW2 4740   3.746   6.489   4.582
 1281SOL     OW 4741   2.039   6.094   3.251
 1281SOL    HW1 4742   2.041   6.145   3.337
 1281SOL    HW2 4743   2.015   5.999   3.268
 1282SOL     OW 4744   0.284   2.141   6.723
 1282SOL    HW1 4745   0.199   2.193   6.712
 1282SOL    HW2 4746   0.349   2.195   6.776
 1283SOL     OW 4747   0.212   3.509   5.894
 1283SOL    HW1 4748   0.231   3.413   5.875
 1283SOL    HW2 4749   0.283   3.566   5.854
 1284SOL     OW 4750   4.891   2.330   1.278
 1284SOL    HW1 4751   4.829   2.347   1.202
 1284SOL    HW2 4752   4.963   2.399   1.278
 1285SOL     OW 4753   4.335   2.449   6.469
 1285SOL    HW1 4754   4.309   2.411   6.380
 1285SOL    HW2 4755   4.409   2.394   6.508
 1286SOL     OW 4756   4.876   3.938   1.377
 1286SOL    HW1 4757   4.970   3.937   1.412
 1286SOL    HW2 4758   4.825   4.011   1.423
 1287SOL     OW 4759   6.069   5.706   5.345
 1287SOL    HW1 4760   5.994   5.661   5.394
 1287SOL    HW2 4761   6.044   5.801   5.325
 1288SOL     OW 4762   4.019   3.025   6.318
 1288SOL    HW1 4763   4.075   3.048   6.239
 1288SOL    HW2 4764   3.948   2.959   6.291
 1289SOL     OW 4765   0.030   0.035   1.062
 1289SOL    HW1 4766   7.002   0.011   0.980
 1289SOL    HW2 4767   0.111   0.088   1.036
 1290SOL     OW 4768   1.054   6.339   6.527
 1290SOL    HW1 4769   0.998   6.267   6.488
 1290SOL    HW2 4770   1.147   6.305   6.543
 1291SOL     OW 4771   0.095   4.098   4.464
 1291SOL    HW1 4772   0.009   4.101   4.413
 1291SOL    HW2 4773   0.161   4.041   4.414
 1292SOL     OW 4774   0.776   6.012   2.322
 1292SOL    HW1 4775   0.852   6.073   2.300
 1292SOL    HW2 4776   0.690   6.056   2.298
 1293SOL     OW 4777   0.696   1.650   6.707
 1293SOL    HW1 4778   0.758   1.597   6.765
 1293SOL    HW2 4779   0.691   1.609   6.617
 1294SOL     OW 4780   0.900   3.555   6.149
 1294SOL    HW1 4781   0.919   3.645   6.110
 1294SOL    HW2 4782   0.949   3.545   6.235
 1295SOL     OW 4783   0.324   3.689   1.525
 1295SOL    HW1 4784   0.414   3.689   1.567
 1295SOL    HW2 4785   0.325   3.631   1.443
 1296SOL     OW 4786   4.190   6.627   5.668
 1296SOL    HW1 4787   4.157   6.585   5.753
 1296SOL    HW2 4788   4.132   6.597   5.592
 1297SOL     OW 4789   0.003   0.612   1.274
 1297SOL    HW1 4790   7.004   0.581   1.181
 1297SOL    HW2 4791   0.084   0.563   1.307
 1298SOL     OW 4792   5.592   5.193   2.849
 1298SOL    HW1 4793   5.691   5.204   2.842
 1298SOL    HW2 4794   5.554   5.176   2.759
 1299SOL     OW 4795   1.751   3.501   3.300
 1299SOL    HW1 4796   1.767   3.483   3.203
 1299SOL    HW2 4797   1.654   3.490   3.320
 1300SOL     OW 4798   2.272   2.922   1.486
 1300SOL    HW1 4799   2.215   2.899   1.565
 1300SOL    HW2 4800   2.287   3.021   1.483
 1301SOL     OW 4801   0.244   6.953   1.271
 1301SOL    HW1 4802   0.195   0.000   1.218
 1301SOL    HW2 4803   0.198   6.940   1.358
 1302SOL     OW 4804   4.300   1.074   6.010
 1302SOL    HW1 4805   4.258   1.028   5.932
 1302SOL    HW2 4806   4.392   1.105   5.986
 1303SOL     OW 4807   3.867   2.077   1.428
 1303SOL    HW1 4808   3.897   1.987   1.460
 1303SOL    HW2 4809   3.902   2.093   1.335
 1304SOL     OW 4810   2.271   0.788   6.995
 1304SOL    HW1 4811   2.191   0.737   6.963
 1304SOL    HW2 4812   2.262   0.884   6.967
 1305SOL     OW 4813   5.732   3.575   1.123
 1305SOL    HW1 4814   5.685   3.510   1.183
 1305SOL    HW2 4815   5.742   3.534   1.032
 1306SOL     OW 4816   1.250   5.285   3.809
 1306SOL    HW1 4817   1.193   5.227   3.867
 1306SOL    HW2 4818   1.203   5.300   3.721
 1307SOL     OW 4819   1.204   4.225   3.814
 1307SOL    HW1 4820   1.180   4.240   3.718
 1307SOL    HW2 4821   1.266   4.297   3.845
 1308SOL     OW 4822   6.644   0.054   5.156
 1308SOL    HW1 4823   6.549   0.052   5.186
 1308SOL    HW2 4824   6.701   0.007   5.224
 1309SOL     OW 4825   5.335   4.692   5.480
 1309SOL    HW1 4826   5.389   4.770   5.448
 1309SOL    HW2 4827   5.382   4.607   5.458
 1310SOL     OW 4828   6.350   3.920   4.063
 1310SOL    HW1 4829   6.390   3.913   3.972
 1310SOL    HW2 4830   6.422   3.942   4.130
 1311SOL     OW 4831   0.551   6.333   5.240
 1311SOL    HW1 4832   0.595   6.259   5.290
 1311SOL    HW2 4833   0.524   6.300   5.149
 1312SOL     OW 4834   0.786   6.402   6.680
 1312SOL    HW1 4835   0.784   6.465   6.757
 1312SOL    HW2 4836   0.881   6.384   6.655
 1313SOL     OW 4837   0.707   4.820   2.907
 1313SOL    HW1 4838   0.745   4.800   2.817
 1313SOL    HW2 4839   0.683   4.917   2.913
 1314SOL     OW 4840   4.364   1.305   5.718
 1314SOL    HW1 4841   4.284   1.302   5.778
 1314SOL    HW2 4842   4.387   1.401   5.699
 1315SOL     OW 4843   0.691   1.054   2.355
 1315SOL    HW1 4844   0.760   1.048   2.427
 1315SOL    HW2 4845   0.722   1.117   2.284
 1316SOL     OW 4846   2.492   5.804   5.373
 1316SOL    HW1 4847   2.493   5.847   5.282
 1316SOL    HW2 4848   2.412   5.744   5.380
 1317SOL     OW 4849   2.172   4.304   6.057
 1317SOL    HW1 4850   2.154   4.206   6.053
 1317SOL    HW2 4851   2.085   4.354   6.059
 1318SOL     OW 4852   0.810   1.898   1.060
 1318SOL    HW1 4853   0.752   1.821   1.085
 1318SOL    HW2 4854   0.905   1.866   1.050
 1319SOL     OW 4855   6.603   6.674   6.893
 1319SOL    HW1 4856   6.540   6.625   6.833
 1319SOL    HW2 4857   6.627   6.615   6.970
 1320SOL     OW 4858   4.005   4.660   6.931
 1320SOL    HW1 4859   3.944   4.581   6.945
 1320SOL    HW2 4860   4.087   4.649   6.987
 1321SOL     OW 4861   5.670   1.692   6.880
 1321SOL    HW1 4862   5.695   1.693   6.784
 1321SOL    HW2 4863   5.618   1.609   6.901
 1322SOL     OW 4864   4.074   0.812   3.083
 1322SOL    HW1 4865   4.167   0.815   3.046
 1322SOL    HW2 4866   4.077   0.781   3.178
 1323SOL     OW 4867   4.214   0.415   5.856
 1323SOL    HW1 4868   4.155   0.339   5.829
 1323SOL    HW2 4869   4.175   0.501   5.824
 1324SOL     OW 4870   0.814   4.154   6.742
 1324SOL    HW1 4871   0.877   4.138   6.666
 1324SOL    HW2 4872   0.734   4.095   6.733
 1325SOL     OW 4873   2.298   0.323   3.412
 1325SOL    HW1 4874   2.388   0.317   3.456
 1325SOL    HW2 4875   2.240   0.387   3.463
 1326SOL     OW 4876   4.703   3.889   5.408
 1326SOL    HW1 4877   4.749   3.862   5.323
 1326SOL    HW2 4878   4.769   3.928   5.471
 1327SOL     OW 4879   1.033   6.096   1.622
 1327SOL    HW1 4880   1.075   6.080   1.712
 1327SOL    HW2 4881   0.949   6.042   1.615
 1328SOL     OW 4882   2.041   2.995   1.133
 1328SOL    HW1 4883   2.005   3.053   1.206
 1328SOL    HW2 4884   2.005   2.903   1.143
 1329SOL     OW 4885   0.448   2.311   2.055
 1329SOL    HW1 4886   0.511   2.387   2.040
 1329SOL    HW2 4887   0.416   2.312   2.150
 1330SOL     OW 4888   0.643   1.137   1.904
 1330SOL    HW1 4889   0.583   1.065   1.941
 1330SOL    HW2 4890   0.628   1.222   1.954
 1331SOL     OW 4891   4.823   3.205   2.677
 1331SOL    HW1 4892   4.803   3.112   2.646
 1331SOL    HW2 4893   4.859   3.259   2.601
 1332SOL     OW 4894   2.910   0.319   0.180
 1332SOL    HW1 4895   2.882   0.415   0.190
 1332SOL    HW2 4896   2.836   0.267   0.137
 1333SOL     OW 4897   2.860   3.506   4.442
 1333SOL    HW1 4898   2.761   3.505   4.458
 1333SOL    HW2 4899   2.878   3.522   4.345
 1334SOL     OW 4900   6.171   1.848   4.179
 1334SOL    HW1 4901   6.116   1.765   4.178
 1334SOL    HW2 4902   6.247   1.839   4.114
 1335SOL     OW 4903   2.184   1.748   2.520
 1335SOL    HW1 4904   2.151   1.689   2.446
 1335SOL    HW2 4905   2.284   1.742   2.523
 1336SOL     OW 4906   1.996   2.802   5.356
 1336SOL    HW1 4907   1.972   2.766   5.266
 1336SOL    HW2 4908   2.074   2.864   5.348
 1337SOL     OW 4909   1.534   2.353   4.593
 1337SOL    HW1 4910   1.500   2.259   4.604
 1337SOL    HW2 4911   1.461   2.418   4.612
 1338SOL     OW 4912   5.273   2.158   4.597
 1338SOL    HW1 4913   5.178   2.127   4.587
 1338SOL    HW2 4914   5.278   2.227   4.669
 1339SOL     OW 4915   6.723   1.803   6.471
 1339SOL    HW1 4916   6.629   1.834   6.457
 1339SOL    HW2 4917   6.725   1.735   6.544
 1340SOL     OW 4918   6.259   1.649   2.132
 1340SOL    HW1 4919   6.171   1.655   2.086
 1340SOL    HW2 4920   6.271   1.728   2.192
 1341SOL     OW 4921   5.151   6.776   6.456
 1341SOL    HW1 4922   5.073   6.756   6.515
 1341SOL    HW2 4923   5.125   6.762   6.361
 1342SOL     OW 4924   2.912   5.779   5.842
 1342SOL    HW1 4925   2.862   5.767   5.928
 1342SOL    HW2 4926   2.872   5.856   5.791
 1343SOL     OW 4927   5.307   5.562   2.626
 1343SOL    HW1 4928   5.253   5.647   2.628
 1343SOL    HW2 4929   5.338   5.545   2.533
 1344SOL     OW 4930   6.605   5.752   4.490
 1344SOL    HW1 4931   6.670   5.786   4.422
 1344SOL    HW2 4932   6.596   5.652   4.481
 1345SOL     OW 4933   1.433   6.813   2.794
 1345SOL    HW1 4934   1.482   6.740   2.747
 1345SOL    HW2 4935   1.433   6.796   2.893
 1346SOL     OW 4936   1.049   5.474   4.714
 1346SOL    HW1 4937   0.991   5.424   4.777
 1346SOL    HW2 4938   1.048   5.429   4.625
 1347SOL     OW 4939   7.022   6.410   5.337
 1347SOL    HW1 4940   6.991   6.338   5.276
 1347SOL    HW2 4941   0.061   6.471   5.289
 1348SOL     OW 4942   5.395   5.785   3.260
 1348SOL    HW1 4943   5.427   5.873   3.297
 1348SOL    HW2 4944   5.471   5.720   3.259
 1349SOL     OW 4945   4.481   2.532   5.622
 1349SOL    HW1 4946   4.482   2.617   5.568
 1349SOL    HW2 4947   4.575   2.500   5.633
 1350SOL     OW 4948   5.448   5.227   5.230
 1350SOL    HW1 4949   5.402   5.155   5.282
 1350SOL    HW2 4950   5.436   5.315   5.276
 1351SOL     OW 4951   5.780   1.930   3.234
 1351SOL    HW1 4952   5.783   1.908   3.331
 1351SOL    HW2 4953   5.850   1.877   3.185
 1352SOL     OW 4954   6.955   6.200   2.464
 1352SOL    HW1 4955   6.933   6.281   2.410
 1352SOL    HW2 4956   6.944   6.118   2.407
 1353SOL     OW 4957   0.415   2.345   0.491
 1353SOL    HW1 4958   0.349   2.292   0.545
 1353SOL    HW2 4959   0.374   2.367   0.402
 1354SOL     OW 4960   0.800   4.276   1.831
 1354SOL    HW1 4961   0.735   4.236   1.767
 1354SOL    HW2 4962   0.893   4.253   1.803
 1355SOL     OW 4963   6.370   2.480   4.551
 1355SOL    HW1 4964   6.312   2.435   4.483
 1355SOL    HW2 4965   6.462   2.492   4.514
 1356SOL     OW 4966   3.256   3.196   2.563
 1356SOL    HW1 4967   3.257   3.136   2.483
 1356SOL    HW2 4968   3.218   3.147   2.641
 1357SOL     OW 4969   0.660   3.383   6.097
 1357SOL    HW1 4970   0.637   3.385   6.000
 1357SOL    HW2 4971   0.740   3.441   6.114
 1358SOL     OW 4972   4.595   6.973   5.789
 1358SOL    HW1 4973   4.502   6.942   5.767
 1358SOL    HW2 4974   4.656   6.894   5.793
 1359SOL     OW 4975   5.968   5.169   2.169
 1359SOL    HW1 4976   5.969   5.071   2.190
 1359SOL    HW2 4977   5.874   5.197   2.148
 1360SOL     OW 4978   3.240   2.939   7.011
 1360SOL    HW1 4979   3.289   3.000   0.050
 1360SOL    HW2 4980   3.163   2.897   0.036
 1361SOL     OW 4981   0.087   5.608   5.268
 1361SOL    HW1 4982   0.174   5.598   5.220
 1361SOL    HW2 4983   0.059   5.520   5.305
 1362SOL     OW 4984   3.299   4.052   3.744
 1362SOL    HW1 4985   3.342   3.963   3.754
 1362SOL    HW2 4986   3.234   4.050   3.668
 1363SOL     OW 4987   0.265   5.761   2.699
 1363SOL    HW1 4988   0.361   5.754   2.726
 1363SOL    HW2 4989   0.230   5.669   2.678
 1364SOL     OW 4990   6.438   3.104   1.068
 1364SOL    HW1 4991   6.538   3.098   1.072
 1364SOL    HW2 4992   6.411   3.200   1.058
 1365SOL     OW 4993   0.366   3.252   6.711
 1365SOL    HW1 4994   0.322   3.246   6.800
 1365SOL    HW2 4995   0.313   3.201   6.643
 1366SOL     OW 4996   0.787   4.745   0.351
 1366SOL    HW1 4997   0.719   4.809   0.314
 1366SOL    HW2 4998   0.879   4.782   0.335
 1367SOL     OW 4999   2.117   6.948   3.220
 1367SOL    HW1 5000   2.187   7.015   3.194
 1367SOL    HW2 5001   2.041   6.953   3.155
 1368SOL     OW 5002   6.059   0.480   3.596
 1368SOL    HW1 5003   6.130   0.530   3.646
 1368SOL    HW2 5004   5.975   0.534   3.597
 1369SOL     OW 5005   2.820   6.756   1.446
 1369SOL    HW1 5006   2.770   6.672   1.425
 1369SOL    HW2 5007   2.917   6.742   1.430
 1370SOL     OW 5008   4.199   1.295   0.871
 1370SOL    HW1 5009   4.254   1.378   0.866
 1370SOL    HW2 5010   4.103   1.318   0.855
 1371SOL     OW 5011   6.234   1.877   4.769
 1371SOL    HW1 5012   6.257   1.910   4.677
 1371SOL    HW2 5013   6.311   1.825   4.806
 1372SOL     OW 5014   1.226   2.761   0.376
 1372SOL    HW1 5015   1.143   2.725   0.417
 1372SOL    HW2 5016   1.202   2.824   0.302
 1373SOL     OW 5017   5.168   2.885   0.342
 1373SOL    HW1 5018   5.145   2.821   0.269
 1373SOL    HW2 5019   5.179   2.977   0.304
 1374SOL     OW 5020   5.166   1.840   0.044
 1374SOL    HW1 5021   5.095   1.799   0.101
 1374SOL    HW2 5022   5.123   1.889   6.991
 1375SOL     OW 5023   0.487   3.936   6.455
 1375SOL    HW1 5024   0.442   3.849   6.476
 1375SOL    HW2 5025   0.488   3.951   6.357
 1376SOL     OW 5026   4.381   4.668   4.648
 1376SOL    HW1 5027   4.370   4.601   4.721
 1376SOL    HW2 5028   4.339   4.633   4.564
 1377SOL     OW 5029   6.994   3.993   5.575
 1377SOL    HW1 5030   7.018   3.983   5.671
 1377SOL    HW2 5031   6.940   4.076   5.563
 1378SOL     OW 5032   5.781   1.108   4.853
 1378SOL    HW1 5033   5.872   1.128   4.815
 1378SOL    HW2 5034   5.776   1.144   4.946
 1379SOL     OW 5035   3.381   6.845   2.442
 1379SOL    HW1 5036   3.409   6.940   2.450
 1379SOL    HW2 5037   3.445   6.787   2.494
 1380SOL     OW 5038   0.224   6.913   2.526
 1380SOL    HW1 5039   0.176   6.909   2.438
 1380SOL    HW2 5040   0.162   6.951   2.595
 1381SOL     OW 5041   6.359   2.684   0.349
 1381SOL    HW1 5042   6.288   2.753   0.353
 1381SOL    HW2 5043   6.322   2.600   0.310
 1382SOL     OW 5044   4.671   4.360   0.555
 1382SOL    HW1 5045   4.630   4.292   0.615
 1382SOL    HW2 5046   4.607   4.385   0.483
 1383SOL     OW 5047   1.192   0.403   1.496
 1383SOL    HW1 5048   1.222   0.357   1.413
 1383SOL    HW2 5049   1.095   0.425   1.489
 1384SOL     OW 5050   4.218   0.111   1.679
 1384SOL    HW1 5051   4.241   0.033   1.737
 1384SOL    HW2 5052   4.255   0.195   1.720
 1385SOL     OW 5053   1.001   3.601   3.952
 1385SOL    HW1 5054   1.011   3.639   3.861
 1385SOL    HW2 5055   0.920   3.541   3.955
 1386SOL     OW 5056   2.961   0.916   4.982
 1386SOL    HW1 5057   2.911   0.989   4.936
 1386SOL    HW2 5058   3.058   0.921   4.956
 1387SOL     OW 5059   4.010   5.782   2.421
 1387SOL    HW1 5060   3.960   5.851   2.369
 1387SOL    HW2 5061   3.944   5.719   2.463
 1388SOL     OW 5062   0.296   6.639   3.306
 1388SOL    HW1 5063   0.290   6.702   3.384
 1388SOL    HW2 5064   0.379   6.584   3.314
 1389SOL     OW 5065   0.382   1.034   3.570
 1389SOL    HW1 5066   0.334   1.049   3.656
 1389SOL    HW2 5067   0.371   1.115   3.511
 1390SOL     OW 5068   5.528   2.530   5.884
 1390SOL    HW1 5069   5.561   2.589   5.958
 1390SOL    HW2 5070   5.448   2.479   5.916
 1391SOL     OW 5071   6.315   0.662   5.165
 1391SOL    HW1 5072   6.391   0.598   5.153
 1391SOL    HW2 5073   6.245   0.644   5.096
 1392SOL     OW 5074   5.186   6.154   6.982
 1392SOL    HW1 5075   5.254   6.186   0.024
 1392SOL    HW2 5076   5.142   6.233   6.939
 1393SOL     OW 5077   5.803   3.558   5.740
 1393SOL    HW1 5078   5.845   3.588   5.826
 1393SOL    HW2 5079   5.848   3.604   5.663
 1394SOL     OW 5080   3.877   6.366   3.993
 1394SOL    HW1 5081   3.889   6.329   4.085
 1394SOL    HW2 5082   3.779   6.372   3.972
 1395SOL     OW 5083   1.274   4.521   4.056
 1395SOL    HW1 5084   1.372   4.518   4.073
 1395SOL    HW2 5085   1.252   4.604   4.005
 1396SOL     OW 5086   1.549   0.452   3.666
 1396SOL    HW1 5087   1.631   0.415   3.623
 1396SOL    HW2 5088   1.472   0.446   3.602
 1397SOL     OW 5089   0.610   5.869   4.268
 1397SOL    HW1 5090   0.580   5.956   4.230
 1397SOL    HW2 5091   0.550   5.843   4.344
 1398SOL     OW 5092   1.426   1.878   6.403
 1398SOL    HW1 5093   1.449   1.786   6.369
 1398SOL    HW2 5094   1.491   1.905   6.474
 1399SOL     OW 5095   3.954   0.429   6.981
 1399SOL    HW1 5096   4.017   0.487   6.929
 1399SOL    HW2 5097   4.002   0.392   0.037
 1400SOL     OW 5098   6.957   2.028   4.533
 1400SOL    HW1 5099   6.919   1.978   4.611
 1400SOL    HW2 5100   7.006   2.109   4.565
 1401SOL     OW 5101   6.013   6.546   4.319
 1401SOL    HW1 5102   5.980   6.616   4.383
 1401SOL    HW2 5103   5.962   6.554   4.233
 1402SOL     OW 5104   5.907   4.556   6.898
 1402SOL    HW1 5105   5.843   4.527   6.827
 1402SOL    HW2 5106   5.987   4.597   6.855
 1403SOL     OW 5107   1.406   2.178   1.560
 1403SOL    HW1 5108   1.449   2.261   1.595
 1403SOL    HW2 5109   1.405   2.180   1.460
 1404SOL     OW 5110   5.863   6.907   0.061
 1404SOL    HW1 5111   5.888   6.836   0.127
 1404SOL    HW2 5112   5.837   6.990   0.110
 1405SOL     OW 5113   2.604   3.418   0.557
 1405SOL    HW1 5114   2.600   3.390   0.461
 1405SOL    HW2 5115   2.583   3.516   0.564
 1406SOL     OW 5116   2.616   4.791   1.159
 1406SOL    HW1 5117   2.706   4.763   1.126
 1406SOL    HW2 5118   2.621   4.885   1.193
 1407SOL     OW 5119   1.662   4.177   3.483
 1407SOL    HW1 5120   1.640   4.080   3.475
 1407SOL    HW2 5121   1.579   4.229   3.500
 1408SOL     OW 5122   5.132   6.428   6.874
 1408SOL    HW1 5123   5.140   6.412   6.973
 1408SOL    HW2 5124   5.223   6.444   6.836
 1409SOL     OW 5125   6.799   0.634   5.077
 1409SOL    HW1 5126   6.712   0.586   5.089
 1409SOL    HW2 5127   6.795   0.691   4.995
 1410SOL     OW 5128   3.009   3.898   0.185
 1410SOL    HW1 5129   2.974   3.870   0.274
 1410SOL    HW2 5130   2.935   3.893   0.118
 1411SOL     OW 5131   3.454   5.646   6.368
 1411SOL    HW1 5132   3.448   5.653   6.467
 1411SOL    HW2 5133   3.547   5.622   6.342
 1412SOL     OW 5134   0.672   4.121   1.605
 1412SOL    HW1 5135   0.594   4.063   1.628
 1412SOL    HW2 5136   0.641   4.197   1.547
 1413SOL     OW 5137   1.569   1.596   4.389
 1413SOL    HW1 5138   1.600   1.511   4.348
 1413SOL    HW2 5139   1.646   1.659   4.400
 1414SOL     OW 5140   1.730   2.158   1.984
 1414SOL    HW1 5141   1.672   2.224   1.936
 1414SOL    HW2 5142   1.717   2.169   2.083
 1415SOL     OW 5143   3.066   1.627   4.715
 1415SOL    HW1 5144   3.138   1.560   4.728
 1415SOL    HW2 5145   3.072   1.667   4.624
 1416SOL     OW 5146   3.518   0.518   4.372
 1416SOL    HW1 5147   3.539   0.608   4.412
 1416SOL    HW2 5148   3.474   0.532   4.283
 1417SOL     OW 5149   2.968   2.901   6.104
 1417SOL    HW1 5150   3.010   2.947   6.183
 1417SOL    HW2 5151   3.036   2.844   6.059
 1418SOL     OW 5152   2.750   3.598   0.105
 1418SOL    HW1 5153   2.791   3.680   0.064
 1418SOL    HW2 5154   2.655   3.588   0.075
 1419SOL     OW 5155   2.861   5.456   4.089
 1419SOL    HW1 5156   2.842   5.423   4.181
 1419SOL    HW2 5157   2.843   5.555   4.084
 1420SOL     OW 5158   3.780   5.669   2.875
 1420SOL    HW1 5159   3.685   5.647   2.856
 1420SOL    HW2 5160   3.826   5.696   2.790
 1421SOL     OW 5161   1.138   4.269   4.311
 1421SOL    HW1 5162   1.103   4.363   4.320
 1421SOL    HW2 5163   1.238   4.272   4.300
 1422SOL     OW 5164   3.431   4.452   6.033
 1422SOL    HW1 5165   3.453   4.399   5.951
 1422SOL    HW2 5166   3.465   4.545   6.023
 1423SOL     OW 5167   3.237   0.948   4.944
 1423SOL    HW1 5168   3.307   1.015   4.918
 1423SOL    HW2 5169   3.251   0.864   4.891
 1424SOL     OW 5170   6.588   3.552   6.708
 1424SOL    HW1 5171   6.611   3.628   6.647
 1424SOL    HW2 5172   6.606   3.465   6.661
 1425SOL     OW 5173   2.117   5.341   5.521
 1425SOL    HW1 5174   2.191   5.408   5.509
 1425SOL    HW2 5175   2.117   5.277   5.444
 1426SOL     OW 5176   2.140   1.957   5.954
 1426SOL    HW1 5177   2.179   1.970   6.045
 1426SOL    HW2 5178   2.048   1.998   5.951
 1427SOL     OW 5179   0.183   0.095   3.995
 1427SOL    HW1 5180   0.173   0.170   4.061
 1427SOL    HW2 5181   0.099   0.041   3.994
 1428SOL     OW 5182   0.065   2.029   2.150
 1428SOL    HW1 5183   7.023   2.096   2.183
 1428SOL    HW2 5184   0.137   2.015   2.217
 1429SOL     OW 5185   6.485   1.577   7.013
 1429SOL    HW1 5186   6.471   1.494   6.959
 1429SOL    HW2 5187   6.417   1.582   0.062
 1430SOL     OW 5188   1.906   4.586   3.909
 1430SOL    HW1 5189   1.852   4.657   3.955
 1430SOL    HW2 5190   2.002   4.613   3.909
 1431SOL     OW 5191   2.453   2.182   6.154
 1431SOL    HW1 5192   2.546   2.160   6.127
 1431SOL    HW2 5193   2.442   2.281   6.158
 1432SOL     OW 5194   2.281   1.128   1.459
 1432SOL    HW1 5195   2.241   1.198   1.400
 1432SOL    HW2 5196   2.301   1.167   1.549
 1433SOL     OW 5197   4.352   0.238   4.551
 1433SOL    HW1 5198   4.265   0.189   4.554
 1433SOL    HW2 5199   4.418   0.185   4.497
 1434SOL     OW 5200   6.780   0.786   6.021
 1434SOL    HW1 5201   6.724   0.832   6.090
 1434SOL    HW2 5202   6.867   0.834   6.010
 1435SOL     OW 5203   6.990   0.309   3.316
 1435SOL    HW1 5204   6.934   0.228   3.299
 1435SOL    HW2 5205   6.935   0.378   3.364
 1436SOL     OW 5206   6.270   3.906   0.219
 1436SOL    HW1 5207   6.331   3.913   0.141
 1436SOL    HW2 5208   6.194   3.845   0.197
 1437SOL     OW 5209   3.431   0.478   5.702
 1437SOL    HW1 5210   3.444   0.487   5.603
 1437SOL    HW2 5211   3.421   0.569   5.742
 1438SOL     OW 5212   2.514   0.329   1.661
 1438SOL    HW1 5213   2.492   0.415   1.705
 1438SOL    HW2 5214   2.612   0.326   1.640
 1439SOL     OW 5215   0.421   5.038   0.902
 1439SOL    HW1 5216   0.502   5.084   0.940
 1439SOL    HW2 5217   0.346   5.045   0.967
 1440SOL     OW 5218   3.509   3.345   5.188
 1440SOL    HW1 5219   3.582   3.410   5.164
 1440SOL    HW2 5220   3.476   3.365   5.281
 1441SOL     OW 5221   6.218   3.523   4.584
 1441SOL    HW1 5222   6.130   3.570   4.576
 1441SOL    HW2 5223   6.239   3.476   4.499
 1442SOL     OW 5224   0.111   4.895   0.161
 1442SOL    HW1 5225   0.131   4.813   0.214
 1442SOL    HW2 5226   0.179   4.906   0.088
 1443SOL     OW 5227   0.891   2.506   4.862
 1443SOL    HW1 5228   0.900   2.407   4.866
 1443SOL    HW2 5229   0.880   2.542   4.955
 1444SOL     OW 5230   4.530   5.962   1.392
 1444SOL    HW1 5231   4.434   5.984   1.413
 1444SOL    HW2 5232   4.556   5.879   1.442
 1445SOL     OW 5233   0.217   2.712   2.621
 1445SOL    HW1 5234   0.238   2.647   2.548
 1445SOL    HW2 5235   0.176   2.663   2.698
 1446SOL     OW 5236   5.162   2.193   6.703
 1446SOL    HW1 5237   5.112   2.172   6.619
 1446SOL    HW2 5238   5.168   2.292   6.714
 1447SOL     OW 5239   6.567   6.623   5.182
 1447SOL    HW1 5240   6.505   6.701   5.188
 1447SOL    HW2 5241   6.660   6.654   5.202
 1448SOL     OW 5242   6.851   2.266   0.226
 1448SOL    HW1 5243   6.906   2.340   0.187
 1448SOL    HW2 5244   6.871   2.181   0.178
 1449SOL     OW 5245   5.966   0.679   6.770
 1449SOL    HW1 5246   5.946   0.590   6.728
 1449SOL    HW2 5247   5.898   0.746   6.740
 1450SOL     OW 5248   0.539   2.241   2.668
 1450SOL    HW1 5249   0.596   2.254   2.750
 1450SOL    HW2 5250   0.523   2.329   2.625
 1451SOL     OW 5251   3.323   0.880   1.835
 1451SOL    HW1 5252   3.237   0.845   1.873
 1451SOL    HW2 5253   3.315   0.887   1.735
 1452SOL     OW 5254   4.144   1.382   4.400
 1452SOL    HW1 5255   4.047   1.379   4.378
 1452SOL    HW2 5256   4.162   1.457   4.464
 1453SOL     OW 5257   6.958   3.550   5.232
 1453SOL    HW1 5258   0.003   3.598   5.286
 1453SOL    HW2 5259   7.001   3.473   5.184
 1454SOL     OW 5260   6.353   2.445   2.801
 1454SOL    HW1 5261   6.260   2.434   2.767
 1454SOL    HW2 5262   6.399   2.520   2.752
 1455SOL     OW 5263   1.847   0.126   2.152
 1455SOL    HW1 5264   1.774   0.175   2.104
 1455SOL    HW2 5265   1.889   0.187   2.219
 1456SOL     OW 5266   6.433   0.096   5.376
 1456SOL    HW1 5267   6.384   0.166   5.324
 1456SOL    HW2 5268   6.491   0.140   5.445
 1457SOL     OW 5269   1.525   6.974   0.970
 1457SOL    HW1 5270   1.606   6.948   0.917
 1457SOL    HW2 5271   1.539   0.042   1.008
 1458SOL     OW 5272   5.264   6.286   3.877
 1458SOL    HW1 5273   5.166   6.307   3.875
 1458SOL    HW2 5274   5.296   6.264   3.784
 1459SOL     OW 5275   3.016   4.775   5.984
 1459SOL    HW1 5276   2.938   4.713   5.990
 1459SOL    HW2 5277   3.077   4.745   5.911
 1460SOL     OW 5278   0.425   5.327   5.886
 1460SOL    HW1 5279   0.507   5.380   5.905
 1460SOL    HW2 5280   0.373   5.372   5.813
 1461SOL     OW 5281   0.497   5.485   3.153
 1461SOL    HW1 5282   0.529   5.533   3.071
 1461SOL    HW2 5283   0.505   5.387   3.139
 1462SOL     OW 5284   0.693   1.005   6.105
 1462SOL    HW1 5285   0.716   1.099   6.132
 1462SOL    HW2 5286   0.684   1.000   6.006
 1463SOL     OW 5287   0.361   5.803   6.038
 1463SOL    HW1 5288   0.457   5.818   6.062
 1463SOL    HW2 5289   0.341   5.705   6.042
 1464SOL     OW 5290   6.494   0.049   0.837
 1464SOL    HW1 5291   6.496   0.149   0.833
 1464SOL    HW2 5292   6.578   0.013   0.795
 1465SOL     OW 5293   1.932   1.852   3.560
 1465SOL    HW1 5294   2.015   1.812   3.599
 1465SOL    HW2 5295   1.852   1.802   3.593
 1466SOL     OW 5296   1.563   0.675   2.931
 1466SOL    HW1 5297   1.464   0.686   2.939
 1466SOL    HW2 5298   1.590   0.681   2.835
 1467SOL     OW 5299   2.613   1.120   2.112
 1467SOL    HW1 5300   2.705   1.099   2.078
 1467SOL    HW2 5301   2.619   1.170   2.198
 1468SOL     OW 5302   5.216   5.480   3.245
 1468SOL    HW1 5303   5.193   5.425   3.165
 1468SOL    HW2 5304   5.189   5.575   3.230
 1469SOL     OW 5305   0.899   0.771   2.359
 1469SOL    HW1 5306   0.875   0.860   2.398
 1469SOL    HW2 5307   0.998   0.765   2.347
 1470SOL     OW 5308   1.932   0.848   3.145
 1470SOL    HW1 5309   1.840   0.886   3.160
 1470SOL    HW2 5310   1.923   0.752   3.119
 1471SOL     OW 5311   0.770   0.322   0.763
 1471SOL    HW1 5312   0.771   0.355   0.669
 1471SOL    HW2 5313   0.693   0.260   0.776
 1472SOL     OW 5314   4.473   5.845   5.006
 1472SOL    HW1 5315   4.419   5.838   4.922
 1472SOL    HW2 5316   4.428   5.905   5.071
 1473SOL     OW 5317   5.985   5.622   3.891
 1473SOL    HW1 5318   5.975   5.564   3.810
 1473SOL    HW2 5319   6.027   5.570   3.965
 1474SOL     OW 5320   6.128   6.033   3.430
 1474SOL    HW1 5321   6.150   6.088   3.510
 1474SOL    HW2 5322   6.134   6.090   3.348
 1475SOL     OW 5323   6.784   0.541   1.424
 1475SOL    HW1 5324   6.813   0.446   1.434
 1475SOL    HW2 5325   6.852   0.592   1.373
 1476SOL     OW 5326   1.749   1.660   1.757
 1476SOL    HW1 5327   1.799   1.671   1.844
 1476SOL    HW2 5328   1.751   1.747   1.708
 1477SOL     OW 5329   2.500   0.345   6.948
 1477SOL    HW1 5330   2.512   0.417   6.880
 1477SOL    HW2 5331   2.588   0.325   6.991
 1478SOL     OW 5332   5.302   4.380   0.310
 1478SOL    HW1 5333   5.223   4.319   0.311
 1478SOL    HW2 5334   5.288   4.454   0.376
 1479SOL     OW 5335   1.618   3.413   6.926
 1479SOL    HW1 5336   1.599   3.470   6.846
 1479SOL    HW2 5337   1.604   3.467   7.009
 1480SOL     OW 5338   2.754   0.160   6.177
 1480SOL    HW1 5339   2.665   0.163   6.222
 1480SOL    HW2 5340   2.786   0.254   6.159
 1481SOL     OW 5341   0.196   1.863   5.409
 1481SOL    HW1 5342   0.286   1.847   5.450
 1481SOL    HW2 5343   0.198   1.835   5.313
 1482SOL     OW 5344   5.290   2.439   1.073
 1482SOL    HW1 5345   5.258   2.533   1.060
 1482SOL    HW2 5346   5.217   2.384   1.114
 1483SOL     OW 5347   6.329   2.353   6.303
 1483SOL    HW1 5348   6.268   2.426   6.272
 1483SOL    HW2 5349   6.344   2.361   6.401
 1484SOL     OW 5350   6.298   4.514   4.434
 1484SOL    HW1 5351   6.301   4.415   4.439
 1484SOL    HW2 5352   6.253   4.542   4.349
 1485SOL     OW 5353   4.203   2.031   2.421
 1485SOL    HW1 5354   4.157   1.945   2.440
 1485SOL    HW2 5355   4.301   2.021   2.440
 1486SOL     OW 5356   5.339   2.149   2.544
 1486SOL    HW1 5357   5.377   2.219   2.483
 1486SOL    HW2 5358   5.248   2.122   2.512
 1487SOL     OW 5359   6.894   2.243   6.924
 1487SOL    HW1 5360   6.912   2.146   6.905
 1487SOL    HW2 5361   6.798   2.263   6.902
 1488SOL     OW 5362   5.532   2.300   3.162
 1488SOL    HW1 5363   5.471   2.356   3.218
 1488SOL    HW2 5364   5.530   2.334   3.068
 1489SOL     OW 5365   3.947   5.104   4.131
 1489SOL    HW1 5366   3.888   5.033   4.092
 1489SOL    HW2 5367   4.007   5.140   4.059
 1490SOL     OW 5368   1.466   3.118   1.570
 1490SOL    HW1 5369   1.426   3.041   1.620
 1490SOL    HW2 5370   1.460   3.200   1.626
 1491SOL     OW 5371   5.860   3.507   4.078
 1491SOL    HW1 5372   5.858   3.604   4.055
 1491SOL    HW2 5373   5.804   3.490   4.159
 1492SOL     OW 5374   5.606   2.128   2.623
 1492SOL    HW1 5375   5.512   2.140   2.591
 1492SOL    HW2 5376   5.614   2.041   2.672
 1493SOL     OW 5377   4.914   6.930   3.878
 1493SOL    HW1 5378   4.862   7.011   3.907
 1493SOL    HW2 5379   5.004   6.959   3.845
 1494SOL     OW 5380   5.339   2.060   5.875
 1494SOL    HW1 5381   5.397   2.129   5.831
 1494SOL    HW2 5382   5.395   2.002   5.934
 1495SOL     OW 5383   6.640   2.710   4.296
 1495SOL    HW1 5384   6.635   2.620   4.340
 1495SOL    HW2 5385   6.736   2.735   4.284
 1496SOL     OW 5386   1.193   1.408   2.409
 1496SOL    HW1 5387   1.217   1.408   2.507
 1496SOL    HW2 5388   1.099   1.438   2.398
 1497SOL     OW 5389   0.125   3.171   3.316
 1497SOL    HW1 5390   0.156   3.077   3.332
 1497SOL    HW2 5391   0.169   3.232   3.383
 1498SOL     OW 5392   2.054   4.315   6.543
 1498SOL    HW1 5393   1.984   4.375   6.582
 1498SOL    HW2 5394   2.124   4.370   6.498
 1499SOL     OW 5395   1.091   3.987   5.789
 1499SOL    HW1 5396   1.093   3.888   5.774
 1499SOL    HW2 5397   1.087   4.006   5.888
 1500SOL     OW 5398   6.362   6.742   0.033
 1500SOL    HW1 5399   6.425   6.725   6.981
 1500SOL    HW2 5400   6.268   6.736   0.000
 1501SOL     OW 5401   5.218   1.308   6.420
 1501SOL    HW1 5402   5.296   1.315   6.358
 1501SOL    HW2 5403   5.143   1.366   6.387
 1502SOL     OW 5404   5.768   6.698   1.622
 1502SOL    HW1 5405   5.775   6.654   1.532
 1502SOL    HW2 5406   5.673   6.725   1.639
 1503SOL     OW 5407   2.746   1.310   2.268
 1503SOL    HW1 5408   2.732   1.406   2.293
 1503SOL    HW2 5409   2.842   1.295   2.247
 1504SOL     OW 5410   0.834   1.429   4.667
 1504SOL    HW1 5411   0.786   1.350   4.705
 1504SOL    HW2 5412   0.920   1.442   4.717
 1505SOL     OW 5413   5.702   0.655   6.410
 1505SOL    HW1 5414   5.623   0.643   6.349
 1505SOL    HW2 5415   5.770   0.584   6.389
 1506SOL     OW 5416   1.547   4.991   1.741
 1506SOL    HW1 5417   1.601   4.907   1.733
 1506SOL    HW2 5418   1.572   5.040   1.824
 1507SOL     OW 5419   0.712   2.278   5.598
 1507SOL    HW1 5420   0.673   2.235   5.517
 1507SOL    HW2 5421   0.639   2.306   5.660
 1508SOL     OW 5422   6.643   0.579   1.950
 1508SOL    HW1 5423   6.616   0.666   1.909
 1508SOL    HW2 5424   6.561   0.527   1.975
 1509SOL     OW 5425   4.638   2.404   6.287
 1509SOL    HW1 5426   4.597   2.495   6.290
 1509SOL    HW2 5427   4.705   2.396   6.361
 1510SOL     OW 5428   6.156   2.351   4.403
 1510SOL    HW1 5429   6.076   2.383   4.453
 1510SOL    HW2 5430   6.143   2.255   4.377
 1511SOL     OW 5431   3.296   2.508   1.441
 1511SOL    HW1 5432   3.260   2.494   1.533
 1511SOL    HW2 5433   3.242   2.578   1.394
 1512SOL     OW 5434   0.189   6.571   1.774
 1512SOL    HW1 5435   0.162   6.482   1.738
 1512SOL    HW2 5436   0.112   6.634   1.769
 1513SOL     OW 5437   4.160   0.447   4.012
 1513SOL    HW1 5438   4.237   0.409   4.063
 1513SOL    HW2 5439   4.074   0.415   4.053
 1514SOL     OW 5440   4.796   2.691   5.748
 1514SOL    HW1 5441   4.791   2.604   5.698
 1514SOL    HW2 5442   4.784   2.674   5.846
 1515SOL     OW 5443   6.482   3.356   5.298
 1515SOL    HW1 5444   6.453   3.399   5.213
 1515SOL    HW2 5445   6.577   3.328   5.290
 1516SOL     OW 5446   0.425   0.381   1.271
 1516SOL    HW1 5447   0.349   0.377   1.206
 1516SOL    HW2 5448   0.440   0.476   1.299
 1517SOL     OW 5449   3.690   6.054   3.427
 1517SOL    HW1 5450   3.788   6.047   3.407
 1517SOL    HW2 5451   3.653   6.138   3.387
 1518SOL     OW 5452   0.778   2.814   0.329
 1518SOL    HW1 5453   0.853   2.827   0.394
 1518SOL    HW2 5454   0.772   2.718   0.302
 1519SOL     OW 5455   0.003   4.700   2.075
 1519SOL    HW1 5456   0.035   4.769   2.139
 1519SOL    HW2 5457   0.008   4.735   1.982
 1520SOL     OW 5458   0.877   3.480   2.911
 1520SOL    HW1 5459   0.954   3.467   2.974
 1520SOL    HW2 5460   0.876   3.575   2.879
 1521SOL     OW 5461   2.842   3.838   6.978
 1521SOL    HW1 5462   2.756   3.857   6.930
 1521SOL    HW2 5463   2.918   3.875   6.925
 1522SOL     OW 5464   6.429   0.563   4.796
 1522SOL    HW1 5465   6.367   0.530   4.867
 1522SOL    HW2 5466   6.503   0.497   4.783
 1523SOL     OW 5467   5.128   3.900   0.420
 1523SOL    HW1 5468   5.203   3.849   0.463
 1523SOL    HW2 5469   5.140   3.900   0.321
 1524SOL     OW 5470   1.246   1.892   2.288
 1524SOL    HW1 5471   1.342   1.919   2.273
 1524SOL    HW2 5472   1.244   1.801   2.329
 1525SOL     OW 5473   6.403   2.405   6.934
 1525SOL    HW1 5474   6.393   2.384   0.008
 1525SOL    HW2 5475   6.431   2.500   6.922
 1526SOL     OW 5476   1.433   0.412   6.420
 1526SOL    HW1 5477   1.459   0.455   6.334
 1526SOL    HW2 5478   1.337   0.431   6.441
 1527SOL     OW 5479   3.777   0.975   5.858
 1527SOL    HW1 5480   3.816   0.932   5.940
 1527SOL    HW2 5481   3.848   1.027   5.811
 1528SOL     OW 5482   5.180   5.779   1.676
 1528SOL    HW1 5483   5.179   5.735   1.587
 1528SOL    HW2 5484   5.182   5.879   1.665
 1529SOL     OW 5485   3.321   0.761   6.964
 1529SOL    HW1 5486   3.417   0.756   6.991
 1529SOL    HW2 5487   3.266   0.789   0.019
 1530SOL     OW 5488   2.856   1.009   2.075
 1530SOL    HW1 5489   2.913   1.068   2.132
 1530SOL    HW2 5490   2.847   0.920   2.119
 1531SOL     OW 5491   5.833   0.851   4.597
 1531SOL    HW1 5492   5.799   0.945   4.589
 1531SOL    HW2 5493   5.923   0.852   4.640
 1532SOL     OW 5494   2.802   3.367   5.903
 1532SOL    HW1 5495   2.841   3.276   5.893
 1532SOL    HW2 5496   2.865   3.435   5.866
 1533SOL     OW 5497   0.461   2.836   6.999
 1533SOL    HW1 5498   0.546   2.822   6.947
 1533SOL    HW2 5499   0.467   2.922   0.026
 1534SOL     OW 5500   1.149   4.959   6.718
 1534SOL    HW1 5501   1.113   4.938   6.809
 1534SOL    HW2 5502   1.242   4.995   6.727
 1535SOL     OW 5503   4.783   5.972   4.351
 1535SOL    HW1 5504   4.683   5.970   4.359
 1535SOL    HW2 5505   4.818   5.879   4.351
 1536SOL     OW 5506   3.978   4.544   5.421
 1536SOL    HW1 5507   4.048   4.557   5.491
 1536SOL    HW2 5508   3.975   4.625   5.362
 1537SOL     OW 5509   3.633   6.135   3.043
 1537SOL    HW1 5510   3.576   6.160   2.964
 1537SOL    HW2 5511   3.707   6.076   3.013
 1538SOL     OW 5512   3.693   5.559   6.256
 1538SOL    HW1 5513   3.768   5.511   6.303
 1538SOL    HW2 5514   3.730   5.639   6.209
 1539SOL     OW 5515   4.294   4.270   1.583
 1539SOL    HW1 5516   4.314   4.204   1.654
 1539SOL    HW2 5517   4.341   4.356   1.602
 1540SOL     OW 5518   1.260   0.250   5.111
 1540SOL    HW1 5519   1.163   0.274   5.107
 1540SOL    HW2 5520   1.270   0.151   5.105
 1541SOL     OW 5521   3.423   2.829   1.843
 1541SOL    HW1 5522   3.408   2.911   1.787
 1541SOL    HW2 5523   3.521   2.808   1.847
 1542SOL     OW 5524   0.243   5.992   1.010
 1542SOL    HW1 5525   0.180   5.972   1.085
 1542SOL    HW2 5526   0.205   6.064   0.952
 1543SOL     OW 5527   2.926   3.544   4.184
 1543SOL    HW1 5528   2.987   3.489   4.128
 1543SOL    HW2 5529   2.964   3.636   4.195
 1544SOL     OW 5530   3.186   3.790   2.015
 1544SOL    HW1 5531   3.116   3.750   2.075
 1544SOL    HW2 5532   3.203   3.729   1.938
 1545SOL     OW 5533   5.358   0.839   4.728
 1545SOL    HW1 5534   5.345   0.798   4.638
 1545SOL    HW2 5535   5.392   0.933   4.718
 1546SOL     OW 5536   5.405   0.455   6.027
 1546SOL    HW1 5537   5.429   0.509   6.108
 1546SOL    HW2 5538   5.448   0.496   5.946
 1547SOL     OW 5539   2.533   4.688   2.542
 1547SOL    HW1 5540   2.600   4.753   2.505
 1547SOL    HW2 5541   2.556   4.668   2.637
 1548SOL     OW 5542   4.874   3.618   5.882
 1548SOL    HW1 5543   4.802   3.557   5.917
 1548SOL    HW2 5544   4.857   3.711   5.915
 1549SOL     OW 5545   4.966   1.823   2.603
 1549SOL    HW1 5546   4.896   1.859   2.541
 1549SOL    HW2 5547   5.056   1.830   2.559
 1550SOL     OW 5548   3.220   5.690   6.026
 1550SOL    HW1 5549   3.225   5.616   5.959
 1550SOL    HW2 5550   3.149   5.669   6.094
 1551SOL     OW 5551   2.439   3.470   0.133
 1551SOL    HW1 5552   2.450   3.451   0.035
 1551SOL    HW2 5553   2.485   3.399   0.186
 1552SOL     OW 5554   0.471   0.415   1.718
 1552SOL    HW1 5555   0.511   0.351   1.652
 1552SOL    HW2 5556   0.460   0.505   1.675
 1553SOL     OW 5557   6.095   1.142   5.472
 1553SOL    HW1 5558   6.004   1.101   5.470
 1553SOL    HW2 5559   6.116   1.172   5.565
 1554SOL     OW 5560   3.640   2.094   3.180
 1554SOL    HW1 5561   3.554   2.085   3.231
 1554SOL    HW2 5562   3.715   2.108   3.245
 1555SOL     OW 5563   4.944   1.877   5.760
 1555SOL    HW1 5564   4.958   1.785   5.798
 1555SOL    HW2 5565   5.033   1.919   5.743
 1556SOL     OW 5566   3.856   1.045   0.399
 1556SOL    HW1 5567   3.949   1.077   0.416
 1556SOL    HW2 5568   3.836   0.967   0.458
 1557SOL     OW 5569   2.265   1.464   6.953
 1557SOL    HW1 5570   2.171   1.475   6.920
 1557SOL    HW2 5571   2.280   1.527   0.007
 1558SOL     OW 5572   5.730   1.611   4.076
 1558SOL    HW1 5573   5.661   1.658   4.021
 1558SOL    HW2 5574   5.685   1.548   4.139
 1559SOL     OW 5575   0.201   2.525   0.609
 1559SOL    HW1 5576   0.242   2.611   0.639
 1559SOL    HW2 5577   0.182   2.529   0.511
 1560SOL     OW 5578   2.565   1.181   6.600
 1560SOL    HW1 5579   2.570   1.214   6.506
 1560SOL    HW2 5580   2.498   1.235   6.651
 1561SOL     OW 5581   5.749   6.282   3.084
 1561SOL    HW1 5582   5.770   6.188   3.058
 1561SOL    HW2 5583   5.725   6.334   3.002
 1562SOL     OW 5584   3.704   6.214   1.053
 1562SOL    HW1 5585   3.616   6.203   1.099
 1562SOL    HW2 5586   3.775   6.232   1.121
 1563SOL     OW 5587   2.142   1.680   5.929
 1563SOL    HW1 5588   2.175   1.768   5.963
 1563SOL    HW2 5589   2.219   1.623   5.903
 1564SOL     OW 5590   1.636   2.328   2.833
 1564SOL    HW1 5591   1.562   2.394   2.820
 1564SOL    HW2 5592   1.647   2.273   2.750
 1565SOL     OW 5593   3.771   5.459   4.292
 1565SOL    HW1 5594   3.789   5.361   4.299
 1565SOL    HW2 5595   3.847   5.503   4.245
 1566SOL     OW 5596   6.633   5.504   4.737
 1566SOL    HW1 5597   6.722   5.544   4.716
 1566SOL    HW2 5598   6.593   5.465   4.654
 1567SOL     OW 5599   5.949   6.144   0.141
 1567SOL    HW1 5600   6.017   6.201   0.094
 1567SOL    HW2 5601   5.918   6.192   0.223
 1568SOL     OW 5602   1.977   6.500   2.787
 1568SOL    HW1 5603   2.055   6.460   2.834
 1568SOL    HW2 5604   1.979   6.600   2.797
 1569SOL     OW 5605   3.618   6.816   3.453
 1569SOL    HW1 5606   3.651   6.736   3.503
 1569SOL    HW2 5607   3.539   6.855   3.501
 1570SOL     OW 5608   1.789   6.133   0.657
 1570SOL    HW1 5609   1.812   6.040   0.685
 1570SOL    HW2 5610   1.864   6.171   0.602
 1571SOL     OW 5611   6.423   1.670   2.886
 1571SOL    HW1 5612   6.335   1.633   2.856
 1571SOL    HW2 5613   6.419   1.770   2.885
 1572SOL     OW 5614   2.113   5.734   0.672
 1572SOL    HW1 5615   2.047   5.727   0.747
 1572SOL    HW2 5616   2.200   5.695   0.700
 1573SOL     OW 5617   6.461   4.812   1.739
 1573SOL    HW1 5618   6.531   4.740   1.736
 1573SOL    HW2 5619   6.415   4.810   1.828
 1574SOL     OW 5620   6.179   2.357   3.761
 1574SOL    HW1 5621   6.126   2.371   3.845
 1574SOL    HW2 5622   6.137   2.409   3.686
 1575SOL     OW 5623   2.390   1.970   1.712
 1575SOL    HW1 5624   2.317   1.969   1.780
 1575SOL    HW2 5625   2.467   2.024   1.746
 1576SOL     OW 5626   0.824   7.015   3.718
 1576SOL    HW1 5627   0.846   0.035   3.630
 1576SOL    HW2 5628   0.726   7.020   3.734
 1577SOL     OW 5629   2.929   0.391   5.995
 1577SOL    HW1 5630   2.853   0.412   5.932
 1577SOL    HW2 5631   3.016   0.408   5.949
 1578SOL     OW 5632   5.135   1.875   5.199
 1578SOL    HW1 5633   5.065   1.845   5.135
 1578SOL    HW2 5634   5.094   1.936   5.267
 1579SOL     OW 5635   0.188   1.780   2.278
 1579SOL    HW1 5636   0.156   1.714   2.210
 1579SOL    HW2 5637   0.134   1.771   2.361
 1580SOL     OW 5638   3.647   4.089   3.702
 1580SOL    HW1 5639   3.582   4.163   3.682
 1580SOL    HW2 5640   3.609   4.030   3.773
 1581SOL     OW 5641   6.312   4.908   5.121
 1581SOL    HW1 5642   6.300   4.858   5.035
 1581SOL    HW2 5643   6.377   4.983   5.107
 1582SOL     OW 5644   2.463   6.772   4.770
 1582SOL    HW1 5645   2.381   6.715   4.777
 1582SOL    HW2 5646   2.524   6.735   4.700
 1583SOL     OW 5647   0.642   5.831   3.565
 1583SOL    HW1 5648   0.560   5.801   3.613
 1583SOL    HW2 5649   0.721   5.778   3.596
 1584SOL     OW 5650   0.773   5.452   5.396
 1584SOL    HW1 5651   0.809   5.372   5.444
 1584SOL    HW2 5652   0.795   5.445   5.299
 1585SOL     OW 5653   4.706   2.341   3.293
 1585SOL    HW1 5654   4.726   2.404   3.218
 1585SOL    HW2 5655   4.659   2.261   3.257
 1586SOL     OW 5656   2.938   5.025   2.169
 1586SOL    HW1 5657   2.865   4.958   2.169
 1586SOL    HW2 5658   3.010   4.997   2.105
 1587SOL     OW 5659   2.568   5.568   5.819
 1587SOL    HW1 5660   2.488   5.622   5.845
 1587SOL    HW2 5661   2.589   5.584   5.723
 1588SOL     OW 5662   4.640   1.272   1.801
 1588SOL    HW1 5663   4.631   1.260   1.900
 1588SOL    HW2 5664   4.613   1.188   1.755
 1589SOL     OW 5665   7.011   3.420   2.393
 1589SOL    HW1 5666   0.042   3.398   2.475
 1589SOL    HW2 5667   6.916   3.391   2.407
 1590SOL     OW 5668   4.802   0.164   4.009
 1590SOL    HW1 5669   4.708   0.164   4.043
 1590SOL    HW2 5670   4.829   0.258   3.985
 1591SOL     OW 5671   0.009   5.422   0.922
 1591SOL    HW1 5672   7.009   5.516   0.945
 1591SOL    HW2 5673   0.056   5.420   0.833
 1592SOL     OW 5674   2.407   3.599   6.287
 1592SOL    HW1 5675   2.400   3.548   6.202
 1592SOL    HW2 5676   2.486   3.660   6.284
 1593SOL     OW 5677   1.140   6.993   4.700
 1593SOL    HW1 5678   1.149   6.943   4.614
 1593SOL    HW2 5679   1.224   0.021   4.717
 1594SOL     OW 5680   0.631   6.348   2.096
 1594SOL    HW1 5681   0.710   6.366   2.155
 1594SOL    HW2 5682   0.553   6.402   2.128
 1595SOL     OW 5683   0.801   5.096   0.662
 1595SOL    HW1 5684   0.762   5.168   0.719
 1595SOL    HW2 5685   0.783   5.116   0.566
 1596SOL     OW 5686   6.897   3.561   3.952
 1596SOL    HW1 5687   6.828   3.633   3.962
 1596SOL    HW2 5688   6.877   3.487   4.015
 1597SOL     OW 5689   1.434   5.646   1.370
 1597SOL    HW1 5690   1.410   5.740   1.394
 1597SOL    HW2 5691   1.376   5.615   1.295
 1598SOL     OW 5692   0.034   4.407   6.135
 1598SOL    HW1 5693   0.063   4.410   6.040
 1598SOL    HW2 5694   0.092   4.468   6.190
 1599SOL     OW 5695   5.758   5.407   4.781
 1599SOL    HW1 5696   5.678   5.355   4.752
 1599SOL    HW2 5697   5.791   5.371   4.868
 1600SOL     OW 5698   3.103   1.451   3.651
 1600SOL    HW1 5699   3.183   1.402   3.616
 1600SOL    HW2 5700   3.123   1.549   3.656
 1601SOL     OW 5701   6.239   6.413   4.177
 1601SOL    HW1 5702   6.204   6.365   4.096
 1601SOL    HW2 5703   6.165   6.466   4.218
 1602SOL     OW 5704   4.361   4.900   4.055
 1602SOL    HW1 5705   4.415   4.827   4.098
 1602SOL    HW2 5706   4.392   4.914   3.961
 1603SOL     OW 5707   1.973   5.831   3.321
 1603SOL    HW1 5708   1.885   5.825   3.367
 1603SOL    HW2 5709   2.044   5.793   3.380
 1604SOL     OW 5710   5.276   4.443   1.362
 1604SOL    HW1 5711   5.314   4.438   1.269
 1604SOL    HW2 5712   5.207   4.372   1.373
 1605SOL     OW 5713   6.147   5.456   1.991
 1605SOL    HW1 5714   6.167   5.553   1.976
 1605SOL    HW2 5715   6.152   5.436   2.089
 1606SOL     OW 5716   4.365   6.217   6.081
 1606SOL    HW1 5717   4.315   6.235   6.166
 1606SOL    HW2 5718   4.463   6.214   6.100
 1607SOL     OW 5719   3.783   6.838   0.457
 1607SOL    HW1 5720   3.866   6.887   0.486
 1607SOL    HW2 5721   3.741   6.795   0.537
 1608SOL     OW 5722   0.771   1.064   3.368
 1608SOL    HW1 5723   0.849   1.065   3.306
 1608SOL    HW2 5724   0.707   1.136   3.343
 1609SOL     OW 5725   4.311   0.002   0.338
 1609SOL    HW1 5726   4.285   0.012   0.434
 1609SOL    HW2 5727   4.324   6.928   0.318
 1610SOL     OW 5728   6.002   5.467   0.558
 1610SOL    HW1 5729   5.979   5.533   0.487
 1610SOL    HW2 5730   6.087   5.494   0.603
 1611SOL     OW 5731   2.466   3.065   0.193
 1611SOL    HW1 5732   2.489   2.981   0.242
 1611SOL    HW2 5733   2.400   3.044   0.121
 1612SOL     OW 5734   2.669   0.132   0.505
 1612SOL    HW1 5735   2.687   0.109   0.410
 1612SOL    HW2 5736   2.703   0.060   0.565
 1613SOL     OW 5737   1.443   5.189   2.217
 1613SOL    HW1 5738   1.495   5.248   2.279
 1613SOL    HW2 5739   1.373   5.243   2.171
 1614SOL     OW 5740   5.272   1.834   6.434
 1614SOL    HW1 5741   5.291   1.832   6.532
 1614SOL    HW2 5742   5.175   1.850   6.419
 1615SOL     OW 5743   6.494   5.631   0.427
 1615SOL    HW1 5744   6.428   5.676   0.486
 1615SOL    HW2 5745   6.490   5.532   0.441
 1616SOL     OW 5746   3.617   0.993   4.689
 1616SOL    HW1 5747   3.694   0.990   4.625
 1616SOL    HW2 5748   3.645   0.952   4.776
 1617SOL     OW 5749   5.651   6.320   3.321
 1617SOL    HW1 5750   5.679   6.308   3.226
 1617SOL    HW2 5751   5.593   6.401   3.328
 1618SOL     OW 5752   1.890   6.650   3.312
 1618SOL    HW1 5753   1.863   6.566   3.359
 1618SOL    HW2 5754   1.989   6.661   3.317
 1619SOL     OW 5755   0.516   4.319   1.462
 1619SOL    HW1 5756   0.451   4.316   1.538
 1619SOL    HW2 5757   0.486   4.256   1.391
 1620SOL     OW 5758   3.288   4.770   1.402
 1620SOL    HW1 5759   3.197   4.747   1.367
 1620SOL    HW2 5760   3.316   4.702   1.470
 1621SOL     OW 5761   6.252   0.950   0.499
 1621SOL    HW1 5762   6.264   0.937   0.597
 1621SOL    HW2 5763   6.287   1.040   0.472
 1622SOL     OW 5764   0.381   3.268   5.388
 1622SOL    HW1 5765   0.353   3.349   5.438
 1622SOL    HW2 5766   0.313   3.196   5.400
 1623SOL     OW 5767   1.218   2.999   5.188
 1623SOL    HW1 5768   1.238   2.909   5.151
 1623SOL    HW2 5769   1.301   3.039   5.226
 1624SOL     OW 5770   3.739   1.502   5.150
 1624SOL    HW1 5771   3.671   1.515   5.078
 1624SOL    HW2 5772   3.755   1.588   5.198
 1625SOL     OW 5773   1.409   4.988   0.363
 1625SOL    HW1 5774   1.488   5.027   0.410
 1625SOL    HW2 5775   1.428   4.981   0.265
 1626SOL     OW 5776   3.487   1.057   0.683
 1626SOL    HW1 5777   3.438   0.974   0.710
 1626SOL    HW2 5778   3.499   1.058   0.584
 1627SOL     OW 5779   5.918   3.247   4.122
 1627SOL    HW1 5780   5.918   3.208   4.214
 1627SOL    HW2 5781   5.917   3.347   4.128
 1628SOL     OW 5782   4.671   5.083   0.021
 1628SOL    HW1 5783   4.742   5.092   0.092
 1628SOL    HW2 5784   4.694   5.143   6.967
 1629SOL     OW 5785   2.998   1.306   3.870
 1629SOL    HW1 5786   3.041   1.354   3.947
 1629SOL    HW2 5787   3.018   1.355   3.785
 1630SOL     OW 5788   0.423   5.059   6.291
 1630SOL    HW1 5789   0.433   4.993   6.366
 1630SOL    HW2 5790   0.329   5.056   6.257
 1631SOL     OW 5791   1.113   2.465   0.868
 1631SOL    HW1 5792   1.083   2.435   0.777
 1631SOL    HW2 5793   1.148   2.387   0.920
 1632SOL     OW 5794   5.795   2.731   1.600
 1632SOL    HW1 5795   5.887   2.757   1.568
 1632SOL    HW2 5796   5.803   2.687   1.689
 1633SOL     OW 5797   4.853   4.036   4.532
 1633SOL    HW1 5798   4.808   3.960   4.484
 1633SOL    HW2 5799   4.949   4.013   4.547
 1634SOL     OW 5800   5.177   6.025   4.781
 1634SOL    HW1 5801   5.198   5.933   4.815
 1634SOL    HW2 5802   5.091   6.056   4.822
 1635SOL     OW 5803   0.600   5.169   6.840
 1635SOL    HW1 5804   0.684   5.223   6.835
 1635SOL    HW2 5805   0.538   5.210   6.907
 1636SOL     OW 5806   3.012   4.465   0.883
 1636SOL    HW1 5807   2.966   4.448   0.796
 1636SOL    HW2 5808   3.102   4.506   0.867
 1637SOL     OW 5809   6.747   0.217   3.686
 1637SOL    HW1 5810   6.666   0.223   3.744
 1637SOL    HW2 5811   6.719   0.214   3.590
 1638SOL     OW 5812   6.943   3.888   2.768
 1638SOL    HW1 5813   6.863   3.858   2.820
 1638SOL    HW2 5814   6.940   3.987   2.756
 1639SOL     OW 5815   5.542   5.471   1.186
 1639SOL    HW1 5816   5.624   5.520   1.155
 1639SOL    HW2 5817   5.461   5.527   1.167
 1640SOL     OW 5818   5.703   0.000   6.892
 1640SOL    HW1 5819   5.606   7.009   6.913
 1640SOL    HW2 5820   5.758   6.961   6.947
 1641SOL     OW 5821   4.895   2.217   2.690
 1641SOL    HW1 5822   4.990   2.194   2.712
 1641SOL    HW2 5823   4.833   2.155   2.739
 1642SOL     OW 5824   0.076   3.518   0.151
 1642SOL    HW1 5825   0.167   3.477   0.155
 1642SOL    HW2 5826   0.077   3.593   0.084
 1643SOL     OW 5827   2.887   4.843   4.521
 1643SOL    HW1 5828   2.976   4.884   4.541
 1643SOL    HW2 5829   2.860   4.784   4.597
 1644SOL     OW 5830   5.744   4.070   6.892
 1644SOL    HW1 5831   5.777   4.027   6.976
 1644SOL    HW2 5832   5.644   4.069   6.890
 1645SOL     OW 5833   3.038   5.593   6.228
 1645SOL    HW1 5834   2.985   5.642   6.297
 1645SOL    HW2 5835   2.981   5.525   6.183
 1646SOL     OW 5836   1.978   6.852   0.795
 1646SOL    HW1 5837   2.014   6.835   0.703
 1646SOL    HW2 5838   1.988   6.769   0.850
 1647SOL     OW 5839   5.853   3.184   4.751
 1647SOL    HW1 5840   5.855   3.284   4.759
 1647SOL    HW2 5841   5.837   3.159   4.656
 1648SOL     OW 5842   5.147   5.409   0.422
 1648SOL    HW1 5843   5.150   5.319   0.378
 1648SOL    HW2 5844   5.069   5.460   0.385
 1649SOL     OW 5845   3.823   1.381   4.354
 1649SOL    HW1 5846   3.781   1.351   4.269
 1649SOL    HW2 5847   3.827   1.481   4.356
 1650SOL     OW 5848   0.589   5.835   4.760
 1650SOL    HW1 5849   0.616   5.907   4.696
 1650SOL    HW2 5850   0.645   5.843   4.843
 1651SOL     OW 5851   0.291   2.252   1.841
 1651SOL    HW1 5852   0.355   2.277   1.914
 1651SOL    HW2 5853   0.336   2.190   1.777
 1652SOL     OW 5854   1.363   3.263   2.780
 1652SOL    HW1 5855   1.371   3.346   2.836
 1652SOL    HW2 5856   1.423   3.272   2.700
 1653SOL     OW 5857   0.848   6.258   7.016
 1653SOL    HW1 5858   0.827   6.203   6.935
 1653SOL    HW2 5859   0.946   6.252   0.012
 1654SOL     OW 5860   6.956   3.891   1.691
 1654SOL    HW1 5861   6.911   3.858   1.608
 1654SOL    HW2 5862   0.003   3.826   1.719
 1655SOL     OW 5863   0.355   2.172   4.687
 1655SOL    HW1 5864   0.345   2.078   4.718
 1655SOL    HW2 5865   0.407   2.224   4.754
 1656SOL     OW 5866   2.509   4.907   3.252
 1656SOL    HW1 5867   2.537   4.813   3.268
 1656SOL    HW2 5868   2.590   4.967   3.258
 1657SOL     OW 5869   6.022   1.412   4.494
 1657SOL    HW1 5870   6.000   1.315   4.496
 1657SOL    HW2 5871   6.117   1.425   4.522
 1658SOL     OW 5872   5.691   0.776   1.339
 1658SOL    HW1 5873   5.637   0.771   1.423
 1658SOL    HW2 5874   5.761   0.846   1.349
 1659SOL     OW 5875   3.187   0.401   6.645
 1659SOL    HW1 5876   3.143   0.427   6.731
 1659SOL    HW2 5877   3.200   0.302   6.643
 1660SOL     OW 5878   1.956   5.915   2.884
 1660SOL    HW1 5879   1.908   5.854   2.821
 1660SOL    HW2 5880   1.906   6.001   2.891
 1661SOL     OW 5881   2.533   6.340   1.218
 1661SOL    HW1 5882   2.596   6.344   1.140
 1661SOL    HW2 5883   2.555   6.261   1.275
 1662SOL     OW 5884   0.241   1.307   3.813
 1662SOL    HW1 5885   0.178   1.358   3.871
 1662SOL    HW2 5886   0.221   1.209   3.819
 1663SOL     OW 5887   4.056   5.869   2.899
 1663SOL    HW1 5888   4.115   5.942   2.932
 1663SOL    HW2 5889   4.108   5.783   2.894
 1664SOL     OW 5890   2.415   6.471   5.136
 1664SOL    HW1 5891   2.316   6.455   5.136
 1664SOL    HW2 5892   2.459   6.414   5.206
 1665SOL     OW 5893   6.266   2.754   2.306
 1665SOL    HW1 5894   6.347   2.785   2.256
 1665SOL    HW2 5895   6.199   2.718   2.242
 1666SOL     OW 5896   5.096   1.560   6.654
 1666SOL    HW1 5897   5.058   1.469   6.668
 1666SOL    HW2 5898   5.073   1.618   6.732
 1667SOL     OW 5899   0.437   6.772   1.221
 1667SOL    HW1 5900   0.368   6.843   1.238
 1667SOL    HW2 5901   0.458   6.725   1.306
 1668SOL     OW 5902   5.364   5.674   3.886
 1668SOL    HW1 5903   5.290   5.696   3.949
 1668SOL    HW2 5904   5.389   5.755   3.833
 1669SOL     OW 5905   6.400   4.585   5.877
 1669SOL    HW1 5906   6.398   4.673   5.830
 1669SOL    HW2 5907   6.317   4.574   5.931
 1670SOL     OW 5908   6.989   4.038   5.301
 1670SOL    HW1 5909   6.917   3.996   5.245
 1670SOL    HW2 5910   6.981   4.006   5.396
 1671SOL     OW 5911   5.316   2.251   2.811
 1671SOL    HW1 5912   5.287   2.163   2.848
 1671SOL    HW2 5913   5.345   2.240   2.716
 1672SOL     OW 5914   1.436   3.487   1.460
 1672SOL    HW1 5915   1.483   3.571   1.431
 1672SOL    HW2 5916   1.399   3.441   1.380
 1673SOL     OW 5917   1.004   1.411   5.169
 1673SOL    HW1 5918   1.070   1.441   5.237
 1673SOL    HW2 5919   0.918   1.387   5.214
 1674SOL     OW 5920   0.838   2.867   2.515
 1674SOL    HW1 5921   0.780   2.885   2.436
 1674SOL    HW2 5922   0.893   2.785   2.499
 1675SOL     OW 5923   5.241   0.155   0.096
 1675SOL    HW1 5924   5.269   0.132   0.189
 1675SOL    HW2 5925   5.173   0.089   0.064
 1676SOL     OW 5926   2.341   2.463   1.634
 1676SOL    HW1 5927   2.313   2.434   1.726
 1676SOL    HW2 5928   2.378   2.385   1.584
 1677SOL     OW 5929   3.052   3.137   3.798
 1677SOL    HW1 5930   2.999   3.216   3.767
 1677SOL    HW2 5931   3.032   3.120   3.895
 1678SOL     OW 5932   6.399   4.131   3.132
 1678SOL    HW1 5933   6.342   4.151   3.212
 1678SOL    HW2 5934   6.468   4.203   3.122
 1679SOL     OW 5935   2.097   2.226   4.723
 1679SOL    HW1 5936   2.079   2.167   4.801
 1679SOL    HW2 5937   2.111   2.169   4.641
 1680SOL     OW 5938   0.477   2.838   5.764
 1680SOL    HW1 5939   0.544   2.764   5.757
 1680SOL    HW2 5940   0.456   2.873   5.673
 1681SOL     OW 5941   0.303   4.880   7.005
 1681SOL    HW1 5942   0.402   4.887   6.994
 1681SOL    HW2 5943   0.274   4.786   6.988
 1682SOL     OW 5944   1.499   0.680   5.726
 1682SOL    HW1 5945   1.419   0.628   5.758
 1682SOL    HW2 5946   1.547   0.626   5.656
 1683SOL     OW 5947   5.598   5.109   2.589
 1683SOL    HW1 5948   5.671   5.081   2.526
 1683SOL    HW2 5949   5.522   5.148   2.537
 1684SOL     OW 5950   0.804   6.398   2.306
 1684SOL    HW1 5951   0.833   6.492   2.324
 1684SOL    HW2 5952   0.879   6.335   2.326
 1685SOL     OW 5953   1.726   0.900   5.574
 1685SOL    HW1 5954   1.656   0.918   5.505
 1685SOL    HW2 5955   1.808   0.954   5.554
 1686SOL     OW 5956   2.274   6.302   4.146
 1686SOL    HW1 5957   2.257   6.287   4.049
 1686SOL    HW2 5958   2.354   6.248   4.174
 1687SOL     OW 5959   1.554   2.994   2.018
 1687SOL    HW1 5960   1.650   3.022   2.026
 1687SOL    HW2 5961   1.545   2.899   2.049
 1688SOL     OW 5962   2.341   2.000   3.674
 1688SOL    HW1 5963   2.385   1.933   3.614
 1688SOL    HW2 5964   2.370   1.985   3.768
 1689SOL     OW 5965   6.197   0.544   3.122
 1689SOL    HW1 5966   6.115   0.588   3.160
 1689SOL    HW2 5967   6.269   0.544   3.192
 1690SOL     OW 5968   1.219   2.454   4.293
 1690SOL    HW1 5969   1.291   2.520   4.273
 1690SOL    HW2 5970   1.168   2.483   4.374
 1691SOL     OW 5971   5.131   2.951   3.457
 1691SOL    HW1 5972   5.146   2.853   3.467
 1691SOL    HW2 5973   5.074   2.984   3.532
 1692SOL     OW 5974   5.184   6.217   1.069
 1692SOL    HW1 5975   5.202   6.297   1.013
 1692SOL    HW2 5976   5.245   6.217   1.148
 1693SOL     OW 5977   5.922   1.926   2.629
 1693SOL    HW1 5978   5.832   1.952   2.594
 1693SOL    HW2 5979   5.962   1.857   2.568
 1694SOL     OW 5980   5.447   1.424   3.348
 1694SOL    HW1 5981   5.481   1.396   3.438
 1694SOL    HW2 5982   5.523   1.459   3.293
 1695SOL     OW 5983   4.141   0.884   6.300
 1695SOL    HW1 5984   4.060   0.828   6.316
 1695SOL    HW2 5985   4.165   0.933   6.384
 1696SOL     OW 5986   4.309   6.200   0.901
 1696SOL    HW1 5987   4.307   6.257   0.983
 1696SOL    HW2 5988   4.380   6.233   0.838
 1697SOL     OW 5989   6.271   1.256   0.412
 1697SOL    HW1 5990   6.174   1.246   0.435
 1697SOL    HW2 5991   6.313   1.324   0.472
 1698SOL     OW 5992   3.475   7.014   0.409
 1698SOL    HW1 5993   3.430   0.080   0.410
 1698SOL    HW2 5994   3.565   7.021   0.453
 1699SOL     OW 5995   2.249   1.127   7.010
 1699SOL    HW1 5996   2.186   1.059   0.024
 1699SOL    HW2 5997   2.302   1.167   0.061
 1700SOL     OW 5998   6.632   4.309   3.429
 1700SOL    HW1 5999   6.731   4.299   3.430
 1700SOL    HW2 6000   6.604   4.357   3.345
 1701SOL     OW 6001   5.902   4.949   6.054
 1701SOL    HW1 6002   5.804   4.929   6.046
 1701SOL    HW2 6003   5.933   4.997   5.971
 1702SOL     OW 6004   6.341   1.254   0.956
 1702SOL    HW1 6005   6.328   1.231   1.053
 1702SOL    HW2 6006   6.424   1.308   0.945
 1703SOL     OW 6007   3.372   1.847   0.425
 1703SOL    HW1 6008   3.408   1.844   0.518
 1703SOL    HW2 6009   3.274   1.868   0.428
 1704SOL     OW 6010   0.826   1.575   0.727
 1704SOL    HW1 6011   0.815   1.611   0.819
 1704SOL    HW2 6012   0.871   1.644   0.669
 1705SOL     OW 6013   3.143   2.171   2.631
 1705SOL    HW1 6014   3.082   2.206   2.560
 1705SOL    HW2 6015   3.210   2.109   2.590
 1706SOL     OW 6016   4.888   1.311   1.691
 1706SOL    HW1 6017   4.799   1.297   1.735
 1706SOL    HW2 6018   4.875   1.361   1.606
 1707SOL     OW 6019   4.297   2.106   1.864
 1707SOL    HW1 6020   4.219   2.059   1.822
 1707SOL    HW2 6021   4.294   2.203   1.841
 1708SOL     OW 6022   5.139   5.794   1.953
 1708SOL    HW1 6023   5.113   5.793   1.856
 1708SOL    HW2 6024   5.222   5.848   1.965
 1709SOL     OW 6025   3.294   6.603   2.664
 1709SOL    HW1 6026   3.241   6.634   2.585
 1709SOL    HW2 6027   3.243   6.621   2.748
 1710SOL     OW 6028   4.823   4.738   3.808
 1710SOL    HW1 6029   4.888   4.710   3.879
 1710SOL    HW2 6030   4.873   4.778   3.732
 1711SOL     OW 6031   1.829   4.919   4.635
 1711SOL    HW1 6032   1.767   4.899   4.710
 1711SOL    HW2 6033   1.821   5.016   4.609
 1712SOL     OW 6034   6.551   2.882   4.505
 1712SOL    HW1 6035   6.599   2.821   4.443
 1712SOL    HW2 6036   6.551   2.975   4.468
 1713SOL     OW 6037   4.780   2.555   2.016
 1713SOL    HW1 6038   4.860   2.536   1.959
 1713SOL    HW2 6039   4.697   2.527   1.967
 1714SOL     OW 6040   3.528   1.293   6.449
 1714SOL    HW1 6041   3.487   1.324   6.363
 1714SOL    HW2 6042   3.572   1.370   6.495
 1715SOL     OW 6043   1.980   5.114   3.016
 1715SOL    HW1 6044   2.046   5.107   3.090
 1715SOL    HW2 6045   1.888   5.097   3.051
 1716SOL     OW 6046   4.513   6.947   2.605
 1716SOL    HW1 6047   4.501   6.916   2.699
 1716SOL    HW2 6048   4.445   7.018   2.584
 1717SOL     OW 6049   3.045   5.717   5.019
 1717SOL    HW1 6050   3.092   5.803   5.040
 1717SOL    HW2 6051   2.963   5.710   5.075
 1718SOL     OW 6052   3.112   1.249   1.897
 1718SOL    HW1 6053   3.205   1.214   1.887
 1718SOL    HW2 6054   3.071   1.261   1.806
 1719SOL     OW 6055   1.976   2.762   1.234
 1719SOL    HW1 6056   1.896   2.712   1.269
 1719SOL    HW2 6057   2.015   2.817   1.308
 1720SOL     OW 6058   0.146   3.201   0.579
 1720SOL    HW1 6059   0.216   3.229   0.644
 1720SOL    HW2 6060   0.168   3.110   0.543
 1721SOL     OW 6061   1.942   6.809   1.649
 1721SOL    HW1 6062   2.024   6.827   1.703
 1721SOL    HW2 6063   1.867   6.866   1.683
 1722SOL     OW 6064   2.984   1.616   4.157
 1722SOL    HW1 6065   3.027   1.693   4.110
 1722SOL    HW2 6066   2.886   1.618   4.141
 1723SOL     OW 6067   6.364   2.430   0.191
 1723SOL    HW1 6068   6.295   2.381   0.245
 1723SOL    HW2 6069   6.452   2.384   0.200
 1724SOL     OW 6070   0.224   3.069   2.316
 1724SOL    HW1 6071   0.230   3.083   2.217
 1724SOL    HW2 6072   0.315   3.073   2.356
 1725SOL     OW 6073   2.138   4.605   6.229
 1725SOL    HW1 6074   2.071   4.574   6.162
 1725SOL    HW2 6075   2.178   4.692   6.198
 1726SOL     OW 6076   5.756   4.673   5.401
 1726SOL    HW1 6077   5.697   4.594   5.383
 1726SOL    HW2 6078   5.850   4.651   5.378
 1727SOL     OW 6079   3.584   2.872   3.519
 1727SOL    HW1 6080   3.585   2.865   3.420
 1727SOL    HW2 6081   3.677   2.880   3.554
 1728SOL     OW 6082   5.635   5.952   5.394
 1728SOL    HW1 6083   5.727   5.924   5.368
 1728SOL    HW2 6084   5.569   5.920   5.326
 1729SOL     OW 6085   2.160   4.173   3.467
 1729SOL    HW1 6086   2.061   4.185   3.475
 1729SOL    HW2 6087   2.181   4.076   3.455
 1730SOL     OW 6088   1.842   0.020   5.156
 1730SOL    HW1 6089   1.897   0.092   5.199
 1730SOL    HW2 6090   1.845   0.031   5.057
 1731SOL     OW 6091   0.604   4.412   4.046
 1731SOL    HW1 6092   0.514   4.393   4.007
 1731SOL    HW2 6093   0.655   4.326   4.057
 1732SOL     OW 6094   2.203   4.957   5.949
 1732SOL    HW1 6095   2.246   4.877   5.991
 1732SOL    HW2 6096   2.105   4.941   5.940
 1733SOL     OW 6097   1.349   4.215   1.682
 1733SOL    HW1 6098   1.358   4.310   1.713
 1733SOL    HW2 6099   1.280   4.209   1.611
 1734SOL     OW 6100   4.343   2.964   1.246
 1734SOL    HW1 6101   4.364   2.952   1.343
 1734SOL    HW2 6102   4.408   3.028   1.205
 1735SOL     OW 6103   4.307   5.516   6.489
 1735SOL    HW1 6104   4.390   5.464   6.508
 1735SOL    HW2 6105   4.244   5.460   6.434
 1736SOL     OW 6106   3.666   3.709   1.215
 1736SOL    HW1 6107   3.583   3.755   1.182
 1736SOL    HW2 6108   3.641   3.623   1.259
 1737SOL     OW 6109   4.449   1.058   4.694
 1737SOL    HW1 6110   4.498   1.127   4.746
 1737SOL    HW2 6111   4.504   1.031   4.614
 1738SOL     OW 6112   1.774   3.009   4.846
 1738SOL    HW1 6113   1.724   3.073   4.788
 1738SOL    HW2 6114   1.862   2.987   4.804
 1739SOL     OW 6115   0.152   1.563   5.305
 1739SOL    HW1 6116   0.071   1.584   5.360
 1739SOL    HW2 6117   0.147   1.613   5.218
 1740SOL     OW 6118   0.106   2.232   5.114
 1740SOL    HW1 6119   0.201   2.202   5.115
 1740SOL    HW2 6120   0.055   2.182   5.183
 1741SOL     OW 6121   2.535   0.394   4.486
 1741SOL    HW1 6122   2.446   0.360   4.454
 1741SOL    HW2 6123   2.526   0.490   4.513
 1742SOL     OW 6124   5.977   0.841   5.651
 1742SOL    HW1 6125   6.008   0.883   5.736
 1742SOL    HW2 6126   5.968   0.742   5.665
 1743SOL     OW 6127   0.653   2.057   2.495
 1743SOL    HW1 6128   0.595   2.058   2.576
 1743SOL    HW2 6129   0.612   2.115   2.424
 1744SOL     OW 6130   6.299   3.357   3.348
 1744SOL    HW1 6131   6.272   3.415   3.272
 1744SOL    HW2 6132   6.285   3.406   3.434
 1745SOL     OW 6133   5.395   5.503   2.368
 1745SOL    HW1 6134   5.472   5.566   2.379
 1745SOL    HW2 6135   5.342   5.529   2.287
 1746SOL     OW 6136   1.456   4.386   4.400
 1746SOL    HW1 6137   1.439   4.289   4.381
 1746SOL    HW2 6138   1.495   4.429   4.319
 1747SOL     OW 6139   4.056   1.442   2.476
 1747SOL    HW1 6140   4.051   1.375   2.401
 1747SOL    HW2 6141   3.966   1.484   2.488
 1748SOL     OW 6142   0.193   1.894   5.092
 1748SOL    HW1 6143   0.265   1.955   5.124
 1748SOL    HW2 6144   0.111   1.947   5.072
 1749SOL     OW 6145   2.292   6.940   5.589
 1749SOL    HW1 6146   2.208   6.910   5.545
 1749SOL    HW2 6147   2.348   6.860   5.613
 1750SOL     OW 6148   5.013   5.996   4.203
 1750SOL    HW1 6149   4.964   6.060   4.262
 1750SOL    HW2 6150   4.962   5.980   4.119
 1751SOL     OW 6151   3.878   1.013   3.939
 1751SOL    HW1 6152   3.889   0.914   3.946
 1751SOL    HW2 6153   3.966   1.055   3.918
 1752SOL     OW 6154   6.378   1.102   2.341
 1752SOL    HW1 6155   6.410   1.196   2.353
 1752SOL    HW2 6156   6.290   1.102   2.294
 1753SOL     OW 6157   0.194   0.974   1.458
 1753SOL    HW1 6158   0.132   1.005   1.530
 1753SOL    HW2 6159   0.289   0.986   1.489
 1754SOL     OW 6160   1.590   4.510   6.998
 1754SOL    HW1 6161   1.595   4.577   6.923
 1754SOL    HW2 6162   1.620   4.421   6.965
 1755SOL     OW 6163   7.021   6.088   0.770
 1755SOL    HW1 6164   0.080   6.139   0.797
 1755SOL    HW2 6165   6.976   6.135   0.694
 1756SOL     OW 6166   4.321   4.997   5.480
 1756SOL    HW1 6167   4.263   4.941   5.539
 1756SOL    HW2 6168   4.416   4.964   5.485
 1757SOL     OW 6169   2.599   5.657   4.862
 1757SOL    HW1 6170   2.582   5.559   4.872
 1757SOL    HW2 6171   2.698   5.674   4.861
 1758SOL     OW 6172   2.018   1.093   4.426
 1758SOL    HW1 6173   2.067   1.148   4.359
 1758SOL    HW2 6174   2.049   1.116   4.518
 1759SOL     OW 6175   2.532   5.857   5.706
 1759SOL    HW1 6176   2.453   5.859   5.645
 1759SOL    HW2 6177   2.613   5.892   5.658
 1760SOL     OW 6178   5.759   0.951   3.642
 1760SOL    HW1 6179   5.769   1.047   3.617
 1760SOL    HW2 6180   5.793   0.894   3.567
 1761SOL     OW 6181   0.163   0.782   1.791
 1761SOL    HW1 6182   0.065   0.803   1.793
 1761SOL    HW2 6183   0.211   0.845   1.852
 1762SOL     OW 6184   0.480   0.968   4.130
 1762SOL    HW1 6185   0.499   0.875   4.099
 1762SOL    HW2 6186   0.402   0.967   4.193
 1763SOL     OW 6187   0.759   4.367   4.374
 1763SOL    HW1 6188   0.793   4.301   4.307
 1763SOL    HW2 6189   0.749   4.323   4.463
 1764SOL     OW 6190   2.083   3.148   2.263
 1764SOL    HW1 6191   2.056   3.215   2.195
 1764SOL    HW2 6192   2.079   3.189   2.354
 1765SOL     OW 6193   4.294   0.723   1.557
 1765SOL    HW1 6194   4.202   0.696   1.587
 1765SOL    HW2 6195   4.306   0.697   1.461
 1766SOL     OW 6196   5.290   4.958   3.534
 1766SOL    HW1 6197   5.259   5.032   3.475
 1766SOL    HW2 6198   5.357   4.993   3.599
 1767SOL     OW 6199   0.998   4.149   3.049
 1767SOL    HW1 6200   0.920   4.174   2.991
 1767SOL    HW2 6201   0.983   4.183   3.141
 1768SOL     OW 6202   3.294   0.669   6.720
 1768SOL    HW1 6203   3.289   0.688   6.818
 1768SOL    HW2 6204   3.313   0.572   6.706
 1769SOL     OW 6205   5.141   1.276   6.878
 1769SOL    HW1 6206   5.063   1.257   6.818
 1769SOL    HW2 6207   5.207   1.202   6.871
 1770SOL     OW 6208   6.229   4.662   4.819
 1770SOL    HW1 6209   6.239   4.573   4.863
 1770SOL    HW2 6210   6.305   4.721   4.845
 1771SOL     OW 6211   1.388   5.175   0.815
 1771SOL    HW1 6212   1.325   5.160   0.739
 1771SOL    HW2 6213   1.400   5.273   0.830
 1772SOL     OW 6214   3.741   5.934   3.661
 1772SOL    HW1 6215   3.731   5.969   3.568
 1772SOL    HW2 6216   3.689   5.849   3.670
 1773SOL     OW 6217   2.913   2.658   5.806
 1773SOL    HW1 6218   2.867   2.700   5.884
 1773SOL    HW2 6219   2.870   2.570   5.786
 1774SOL     OW 6220   5.185   6.085   1.639
 1774SOL    HW1 6221   5.107   6.146   1.635
 1774SOL    HW2 6222   5.231   6.094   1.728
 1775SOL     OW 6223   1.783   4.942   5.695
 1775SOL    HW1 6224   1.710   5.005   5.721
 1775SOL    HW2 6225   1.852   4.990   5.641
 1776SOL     OW 6226   4.740   0.723   6.492
 1776SOL    HW1 6227   4.688   0.645   6.457
 1776SOL    HW2 6228   4.710   0.743   6.585
 1777SOL     OW 6229   3.010   6.565   6.290
 1777SOL    HW1 6230   3.019   6.562   6.389
 1777SOL    HW2 6231   3.002   6.660   6.260
 1778SOL     OW 6232   4.943   2.042   4.056
 1778SOL    HW1 6233   4.964   1.982   3.978
 1778SOL    HW2 6234   4.985   2.132   4.040
 1779SOL     OW 6235   5.259   1.196   5.235
 1779SOL    HW1 6236   5.212   1.135   5.171
 1779SOL    HW2 6237   5.191   1.248   5.286
 1780SOL     OW 6238   1.807   3.885   5.796
 1780SOL    HW1 6239   1.906   3.900   5.799
 1780SOL    HW2 6240   1.760   3.973   5.805
 1781SOL     OW 6241   5.967   6.023   4.033
 1781SOL    HW1 6242   5.890   5.964   4.057
 1781SOL    HW2 6243   5.944   6.118   4.054
 1782SOL     OW 6244   3.079   1.231   2.546
 1782SOL    HW1 6245   3.134   1.208   2.627
 1782SOL    HW2 6246   3.119   1.310   2.500
 1783SOL     OW 6247   2.650   2.988   6.307
 1783SOL    HW1 6248   2.553   2.972   6.326
 1783SOL    HW2 6249   2.694   3.026   6.389
 1784SOL     OW 6250   2.057   1.394   1.676
 1784SOL    HW1 6251   2.040   1.316   1.616
 1784SOL    HW2 6252   2.149   1.386   1.715
 1785SOL     OW 6253   5.706   6.392   3.705
 1785SOL    HW1 6254   5.678   6.352   3.793
 1785SOL    HW2 6255   5.718   6.319   3.638
 1786SOL     OW 6256   1.945   4.175   0.402
 1786SOL    HW1 6257   1.936   4.252   0.464
 1786SOL    HW2 6258   1.893   4.192   0.319
 1787SOL     OW 6259   2.346   2.067   5.795
 1787SOL    HW1 6260   2.253   2.046   5.828
 1787SOL    HW2 6261   2.406   1.990   5.817
 1788SOL     OW 6262   4.176   3.929   0.366
 1788SOL    HW1 6263   4.086   3.894   0.391
 1788SOL    HW2 6264   4.238   3.853   0.345
 1789SOL     OW 6265   5.656   2.852   2.307
 1789SOL    HW1 6266   5.694   2.944   2.302
 1789SOL    HW2 6267   5.650   2.813   2.215
 1790SOL     OW 6268   2.847   0.824   4.445
 1790SOL    HW1 6269   2.922   0.782   4.395
 1790SOL    HW2 6270   2.881   0.903   4.496
 1791SOL     OW 6271   6.386   1.836   3.979
 1791SOL    HW1 6272   6.415   1.745   4.010
 1791SOL    HW2 6273   6.450   1.869   3.910
 1792SOL     OW 6274   0.053   1.177   4.391
 1792SOL    HW1 6275   0.072   1.227   4.476
 1792SOL    HW2 6276   0.051   1.240   4.314
 1793SOL     OW 6277   6.360   1.510   4.297
 1793SOL    HW1 6278   6.299   1.570   4.349
 1793SOL    HW2 6279   6.351   1.416   4.332
 1794SOL     OW 6280   5.055   6.741   5.536
 1794SOL    HW1 6281   4.979   6.806   5.528
 1794SOL    HW2 6282   5.091   6.744   5.630
 1795SOL     OW 6283   6.677   5.490   1.910
 1795SOL    HW1 6284   6.776   5.475   1.906
 1795SOL    HW2 6285   6.650   5.557   1.841
 1796SOL     OW 6286   2.227   1.432   5.087
 1796SOL    HW1 6287   2.320   1.395   5.095
 1796SOL    HW2 6288   2.229   1.511   5.025
 1797SOL     OW 6289   1.366   6.989   5.499
 1797SOL    HW1 6290   1.424   6.978   5.579
 1797SOL    HW2 6291   1.387   0.052   5.453
 1798SOL     OW 6292   3.795   2.859   5.056
 1798SOL    HW1 6293   3.781   2.954   5.029
 1798SOL    HW2 6294   3.887   2.830   5.031
 1799SOL     OW 6295   5.856   3.143   6.224
 1799SOL    HW1 6296   5.931   3.194   6.266
 1799SOL    HW2 6297   5.852   3.163   6.126
 1800SOL     OW 6298   5.006   4.901   3.268
 1800SOL    HW1 6299   4.986   4.997   3.288
 1800SOL    HW2 6300   5.101   4.893   3.238
 1801SOL     OW 6301   1.619   1.154   2.997
 1801SOL    HW1 6302   1.616   1.174   3.095
 1801SOL    HW2 6303   1.672   1.225   2.951
 1802SOL     OW 6304   6.576   6.009   3.248
 1802SOL    HW1 6305   6.633   5.982   3.171
 1802SOL    HW2 6306   6.597   5.951   3.327
 1803SOL     OW 6307   6.851   6.807   2.058
 1803SOL    HW1 6308   6.868   6.764   2.147
 1803SOL    HW2 6309   6.770   6.866   2.065
 1804SOL     OW 6310   4.111   3.430   5.524
 1804SOL    HW1 6311   4.060   3.348   5.500
 1804SOL    HW2 6312   4.149   3.472   5.442
 1805SOL     OW 6313   0.669   5.534   5.938
 1805SOL    HW1 6314   0.668   5.542   5.838
 1805SOL    HW2 6315   0.728   5.605   5.977
 1806SOL     OW 6316   0.592   2.514   1.968
 1806SOL    HW1 6317   0.658   2.553   2.031
 1806SOL    HW2 6318   0.539   2.587   1.925
 1807SOL     OW 6319   6.687   2.490   6.344
 1807SOL    HW1 6320   6.717   2.395   6.348
 1807SOL    HW2 6321   6.600   2.495   6.296
 1808SOL     OW 6322   5.740   4.309   4.578
 1808SOL    HW1 6323   5.640   4.319   4.579
 1808SOL    HW2 6324   5.779   4.359   4.656
 1809SOL     OW 6325   2.801   2.307   5.052
 1809SOL    HW1 6326   2.758   2.270   4.970
 1809SOL    HW2 6327   2.858   2.237   5.094
 1810SOL     OW 6328   0.859   0.776   4.950
 1810SOL    HW1 6329   0.914   0.693   4.936
 1810SOL    HW2 6330   0.914   0.844   4.998
 1811SOL     OW 6331   4.915   4.740   2.722
 1811SOL    HW1 6332   4.817   4.721   2.727
 1811SOL    HW2 6333   4.946   4.778   2.809
 1812SOL     OW 6334   4.798   7.000   6.814
 1812SOL    HW1 6335   4.736   6.950   6.874
 1812SOL    HW2 6336   4.762   0.068   6.797
 1813SOL     OW 6337   4.845   5.496   2.193
 1813SOL    HW1 6338   4.887   5.580   2.157
 1813SOL    HW2 6339   4.882   5.477   2.284
 1814SOL     OW 6340   6.232   0.568   0.646
 1814SOL    HW1 6341   6.289   0.613   0.577
 1814SOL    HW2 6342   6.141   0.609   0.646
 1815SOL     OW 6343   6.484   0.271   2.979
 1815SOL    HW1 6344   6.549   0.297   2.907
 1815SOL    HW2 6345   6.393   0.306   2.956
 1816SOL     OW 6346   3.459   4.671   0.066
 1816SOL    HW1 6347   3.537   4.652   0.006
 1816SOL    HW2 6348   3.482   4.747   0.127
 1817SOL     OW 6349   3.671   0.383   2.518
 1817SOL    HW1 6350   3.705   0.413   2.429
 1817SOL    HW2 6351   3.698   0.449   2.588
 1818SOL     OW 6352   1.595   6.769   0.681
 1818SOL    HW1 6353   1.636   6.854   0.650
 1818SOL    HW2 6354   1.632   6.693   0.628
 1819SOL     OW 6355   1.269   5.935   1.910
 1819SOL    HW1 6356   1.196   5.875   1.878
 1819SOL    HW2 6357   1.237   5.987   1.989
 1820SOL     OW 6358   3.285   0.008   2.091
 1820SOL    HW1 6359   3.190   0.035   2.081
 1820SOL    HW2 6360   3.329   0.063   2.162
 1821SOL     OW 6361   2.844   0.894   1.798
 1821SOL    HW1 6362   2.880   0.940   1.879
 1821SOL    HW2 6363   2.788   0.815   1.826
 1822SOL     OW 6364   0.807   2.725   1.729
 1822SOL    HW1 6365   0.821   2.706   1.632
 1822SOL    HW2 6366   0.726   2.676   1.761
 1823SOL     OW 6367   2.869   6.159   3.006
 1823SOL    HW1 6368   2.943   6.227   3.011
 1823SOL    HW2 6369   2.892   6.081   3.065
 1824SOL     OW 6370   3.710   3.988   0.587
 1824SOL    HW1 6371   3.620   4.002   0.546
 1824SOL    HW2 6372   3.775   4.052   0.547
 1825SOL     OW 6373   0.604   2.420   4.429
 1825SOL    HW1 6374   0.506   2.402   4.431
 1825SOL    HW2 6375   0.646   2.368   4.355
 1826SOL     OW 6376   2.791   0.981   1.266
 1826SOL    HW1 6377   2.808   1.038   1.185
 1826SOL    HW2 6378   2.712   1.017   1.315
 1827SOL     OW 6379   6.074   5.379   1.119
 1827SOL    HW1 6380   6.143   5.319   1.161
 1827SOL    HW2 6381   5.986   5.365   1.164
 1828SOL     OW 6382   1.708   3.195   6.375
 1828SOL    HW1 6383   1.646   3.259   6.421
 1828SOL    HW2 6384   1.658   3.145   6.304
 1829SOL     OW 6385   3.631   0.168   2.748
 1829SOL    HW1 6386   3.691   0.154   2.669
 1829SOL    HW2 6387   3.662   0.111   2.824
 1830SOL     OW 6388   5.708   6.482   4.362
 1830SOL    HW1 6389   5.684   6.536   4.443
 1830SOL    HW2 6390   5.790   6.428   4.381
 1831SOL     OW 6391   5.520   6.722   2.752
 1831SOL    HW1 6392   5.524   6.812   2.708
 1831SOL    HW2 6393   5.465   6.660   2.696
 1832SOL     OW 6394   3.603   1.616   0.720
 1832SOL    HW1 6395   3.690   1.648   0.757
 1832SOL    HW2 6396   3.553   1.567   0.792
 1833SOL     OW 6397   5.919   0.578   2.219
 1833SOL    HW1 6398   5.988   0.509   2.241
 1833SOL    HW2 6399   5.934   0.659   2.276
 1834SOL     OW 6400   2.056   4.006   1.208
 1834SOL    HW1 6401   2.131   4.072   1.217
 1834SOL    HW2 6402   2.077   3.924   1.261
 1835SOL     OW 6403   0.873   4.892   1.774
 1835SOL    HW1 6404   0.894   4.811   1.719
 1835SOL    HW2 6405   0.776   4.891   1.798
 1836SOL     OW 6406   5.657   2.342   2.082
 1836SOL    HW1 6407   5.630   2.397   2.003
 1836SOL    HW2 6408   5.749   2.305   2.067
 1837SOL     OW 6409   1.125   6.867   5.626
 1837SOL    HW1 6410   1.109   6.897   5.720
 1837SOL    HW2 6411   1.212   6.905   5.594
 1838SOL     OW 6412   5.671   0.837   5.946
 1838SOL    HW1 6413   5.634   0.772   6.013
 1838SOL    HW2 6414   5.596   0.889   5.905
 1839SOL     OW 6415   6.934   1.186   5.714
 1839SOL    HW1 6416   6.928   1.245   5.633
 1839SOL    HW2 6417   6.871   1.219   5.784
 1840SOL     OW 6418   4.132   0.001   2.021
 1840SOL    HW1 6419   4.039   6.988   2.028
 1840SOL    HW2 6420   4.135   0.073   1.951
 1841SOL     OW 6421   2.328   0.350   3.003
 1841SOL    HW1 6422   2.409   0.385   3.050
 1841SOL    HW2 6423   2.288   0.424   2.948
 1842SOL     OW 6424   1.309   5.907   1.317
 1842SOL    HW1 6425   1.296   5.989   1.372
 1842SOL    HW2 6426   1.224   5.854   1.315
 1843SOL     OW 6427   5.467   0.529   4.502
 1843SOL    HW1 6428   5.521   0.509   4.420
 1843SOL    HW2 6429   5.525   0.519   4.583
 1844SOL     OW 6430   4.287   0.173   5.150
 1844SOL    HW1 6431   4.379   0.178   5.113
 1844SOL    HW2 6432   4.220   0.188   5.077
 1845SOL     OW 6433   3.090   6.580   4.296
 1845SOL    HW1 6434   3.118   6.674   4.276
 1845SOL    HW2 6435   3.082   6.529   4.210
 1846SOL     OW 6436   4.583   1.099   2.610
 1846SOL    HW1 6437   4.505   1.036   2.608
 1846SOL    HW2 6438   4.641   1.079   2.689
 1847SOL     OW 6439   1.473   7.003   5.751
 1847SOL    HW1 6440   1.543   6.942   5.714
 1847SOL    HW2 6441   1.512   0.072   5.762
 1848SOL     OW 6442   2.122   6.330   3.897
 1848SOL    HW1 6443   2.057   6.288   3.961
 1848SOL    HW2 6444   2.072   6.376   3.823
 1849SOL     OW 6445   4.271   2.697   1.200
 1849SOL    HW1 6446   4.334   2.775   1.208
 1849SOL    HW2 6447   4.243   2.687   1.104
 1850SOL     OW 6448   6.488   2.206   2.311
 1850SOL    HW1 6449   6.541   2.136   2.263
 1850SOL    HW2 6450   6.486   2.185   2.409
 1851SOL     OW 6451   1.085   3.340   0.067
 1851SOL    HW1 6452   0.998   3.297   0.043
 1851SOL    HW2 6453   1.158   3.272   0.061
 1852SOL     OW 6454   0.469   4.911   2.751
 1852SOL    HW1 6455   0.415   4.977   2.699
 1852SOL    HW2 6456   0.553   4.953   2.783
 1853SOL     OW 6457   7.013   2.589   3.185
 1853SOL    HW1 6458   6.984   2.577   3.090
 1853SOL    HW2 6459   6.979   2.676   3.219
 1854SOL     OW 6460   2.061   5.105   2.739
 1854SOL    HW1 6461   2.011   5.130   2.822
 1854SOL    HW2 6462   2.155   5.135   2.746
 1855SOL     OW 6463   5.414   3.538   5.468
 1855SOL    HW1 6464   5.339   3.500   5.414
 1855SOL    HW2 6465   5.493   3.477   5.465
 1856SOL     OW 6466   4.963   3.324   6.410
 1856SOL    HW1 6467   4.896   3.340   6.338
 1856SOL    HW2 6468   5.037   3.266   6.374
 1857SOL     OW 6469   4.310   1.256   0.205
 1857SOL    HW1 6470   4.231   1.248   0.265
 1857SOL    HW2 6471   4.320   1.171   0.152
 1858SOL     OW 6472   5.198   2.625   3.084
 1858SOL    HW1 6473   5.204   2.703   3.147
 1858SOL    HW2 6474   5.153   2.548   3.131
 1859SOL     OW 6475   4.410   1.503   3.587
 1859SOL    HW1 6476   4.426   1.449   3.670
 1859SOL    HW2 6477   4.343   1.575   3.607
 1860SOL     OW 6478   6.960   1.583   5.521
 1860SOL    HW1 6479   6.918   1.492   5.527
 1860SOL    HW2 6480   6.940   1.634   5.604
 1861SOL     OW 6481   4.649   0.738   2.538
 1861SOL    HW1 6482   4.579   0.776   2.598
 1861SOL    HW2 6483   4.671   0.804   2.466
 1862SOL     OW 6484   2.110   6.484   0.108
 1862SOL    HW1 6485   2.203   6.514   0.089
 1862SOL    HW2 6486   2.062   6.554   0.162
 1863SOL     OW 6487   6.945   2.763   2.414
 1863SOL    HW1 6488   6.965   2.827   2.339
 1863SOL    HW2 6489   6.917   2.815   2.494
 1864SOL     OW 6490   3.540   5.872   4.340
 1864SOL    HW1 6491   3.487   5.795   4.375
 1864SOL    HW2 6492   3.609   5.839   4.276
 1865SOL     OW 6493   3.275   0.872   0.739
 1865SOL    HW1 6494   3.320   0.785   0.718
 1865SOL    HW2 6495   3.205   0.891   0.670
 1866SOL     OW 6496   6.947   4.944   3.749
 1866SOL    HW1 6497   7.022   4.973   3.807
 1866SOL    HW2 6498   6.980   4.932   3.655
 1867SOL     OW 6499   1.908   3.546   1.717
 1867SOL    HW1 6500   1.876   3.466   1.767
 1867SOL    HW2 6501   1.880   3.629   1.765
 1868SOL     OW 6502   5.588   3.680   6.921
 1868SOL    HW1 6503   5.686   3.665   6.907
 1868SOL    HW2 6504   5.569   3.685   7.019
 1869SOL     OW 6505   6.130   3.377   4.799
 1869SOL    HW1 6506   6.055   3.320   4.766
 1869SOL    HW2 6507   6.165   3.433   4.723
 1870SOL     OW 6508   0.981   3.065   5.050
 1870SOL    HW1 6509   1.002   3.119   4.968
 1870SOL    HW2 6510   1.067   3.042   5.097
 1871SOL     OW 6511   6.594   0.313   0.835
 1871SOL    HW1 6512   6.641   0.315   0.923
 1871SOL    HW2 6513   6.515   0.374   0.838
 1872SOL     OW 6514   4.337   2.064   0.058
 1872SOL    HW1 6515   4.272   1.989   0.046
 1872SOL    HW2 6516   4.371   2.064   0.152
 1873SOL     OW 6517   6.916   0.288   5.361
 1873SOL    HW1 6518   6.920   0.298   5.461
 1873SOL    HW2 6519   6.822   0.268   5.333
 1874SOL     OW 6520   1.007   1.095   6.295
 1874SOL    HW1 6521   1.076   1.164   6.319
 1874SOL    HW2 6522   0.921   1.118   6.339
 1875SOL     OW 6523   6.612   0.192   0.592
 1875SOL    HW1 6524   6.606   0.233   0.683
 1875SOL    HW2 6525   6.685   0.123   0.590
 1876SOL     OW 6526   3.936   6.184   6.221
 1876SOL    HW1 6527   3.898   6.207   6.311
 1876SOL    HW2 6528   4.036   6.184   6.226
 1877SOL     OW 6529   0.965   1.834   3.021
 1877SOL    HW1 6530   0.976   1.914   2.963
 1877SOL    HW2 6531   0.975   1.861   3.117
 1878SOL     OW 6532   6.871   4.029   3.697
 1878SOL    HW1 6533   6.790   4.088   3.707
 1878SOL    HW2 6534   6.883   3.975   3.780
 1879SOL     OW 6535   2.673   5.915   3.884
 1879SOL    HW1 6536   2.633   6.005   3.866
 1879SOL    HW2 6537   2.600   5.848   3.900
 1880SOL     OW 6538   0.574   1.866   2.707
 1880SOL    HW1 6539   0.504   1.913   2.760
 1880SOL    HW2 6540   0.664   1.904   2.729
 1881SOL     OW 6541   1.578   1.941   3.772
 1881SOL    HW1 6542   1.516   1.864   3.757
 1881SOL    HW2 6543   1.535   2.006   3.834
 1882SOL     OW 6544   0.607   4.944   7.000
 1882SOL    HW1 6545   0.688   4.897   6.965
 1882SOL    HW2 6546   0.587   5.023   6.942
 1883SOL     OW 6547   0.799   3.577   4.260
 1883SOL    HW1 6548   0.793   3.553   4.357
 1883SOL    HW2 6549   0.895   3.588   4.234
 1884SOL     OW 6550   5.763   2.540   1.266
 1884SOL    HW1 6551   5.760   2.557   1.364
 1884SOL    HW2 6552   5.815   2.457   1.248
 1885SOL     OW 6553   6.972   2.019   1.175
 1885SOL    HW1 6554   6.965   1.925   1.141
 1885SOL    HW2 6555   6.992   2.017   1.273
 1886SOL     OW 6556   2.435   2.190   0.175
 1886SOL    HW1 6557   2.430   2.197   0.274
 1886SOL    HW2 6558   2.438   2.093   0.148
 1887SOL     OW 6559   0.321   4.533   5.567
 1887SOL    HW1 6560   0.301   4.474   5.645
 1887SOL    HW2 6561   0.420   4.548   5.561
 1888SOL     OW 6562   2.394   2.333   5.712
 1888SOL    HW1 6563   2.490   2.357   5.700
 1888SOL    HW2 6564   2.386   2.234   5.726
 1889SOL     OW 6565   5.336   3.134   6.568
 1889SOL    HW1 6566   5.398   3.063   6.600
 1889SOL    HW2 6567   5.389   3.214   6.541
 1890SOL     OW 6568   1.824   5.988   5.532
 1890SOL    HW1 6569   1.922   6.008   5.534
 1890SOL    HW2 6570   1.773   6.074   5.537
 1891SOL     OW 6571   5.282   3.515   4.131
 1891SOL    HW1 6572   5.243   3.479   4.047
 1891SOL    HW2 6573   5.222   3.587   4.167
 1892SOL     OW 6574   3.748   6.888   1.115
 1892SOL    HW1 6575   3.687   6.911   1.040
 1892SOL    HW2 6576   3.788   6.798   1.100
 1893SOL     OW 6577   3.359   1.885   5.622
 1893SOL    HW1 6578   3.289   1.942   5.580
 1893SOL    HW2 6579   3.345   1.789   5.597
 1894SOL     OW 6580   4.077   3.795   1.590
 1894SOL    HW1 6581   4.108   3.850   1.668
 1894SOL    HW2 6582   4.094   3.845   1.505
 1895SOL     OW 6583   5.683   0.979   2.853
 1895SOL    HW1 6584   5.660   1.069   2.890
 1895SOL    HW2 6585   5.670   0.979   2.754
 1896SOL     OW 6586   0.534   0.595   3.344
 1896SOL    HW1 6587   0.504   0.577   3.438
 1896SOL    HW2 6588   0.591   0.519   3.312
 1897SOL     OW 6589   6.999   4.982   2.801
 1897SOL    HW1 6590   6.975   5.077   2.780
 1897SOL    HW2 6591   6.916   4.932   2.827
 1898SOL     OW 6592   3.244   5.354   1.435
 1898SOL    HW1 6593   3.175   5.425   1.449
 1898SOL    HW2 6594   3.199   5.266   1.423
 1899SOL     OW 6595   1.124   2.701   2.873
 1899SOL    HW1 6596   1.123   2.606   2.840
 1899SOL    HW2 6597   1.050   2.714   2.939
 1900SOL     OW 6598   0.796   0.506   5.510
 1900SOL    HW1 6599   0.872   0.480   5.450
 1900SOL    HW2 6600   0.827   0.506   5.605
 1901SOL     OW 6601   2.152   1.668   1.675
 1901SOL    HW1 6602   2.097   1.751   1.688
 1901SOL    HW2 6603   2.091   1.590   1.663
 1902SOL     OW 6604   2.461   2.642   5.139
 1902SOL    HW1 6605   2.545   2.602   5.175
 1902SOL    HW2 6606   2.459   2.629   5.040
 1903SOL     OW 6607   6.999   4.120   3.475
 1903SOL    HW1 6608   6.965   4.214   3.471
 1903SOL    HW2 6609   6.969   4.077   3.560
 1904SOL     OW 6610   5.976   7.022   3.852
 1904SOL    HW1 6611   6.061   0.012   3.903
 1904SOL    HW2 6612   5.966   0.073   3.785
 1905SOL     OW 6613   1.098   1.923   4.133
 1905SOL    HW1 6614   1.113   1.827   4.157
 1905SOL    HW2 6615   1.096   1.978   4.216
 1906SOL     OW 6616   3.061   0.064   5.512
 1906SOL    HW1 6617   3.079   7.016   5.445
 1906SOL    HW2 6618   2.962   0.078   5.519
 1907SOL     OW 6619   3.070   6.621   3.146
 1907SOL    HW1 6620   3.000   6.681   3.185
 1907SOL    HW2 6621   3.075   6.537   3.199
 1908SOL     OW 6622   4.406   0.859   4.874
 1908SOL    HW1 6623   4.493   0.816   4.897
 1908SOL    HW2 6624   4.420   0.928   4.802
 1909SOL     OW 6625   1.358   3.551   3.089
 1909SOL    HW1 6626   1.367   3.459   3.125
 1909SOL    HW2 6627   1.322   3.611   3.160
 1910SOL     OW 6628   6.613   2.276   6.841
 1910SOL    HW1 6629   6.596   2.256   6.744
 1910SOL    HW2 6630   6.532   2.318   6.881
 1911SOL     OW 6631   6.061   2.183   5.675
 1911SOL    HW1 6632   6.027   2.229   5.593
 1911SOL    HW2 6633   6.011   2.098   5.689
 1912SOL     OW 6634   3.902   6.565   1.357
 1912SOL    HW1 6635   3.814   6.564   1.404
 1912SOL    HW2 6636   3.966   6.506   1.406
 1913SOL     OW 6637   2.007   6.199   5.470
 1913SOL    HW1 6638   2.095   6.179   5.427
 1913SOL    HW2 6639   1.944   6.235   5.401
 1914SOL     OW 6640   3.255   2.696   6.779
 1914SOL    HW1 6641   3.222   2.790   6.769
 1914SOL    HW2 6642   3.319   2.674   6.705
 1915SOL     OW 6643   4.116   1.291   5.255
 1915SOL    HW1 6644   4.143   1.300   5.159
 1915SOL    HW2 6645   4.193   1.257   5.308
 1916SOL     OW 6646   3.485   5.950   0.849
 1916SOL    HW1 6647   3.473   5.986   0.942
 1916SOL    HW2 6648   3.581   5.926   0.834
 1917SOL     OW 6649   3.844   2.965   4.593
 1917SOL    HW1 6650   3.765   2.947   4.652
 1917SOL    HW2 6651   3.896   2.881   4.579
 1918SOL     OW 6652   0.143   0.276   6.613
 1918SOL    HW1 6653   0.083   0.325   6.677
 1918SOL    HW2 6654   0.096   0.264   6.526
 1919SOL     OW 6655   2.294   6.388   1.513
 1919SOL    HW1 6656   2.394   6.394   1.513
 1919SOL    HW2 6657   2.256   6.472   1.475
 1920SOL     OW 6658   0.553   5.260   2.751
 1920SOL    HW1 6659   0.587   5.187   2.811
 1920SOL    HW2 6660   0.453   5.260   2.752
 1921SOL     OW 6661   1.184   4.341   0.056
 1921SOL    HW1 6662   1.260   4.279   0.078
 1921SOL    HW2 6663   1.196   4.378   6.987
 1922SOL     OW 6664   3.362   4.276   0.757
 1922SOL    HW1 6665   3.419   4.221   0.818
 1922SOL    HW2 6666   3.404   4.278   0.666
 1923SOL     OW 6667   3.293   0.846   6.132
 1923SOL    HW1 6668   3.296   0.862   6.231
 1923SOL    HW2 6669   3.366   0.897   6.088
 1924SOL     OW 6670   5.789   5.452   2.273
 1924SOL    HW1 6671   5.821   5.386   2.341
 1924SOL    HW2 6672   5.851   5.452   2.195
 1925SOL     OW 6673   3.042   3.675   2.200
 1925SOL    HW1 6674   3.001   3.710   2.285
 1925SOL    HW2 6675   2.984   3.602   2.164
 1926SOL     OW 6676   1.007   0.022   3.900
 1926SOL    HW1 6677   1.069   6.971   3.925
 1926SOL    HW2 6678   0.951   7.017   3.822
 1927SOL     OW 6679   3.384   5.125   6.038
 1927SOL    HW1 6680   3.477   5.115   6.073
 1927SOL    HW2 6681   3.344   5.034   6.026
 1928SOL     OW 6682   6.719   3.780   6.144
 1928SOL    HW1 6683   6.626   3.803   6.174
 1928SOL    HW2 6684   6.716   3.700   6.085
 1929SOL     OW 6685   1.062   5.916   0.905
 1929SOL    HW1 6686   1.024   5.824   0.910
 1929SOL    HW2 6687   1.136   5.925   0.972
 1930SOL     OW 6688   3.968   3.817   0.035
 1930SOL    HW1 6689   3.917   3.898   0.066
 1930SOL    HW2 6690   3.998   3.831   6.964
 1931SOL     OW 6691   6.975   2.394   3.407
 1931SOL    HW1 6692   6.960   2.447   3.323
 1931SOL    HW2 6693   6.937   2.445   3.485
 1932SOL     OW 6694   5.024   3.643   2.993
 1932SOL    HW1 6695   5.016   3.568   2.927
 1932SOL    HW2 6696   4.962   3.626   3.069
 1933SOL     OW 6697   2.851   4.417   0.671
 1933SOL    HW1 6698   2.939   4.411   0.624
 1933SOL    HW2 6699   2.778   4.420   0.602
 1934SOL     OW 6700   0.506   0.382   4.465
 1934SOL    HW1 6701   0.435   0.437   4.422
 1934SOL    HW2 6702   0.508   0.401   4.564
 1935SOL     OW 6703   3.560   0.490   4.760
 1935SOL    HW1 6704   3.564   0.542   4.846
 1935SOL    HW2 6705   3.635   0.424   4.757
 1936SOL     OW 6706   6.315   4.239   4.430
 1936SOL    HW1 6707   6.382   4.182   4.477
 1936SOL    HW2 6708   6.269   4.186   4.359
 1937SOL     OW 6709   4.972   6.960   0.718
 1937SOL    HW1 6710   4.949   6.979   0.814
 1937SOL    HW2 6711   5.061   7.001   0.696
 1938SOL     OW 6712   3.778   0.924   1.810
 1938SOL    HW1 6713   3.691   0.895   1.850
 1938SOL    HW2 6714   3.816   0.849   1.756
 1939SOL     OW 6715   0.840   7.014   4.716
 1939SOL    HW1 6716   0.814   0.075   4.670
 1939SOL    HW2 6717   0.925   6.979   4.677
 1940SOL     OW 6718   4.286   4.636   6.430
 1940SOL    HW1 6719   4.306   4.733   6.443
 1940SOL    HW2 6720   4.188   4.623   6.416
 1941SOL     OW 6721   0.121   3.909   3.116
 1941SOL    HW1 6722   0.180   3.866   3.184
 1941SOL    HW2 6723   0.034   3.859   3.112
 1942SOL     OW 6724   5.666   0.498   2.254
 1942SOL    HW1 6725   5.624   0.512   2.344
 1942SOL    HW2 6726   5.743   0.562   2.244
 1943SOL     OW 6727   2.677   6.014   2.270
 1943SOL    HW1 6728   2.745   6.084   2.247
 1943SOL    HW2 6729   2.707   5.926   2.234
 1944SOL     OW 6730   5.610   2.296   0.479
 1944SOL    HW1 6731   5.678   2.223   0.481
 1944SOL    HW2 6732   5.656   2.384   0.491
 1945SOL     OW 6733   3.802   5.716   2.584
 1945SOL    HW1 6734   3.772   5.810   2.571
 1945SOL    HW2 6735   3.728   5.654   2.559
 1946SOL     OW 6736   6.310   0.760   0.970
 1946SOL    HW1 6737   6.321   0.670   0.929
 1946SOL    HW2 6738   6.258   0.751   1.056
 1947SOL     OW 6739   4.689   6.549   4.303
 1947SOL    HW1 6740   4.687   6.484   4.227
 1947SOL    HW2 6741   4.759   6.520   4.369
 1948SOL     OW 6742   5.680   6.334   3.963
 1948SOL    HW1 6743   5.595   6.346   4.015
 1948SOL    HW2 6744   5.757   6.327   4.026
 1949SOL     OW 6745   4.007   4.617   6.379
 1949SOL    HW1 6746   3.987   4.555   6.303
 1949SOL    HW2 6747   3.936   4.608   6.449
 1950SOL     OW 6748   3.694   4.706   1.231
 1950SOL    HW1 6749   3.681   4.615   1.193
 1950SOL    HW2 6750   3.611   4.761   1.218
 1951SOL     OW 6751   5.845   4.071   0.358
 1951SOL    HW1 6752   5.755   4.114   0.360
 1951SOL    HW2 6753   5.902   4.116   0.288
 1952SOL     OW 6754   4.151   2.141   6.766
 1952SOL    HW1 6755   4.131   2.210   6.836
 1952SOL    HW2 6756   4.174   2.186   6.680
 1953SOL     OW 6757   5.971   3.207   6.943
 1953SOL    HW1 6758   5.954   3.113   6.971
 1953SOL    HW2 6759   6.024   3.254   7.014
 1954SOL     OW 6760   5.692   1.440   3.824
 1954SOL    HW1 6761   5.625   1.441   3.898
 1954SOL    HW2 6762   5.779   1.477   3.857
 1955SOL     OW 6763   1.665   0.734   2.663
 1955SOL    HW1 6764   1.595   0.729   2.592
 1955SOL    HW2 6765   1.725   0.813   2.645
 1956SOL     OW 6766   4.916   6.592   1.836
 1956SOL    HW1 6767   4.845   6.568   1.770
 1956SOL    HW2 6768   4.890   6.675   1.884
 1957SOL     OW 6769   6.308   5.884   4.934
 1957SOL    HW1 6770   6.337   5.807   4.877
 1957SOL    HW2 6771   6.313   5.859   5.030
 1958SOL     OW 6772   5.677   2.437   2.675
 1958SOL    HW1 6773   5.654   2.510   2.610
 1958SOL    HW2 6774   5.671   2.349   2.628
 1959SOL     OW 6775   0.734   1.323   5.272
 1959SOL    HW1 6776   0.665   1.374   5.220
 1959SOL    HW2 6777   0.692   1.282   5.353
 1960SOL     OW 6778   6.805   4.940   1.693
 1960SOL    HW1 6779   6.776   4.846   1.711
 1960SOL    HW2 6780   6.767   5.001   1.762
 1961SOL     OW 6781   5.669   4.694   4.263
 1961SOL    HW1 6782   5.723   4.649   4.334
 1961SOL    HW2 6783   5.603   4.756   4.306
 1962SOL     OW 6784   2.461   0.010   3.507
 1962SOL    HW1 6785   2.496   0.008   3.413
 1962SOL    HW2 6786   2.522   0.065   3.564
 1963SOL     OW 6787   0.905   1.289   1.919
 1963SOL    HW1 6788   0.934   1.215   1.858
 1963SOL    HW2 6789   0.891   1.253   2.011
 1964SOL     OW 6790   5.152   3.783   1.193
 1964SOL    HW1 6791   5.149   3.882   1.195
 1964SOL    HW2 6792   5.240   3.752   1.157
 1965SOL     OW 6793   1.022   3.627   4.631
 1965SOL    HW1 6794   1.075   3.681   4.566
 1965SOL    HW2 6795   0.941   3.589   4.585
 1966SOL     OW 6796   6.683   6.048   6.864
 1966SOL    HW1 6797   6.678   6.134   6.813
 1966SOL    HW2 6798   6.612   6.046   6.934
 1967SOL     OW 6799   4.637   2.345   4.594
 1967SOL    HW1 6800   4.582   2.283   4.649
 1967SOL    HW2 6801   4.580   2.422   4.564
 1968SOL     OW 6802   3.434   6.755   0.368
 1968SOL    HW1 6803   3.449   6.846   0.409
 1968SOL    HW2 6804   3.336   6.739   0.359
 1969SOL     OW 6805   0.759   1.509   1.902
 1969SOL    HW1 6806   0.823   1.433   1.888
 1969SOL    HW2 6807   0.767   1.573   1.826
 1970SOL     OW 6808   2.254   0.137   6.159
 1970SOL    HW1 6809   2.287   0.148   6.065
 1970SOL    HW2 6810   2.299   0.204   6.218
 1971SOL     OW 6811   0.190   6.907   5.980
 1971SOL    HW1 6812   0.238   6.941   5.899
 1971SOL    HW2 6813   0.120   6.840   5.952
 1972SOL     OW 6814   5.929   2.578   2.708
 1972SOL    HW1 6815   5.927   2.677   2.695
 1972SOL    HW2 6816   5.838   2.545   2.731
 1973SOL     OW 6817   2.535   2.751   0.542
 1973SOL    HW1 6818   2.519   2.840   0.585
 1973SOL    HW2 6819   2.573   2.765   0.451
 1974SOL     OW 6820   5.639   6.100   4.200
 1974SOL    HW1 6821   5.615   6.048   4.118
 1974SOL    HW2 6822   5.655   6.196   4.175
 1975SOL     OW 6823   2.169   1.714   3.704
 1975SOL    HW1 6824   2.257   1.722   3.657
 1975SOL    HW2 6825   2.183   1.672   3.794
 1976SOL     OW 6826   0.657   6.103   0.209
 1976SOL    HW1 6827   0.585   6.093   0.278
 1976SOL    HW2 6828   0.650   6.193   0.166
 1977SOL     OW 6829   0.602   3.474   4.057
 1977SOL    HW1 6830   0.684   3.510   4.101
 1977SOL    HW2 6831   0.537   3.446   4.128
 1978SOL     OW 6832   0.976   0.766   3.045
 1978SOL    HW1 6833   1.052   0.793   3.105
 1978SOL    HW2 6834   0.890   0.800   3.083
 1979SOL     OW 6835   5.944   4.570   5.729
 1979SOL    HW1 6836   5.943   4.667   5.703
 1979SOL    HW2 6837   6.007   4.520   5.669
 1980SOL     OW 6838   2.574   0.743   5.480
 1980SOL    HW1 6839   2.509   0.751   5.404
 1980SOL    HW2 6840   2.598   0.647   5.494
 1981SOL     OW 6841   6.446   2.211   2.582
 1981SOL    HW1 6842   6.440   2.310   2.589
 1981SOL    HW2 6843   6.364   2.170   2.622
 1982SOL     OW 6844   0.333   4.106   5.068
 1982SOL    HW1 6845   0.265   4.032   5.069
 1982SOL    HW2 6846   0.314   4.168   4.992
 1983SOL     OW 6847   0.913   1.261   2.640
 1983SOL    HW1 6848   0.827   1.306   2.615
 1983SOL    HW2 6849   0.979   1.330   2.671
 1984SOL     OW 6850   6.448   2.383   5.124
 1984SOL    HW1 6851   6.404   2.295   5.115
 1984SOL    HW2 6852   6.505   2.384   5.207
 1985SOL     OW 6853   1.486   6.352   2.688
 1985SOL    HW1 6854   1.490   6.258   2.654
 1985SOL    HW2 6855   1.576   6.379   2.722
 1986SOL     OW 6856   1.393   0.674   0.400
 1986SOL    HW1 6857   1.343   0.689   0.485
 1986SOL    HW2 6858   1.491   0.686   0.417
 1987SOL     OW 6859   1.592   2.686   1.829
 1987SOL    HW1 6860   1.508   2.651   1.790
 1987SOL    HW2 6861   1.578   2.705   1.926
 1988SOL     OW 6862   5.866   4.516   0.957
 1988SOL    HW1 6863   5.914   4.437   0.920
 1988SOL    HW2 6864   5.800   4.549   0.889
 1989SOL     OW 6865   2.628   6.735   4.301
 1989SOL    HW1 6866   2.574   6.726   4.385
 1989SOL    HW2 6867   2.567   6.747   4.223
 1990SOL     OW 6868   3.073   6.488   0.229
 1990SOL    HW1 6869   3.142   6.441   0.283
 1990SOL    HW2 6870   3.077   6.456   0.135
 1991SOL     OW 6871   4.229   4.228   6.236
 1991SOL    HW1 6872   4.151   4.287   6.217
 1991SOL    HW2 6873   4.297   4.279   6.288
 1992SOL     OW 6874   0.715   0.336   6.915
 1992SOL    HW1 6875   0.739   0.239   6.924
 1992SOL    HW2 6876   0.720   0.362   6.819
 1993SOL     OW 6877   3.960   3.195   4.683
 1993SOL    HW1 6878   3.900   3.127   4.641
 1993SOL    HW2 6879   3.975   3.172   4.779
 1994SOL     OW 6880   0.769   1.128   0.384
 1994SOL    HW1 6881   0.781   1.182   0.300
 1994SOL    HW2 6882   0.842   1.151   0.449
 1995SOL     OW 6883   5.433   2.635   2.939
 1995SOL    HW1 6884   5.462   2.561   2.878
 1995SOL    HW2 6885   5.350   2.608   2.988
 1996SOL     OW 6886   2.231   3.460   0.620
 1996SOL    HW1 6887   2.268   3.550   0.641
 1996SOL    HW2 6888   2.192   3.420   0.703
 1997SOL     OW 6889   4.063   1.037   4.899
 1997SOL    HW1 6890   4.058   0.945   4.940
 1997SOL    HW2 6891   4.110   1.032   4.811
 1998SOL     OW 6892   2.999   3.918   6.176
 1998SOL    HW1 6893   2.971   3.897   6.083
 1998SOL    HW2 6894   3.091   3.959   6.175
 1999SOL     OW 6895   3.345   6.444   1.455
 1999SOL    HW1 6896   3.391   6.504   1.520
 1999SOL    HW2 6897   3.246   6.455   1.464
 2000SOL     OW 6898   4.567   2.289   5.024
 2000SOL    HW1 6899   4.659   2.329   5.025
 2000SOL    HW2 6900   4.536   2.278   4.930
 2001SOL     OW 6901   2.923   1.178   1.456
 2001SOL    HW1 6902   2.855   1.192   1.384
 2001SOL    HW2 6903   2.969   1.091   1.441
 2002SOL     OW 6904   0.849   4.593   6.480
 2002SOL    HW1 6905   0.876   4.522   6.415
 2002SOL    HW2 6906   0.838   4.552   6.571
 2003SOL     OW 6907   6.017   6.359   3.282
 2003SOL    HW1 6908   6.088   6.407   3.232
 2003SOL    HW2 6909   5.981   6.284   3.226
 2004SOL     OW 6910   4.905   1.510   5.384
 2004SOL    HW1 6911   4.879   1.542   5.475
 2004SOL    HW2 6912   4.824   1.475   5.337
 2005SOL     OW 6913   1.040   4.967   6.970
 2005SOL    HW1 6914   0.953   4.948   6.926
 2005SOL    HW2 6915   1.070   4.887   7.022
 2006SOL     OW 6916   4.928   5.602   4.005
 2006SOL    HW1 6917   4.922   5.597   4.105
 2006SOL    HW2 6918   4.914   5.511   3.966
 2007SOL     OW 6919   4.440   5.086   1.024
 2007SOL    HW1 6920   4.359   5.141   1.047
 2007SOL    HW2 6921   4.411   4.994   0.998
 2008SOL     OW 6922   2.279   5.180   3.130
 2008SOL    HW1 6923   2.351   5.248   3.114
 2008SOL    HW2 6924   2.210   5.219   3.193
 2009SOL     OW 6925   6.006   0.401   2.541
 2009SOL    HW1 6926   6.047   0.430   2.454
 2009SOL    HW2 6927   5.965   0.310   2.530
 2010SOL     OW 6928   1.925   1.577   1.095
 2010SOL    HW1 6929   2.015   1.577   1.138
 2010SOL    HW2 6930   1.902   1.670   1.067
 2011SOL     OW 6931   6.723   1.347   4.646
 2011SOL    HW1 6932   6.728   1.288   4.565
 2011SOL    HW2 6933   6.631   1.386   4.652
 2012SOL     OW 6934   1.817   3.021   2.048
 2012SOL    HW1 6935   1.850   2.932   2.078
 2012SOL    HW2 6936   1.859   3.045   1.960
 2013SOL     OW 6937   6.421   2.078   3.400
 2013SOL    HW1 6938   6.385   2.047   3.488
 2013SOL    HW2 6939   6.347   2.118   3.346
 2014SOL     OW 6940   1.817   4.727   3.023
 2014SOL    HW1 6941   1.908   4.769   3.023
 2014SOL    HW2 6942   1.784   4.718   2.929
 2015SOL     OW 6943   1.616   1.471   0.344
 2015SOL    HW1 6944   1.574   1.408   0.280
 2015SOL    HW2 6945   1.546   1.531   0.384
 2016SOL     OW 6946   0.726   6.022   4.612
 2016SOL    HW1 6947   0.756   6.053   4.522
 2016SOL    HW2 6948   0.720   6.100   4.674
 2017SOL     OW 6949   2.836   0.077   4.712
 2017SOL    HW1 6950   2.819   7.007   4.679
 2017SOL    HW2 6951   2.905   0.121   4.654
 2018SOL     OW 6952   5.555   6.810   5.789
 2018SOL    HW1 6953   5.553   6.791   5.887
 2018SOL    HW2 6954   5.493   6.885   5.768
 2019SOL     OW 6955   5.445   2.429   1.609
 2019SOL    HW1 6956   5.469   2.399   1.517
 2019SOL    HW2 6957   5.406   2.521   1.605
 2020SOL     OW 6958   0.775   6.154   4.920
 2020SOL    HW1 6959   0.690   6.200   4.946
 2020SOL    HW2 6960   0.761   6.055   4.922
 2021SOL     OW 6961   1.937   5.493   3.214
 2021SOL    HW1 6962   1.871   5.506   3.287
 2021SOL    HW2 6963   1.962   5.581   3.175
 2022SOL     OW 6964   1.918   3.645   3.456
 2022SOL    HW1 6965   1.863   3.573   3.412
 2022SOL    HW2 6966   1.896   3.733   3.415
 2023SOL     OW 6967   6.271   0.828   6.179
 2023SOL    HW1 6968   6.230   0.742   6.209
 2023SOL    HW2 6969   6.336   0.811   6.105
 2024SOL     OW 6970   0.227   6.874   3.446
 2024SOL    HW1 6971   0.247   6.851   3.541
 2024SOL    HW2 6972   0.219   6.973   3.437
 2025SOL     OW 6973   2.803   2.311   2.999
 2025SOL    HW1 6974   2.794   2.246   3.074
 2025SOL    HW2 6975   2.748   2.392   3.018
 2026SOL     OW 6976   0.155   3.043   6.259
 2026SOL    HW1 6977   0.126   3.113   6.324
 2026SOL    HW2 6978   0.114   3.062   6.169
 2027SOL     OW 6979   0.740   0.379   0.489
 2027SOL    HW1 6980   0.818   0.424   0.445
 2027SOL    HW2 6981   0.697   0.316   0.426
 2028SOL     OW 6982   2.827   0.500   5.252
 2028SOL    HW1 6983   2.849   0.584   5.203
 2028SOL    HW2 6984   2.749   0.455   5.208
 2029SOL     OW 6985   6.500   0.474   1.679
 2029SOL    HW1 6986   6.598   0.490   1.693
 2029SOL    HW2 6987   6.471   0.515   1.593
 2030SOL     OW 6988   2.833   0.733   2.903
 2030SOL    HW1 6989   2.785   0.789   2.970
 2030SOL    HW2 6990   2.772   0.713   2.826
 2031SOL     OW 6991   6.434   6.150   1.951
 2031SOL    HW1 6992   6.500   6.082   1.921
 2031SOL    HW2 6993   6.476   6.241   1.948
 2032SOL     OW 6994   4.970   6.251   1.746
 2032SOL    HW1 6995   4.978   6.346   1.778
 2032SOL    HW2 6996   4.877   6.235   1.714
 2033SOL     OW 6997   3.797   4.033   6.636
 2033SOL    HW1 6998   3.758   3.943   6.617
 2033SOL    HW2 6999   3.892   4.022   6.664
 2034SOL     OW 7000   3.091   6.826   5.258
 2034SOL    HW1 7001   3.129   6.833   5.166
 2034SOL    HW2 7002   3.035   6.744   5.265
 2035SOL     OW 7003   6.970   0.502   2.155
 2035SOL    HW1 7004   6.930   0.593   2.147
 2035SOL    HW2 7005   6.919   0.438   2.099
 2036SOL     OW 7006   1.364   5.041   2.541
 2036SOL    HW1 7007   1.438   4.992   2.587
 2036SOL    HW2 7008   1.340   4.993   2.457
 2037SOL     OW 7009   6.735   3.152   5.452
 2037SOL    HW1 7010   6.735   3.195   5.361
 2037SOL    HW2 7011   6.796   3.202   5.513
 2038SOL     OW 7012   1.008   2.081   6.541
 2038SOL    HW1 7013   1.017   2.177   6.515
 2038SOL    HW2 7014   0.931   2.041   6.491
 2039SOL     OW 7015   1.320   5.794   3.220
 2039SOL    HW1 7016   1.243   5.779   3.158
 2039SOL    HW2 7017   1.292   5.853   3.295
 2040SOL     OW 7018   3.509   2.927   4.423
 2040SOL    HW1 7019   3.419   2.970   4.433
 2040SOL    HW2 7020   3.534   2.881   4.508
 2041SOL     OW 7021   0.635   6.093   5.304
 2041SOL    HW1 7022   0.594   6.037   5.232
 2041SOL    HW2 7023   0.635   6.042   5.390
 2042SOL     OW 7024   5.014   4.533   6.573
 2042SOL    HW1 7025   5.085   4.546   6.503
 2042SOL    HW2 7026   4.983   4.623   6.604
 2043SOL     OW 7027   6.180   3.536   3.569
 2043SOL    HW1 7028   6.209   3.578   3.655
 2043SOL    HW2 7029   6.158   3.608   3.503
 2044SOL     OW 7030   5.318   6.904   1.671
 2044SOL    HW1 7031   5.353   6.973   1.608
 2044SOL    HW2 7032   5.233   6.866   1.634
 2045SOL     OW 7033   3.426   4.889   3.858
 2045SOL    HW1 7034   3.526   4.878   3.862
 2045SOL    HW2 7035   3.398   4.960   3.922
 2046SOL     OW 7036   6.550   1.993   3.813
 2046SOL    HW1 7037   6.643   1.987   3.777
 2046SOL    HW2 7038   6.500   2.066   3.765
 2047SOL     OW 7039   6.033   2.571   6.942
 2047SOL    HW1 7040   6.128   2.556   6.969
 2047SOL    HW2 7041   5.972   2.521   7.004
 2048SOL     OW 7042   1.521   6.232   0.158
 2048SOL    HW1 7043   1.528   6.329   0.181
 2048SOL    HW2 7044   1.530   6.178   0.242
 2049SOL     OW 7045   5.489   1.905   6.058
 2049SOL    HW1 7046   5.546   1.828   6.029
 2049SOL    HW2 7047   5.548   1.979   6.092
 2050SOL     OW 7048   0.577   2.989   3.000
 2050SOL    HW1 7049   0.567   3.079   3.042
 2050SOL    HW2 7050   0.575   2.918   3.071
 2051SOL     OW 7051   1.343   5.690   0.944
 2051SOL    HW1 7052   1.354   5.790   0.942
 2051SOL    HW2 7053   1.366   5.652   0.854
 2052SOL     OW 7054   1.103   3.738   0.901
 2052SOL    HW1 7055   1.094   3.674   0.825
 2052SOL    HW2 7056   1.104   3.831   0.866
 2053SOL     OW 7057   6.162   6.485   4.688
 2053SOL    HW1 7058   6.157   6.572   4.737
 2053SOL    HW2 7059   6.070   6.452   4.668
 2054SOL     OW 7060   3.550   3.527   2.441
 2054SOL    HW1 7061   3.523   3.623   2.436
 2054SOL    HW2 7062   3.535   3.492   2.533
 2055SOL     OW 7063   5.829   3.604   3.439
 2055SOL    HW1 7064   5.779   3.671   3.494
 2055SOL    HW2 7065   5.881   3.651   3.368
 2056SOL     OW 7066   2.829   6.638   2.475
 2056SOL    HW1 7067   2.830   6.703   2.550
 2056SOL    HW2 7068   2.919   6.637   2.430
 2057SOL     OW 7069   5.370   3.735   5.093
 2057SOL    HW1 7070   5.393   3.743   5.190
 2057SOL    HW2 7071   5.369   3.638   5.067
 2058SOL     OW 7072   0.742   1.465   3.269
 2058SOL    HW1 7073   0.687   1.546   3.290
 2058SOL    HW2 7074   0.690   1.383   3.291
 2059SOL     OW 7075   2.200   6.026   6.455
 2059SOL    HW1 7076   2.158   5.952   6.402
 2059SOL    HW2 7077   2.282   6.059   6.408
 2060SOL     OW 7078   6.964   3.800   0.907
 2060SOL    HW1 7079   0.016   3.764   0.852
 2060SOL    HW2 7080   6.988   3.796   1.004
 2061SOL     OW 7081   7.012   1.580   3.625
 2061SOL    HW1 7082   0.038   1.601   3.709
 2061SOL    HW2 7083   6.926   1.532   3.647
 2062SOL     OW 7084   6.081   0.288   3.940
 2062SOL    HW1 7085   6.101   0.202   3.987
 2062SOL    HW2 7086   6.054   0.269   3.846
 2063SOL     OW 7087   2.145   6.768   6.058
 2063SOL    HW1 7088   2.116   6.680   6.097
 2063SOL    HW2 7089   2.117   6.842   6.119
 2064SOL     OW 7090   0.747   2.534   5.519
 2064SOL    HW1 7091   0.655   2.565   5.495
 2064SOL    HW2 7092   0.752   2.435   5.511
 2065SOL     OW 7093   6.929   2.837   5.114
 2065SOL    HW1 7094   6.841   2.842   5.163
 2065SOL    HW2 7095   6.931   2.753   5.059
 2066SOL     OW 7096   0.818   4.824   3.713
 2066SOL    HW1 7097   0.853   4.917   3.712
 2066SOL    HW2 7098   0.887   4.762   3.751
 2067SOL     OW 7099   6.422   5.451   1.203
 2067SOL    HW1 7100   6.493   5.397   1.157
 2067SOL    HW2 7101   6.432   5.442   1.302
 2068SOL     OW 7102   1.838   1.222   4.811
 2068SOL    HW1 7103   1.908   1.160   4.776
 2068SOL    HW2 7104   1.752   1.173   4.820
 2069SOL     OW 7105   0.533   2.776   3.172
 2069SOL    HW1 7106   0.599   2.760   3.245
 2069SOL    HW2 7107   0.447   2.731   3.193
 2070SOL     OW 7108   1.377   0.913   2.245
 2070SOL    HW1 7109   1.412   0.889   2.336
 2070SOL    HW2 7110   1.370   0.831   2.190
 2071SOL     OW 7111   6.620   6.237   5.836
 2071SOL    HW1 7112   6.601   6.335   5.824
 2071SOL    HW2 7113   6.564   6.201   5.910
 2072SOL     OW 7114   4.145   6.259   3.632
 2072SOL    HW1 7115   4.110   6.170   3.663
 2072SOL    HW2 7116   4.108   6.331   3.691
 2073SOL     OW 7117   4.001   0.286   4.373
 2073SOL    HW1 7118   3.934   0.244   4.434
 2073SOL    HW2 7119   4.066   0.217   4.342
 2074SOL     OW 7120   1.347   2.556   0.247
 2074SOL    HW1 7121   1.290   2.620   0.298
 2074SOL    HW2 7122   1.406   2.606   0.184
 2075SOL     OW 7123   5.858   3.046   1.944
 2075SOL    HW1 7124   5.873   3.048   1.845
 2075SOL    HW2 7125   5.944   3.027   1.990
 2076SOL     OW 7126   5.892   0.183   0.221
 2076SOL    HW1 7127   5.953   0.261   0.237
 2076SOL    HW2 7128   5.889   0.127   0.304
 2077SOL     OW 7129   5.255   2.921   2.731
 2077SOL    HW1 7130   5.337   2.884   2.774
 2077SOL    HW2 7131   5.183   2.931   2.800
 2078SOL     OW 7132   1.097   5.615   5.446
 2078SOL    HW1 7133   1.143   5.665   5.373
 2078SOL    HW2 7134   1.054   5.680   5.509
 2079SOL     OW 7135   5.374   1.941   3.813
 2079SOL    HW1 7136   5.318   1.884   3.753
 2079SOL    HW2 7137   5.330   2.031   3.823
 2080SOL     OW 7138   1.541   0.134   4.948
 2080SOL    HW1 7139   1.637   0.111   4.933
 2080SOL    HW2 7140   1.521   0.128   5.046
 2081SOL     OW 7141   1.596   5.417   4.523
 2081SOL    HW1 7142   1.564   5.386   4.433
 2081SOL    HW2 7143   1.681   5.469   4.513
 2082SOL     OW 7144   0.667   0.370   2.683
 2082SOL    HW1 7145   0.674   0.467   2.660
 2082SOL    HW2 7146   0.728   0.317   2.624
 2083SOL     OW 7147   6.473   5.427   6.209
 2083SOL    HW1 7148   6.512   5.394   6.295
 2083SOL    HW2 7149   6.538   5.409   6.135
 2084SOL     OW 7150   1.478   3.779   3.607
 2084SOL    HW1 7151   1.404   3.822   3.658
 2084SOL    HW2 7152   1.510   3.698   3.656
 2085SOL     OW 7153   4.388   0.563   6.757
 2085SOL    HW1 7154   4.426   0.609   6.677
 2085SOL    HW2 7155   4.288   0.574   6.758
 2086SOL     OW 7156   4.496   6.616   5.642
 2086SOL    HW1 7157   4.510   6.601   5.544
 2086SOL    HW2 7158   4.400   6.602   5.664
 2087SOL     OW 7159   5.190   0.206   0.870
 2087SOL    HW1 7160   5.146   0.296   0.876
 2087SOL    HW2 7161   5.202   0.181   0.774
 2088SOL     OW 7162   1.384   5.913   0.113
 2088SOL    HW1 7163   1.414   5.826   0.152
 2088SOL    HW2 7164   1.432   5.988   0.158
 2089SOL     OW 7165   5.439   2.088   6.536
 2089SOL    HW1 7166   5.406   2.001   6.500
 2089SOL    HW2 7167   5.376   2.121   6.607
 2090SOL     OW 7168   3.839   2.505   5.721
 2090SOL    HW1 7169   3.877   2.463   5.803
 2090SOL    HW2 7170   3.786   2.586   5.746
 2091SOL     OW 7171   0.024   5.330   0.150
 2091SOL    HW1 7172   6.968   5.379   0.115
 2091SOL    HW2 7173   0.084   5.305   0.074
 2092SOL     OW 7174   5.592   3.748   0.171
 2092SOL    HW1 7175   5.654   3.814   0.130
 2092SOL    HW2 7176   5.507   3.794   0.198
 2093SOL     OW 7177   2.494   2.282   1.255
 2093SOL    HW1 7178   2.516   2.374   1.289
 2093SOL    HW2 7179   2.457   2.227   1.329
 2094SOL     OW 7180   5.585   1.799   1.734
 2094SOL    HW1 7181   5.682   1.784   1.713
 2094SOL    HW2 7182   5.572   1.893   1.765
 2095SOL     OW 7183   5.876   0.041   5.222
 2095SOL    HW1 7184   5.838   0.067   5.311
 2095SOL    HW2 7185   5.831   0.093   5.150
 2096SOL     OW 7186   4.871   3.764   2.756
 2096SOL    HW1 7187   4.838   3.694   2.821
 2096SOL    HW2 7188   4.838   3.854   2.785
 2097SOL     OW 7189   2.958   3.694   6.683
 2097SOL    HW1 7190   2.959   3.771   6.747
 2097SOL    HW2 7191   3.025   3.711   6.610
 2098SOL     OW 7192   3.997   5.609   1.645
 2098SOL    HW1 7193   4.009   5.518   1.684
 2098SOL    HW2 7194   3.914   5.610   1.589
 2099SOL     OW 7195   3.162   2.708   6.028
 2099SOL    HW1 7196   3.123   2.615   6.026
 2099SOL    HW2 7197   3.249   2.706   6.076
 2100SOL     OW 7198   4.916   2.397   6.796
 2100SOL    HW1 7199   5.000   2.420   6.845
 2100SOL    HW2 7200   4.896   2.300   6.810
 2101SOL     OW 7201   1.207   6.462   1.882
 2101SOL    HW1 7202   1.286   6.401   1.893
 2101SOL    HW2 7203   1.133   6.432   1.942
 2102SOL     OW 7204   5.859   4.439   3.140
 2102SOL    HW1 7205   5.870   4.355   3.086
 2102SOL    HW2 7206   5.769   4.479   3.121
 2103SOL     OW 7207   4.353   4.052   5.826
 2103SOL    HW1 7208   4.389   3.959   5.835
 2103SOL    HW2 7209   4.280   4.066   5.894
 2104SOL     OW 7210   1.995   4.352   1.324
 2104SOL    HW1 7211   1.958   4.291   1.394
 2104SOL    HW2 7212   2.094   4.339   1.317
 2105SOL     OW 7213   5.298   6.076   5.230
 2105SOL    HW1 7214   5.361   6.111   5.298
 2105SOL    HW2 7215   5.345   6.066   5.142
 2106SOL     OW 7216   5.113   4.236   1.443
 2106SOL    HW1 7217   5.147   4.188   1.362
 2106SOL    HW2 7218   5.083   4.170   1.512
 2107SOL     OW 7219   4.706   2.909   5.630
 2107SOL    HW1 7220   4.753   2.976   5.688
 2107SOL    HW2 7221   4.742   2.818   5.647
 2108SOL     OW 7222   5.874   5.762   5.007
 2108SOL    HW1 7223   5.825   5.846   4.984
 2108SOL    HW2 7224   5.842   5.728   5.096
 2109SOL     OW 7225   4.165   6.073   2.324
 2109SOL    HW1 7226   4.071   6.038   2.321
 2109SOL    HW2 7227   4.165   6.166   2.361
 2110SOL     OW 7228   1.791   1.498   0.751
 2110SOL    HW1 7229   1.717   1.555   0.715
 2110SOL    HW2 7230   1.877   1.549   0.747
 2111SOL     OW 7231   1.727   2.745   6.525
 2111SOL    HW1 7232   1.627   2.742   6.515
 2111SOL    HW2 7233   1.750   2.744   6.622
 2112SOL     OW 7234   5.554   3.464   0.770
 2112SOL    HW1 7235   5.589   3.425   0.855
 2112SOL    HW2 7236   5.612   3.540   0.741
 2113SOL     OW 7237   2.480   2.114   5.122
 2113SOL    HW1 7238   2.573   2.149   5.137
 2113SOL    HW2 7239   2.478   2.063   5.036
 2114SOL     OW 7240   1.814   2.094   6.634
 2114SOL    HW1 7241   1.804   2.066   6.729
 2114SOL    HW2 7242   1.879   2.170   6.628
 2115SOL     OW 7243   2.130   3.713   3.059
 2115SOL    HW1 7244   2.180   3.711   3.146
 2115SOL    HW2 7245   2.160   3.637   3.001
 2116SOL     OW 7246   0.923   5.329   2.807
 2116SOL    HW1 7247   0.922   5.258   2.736
 2116SOL    HW2 7248   0.914   5.286   2.897
 2117SOL     OW 7249   6.928   5.118   1.518
 2117SOL    HW1 7250   6.880   5.049   1.573
 2117SOL    HW2 7251   7.002   5.158   1.573
 2118SOL     OW 7252   6.418   3.269   2.304
 2118SOL    HW1 7253   6.454   3.245   2.394
 2118SOL    HW2 7254   6.483   3.242   2.233
 2119SOL     OW 7255   1.591   0.235   1.091
 2119SOL    HW1 7256   1.681   0.222   1.051
 2119SOL    HW2 7257   1.595   0.220   1.189
 2120SOL     OW 7258   0.004   5.241   3.520
 2120SOL    HW1 7259   6.971   5.189   3.456
 2120SOL    HW2 7260   0.084   5.186   3.546
 2121SOL     OW 7261   1.195   4.255   5.716
 2121SOL    HW1 7262   1.271   4.244   5.653
 2121SOL    HW2 7263   1.161   4.165   5.744
 2122SOL     OW 7264   5.688   4.309   5.620
 2122SOL    HW1 7265   5.704   4.374   5.694
 2122SOL    HW2 7266   5.683   4.216   5.657
 2123SOL     OW 7267   6.900   5.974   2.304
 2123SOL    HW1 7268   6.946   5.908   2.363
 2123SOL    HW2 7269   6.813   5.935   2.272
 2124SOL     OW 7270   3.230   2.199   1.107
 2124SOL    HW1 7271   3.291   2.207   1.029
 2124SOL    HW2 7272   3.281   2.215   1.192
 2125SOL     OW 7273   2.252   0.400   2.241
 2125SOL    HW1 7274   2.172   0.385   2.184
 2125SOL    HW2 7275   2.241   0.485   2.292
 2126SOL     OW 7276   3.499   1.911   6.043
 2126SOL    HW1 7277   3.512   1.847   6.119
 2126SOL    HW2 7278   3.490   1.860   5.957
 2127SOL     OW 7279   0.590   3.100   5.224
 2127SOL    HW1 7280   0.540   3.156   5.290
 2127SOL    HW2 7281   0.681   3.078   5.262
 2128SOL     OW 7282   6.121   3.523   4.154
 2128SOL    HW1 7283   6.116   3.616   4.192
 2128SOL    HW2 7284   6.038   3.504   4.102
 2129SOL     OW 7285   4.400   3.197   5.449
 2129SOL    HW1 7286   4.344   3.117   5.469
 2129SOL    HW2 7287   4.391   3.263   5.524
 2130SOL     OW 7288   3.435   0.055   2.612
 2130SOL    HW1 7289   3.504   0.100   2.670
 2130SOL    HW2 7290   3.343   0.083   2.643
 2131SOL     OW 7291   4.963   1.270   0.511
 2131SOL    HW1 7292   4.987   1.197   0.448
 2131SOL    HW2 7293   5.045   1.323   0.533
 2132SOL     OW 7294   3.336   0.266   1.515
 2132SOL    HW1 7295   3.247   0.303   1.488
 2132SOL    HW2 7296   3.323   0.175   1.556
 2133SOL     OW 7297   3.329   2.767   0.267
 2133SOL    HW1 7298   3.348   2.831   0.193
 2133SOL    HW2 7299   3.329   2.816   0.354
 2134SOL     OW 7300   0.406   0.949   6.168
 2134SOL    HW1 7301   0.408   1.006   6.250
 2134SOL    HW2 7302   0.496   0.909   6.153
 2135SOL     OW 7303   1.424   3.623   5.377
 2135SOL    HW1 7304   1.430   3.553   5.306
 2135SOL    HW2 7305   1.455   3.710   5.341
 2136SOL     OW 7306   0.936   3.923   3.927
 2136SOL    HW1 7307   0.909   4.018   3.908
 2136SOL    HW2 7308   1.019   3.923   3.983
 2137SOL     OW 7309   2.351   5.464   4.643
 2137SOL    HW1 7310   2.346   5.400   4.721
 2137SOL    HW2 7311   2.375   5.555   4.677
 2138SOL     OW 7312   6.667   0.393   2.752
 2138SOL    HW1 7313   6.721   0.424   2.674
 2138SOL    HW2 7314   6.722   0.398   2.836
 2139SOL     OW 7315   3.641   0.684   3.234
 2139SOL    HW1 7316   3.594   0.729   3.310
 2139SOL    HW2 7317   3.703   0.749   3.190
 2140SOL     OW 7318   4.103   6.731   3.956
 2140SOL    HW1 7319   4.032   6.800   3.944
 2140SOL    HW2 7320   4.191   6.775   3.976
 2141SOL     OW 7321   6.194   3.810   2.605
 2141SOL    HW1 7322   6.275   3.768   2.645
 2141SOL    HW2 7323   6.114   3.752   2.623
 2142SOL     OW 7324   1.737   2.591   3.165
 2142SOL    HW1 7325   1.725   2.510   3.223
 2142SOL    HW2 7326   1.781   2.564   3.080
 2143SOL     OW 7327   2.652   4.403   1.301
 2143SOL    HW1 7328   2.603   4.444   1.378
 2143SOL    HW2 7329   2.713   4.471   1.261
 2144SOL     OW 7330   1.365   5.395   4.662
 2144SOL    HW1 7331   1.290   5.410   4.596
 2144SOL    HW2 7332   1.453   5.407   4.616
 2145SOL     OW 7333   4.443   6.323   4.207
 2145SOL    HW1 7334   4.441   6.227   4.179
 2145SOL    HW2 7335   4.527   6.365   4.174
 2146SOL     OW 7336   2.623   3.400   1.715
 2146SOL    HW1 7337   2.690   3.431   1.783
 2146SOL    HW2 7338   2.533   3.393   1.758
 2147SOL     OW 7339   6.308   1.509   6.184
 2147SOL    HW1 7340   6.275   1.447   6.257
 2147SOL    HW2 7341   6.250   1.498   6.103
 2148SOL     OW 7342   5.601   2.551   5.373
 2148SOL    HW1 7343   5.562   2.566   5.463
 2148SOL    HW2 7344   5.594   2.454   5.348
 2149SOL     OW 7345   3.776   2.489   1.282
 2149SOL    HW1 7346   3.807   2.442   1.365
 2149SOL    HW2 7347   3.698   2.548   1.304
 2150SOL     OW 7348   2.784   2.247   2.725
 2150SOL    HW1 7349   2.688   2.262   2.703
 2150SOL    HW2 7350   2.799   2.265   2.822
 2151SOL     OW 7351   1.434   7.009   4.745
 2151SOL    HW1 7352   1.465   0.010   4.837
 2151SOL    HW2 7353   1.480   0.044   4.678
 2152SOL     OW 7354   3.534   5.779   1.263
 2152SOL    HW1 7355   3.473   5.705   1.235
 2152SOL    HW2 7356   3.535   5.787   1.362
 2153SOL     OW 7357   3.630   0.716   2.827
 2153SOL    HW1 7358   3.533   0.730   2.848
 2153SOL    HW2 7359   3.686   0.754   2.901
 2154SOL     OW 7360   4.925   0.139   5.213
 2154SOL    HW1 7361   4.946   0.188   5.129
 2154SOL    HW2 7362   4.885   0.050   5.191
 2155SOL     OW 7363   2.613   5.626   0.109
 2155SOL    HW1 7364   2.529   5.677   0.092
 2155SOL    HW2 7365   2.616   5.546   0.049
 2156SOL     OW 7366   2.147   1.598   4.891
 2156SOL    HW1 7367   2.131   1.567   4.798
 2156SOL    HW2 7368   2.063   1.584   4.945
 2157SOL     OW 7369   6.260   0.752   3.706
 2157SOL    HW1 7370   6.297   0.813   3.637
 2157SOL    HW2 7371   6.179   0.793   3.747
 2158SOL     OW 7372   3.966   5.877   1.084
 2158SOL    HW1 7373   3.989   5.942   1.012
 2158SOL    HW2 7374   3.891   5.818   1.055
 2159SOL     OW 7375   1.553   6.418   4.984
 2159SOL    HW1 7376   1.592   6.468   4.907
 2159SOL    HW2 7377   1.582   6.323   4.981
 2160SOL     OW 7378   3.919   3.869   0.410
 2160SOL    HW1 7379   3.894   3.964   0.426
 2160SOL    HW2 7380   3.836   3.813   0.406
 2161SOL     OW 7381   5.239   5.352   2.973
 2161SOL    HW1 7382   5.327   5.391   3.000
 2161SOL    HW2 7383   5.252   5.295   2.892
 2162SOL     OW 7384   2.189   1.171   1.871
 2162SOL    HW1 7385   2.256   1.223   1.925
 2162SOL    HW2 7386   2.098   1.207   1.889
 2163SOL     OW 7387   0.926   4.762   6.219
 2163SOL    HW1 7388   0.990   4.704   6.169
 2163SOL    HW2 7389   0.931   4.740   6.317
 2164SOL     OW 7390   1.507   2.703   0.078
 2164SOL    HW1 7391   1.430   2.757   0.042
 2164SOL    HW2 7392   1.592   2.733   0.034
 2165SOL     OW 7393   0.838   1.952   2.741
 2165SOL    HW1 7394   0.890   1.988   2.818
 2165SOL    HW2 7395   0.894   1.958   2.658
 2166SOL     OW 7396   1.610   2.319   5.256
 2166SOL    HW1 7397   1.627   2.299   5.159
 2166SOL    HW2 7398   1.623   2.417   5.272
 2167SOL     OW 7399   1.930   1.477   4.053
 2167SOL    HW1 7400   1.897   1.561   4.096
 2167SOL    HW2 7401   1.889   1.467   3.963
 2168SOL     OW 7402   0.671   2.036   3.887
 2168SOL    HW1 7403   0.633   1.943   3.879
 2168SOL    HW2 7404   0.768   2.030   3.909
 2169SOL     OW 7405   5.487   1.194   6.763
 2169SOL    HW1 7406   5.452   1.221   6.853
 2169SOL    HW2 7407   5.470   1.266   6.697
 2170SOL     OW 7408   6.816   5.061   5.635
 2170SOL    HW1 7409   6.854   4.969   5.644
 2170SOL    HW2 7410   6.839   5.099   5.545
 2171SOL     OW 7411   0.306   4.689   1.550
 2171SOL    HW1 7412   0.373   4.640   1.606
 2171SOL    HW2 7413   0.327   4.787   1.552
 2172SOL     OW 7414   2.189   2.605   0.349
 2172SOL    HW1 7415   2.123   2.576   0.418
 2172SOL    HW2 7416   2.149   2.596   0.258
 2173SOL     OW 7417   3.816   0.769   5.578
 2173SOL    HW1 7418   3.739   0.756   5.516
 2173SOL    HW2 7419   3.897   0.794   5.526
 2174SOL     OW 7420   5.330   6.520   5.218
 2174SOL    HW1 7421   5.395   6.472   5.158
 2174SOL    HW2 7422   5.378   6.594   5.265
 2175SOL     OW 7423   2.290   2.940   4.495
 2175SOL    HW1 7424   2.296   2.925   4.594
 2175SOL    HW2 7425   2.201   2.980   4.473
 2176SOL     OW 7426   6.885   1.976   0.629
 2176SOL    HW1 7427   6.798   1.957   0.674
 2176SOL    HW2 7428   6.871   2.043   0.555
 2177SOL     OW 7429   6.078   1.925   3.387
 2177SOL    HW1 7430   6.104   1.846   3.332
 2177SOL    HW2 7431   5.994   1.905   3.436
 2178SOL     OW 7432   1.770   2.120   0.962
 2178SOL    HW1 7433   1.847   2.125   0.898
 2178SOL    HW2 7434   1.747   2.025   0.979
 2179SOL     OW 7435   2.164   5.067   5.051
 2179SOL    HW1 7436   2.103   4.988   5.057
 2179SOL    HW2 7437   2.151   5.112   4.963
 2180SOL     OW 7438   1.859   2.773   2.127
 2180SOL    HW1 7439   1.819   2.706   2.064
 2180SOL    HW2 7440   1.958   2.769   2.120
 2181SOL     OW 7441   4.180   5.052   4.724
 2181SOL    HW1 7442   4.122   5.007   4.657
 2181SOL    HW2 7443   4.123   5.093   4.796
 2182SOL     OW 7444   1.061   3.619   4.218
 2182SOL    HW1 7445   1.050   3.652   4.124
 2182SOL    HW2 7446   1.092   3.524   4.216
 2183SOL     OW 7447   2.696   3.961   6.079
 2183SOL    HW1 7448   2.696   3.965   5.979
 2183SOL    HW2 7449   2.728   4.049   6.115
 2184SOL     OW 7450   4.620   1.911   6.863
 2184SOL    HW1 7451   4.599   1.880   6.956
 2184SOL    HW2 7452   4.651   1.833   6.808
 2185SOL     OW 7453   1.089   1.807   0.946
 2185SOL    HW1 7454   1.013   1.794   0.882
 2185SOL    HW2 7455   1.108   1.721   0.993
 2186SOL     OW 7456   0.398   5.811   1.699
 2186SOL    HW1 7457   0.489   5.771   1.685
 2186SOL    HW2 7458   0.402   5.879   1.772
 2187SOL     OW 7459   6.833   0.459   2.982
 2187SOL    HW1 7460   6.926   0.495   2.972
 2187SOL    HW2 7461   6.772   0.531   3.012
 2188SOL     OW 7462   6.820   6.716   5.201
 2188SOL    HW1 7463   6.872   6.790   5.242
 2188SOL    HW2 7464   6.857   6.695   5.110
 2189SOL     OW 7465   1.795   0.199   0.742
 2189SOL    HW1 7466   1.706   0.244   0.734
 2189SOL    HW2 7467   1.793   0.134   0.818
 2190SOL     OW 7468   0.198   2.876   1.844
 2190SOL    HW1 7469   0.107   2.911   1.866
 2190SOL    HW2 7470   0.210   2.786   1.887
 2191SOL     OW 7471   3.089   2.007   6.704
 2191SOL    HW1 7472   3.102   2.046   6.612
 2191SOL    HW2 7473   3.159   1.938   6.721
 2192SOL     OW 7474   4.201   0.877   2.362
 2192SOL    HW1 7475   4.124   0.814   2.364
 2192SOL    HW2 7476   4.203   0.930   2.447
 2193SOL     OW 7477   6.133   6.276   6.477
 2193SOL    HW1 7478   6.165   6.336   6.551
 2193SOL    HW2 7479   6.165   6.183   6.494
 2194SOL     OW 7480   2.476   4.325   5.609
 2194SOL    HW1 7481   2.447   4.244   5.558
 2194SOL    HW2 7482   2.398   4.364   5.657
 2195SOL     OW 7483   0.319   0.631   4.243
 2195SOL    HW1 7484   0.238   0.578   4.266
 2195SOL    HW2 7485   0.311   0.723   4.280
 2196SOL     OW 7486   3.261   0.126   5.118
 2196SOL    HW1 7487   3.323   0.205   5.119
 2196SOL    HW2 7488   3.306   0.049   5.072
 2197SOL     OW 7489   3.210   3.536   0.934
 2197SOL    HW1 7490   3.127   3.494   0.897
 2197SOL    HW2 7491   3.202   3.544   1.034
 2198SOL     OW 7492   5.811   1.654   0.417
 2198SOL    HW1 7493   5.744   1.591   0.377
 2198SOL    HW2 7494   5.770   1.745   0.426
 2199SOL     OW 7495   5.386   1.288   3.120
 2199SOL    HW1 7496   5.414   1.333   3.205
 2199SOL    HW2 7497   5.374   1.190   3.136
 2200SOL     OW 7498   2.444   0.721   5.226
 2200SOL    HW1 7499   2.367   0.677   5.178
 2200SOL    HW2 7500   2.505   0.763   5.159
 2201SOL     OW 7501   6.716   2.771   3.472
 2201SOL    HW1 7502   6.693   2.707   3.398
 2201SOL    HW2 7503   6.702   2.865   3.440
 2202SOL     OW 7504   2.575   5.167   1.984
 2202SOL    HW1 7505   2.601   5.096   1.918
 2202SOL    HW2 7506   2.655   5.195   2.036
 2203SOL     OW 7507   1.728   2.389   1.395
 2203SOL    HW1 7508   1.673   2.327   1.338
 2203SOL    HW2 7509   1.811   2.342   1.425
 2204SOL     OW 7510   3.938   1.059   0.751
 2204SOL    HW1 7511   3.912   1.022   0.839
 2204SOL    HW2 7512   3.899   1.150   0.740
 2205SOL     OW 7513   0.974   0.296   6.266
 2205SOL    HW1 7514   0.912   0.302   6.188
 2205SOL    HW2 7515   1.053   0.239   6.242
 2206SOL     OW 7516   3.159   4.452   5.959
 2206SOL    HW1 7517   3.120   4.488   5.874
 2206SOL    HW2 7518   3.244   4.501   5.980
 2207SOL     OW 7519   3.257   4.253   6.433
 2207SOL    HW1 7520   3.194   4.329   6.449
 2207SOL    HW2 7521   3.346   4.287   6.404
 2208SOL     OW 7522   1.555   6.409   3.011
 2208SOL    HW1 7523   1.590   6.447   2.925
 2208SOL    HW2 7524   1.548   6.310   3.002
 2209SOL     OW 7525   1.605   6.328   5.543
 2209SOL    HW1 7526   1.530   6.354   5.483
 2209SOL    HW2 7527   1.576   6.338   5.639
 2210SOL     OW 7528   6.253   4.740   3.664
 2210SOL    HW1 7529   6.162   4.781   3.651
 2210SOL    HW2 7530   6.298   4.728   3.576
 2211SOL     OW 7531   5.628   0.917   0.260
 2211SOL    HW1 7532   5.547   0.911   0.317
 2211SOL    HW2 7533   5.681   0.832   0.267
 2212SOL     OW 7534   1.579   6.103   6.732
 2212SOL    HW1 7535   1.623   6.094   6.821
 2212SOL    HW2 7536   1.612   6.185   6.686
 2213SOL     OW 7537   3.580   2.593   5.309
 2213SOL    HW1 7538   3.624   2.682   5.301
 2213SOL    HW2 7539   3.481   2.605   5.315
 2214SOL     OW 7540   3.446   2.856   5.048
 2214SOL    HW1 7541   3.528   2.828   5.097
 2214SOL    HW2 7542   3.367   2.809   5.086
 2215SOL     OW 7543   6.061   1.506   0.457
 2215SOL    HW1 7544   6.003   1.425   0.448
 2215SOL    HW2 7545   6.003   1.588   0.457
 2216SOL     OW 7546   1.792   0.446   5.952
 2216SOL    HW1 7547   1.826   0.357   5.981
 2216SOL    HW2 7548   1.711   0.434   5.894
 2217SOL     OW 7549   4.053   6.793   1.211
 2217SOL    HW1 7550   4.049   6.892   1.224
 2217SOL    HW2 7551   3.997   6.748   1.280
 2218SOL     OW 7552   0.398   6.480   6.632
 2218SOL    HW1 7553   0.426   6.435   6.547
 2218SOL    HW2 7554   0.300   6.498   6.630
 2219SOL     OW 7555   5.353   1.659   1.745
 2219SOL    HW1 7556   5.439   1.709   1.742
 2219SOL    HW2 7557   5.335   1.619   1.655
 2220SOL     OW 7558   1.163   0.337   4.430
 2220SOL    HW1 7559   1.251   0.325   4.476
 2220SOL    HW2 7560   1.170   0.309   4.335
 2221SOL     OW 7561   5.653   1.067   5.284
 2221SOL    HW1 7562   5.727   1.015   5.328
 2221SOL    HW2 7563   5.691   1.151   5.244
 2222SOL     OW 7564   4.843   0.391   0.702
 2222SOL    HW1 7565   4.871   0.486   0.714
 2222SOL    HW2 7566   4.834   0.370   0.605
 2223SOL     OW 7567   5.921   1.495   4.747
 2223SOL    HW1 7568   5.862   1.503   4.667
 2223SOL    HW2 7569   5.965   1.583   4.764
 2224SOL     OW 7570   1.607   3.809   0.715
 2224SOL    HW1 7571   1.581   3.848   0.803
 2224SOL    HW2 7572   1.658   3.877   0.662
 2225SOL     OW 7573   6.482   6.480   3.155
 2225SOL    HW1 7574   6.499   6.523   3.244
 2225SOL    HW2 7575   6.395   6.431   3.158
 2226SOL     OW 7576   3.787   4.528   0.852
 2226SOL    HW1 7577   3.785   4.553   0.949
 2226SOL    HW2 7578   3.819   4.434   0.842
 2227SOL     OW 7579   5.552   3.225   0.623
 2227SOL    HW1 7580   5.577   3.314   0.661
 2227SOL    HW2 7581   5.519   3.237   0.529
 2228SOL     OW 7582   2.648   4.949   0.853
 2228SOL    HW1 7583   2.587   4.871   0.840
 2228SOL    HW2 7584   2.614   5.007   0.927
 2229SOL     OW 7585   4.292   1.524   3.900
 2229SOL    HW1 7586   4.277   1.615   3.861
 2229SOL    HW2 7587   4.252   1.520   3.992
 2230SOL     OW 7588   5.714   5.931   6.583
 2230SOL    HW1 7589   5.708   5.898   6.677
 2230SOL    HW2 7590   5.630   5.981   6.560
 2231SOL     OW 7591   0.523   0.405   2.273
 2231SOL    HW1 7592   0.508   0.426   2.177
 2231SOL    HW2 7593   0.458   0.336   2.303
 2232SOL     OW 7594   0.364   3.776   4.899
 2232SOL    HW1 7595   0.295   3.717   4.856
 2232SOL    HW2 7596   0.453   3.759   4.858
 2233SOL     OW 7597   2.470   3.728   0.897
 2233SOL    HW1 7598   2.477   3.826   0.918
 2233SOL    HW2 7599   2.393   3.713   0.835
 2234SOL     OW 7600   3.891   1.725   1.774
 2234SOL    HW1 7601   3.794   1.701   1.771
 2234SOL    HW2 7602   3.919   1.741   1.868
 2235SOL     OW 7603   2.813   0.039   1.583
 2235SOL    HW1 7604   2.739   0.007   1.642
 2235SOL    HW2 7605   2.887   0.076   1.640
 2236SOL     OW 7606   1.089   4.715   6.517
 2236SOL    HW1 7607   1.088   4.749   6.611
 2236SOL    HW2 7608   1.002   4.669   6.497
 2237SOL     OW 7609   6.044   4.805   4.419
 2237SOL    HW1 7610   6.064   4.734   4.350
 2237SOL    HW2 7611   6.130   4.849   4.447
 2238SOL     OW 7612   5.510   4.344   0.723
 2238SOL    HW1 7613   5.588   4.310   0.671
 2238SOL    HW2 7614   5.527   4.330   0.821
 2239SOL     OW 7615   3.755   4.942   3.186
 2239SOL    HW1 7616   3.686   4.913   3.120
 2239SOL    HW2 7617   3.780   5.037   3.168
 2240SOL     OW 7618   5.015   5.901   3.632
 2240SOL    HW1 7619   5.070   5.843   3.572
 2240SOL    HW2 7620   5.049   5.995   3.629
 2241SOL     OW 7621   0.277   6.637   2.824
 2241SOL    HW1 7622   0.283   6.564   2.755
 2241SOL    HW2 7623   0.256   6.597   2.913
 2242SOL     OW 7624   5.251   1.999   2.921
 2242SOL    HW1 7625   5.308   1.920   2.945
 2242SOL    HW2 7626   5.155   1.971   2.914
 2243SOL     OW 7627   2.774   6.401   5.866
 2243SOL    HW1 7628   2.847   6.335   5.883
 2243SOL    HW2 7629   2.802   6.491   5.897
 2244SOL     OW 7630   2.468   6.427   1.845
 2244SOL    HW1 7631   2.537   6.389   1.907
 2244SOL    HW2 7632   2.378   6.418   1.887
 2245SOL     OW 7633   0.269   1.911   1.686
 2245SOL    HW1 7634   0.344   1.973   1.662
 2245SOL    HW2 7635   0.253   1.914   1.784
 2246SOL     OW 7636   0.640   2.112   5.292
 2246SOL    HW1 7637   0.727   2.066   5.310
 2246SOL    HW2 7638   0.657   2.200   5.247
 2247SOL     OW 7639   3.278   3.264   4.527
 2247SOL    HW1 7640   3.229   3.177   4.528
 2247SOL    HW2 7641   3.267   3.310   4.615
 2248SOL     OW 7642   4.537   4.278   5.884
 2248SOL    HW1 7643   4.458   4.224   5.854
 2248SOL    HW2 7644   4.507   4.368   5.913
 2249SOL     OW 7645   6.249   6.095   3.003
 2249SOL    HW1 7646   6.271   6.179   2.952
 2249SOL    HW2 7647   6.275   6.016   2.948
 2250SOL     OW 7648   4.073   3.471   6.583
 2250SOL    HW1 7649   4.072   3.473   6.683
 2250SOL    HW2 7650   4.148   3.414   6.551
 2251SOL     OW 7651   5.035   0.900   0.071
 2251SOL    HW1 7652   5.031   0.803   0.049
 2251SOL    HW2 7653   4.944   0.941   0.059
 2252SOL     OW 7654   5.240   2.773   2.513
 2252SOL    HW1 7655   5.158   2.789   2.459
 2252SOL    HW2 7656   5.230   2.812   2.604
 2253SOL     OW 7657   1.076   3.267   6.680
 2253SOL    HW1 7658   1.045   3.287   6.586
 2253SOL    HW2 7659   1.081   3.352   6.732
 2254SOL     OW 7660   3.747   3.099   4.954
 2254SOL    HW1 7661   3.661   3.121   4.908
 2254SOL    HW2 7662   3.799   3.184   4.968
 2255SOL     OW 7663   4.858   2.681   6.812
 2255SOL    HW1 7664   4.926   2.743   6.774
 2255SOL    HW2 7665   4.893   2.587   6.810
 2256SOL     OW 7666   5.058   5.862   1.409
 2256SOL    HW1 7667   5.046   5.847   1.311
 2256SOL    HW2 7668   5.150   5.897   1.426
 2257SOL     OW 7669   0.246   2.297   3.720
 2257SOL    HW1 7670   0.337   2.263   3.698
 2257SOL    HW2 7671   0.191   2.224   3.760
 2258SOL     OW 7672   1.241   5.413   5.528
 2258SOL    HW1 7673   1.173   5.483   5.506
 2258SOL    HW2 7674   1.333   5.451   5.517
 2259SOL     OW 7675   5.522   3.325   0.042
 2259SOL    HW1 7676   5.423   3.309   0.054
 2259SOL    HW2 7677   5.539   3.363   6.975
 2260SOL     OW 7678   6.076   4.589   2.445
 2260SOL    HW1 7679   6.066   4.491   2.459
 2260SOL    HW2 7680   5.986   4.631   2.437
 2261SOL     OW 7681   6.808   5.831   6.739
 2261SOL    HW1 7682   6.785   5.836   6.642
 2261SOL    HW2 7683   6.755   5.899   6.789
 2262SOL     OW 7684   5.335   1.754   2.022
 2262SOL    HW1 7685   5.316   1.747   1.925
 2262SOL    HW2 7686   5.265   1.705   2.074
 2263SOL     OW 7687   3.216   5.707   6.785
 2263SOL    HW1 7688   3.167   5.793   6.772
 2263SOL    HW2 7689   3.270   5.711   6.870
 2264SOL     OW 7690   3.567   3.612   0.616
 2264SOL    HW1 7691   3.661   3.579   0.626
 2264SOL    HW2 7692   3.504   3.534   0.616
 2265SOL     OW 7693   0.551   1.170   4.496
 2265SOL    HW1 7694   0.604   1.201   4.575
 2265SOL    HW2 7695   0.606   1.105   4.444
 2266SOL     OW 7696   5.785   1.991   1.088
 2266SOL    HW1 7697   5.768   2.061   1.019
 2266SOL    HW2 7698   5.804   1.903   1.043
 2267SOL     OW 7699   4.854   2.611   4.473
 2267SOL    HW1 7700   4.806   2.667   4.540
 2267SOL    HW2 7701   4.794   2.593   4.395
 2268SOL     OW 7702   6.624   3.774   6.560
 2268SOL    HW1 7703   6.556   3.815   6.499
 2268SOL    HW2 7704   6.707   3.753   6.508
 2269SOL     OW 7705   6.037   5.754   4.767
 2269SOL    HW1 7706   5.990   5.738   4.854
 2269SOL    HW2 7707   6.030   5.850   4.743
 2270SOL     OW 7708   3.441   2.138   6.193
 2270SOL    HW1 7709   3.381   2.217   6.184
 2270SOL    HW2 7710   3.417   2.069   6.125
 2271SOL     OW 7711   6.078   4.228   0.318
 2271SOL    HW1 7712   6.033   4.303   0.268
 2271SOL    HW2 7713   6.177   4.235   0.305
 2272SOL     OW 7714   6.298   2.108   6.206
 2272SOL    HW1 7715   6.273   2.100   6.110
 2272SOL    HW2 7716   6.301   2.205   6.231
 2273SOL     OW 7717   1.965   0.018   2.447
 2273SOL    HW1 7718   1.976   0.117   2.443
 2273SOL    HW2 7719   1.944   7.013   2.540
 2274SOL     OW 7720   0.213   3.051   6.616
 2274SOL    HW1 7721   0.121   3.037   6.577
 2274SOL    HW2 7722   0.221   2.998   6.700
 2275SOL     OW 7723   6.138   0.758   4.015
 2275SOL    HW1 7724   6.106   0.837   3.963
 2275SOL    HW2 7725   6.156   0.682   3.952
 2276SOL     OW 7726   2.378   5.365   0.929
 2276SOL    HW1 7727   2.418   5.321   0.849
 2276SOL    HW2 7728   2.341   5.296   0.991
 2277SOL     OW 7729   4.190   3.419   5.140
 2277SOL    HW1 7730   4.280   3.375   5.145
 2277SOL    HW2 7731   4.200   3.514   5.112
 2278SOL     OW 7732   6.501   4.954   3.782
 2278SOL    HW1 7733   6.483   4.908   3.696
 2278SOL    HW2 7734   6.425   5.016   3.804
 2279SOL     OW 7735   4.956   6.094   4.957
 2279SOL    HW1 7736   4.885   6.164   4.962
 2279SOL    HW2 7737   4.920   6.007   4.992
 2280SOL     OW 7738   0.124   6.378   4.164
 2280SOL    HW1 7739   0.132   6.407   4.069
 2280SOL    HW2 7740   0.048   6.426   4.208
 2281SOL     OW 7741   2.988   1.348   1.663
 2281SOL    HW1 7742   3.050   1.411   1.616
 2281SOL    HW2 7743   2.948   1.284   1.597
 2282SOL     OW 7744   4.703   6.711   4.982
 2282SOL    HW1 7745   4.694   6.696   4.883
 2282SOL    HW2 7746   4.627   6.669   5.030
 2283SOL     OW 7747   0.210   4.480   2.049
 2283SOL    HW1 7748   0.186   4.421   1.972
 2283SOL    HW2 7749   0.139   4.549   2.063
 2284SOL     OW 7750   1.804   2.108   0.341
 2284SOL    HW1 7751   1.772   2.202   0.327
 2284SOL    HW2 7752   1.852   2.101   0.428
 2285SOL     OW 7753   2.036   2.147   0.809
 2285SOL    HW1 7754   2.045   2.215   0.881
 2285SOL    HW2 7755   2.111   2.081   0.815
 2286SOL     OW 7756   6.750   0.838   4.190
 2286SOL    HW1 7757   6.757   0.938   4.190
 2286SOL    HW2 7758   6.751   0.804   4.096
 2287SOL     OW 7759   1.719   1.322   3.557
 2287SOL    HW1 7760   1.773   1.269   3.492
 2287SOL    HW2 7761   1.628   1.337   3.519
 2288SOL     OW 7762   6.489   5.491   4.501
 2288SOL    HW1 7763   6.554   5.437   4.448
 2288SOL    HW2 7764   6.405   5.438   4.514
 2289SOL     OW 7765   0.089   4.537   2.823
 2289SOL    HW1 7766   0.125   4.630   2.833
 2289SOL    HW2 7767   0.109   4.503   2.731
 2290SOL     OW 7768   1.289   3.982   2.056
 2290SOL    HW1 7769   1.316   4.019   1.967
 2290SOL    HW2 7770   1.272   3.884   2.047
 2291SOL     OW 7771   2.306   2.451   6.352
 2291SOL    HW1 7772   2.331   2.371   6.406
 2291SOL    HW2 7773   2.206   2.461   6.352
 2292SOL     OW 7774   5.716   2.707   4.166
 2292SOL    HW1 7775   5.704   2.733   4.071
 2292SOL    HW2 7776   5.747   2.612   4.171
 2293SOL     OW 7777   5.130   6.877   1.167
 2293SOL    HW1 7778   5.087   6.890   1.256
 2293SOL    HW2 7779   5.203   6.944   1.155
 2294SOL     OW 7780   3.375   0.881   6.404
 2294SOL    HW1 7781   3.406   0.804   6.460
 2294SOL    HW2 7782   3.449   0.946   6.392
 2295SOL     OW 7783   0.510   1.215   2.672
 2295SOL    HW1 7784   0.571   1.272   2.618
 2295SOL    HW2 7785   0.514   1.244   2.768
 2296SOL     OW 7786   3.662   5.582   1.960
 2296SOL    HW1 7787   3.669   5.644   1.881
 2296SOL    HW2 7788   3.658   5.635   2.044
 2297SOL     OW 7789   4.698   4.556   5.468
 2297SOL    HW1 7790   4.766   4.563   5.395
 2297SOL    HW2 7791   4.613   4.519   5.431
 2298SOL     OW 7792   4.448   3.464   1.724
 2298SOL    HW1 7793   4.547   3.482   1.728
 2298SOL    HW2 7794   4.432   3.366   1.724
 2299SOL     OW 7795   4.832   4.923   4.909
 2299SOL    HW1 7796   4.759   4.857   4.894
 2299SOL    HW2 7797   4.869   4.952   4.820
 2300SOL     OW 7798   2.311   5.866   1.960
 2300SOL    HW1 7799   2.214   5.844   1.966
 2300SOL    HW2 7800   2.326   5.960   1.992
 2301SOL     OW 7801   3.532   2.837   3.004
 2301SOL    HW1 7802   3.532   2.831   2.904
 2301SOL    HW2 7803   3.597   2.907   3.033
 2302SOL     OW 7804   3.262   6.927   1.103
 2302SOL    HW1 7805   3.242   7.015   1.145
 2302SOL    HW2 7806   3.354   6.930   1.063
 2303SOL     OW 7807   2.179   3.290   6.712
 2303SOL    HW1 7808   2.131   3.335   6.637
 2303SOL    HW2 7809   2.154   3.193   6.715
 2304SOL     OW 7810   5.317   6.875   4.263
 2304SOL    HW1 7811   5.356   6.783   4.261
 2304SOL    HW2 7812   5.259   6.888   4.183
 2305SOL     OW 7813   2.794   6.873   2.647
 2305SOL    HW1 7814   2.716   6.810   2.642
 2305SOL    HW2 7815   2.783   6.944   2.578
 2306SOL     OW 7816   2.035   4.998   1.583
 2306SOL    HW1 7817   2.027   4.901   1.560
 2306SOL    HW2 7818   1.996   5.014   1.674
 2307SOL     OW 7819   6.616   3.519   4.103
 2307SOL    HW1 7820   6.651   3.445   4.046
 2307SOL    HW2 7821   6.516   3.523   4.095
 2308SOL     OW 7822   1.618   4.732   1.741
 2308SOL    HW1 7823   1.598   4.714   1.837
 2308SOL    HW2 7824   1.712   4.703   1.721
 2309SOL     OW 7825   1.393   0.833   6.084
 2309SOL    HW1 7826   1.389   0.917   6.030
 2309SOL    HW2 7827   1.319   0.772   6.056
 2310SOL     OW 7828   5.559   5.855   0.470
 2310SOL    HW1 7829   5.461   5.836   0.466
 2310SOL    HW2 7830   5.600   5.800   0.542
 2311SOL     OW 7831   2.175   6.977   1.512
 2311SOL    HW1 7832   2.242   0.018   1.476
 2311SOL    HW2 7833   2.207   6.943   1.601
 2312SOL     OW 7834   4.100   5.992   2.638
 2312SOL    HW1 7835   4.088   5.938   2.721
 2312SOL    HW2 7836   4.019   5.983   2.580
 2313SOL     OW 7837   5.872   5.740   1.370
 2313SOL    HW1 7838   5.915   5.770   1.456
 2313SOL    HW2 7839   5.943   5.727   1.301
 2314SOL     OW 7840   5.315   6.559   3.553
 2314SOL    HW1 7841   5.326   6.619   3.633
 2314SOL    HW2 7842   5.393   6.571   3.492
 2315SOL     OW 7843   5.401   3.505   6.016
 2315SOL    HW1 7844   5.367   3.417   5.981
 2315SOL    HW2 7845   5.353   3.528   6.100
 2316SOL     OW 7846   3.880   1.122   3.584
 2316SOL    HW1 7847   3.941   1.200   3.600
 2316SOL    HW2 7848   3.833   1.134   3.497
 2317SOL     OW 7849   0.748   6.700   2.944
 2317SOL    HW1 7850   0.770   6.767   2.873
 2317SOL    HW2 7851   0.649   6.693   2.953
 2318SOL     OW 7852   1.655   2.799   3.917
 2318SOL    HW1 7853   1.574   2.857   3.909
 2318SOL    HW2 7854   1.696   2.809   4.007
 2319SOL     OW 7855   1.960   4.887   3.695
 2319SOL    HW1 7856   2.029   4.822   3.725
 2319SOL    HW2 7857   1.875   4.870   3.745
 2320SOL     OW 7858   0.913   2.260   4.951
 2320SOL    HW1 7859   0.873   2.251   5.042
 2320SOL    HW2 7860   0.912   2.172   4.905
 2321SOL     OW 7861   2.859   0.309   6.841
 2321SOL    HW1 7862   2.830   0.360   6.760
 2321SOL    HW2 7863   2.795   0.233   6.857
 2322SOL     OW 7864   3.276   1.455   4.915
 2322SOL    HW1 7865   3.241   1.529   4.971
 2322SOL    HW2 7866   3.202   1.391   4.895
 2323SOL     OW 7867   2.591   4.926   1.630
 2323SOL    HW1 7868   2.655   4.873   1.575
 2323SOL    HW2 7869   2.642   4.979   1.698
 2324SOL     OW 7870   6.160   6.131   1.502
 2324SOL    HW1 7871   6.174   6.196   1.426
 2324SOL    HW2 7872   6.081   6.159   1.555
 2325SOL     OW 7873   1.114   4.511   2.573
 2325SOL    HW1 7874   1.150   4.461   2.652
 2325SOL    HW2 7875   1.068   4.446   2.512
 2326SOL     OW 7876   3.506   5.676   6.010
 2326SOL    HW1 7877   3.410   5.688   5.984
 2326SOL    HW2 7878   3.525   5.730   6.092
 2327SOL     OW 7879   6.375   3.303   4.887
 2327SOL    HW1 7880   6.281   3.337   4.883
 2327SOL    HW2 7881   6.392   3.265   4.978
 2328SOL     OW 7882   3.152   1.872   2.739
 2328SOL    HW1 7883   3.211   1.934   2.791
 2328SOL    HW2 7884   3.071   1.922   2.707
 2329SOL     OW 7885   1.788   3.768   5.182
 2329SOL    HW1 7886   1.855   3.803   5.247
 2329SOL    HW2 7887   1.828   3.693   5.130
 2330SOL     OW 7888   0.913   3.883   2.373
 2330SOL    HW1 7889   0.859   3.807   2.338
 2330SOL    HW2 7890   0.930   3.949   2.300
 2331SOL     OW 7891   6.046   4.532   1.313
 2331SOL    HW1 7892   5.950   4.530   1.342
 2331SOL    HW2 7893   6.070   4.624   1.285
 2332SOL     OW 7894   4.198   1.670   5.498
 2332SOL    HW1 7895   4.255   1.747   5.526
 2332SOL    HW2 7896   4.246   1.584   5.517
 2333SOL     OW 7897   0.544   5.871   2.854
 2333SOL    HW1 7898   0.561   5.927   2.935
 2333SOL    HW2 7899   0.548   5.930   2.773
 2334SOL     OW 7900   2.282   0.188   7.023
 2334SOL    HW1 7901   2.282   0.104   6.969
 2334SOL    HW2 7902   2.353   0.250   6.989
 2335SOL     OW 7903   6.053   1.311   3.199
 2335SOL    HW1 7904   6.119   1.247   3.237
 2335SOL    HW2 7905   5.960   1.279   3.221
 2336SOL     OW 7906   4.546   1.639   5.007
 2336SOL    HW1 7907   4.560   1.736   5.024
 2336SOL    HW2 7908   4.467   1.607   5.058
 2337SOL     OW 7909   4.663   0.949   3.442
 2337SOL    HW1 7910   4.666   1.048   3.455
 2337SOL    HW2 7911   4.756   0.912   3.450
 2338SOL     OW 7912   1.406   1.401   5.891
 2338SOL    HW1 7913   1.370   1.495   5.888
 2338SOL    HW2 7914   1.444   1.384   5.982
 2339SOL     OW 7915   4.086   3.837   4.826
 2339SOL    HW1 7916   4.037   3.871   4.906
 2339SOL    HW2 7917   4.102   3.913   4.763
 2340SOL     OW 7918   5.145   4.795   6.866
 2340SOL    HW1 7919   5.235   4.803   6.824
 2340SOL    HW2 7920   5.128   4.699   6.891
 2341SOL     OW 7921   6.019   4.163   1.160
 2341SOL    HW1 7922   6.044   4.139   1.066
 2341SOL    HW2 7923   5.990   4.259   1.163
 2342SOL     OW 7924   0.393   6.300   5.487
 2342SOL    HW1 7925   0.386   6.250   5.401
 2342SOL    HW2 7926   0.457   6.252   5.548
 2343SOL     OW 7927   1.584   6.144   2.124
 2343SOL    HW1 7928   1.622   6.174   2.037
 2343SOL    HW2 7929   1.617   6.052   2.144
 2344SOL     OW 7930   1.948   0.935   1.399
 2344SOL    HW1 7931   2.046   0.917   1.390
 2344SOL    HW2 7932   1.915   0.983   1.318
 2345SOL     OW 7933   2.783   5.378   5.549
 2345SOL    HW1 7934   2.879   5.374   5.575
 2345SOL    HW2 7935   2.727   5.342   5.623
 2346SOL     OW 7936   4.883   2.950   4.553
 2346SOL    HW1 7937   4.951   2.948   4.479
 2346SOL    HW2 7938   4.931   2.954   4.641
 2347SOL     OW 7939   2.163   3.432   1.671
 2347SOL    HW1 7940   2.099   3.506   1.687
 2347SOL    HW2 7941   2.219   3.418   1.753
 2348SOL     OW 7942   3.526   6.246   3.640
 2348SOL    HW1 7943   3.575   6.159   3.638
 2348SOL    HW2 7944   3.591   6.321   3.651
 2349SOL     OW 7945   0.520   5.094   6.017
 2349SOL    HW1 7946   0.516   5.093   6.117
 2349SOL    HW2 7947   0.468   5.172   5.982
 2350SOL     OW 7948   5.216   0.064   6.466
 2350SOL    HW1 7949   5.143   0.090   6.404
 2350SOL    HW2 7950   5.255   7.000   6.437
 2351SOL     OW 7951   3.835   5.169   1.831
 2351SOL    HW1 7952   3.923   5.127   1.811
 2351SOL    HW2 7953   3.775   5.163   1.751
 2352SOL     OW 7954   1.230   3.606   2.338
 2352SOL    HW1 7955   1.270   3.597   2.429
 2352SOL    HW2 7956   1.206   3.702   2.321
 2353SOL     OW 7957   3.074   4.784   5.238
 2353SOL    HW1 7958   3.019   4.705   5.211
 2353SOL    HW2 7959   3.121   4.765   5.323
 2354SOL     OW 7960   2.774   1.701   5.851
 2354SOL    HW1 7961   2.866   1.710   5.891
 2354SOL    HW2 7962   2.778   1.638   5.773
 2355SOL     OW 7963   1.332   5.714   6.651
 2355SOL    HW1 7964   1.385   5.797   6.637
 2355SOL    HW2 7965   1.370   5.640   6.596
 2356SOL     OW 7966   2.340   4.081   0.117
 2356SOL    HW1 7967   2.272   4.010   0.098
 2356SOL    HW2 7968   2.424   4.062   0.066
 2357SOL     OW 7969   4.236   5.019   3.294
 2357SOL    HW1 7970   4.269   5.070   3.214
 2357SOL    HW2 7971   4.284   4.932   3.299
 2358SOL     OW 7972   2.513   5.256   5.420
 2358SOL    HW1 7973   2.573   5.314   5.475
 2358SOL    HW2 7974   2.554   5.165   5.411
 2359SOL     OW 7975   0.121   0.755   5.850
 2359SOL    HW1 7976   0.078   0.809   5.777
 2359SOL    HW2 7977   0.173   0.680   5.809
 2360SOL     OW 7978   5.245   6.104   5.942
 2360SOL    HW1 7979   5.197   6.139   5.861
 2360SOL    HW2 7980   5.229   6.166   6.019
 2361SOL     OW 7981   3.193   0.410   4.868
 2361SOL    HW1 7982   3.241   0.415   4.780
 2361SOL    HW2 7983   3.145   0.323   4.875
 2362SOL     OW 7984   3.053   0.376   5.319
 2362SOL    HW1 7985   2.969   0.407   5.276
 2362SOL    HW2 7986   3.043   0.378   5.419
 2363SOL     OW 7987   3.984   2.750   5.636
 2363SOL    HW1 7988   3.960   2.721   5.544
 2363SOL    HW2 7989   3.904   2.747   5.695
 2364SOL     OW 7990   0.177   2.391   3.071
 2364SOL    HW1 7991   0.170   2.298   3.107
 2364SOL    HW2 7992   0.135   2.455   3.136
 2365SOL     OW 7993   6.408   2.343   6.571
 2365SOL    HW1 7994   6.482   2.277   6.579
 2365SOL    HW2 7995   6.345   2.332   6.648
 2366SOL     OW 7996   1.223   4.916   5.840
 2366SOL    HW1 7997   1.254   4.952   5.928
 2366SOL    HW2 7998   1.277   4.957   5.766
 2367SOL     OW 7999   3.475   3.548   6.921
 2367SOL    HW1 8000   3.556   3.599   6.952
 2367SOL    HW2 8001   3.478   3.456   6.960
 2368SOL     OW 8002   4.537   0.115   3.615
 2368SOL    HW1 8003   4.442   0.096   3.593
 2368SOL    HW2 8004   4.593   0.110   3.533
 2369SOL     OW 8005   1.793   2.386   4.848
 2369SOL    HW1 8006   1.890   2.408   4.865
 2369SOL    HW2 8007   1.738   2.469   4.856
 2370SOL     OW 8008   4.983   3.849   6.727
 2370SOL    HW1 8009   5.009   3.806   6.641
 2370SOL    HW2 8010   4.951   3.780   6.791
 2371SOL     OW 8011   1.442   6.152   1.802
 2371SOL    HW1 8012   1.365   6.088   1.807
 2371SOL    HW2 8013   1.526   6.102   1.780
 2372SOL     OW 8014   0.498   2.213   1.427
 2372SOL    HW1 8015   0.449   2.280   1.371
 2372SOL    HW2 8016   0.557   2.157   1.369
 2373SOL     OW 8017   6.640   7.018   0.210
 2373SOL    HW1 8018   6.547   0.015   0.180
 2373SOL    HW2 8019   6.637   6.959   0.291
 2374SOL     OW 8020   6.264   1.152   3.861
 2374SOL    HW1 8021   6.189   1.155   3.795
 2374SOL    HW2 8022   6.286   1.056   3.881
 2375SOL     OW 8023   1.906   6.713   4.361
 2375SOL    HW1 8024   1.886   6.625   4.405
 2375SOL    HW2 8025   1.989   6.704   4.305
 2376SOL     OW 8026   5.997   2.845   4.170
 2376SOL    HW1 8027   6.038   2.869   4.082
 2376SOL    HW2 8028   5.898   2.834   4.158
 2377SOL     OW 8029   3.527   3.900   3.547
 2377SOL    HW1 8030   3.491   3.812   3.518
 2377SOL    HW2 8031   3.523   3.906   3.647
 2378SOL     OW 8032   5.466   2.268   6.327
 2378SOL    HW1 8033   5.425   2.351   6.364
 2378SOL    HW2 8034   5.459   2.194   6.395
 2379SOL     OW 8035   6.804   1.631   6.668
 2379SOL    HW1 8036   6.750   1.559   6.712
 2379SOL    HW2 8037   6.846   1.689   6.738
 2380SOL     OW 8038   6.357   6.446   6.294
 2380SOL    HW1 8039   6.386   6.500   6.215
 2380SOL    HW2 8040   6.285   6.383   6.266
 2381SOL     OW 8041   2.337   4.255   3.975
 2381SOL    HW1 8042   2.360   4.226   3.882
 2381SOL    HW2 8043   2.256   4.206   4.007
 2382SOL     OW 8044   2.444   4.944   2.820
 2382SOL    HW1 8045   2.389   4.935   2.903
 2382SOL    HW2 8046   2.437   5.038   2.786
 2383SOL     OW 8047   5.146   5.791   0.207
 2383SOL    HW1 8048   5.101   5.880   0.217
 2383SOL    HW2 8049   5.130   5.757   0.114
 2384SOL     OW 8050   0.983   6.978   2.349
 2384SOL    HW1 8051   1.006   0.052   2.359
 2384SOL    HW2 8052   0.929   6.966   2.265
 2385SOL     OW 8053   6.227   0.095   1.222
 2385SOL    HW1 8054   6.290   0.078   1.297
 2385SOL    HW2 8055   6.138   0.123   1.259
 2386SOL     OW 8056   4.946   5.115   4.115
 2386SOL    HW1 8057   5.016   5.103   4.185
 2386SOL    HW2 8058   4.855   5.108   4.157
 2387SOL     OW 8059   0.201   1.998   3.406
 2387SOL    HW1 8060   0.176   1.901   3.406
 2387SOL    HW2 8061   0.293   2.008   3.446
 2388SOL     OW 8062   1.064   1.628   4.496
 2388SOL    HW1 8063   1.146   1.579   4.523
 2388SOL    HW2 8064   0.993   1.563   4.469
 2389SOL     OW 8065   5.340   4.034   3.879
 2389SOL    HW1 8066   5.425   4.085   3.894
 2389SOL    HW2 8067   5.347   3.943   3.920
 2390SOL     OW 8068   3.559   3.529   4.608
 2390SOL    HW1 8069   3.551   3.436   4.573
 2390SOL    HW2 8070   3.626   3.531   4.682
 2391SOL     OW 8071   4.797   4.733   5.967
 2391SOL    HW1 8072   4.877   4.791   5.984
 2391SOL    HW2 8073   4.792   4.710   5.870
 2392SOL     OW 8074   3.885   6.190   5.498
 2392SOL    HW1 8075   3.958   6.229   5.554
 2392SOL    HW2 8076   3.820   6.263   5.474
 2393SOL     OW 8077   3.890   5.403   0.496
 2393SOL    HW1 8078   3.820   5.344   0.454
 2393SOL    HW2 8079   3.979   5.383   0.455
 2394SOL     OW 8080   1.887   3.415   5.237
 2394SOL    HW1 8081   1.864   3.339   5.177
 2394SOL    HW2 8082   1.873   3.387   5.332
 2395SOL     OW 8083   6.541   2.734   6.890
 2395SOL    HW1 8084   6.635   2.703   6.906
 2395SOL    HW2 8085   6.518   2.805   6.957
 2396SOL     OW 8086   4.542   5.991   6.982
 2396SOL    HW1 8087   4.541   6.078   6.933
 2396SOL    HW2 8088   4.503   6.003   0.050
 2397SOL     OW 8089   0.120   3.734   0.696
 2397SOL    HW1 8090   0.059   3.780   0.632
 2397SOL    HW2 8091   0.215   3.756   0.673
 2398SOL     OW 8092   2.765   4.674   5.979
 2398SOL    HW1 8093   2.774   4.639   5.886
 2398SOL    HW2 8094   2.696   4.621   6.028
 2399SOL     OW 8095   4.581   1.470   2.417
 2399SOL    HW1 8096   4.677   1.496   2.410
 2399SOL    HW2 8097   4.567   1.381   2.373
 2400SOL     OW 8098   4.058   5.050   0.518
 2400SOL    HW1 8099   4.119   4.983   0.561
 2400SOL    HW2 8100   4.110   5.132   0.497
 2401SOL     OW 8101   4.102   0.709   6.033
 2401SOL    HW1 8102   4.029   0.772   6.060
 2401SOL    HW2 8103   4.185   0.731   6.085
 2402SOL     OW 8104   0.309   2.640   4.182
 2402SOL    HW1 8105   0.323   2.665   4.277
 2402SOL    HW2 8106   0.244   2.564   4.177
 2403SOL     OW 8107   2.772   2.837   0.056
 2403SOL    HW1 8108   2.772   2.759   7.017
 2403SOL    HW2 8109   2.752   2.921   0.004
 2404SOL     OW 8110   5.678   1.549   2.612
 2404SOL    HW1 8111   5.719   1.561   2.521
 2404SOL    HW2 8112   5.685   1.453   2.639
 2405SOL     OW 8113   3.184   3.631   3.946
 2405SOL    HW1 8114   3.133   3.633   3.859
 2405SOL    HW2 8115   3.191   3.537   3.978
 2406SOL     OW 8116   1.585   0.441   3.960
 2406SOL    HW1 8117   1.573   0.441   3.861
 2406SOL    HW2 8118   1.609   0.349   3.990
 2407SOL     OW 8119   4.865   3.116   2.921
 2407SOL    HW1 8120   4.821   3.026   2.925
 2407SOL    HW2 8121   4.837   3.163   2.836
 2408SOL     OW 8122   3.418   5.121   2.152
 2408SOL    HW1 8123   3.380   5.037   2.191
 2408SOL    HW2 8124   3.483   5.097   2.080
 2409SOL     OW 8125   1.751   2.732   2.363
 2409SOL    HW1 8126   1.826   2.762   2.423
 2409SOL    HW2 8127   1.782   2.732   2.268
 2410SOL     OW 8128   5.893   2.844   5.941
 2410SOL    HW1 8129   5.805   2.872   5.903
 2410SOL    HW2 8130   5.944   2.925   5.970
 2411SOL     OW 8131   4.118   5.172   5.436
 2411SOL    HW1 8132   4.191   5.105   5.452
 2411SOL    HW2 8133   4.102   5.225   5.519
 2412SOL     OW 8134   3.075   4.181   6.944
 2412SOL    HW1 8135   3.098   4.158   0.015
 2412SOL    HW2 8136   3.076   4.280   6.933
 2413SOL     OW 8137   6.986   2.660   6.766
 2413SOL    HW1 8138   6.899   2.649   6.719
 2413SOL    HW2 8139   6.986   2.606   6.850
 2414SOL     OW 8140   5.783   4.096   2.021
 2414SOL    HW1 8141   5.788   4.049   2.109
 2414SOL    HW2 8142   5.727   4.178   2.030
 2415SOL     OW 8143   0.640   6.903   1.092
 2415SOL    HW1 8144   0.640   7.003   1.105
 2415SOL    HW2 8145   0.561   6.864   1.139
 2416SOL     OW 8146   2.952   1.860   5.446
 2416SOL    HW1 8147   2.868   1.886   5.399
 2416SOL    HW2 8148   2.992   1.780   5.401
 2417SOL     OW 8149   4.271   2.471   0.140
 2417SOL    HW1 8150   4.231   2.561   0.157
 2417SOL    HW2 8151   4.363   2.482   0.103
 2418SOL     OW 8152   2.883   3.603   3.911
 2418SOL    HW1 8153   2.905   3.695   3.878
 2418SOL    HW2 8154   2.871   3.606   4.011
 2419SOL     OW 8155   0.621   6.387   3.742
 2419SOL    HW1 8156   0.582   6.478   3.728
 2419SOL    HW2 8157   0.562   6.319   3.699
 2420SOL     OW 8158   4.023   0.469   2.118
 2420SOL    HW1 8159   3.951   0.538   2.116
 2420SOL    HW2 8160   4.101   0.504   2.170
 2421SOL     OW 8161   2.632   0.849   5.012
 2421SOL    HW1 8162   2.728   0.823   5.003
 2421SOL    HW2 8163   2.597   0.881   4.924
 2422SOL     OW 8164   6.002   0.183   1.329
 2422SOL    HW1 8165   5.910   0.219   1.346
 2422SOL    HW2 8166   6.058   0.194   1.410
 2423SOL     OW 8167   1.749   6.071   3.711
 2423SOL    HW1 8168   1.703   6.066   3.622
 2423SOL    HW2 8169   1.843   6.038   3.702
 2424SOL     OW 8170   5.542   5.721   5.918
 2424SOL    HW1 8171   5.557   5.702   6.015
 2424SOL    HW2 8172   5.626   5.758   5.878
 2425SOL     OW 8173   5.893   0.245   4.596
 2425SOL    HW1 8174   5.979   0.266   4.643
 2425SOL    HW2 8175   5.849   0.329   4.566
 2426SOL     OW 8176   0.806   4.609   4.160
 2426SOL    HW1 8177   0.740   4.541   4.127
 2426SOL    HW2 8178   0.798   4.617   4.259
 2427SOL     OW 8179   5.948   5.550   6.752
 2427SOL    HW1 8180   5.899   5.637   6.752
 2427SOL    HW2 8181   5.995   5.538   6.665
 2428SOL     OW 8182   0.378   6.871   3.172
 2428SOL    HW1 8183   0.352   6.774   3.168
 2428SOL    HW2 8184   0.453   6.882   3.238
 2429SOL     OW 8185   6.323   5.799   4.326
 2429SOL    HW1 8186   6.409   5.749   4.313
 2429SOL    HW2 8187   6.320   5.837   4.418
 2430SOL     OW 8188   6.240   2.372   1.663
 2430SOL    HW1 8189   6.167   2.439   1.656
 2430SOL    HW2 8190   6.313   2.396   1.599
 2431SOL     OW 8191   3.868   6.995   1.580
 2431SOL    HW1 8192   3.816   7.011   1.497
 2431SOL    HW2 8193   3.965   7.014   1.564
 2432SOL     OW 8194   4.075   6.265   2.587
 2432SOL    HW1 8195   4.077   6.174   2.628
 2432SOL    HW2 8196   4.066   6.334   2.658
 2433SOL     OW 8197   3.035   6.554   0.947
 2433SOL    HW1 8198   3.042   6.648   0.980
 2433SOL    HW2 8199   3.127   6.517   0.933
 2434SOL     OW 8200   4.234   1.372   3.386
 2434SOL    HW1 8201   4.286   1.420   3.458
 2434SOL    HW2 8202   4.297   1.325   3.325
 2435SOL     OW 8203   4.634   5.568   5.738
 2435SOL    HW1 8204   4.664   5.583   5.644
 2435SOL    HW2 8205   4.572   5.641   5.766
 2436SOL     OW 8206   1.678   6.994   0.456
 2436SOL    HW1 8207   1.756   7.004   0.518
 2436SOL    HW2 8208   1.660   0.059   0.412
 2437SOL     OW 8209   4.415   5.412   0.547
 2437SOL    HW1 8210   4.421   5.322   0.505
 2437SOL    HW2 8211   4.416   5.483   0.476
 2438SOL     OW 8212   3.700   1.585   5.708
 2438SOL    HW1 8213   3.652   1.500   5.687
 2438SOL    HW2 8214   3.799   1.568   5.706
 2439SOL     OW 8215   1.400   4.311   0.437
 2439SOL    HW1 8216   1.494   4.340   0.418
 2439SOL    HW2 8217   1.401   4.225   0.489
 2440SOL     OW 8218   3.775   6.381   5.215
 2440SOL    HW1 8219   3.681   6.361   5.189
 2440SOL    HW2 8220   3.782   6.476   5.245
 2441SOL     OW 8221   6.088   0.991   6.820
 2441SOL    HW1 8222   6.108   0.918   6.885
 2441SOL    HW2 8223   6.025   0.956   6.750
 2442SOL     OW 8224   6.684   5.716   3.718
 2442SOL    HW1 8225   6.586   5.705   3.702
 2442SOL    HW2 8226   6.698   5.764   3.804
 2443SOL     OW 8227   3.137   0.015   6.310
 2443SOL    HW1 8228   3.099   6.988   6.388
 2443SOL    HW2 8229   3.129   6.982   6.228
 2444SOL     OW 8230   3.918   4.229   6.400
 2444SOL    HW1 8231   3.830   4.206   6.443
 2444SOL    HW2 8232   3.992   4.206   6.463
 2445SOL     OW 8233   6.924   1.016   2.518
 2445SOL    HW1 8234   6.903   1.000   2.614
 2445SOL    HW2 8235   6.934   1.114   2.501
 2446SOL     OW 8236   0.626   2.796   4.519
 2446SOL    HW1 8237   0.643   2.895   4.523
 2446SOL    HW2 8238   0.693   2.754   4.458
 2447SOL     OW 8239   2.092   0.965   0.603
 2447SOL    HW1 8240   2.054   0.892   0.545
 2447SOL    HW2 8241   2.078   0.941   0.699
 2448SOL     OW 8242   0.502   0.512   4.068
 2448SOL    HW1 8243   0.453   0.441   4.019
 2448SOL    HW2 8244   0.440   0.557   4.133
 2449SOL     OW 8245   0.078   4.274   2.897
 2449SOL    HW1 8246   0.087   4.373   2.891
 2449SOL    HW2 8247   0.012   4.242   2.829
 2450SOL     OW 8248   2.749   5.141   5.071
 2450SOL    HW1 8249   2.811   5.104   5.140
 2450SOL    HW2 8250   2.660   5.095   5.078
 2451SOL     OW 8251   0.539   0.006   3.697
 2451SOL    HW1 8252   0.538   0.088   3.639
 2451SOL    HW2 8253   0.448   7.016   3.737
 2452SOL     OW 8254   2.726   2.119   3.446
 2452SOL    HW1 8255   2.638   2.162   3.424
 2452SOL    HW2 8256   2.714   2.058   3.524
 2453SOL     OW 8257   6.666   3.593   0.374
 2453SOL    HW1 8258   6.574   3.554   0.368
 2453SOL    HW2 8259   6.719   3.541   0.441
 2454SOL     OW 8260   3.092   0.868   6.755
 2454SOL    HW1 8261   3.025   0.795   6.739
 2454SOL    HW2 8262   3.182   0.828   6.773
 2455SOL     OW 8263   5.271   0.658   1.325
 2455SOL    HW1 8264   5.238   0.637   1.233
 2455SOL    HW2 8265   5.331   0.585   1.357
 2456SOL     OW 8266   5.831   1.240   0.166
 2456SOL    HW1 8267   5.879   1.291   0.094
 2456SOL    HW2 8268   5.894   1.174   0.207
 2457SOL     OW 8269   6.156   6.175   6.815
 2457SOL    HW1 8270   6.095   6.102   6.785
 2457SOL    HW2 8271   6.243   6.167   6.767
 2458SOL     OW 8272   2.312   6.009   3.730
 2458SOL    HW1 8273   2.351   6.061   3.806
 2458SOL    HW2 8274   2.372   6.017   3.650
 2459SOL     OW 8275   2.653   6.451   6.878
 2459SOL    HW1 8276   2.739   6.410   6.848
 2459SOL    HW2 8277   2.626   6.412   6.966
 2460SOL     OW 8278   1.620   1.798   2.017
 2460SOL    HW1 8279   1.645   1.826   1.924
 2460SOL    HW2 8280   1.686   1.731   2.050
 2461SOL     OW 8281   4.690   0.200   2.836
 2461SOL    HW1 8282   4.771   0.142   2.833
 2461SOL    HW2 8283   4.624   0.162   2.901
 2462SOL     OW 8284   2.351   5.445   0.147
 2462SOL    HW1 8285   2.430   5.481   0.197
 2462SOL    HW2 8286   2.267   5.483   0.185
 2463SOL     OW 8287   6.392   2.610   4.779
 2463SOL    HW1 8288   6.418   2.702   4.752
 2463SOL    HW2 8289   6.357   2.561   4.700
 2464SOL     OW 8290   1.631   4.123   2.117
 2464SOL    HW1 8291   1.672   4.062   2.185
 2464SOL    HW2 8292   1.573   4.190   2.163
 2465SOL     OW 8293   1.233   0.098   2.017
 2465SOL    HW1 8294   1.192   0.188   2.037
 2465SOL    HW2 8295   1.319   0.089   2.068
 2466SOL     OW 8296   2.635   1.876   1.916
 2466SOL    HW1 8297   2.644   1.863   1.817
 2466SOL    HW2 8298   2.690   1.955   1.944
 2467SOL     OW 8299   5.570   1.691   4.681
 2467SOL    HW1 8300   5.636   1.755   4.642
 2467SOL    HW2 8301   5.601   1.662   4.771
 2468SOL     OW 8302   5.681   6.167   2.164
 2468SOL    HW1 8303   5.694   6.071   2.142
 2468SOL    HW2 8304   5.667   6.177   2.263
 2469SOL     OW 8305   4.033   4.300   5.328
 2469SOL    HW1 8306   4.002   4.389   5.363
 2469SOL    HW2 8307   4.111   4.314   5.267
 2470SOL     OW 8308   3.835   4.675   5.725
 2470SOL    HW1 8309   3.905   4.610   5.754
 2470SOL    HW2 8310   3.789   4.641   5.642
 2471SOL     OW 8311   2.559   6.488   0.530
 2471SOL    HW1 8312   2.515   6.566   0.576
 2471SOL    HW2 8313   2.529   6.403   0.574
 2472SOL     OW 8314   4.489   2.052   3.949
 2472SOL    HW1 8315   4.483   2.086   3.855
 2472SOL    HW2 8316   4.550   2.110   4.002
 2473SOL     OW 8317   2.104   3.990   5.109
 2473SOL    HW1 8318   2.180   4.021   5.052
 2473SOL    HW2 8319   2.141   3.942   5.189
 2474SOL     OW 8320   0.546   5.642   7.019
 2474SOL    HW1 8321   0.556   5.738   0.022
 2474SOL    HW2 8322   0.627   5.591   0.024
 2475SOL     OW 8323   5.032   0.879   1.295
 2475SOL    HW1 8324   5.068   0.799   1.344
 2475SOL    HW2 8325   4.960   0.850   1.233
 2476SOL     OW 8326   0.622   2.488   3.798
 2476SOL    HW1 8327   0.596   2.509   3.892
 2476SOL    HW2 8328   0.556   2.531   3.735
 2477SOL     OW 8329   5.528   1.303   2.272
 2477SOL    HW1 8330   5.468   1.283   2.195
 2477SOL    HW2 8331   5.598   1.233   2.280
 2478SOL     OW 8332   6.286   0.680   2.214
 2478SOL    HW1 8333   6.210   0.706   2.274
 2478SOL    HW2 8334   6.291   0.745   2.137
 2479SOL     OW 8335   1.289   3.831   1.607
 2479SOL    HW1 8336   1.287   3.731   1.606
 2479SOL    HW2 8337   1.351   3.862   1.680
 2480SOL     OW 8338   6.243   4.398   1.187
 2480SOL    HW1 8339   6.232   4.397   1.087
 2480SOL    HW2 8340   6.188   4.471   1.226
 2481SOL     OW 8341   2.765   0.581   0.473
 2481SOL    HW1 8342   2.776   0.623   0.383
 2481SOL    HW2 8343   2.689   0.516   0.471
 2482SOL     OW 8344   4.693   3.091   6.042
 2482SOL    HW1 8345   4.642   3.009   6.068
 2482SOL    HW2 8346   4.650   3.133   5.962
 2483SOL     OW 8347   2.474   1.914   6.872
 2483SOL    HW1 8348   2.420   1.891   6.953
 2483SOL    HW2 8349   2.571   1.905   6.892
 2484SOL     OW 8350   2.154   0.308   0.234
 2484SOL    HW1 8351   2.205   0.260   0.163
 2484SOL    HW2 8352   2.084   0.248   0.272
 2485SOL     OW 8353   5.211   4.188   2.220
 2485SOL    HW1 8354   5.305   4.183   2.187
 2485SOL    HW2 8355   5.210   4.182   2.320
 2486SOL     OW 8356   2.944   5.051   3.811
 2486SOL    HW1 8357   2.888   5.034   3.730
 2486SOL    HW2 8358   2.976   4.964   3.848
 2487SOL     OW 8359   3.691   5.747   6.926
 2487SOL    HW1 8360   3.692   5.771   6.829
 2487SOL    HW2 8361   3.664   5.827   6.980
 2488SOL     OW 8362   1.951   4.689   2.538
 2488SOL    HW1 8363   1.902   4.662   2.455
 2488SOL    HW2 8364   1.917   4.635   2.615
 2489SOL     OW 8365   2.447   6.018   3.477
 2489SOL    HW1 8366   2.492   5.948   3.421
 2489SOL    HW2 8367   2.441   6.103   3.425
 2490SOL     OW 8368   6.562   5.771   1.198
 2490SOL    HW1 8369   6.489   5.717   1.239
 2490SOL    HW2 8370   6.614   5.715   1.133
 2491SOL     OW 8371   2.612   5.779   1.236
 2491SOL    HW1 8372   2.648   5.868   1.208
 2491SOL    HW2 8373   2.587   5.726   1.155
 2492SOL     OW 8374   4.596   2.888   6.735
 2492SOL    HW1 8375   4.678   2.922   6.690
 2492SOL    HW2 8376   4.517   2.941   6.706
 2493SOL     OW 8377   5.853   0.529   3.163
 2493SOL    HW1 8378   5.901   0.616   3.169
 2493SOL    HW2 8379   5.755   0.544   3.169
 2494SOL     OW 8380   5.853   3.753   2.603
 2494SOL    HW1 8381   5.797   3.672   2.621
 2494SOL    HW2 8382   5.823   3.795   2.518
 2495SOL     OW 8383   5.242   0.432   5.079
 2495SOL    HW1 8384   5.335   0.408   5.106
 2495SOL    HW2 8385   5.245   0.509   5.015
 2496SOL     OW 8386   0.150   4.406   5.881
 2496SOL    HW1 8387   0.147   4.506   5.878
 2496SOL    HW2 8388   0.138   4.370   5.789
 2497SOL     OW 8389   0.187   1.242   1.347
 2497SOL    HW1 8390   0.158   1.282   1.434
 2497SOL    HW2 8391   0.189   1.142   1.355
 2498SOL     OW 8392   3.437   2.000   3.747
 2498SOL    HW1 8393   3.523   2.046   3.730
 2498SOL    HW2 8394   3.390   2.043   3.825
 2499SOL     OW 8395   4.667   2.166   4.095
 2499SOL    HW1 8396   4.649   2.119   4.182
 2499SOL    HW2 8397   4.759   2.142   4.063
 2500SOL     OW 8398   4.314   2.866   5.833
 2500SOL    HW1 8399   4.255   2.900   5.760
 2500SOL    HW2 8400   4.335   2.941   5.896
 2501SOL     OW 8401   6.999   6.000   6.858
 2501SOL    HW1 8402   6.951   5.917   6.829
 2501SOL    HW2 8403   6.944   6.080   6.835
 2502SOL     OW 8404   2.217   6.146   3.064
 2502SOL    HW1 8405   2.316   6.132   3.075
 2502SOL    HW2 8406   2.170   6.117   3.147
 2503SOL     OW 8407   3.633   5.486   5.841
 2503SOL    HW1 8408   3.571   5.408   5.837
 2503SOL    HW2 8409   3.603   5.548   5.913
 2504SOL     OW 8410   3.083   5.289   5.430
 2504SOL    HW1 8411   3.120   5.247   5.513
 2504SOL    HW2 8412   3.034   5.220   5.377
 2505SOL     OW 8413   1.797   6.450   4.426
 2505SOL    HW1 8414   1.802   6.427   4.329
 2505SOL    HW2 8415   1.704   6.432   4.459
 2506SOL     OW 8416   5.956   3.789   6.224
 2506SOL    HW1 8417   5.900   3.743   6.155
 2506SOL    HW2 8418   5.997   3.720   6.284
 2507SOL     OW 8419   0.349   3.916   0.732
 2507SOL    HW1 8420   0.262   3.966   0.740
 2507SOL    HW2 8421   0.412   3.969   0.676
 2508SOL     OW 8422   2.753   1.570   2.406
 2508SOL    HW1 8423   2.748   1.640   2.477
 2508SOL    HW2 8424   2.740   1.613   2.316
 2509SOL     OW 8425   6.146   2.712   2.818
 2509SOL    HW1 8426   6.194   2.764   2.747
 2509SOL    HW2 8427   6.085   2.645   2.776
 2510SOL     OW 8428   3.395   4.333   1.064
 2510SOL    HW1 8429   3.320   4.352   1.001
 2510SOL    HW2 8430   3.371   4.256   1.123
 2511SOL     OW 8431   2.337   2.220   4.357
 2511SOL    HW1 8432   2.303   2.310   4.331
 2511SOL    HW2 8433   2.331   2.158   4.278
 2512SOL     OW 8434   5.116   5.567   5.308
 2512SOL    HW1 8435   5.173   5.607   5.380
 2512SOL    HW2 8436   5.036   5.522   5.350
 2513SOL     OW 8437   0.861   3.145   5.304
 2513SOL    HW1 8438   0.914   3.104   5.229
 2513SOL    HW2 8439   0.906   3.230   5.333
 2514SOL     OW 8440   6.685   4.082   4.457
 2514SOL    HW1 8441   6.758   4.145   4.432
 2514SOL    HW2 8442   6.659   4.097   4.553
 2515SOL     OW 8443   1.187   0.019   0.620
 2515SOL    HW1 8444   1.107   0.051   0.570
 2515SOL    HW2 8445   1.195   6.943   0.610
 2516SOL     OW 8446   5.691   0.072   2.942
 2516SOL    HW1 8447   5.720   0.165   2.961
 2516SOL    HW2 8448   5.619   0.073   2.872
 2517SOL     OW 8449   1.988   5.655   5.230
 2517SOL    HW1 8450   1.940   5.719   5.170
 2517SOL    HW2 8451   1.948   5.564   5.223
 2518SOL     OW 8452   2.556   3.247   6.686
 2518SOL    HW1 8453   2.522   3.292   6.603
 2518SOL    HW2 8454   2.527   3.151   6.686
 2519SOL     OW 8455   5.086   5.449   4.238
 2519SOL    HW1 8456   5.145   5.499   4.301
 2519SOL    HW2 8457   5.135   5.368   4.205
 2520SOL     OW 8458   1.090   2.580   1.105
 2520SOL    HW1 8459   1.004   2.630   1.094
 2520SOL    HW2 8460   1.112   2.532   1.021
 2521SOL     OW 8461   0.837   6.347   5.561
 2521SOL    HW1 8462   0.882   6.395   5.637
 2521SOL    HW2 8463   0.813   6.254   5.590
 2522SOL     OW 8464   0.465   3.223   5.709
 2522SOL    HW1 8465   0.417   3.279   5.642
 2522SOL    HW2 8466   0.406   3.208   5.788
 2523SOL     OW 8467   0.297   3.433   1.095
 2523SOL    HW1 8468   0.201   3.439   1.067
 2523SOL    HW2 8469   0.356   3.448   1.016
 2524SOL     OW 8470   0.765   5.958   4.059
 2524SOL    HW1 8471   0.727   6.022   3.992
 2524SOL    HW2 8472   0.704   5.953   4.138
 2525SOL     OW 8473   1.182   2.424   4.949
 2525SOL    HW1 8474   1.125   2.439   5.030
 2525SOL    HW2 8475   1.150   2.342   4.901
 2526SOL     OW 8476   1.446   3.892   6.209
 2526SOL    HW1 8477   1.466   3.929   6.119
 2526SOL    HW2 8478   1.370   3.828   6.203
 2527SOL     OW 8479   5.100   6.980   4.867
 2527SOL    HW1 8480   5.063   6.916   4.935
 2527SOL    HW2 8481   5.172   0.012   4.909
 2528SOL     OW 8482   6.506   4.642   1.176
 2528SOL    HW1 8483   6.521   4.543   1.172
 2528SOL    HW2 8484   6.455   4.671   1.095
 2529SOL     OW 8485   6.337   5.672   6.132
 2529SOL    HW1 8486   6.237   5.667   6.125
 2529SOL    HW2 8487   6.375   5.579   6.135
 2530SOL     OW 8488   0.996   6.225   4.419
 2530SOL    HW1 8489   0.990   6.229   4.518
 2530SOL    HW2 8490   1.057   6.150   4.392
 2531SOL     OW 8491   5.667   5.812   4.167
 2531SOL    HW1 8492   5.573   5.794   4.195
 2531SOL    HW2 8493   5.667   5.866   4.083
 2532SOL     OW 8494   0.882   6.088   0.837
 2532SOL    HW1 8495   0.825   6.032   0.777
 2532SOL    HW2 8496   0.955   6.032   0.875
 2533SOL     OW 8497   4.637   6.200   3.898
 2533SOL    HW1 8498   4.663   6.223   3.804
 2533SOL    HW2 8499   4.549   6.154   3.899
 2534SOL     OW 8500   2.265   0.143   3.200
 2534SOL    HW1 8501   2.283   0.192   3.115
 2534SOL    HW2 8502   2.282   0.203   3.278
 2535SOL     OW 8503   2.328   2.696   6.488
 2535SOL    HW1 8504   2.354   2.609   6.446
 2535SOL    HW2 8505   2.323   2.685   6.587
 2536SOL     OW 8506   0.711   1.998   3.297
 2536SOL    HW1 8507   0.717   2.041   3.388
 2536SOL    HW2 8508   0.615   1.990   3.271
 2537SOL     OW 8509   5.298   6.177   6.710
 2537SOL    HW1 8510   5.325   6.273   6.702
 2537SOL    HW2 8511   5.315   6.146   6.804
 2538SOL     OW 8512   1.363   4.240   4.679
 2538SOL    HW1 8513   1.348   4.325   4.728
 2538SOL    HW2 8514   1.392   4.260   4.585
 2539SOL     OW 8515   4.609   0.194   5.639
 2539SOL    HW1 8516   4.609   0.130   5.716
 2539SOL    HW2 8517   4.599   0.288   5.674
 2540SOL     OW 8518   4.999   1.205   1.392
 2540SOL    HW1 8519   5.045   1.128   1.437
 2540SOL    HW2 8520   4.974   1.180   1.299
 2541SOL     OW 8521   1.557   0.254   5.748
 2541SOL    HW1 8522   1.547   0.314   5.827
 2541SOL    HW2 8523   1.650   0.263   5.711
 2542SOL     OW 8524   4.450   1.566   5.628
 2542SOL    HW1 8525   4.437   1.618   5.712
 2542SOL    HW2 8526   4.533   1.597   5.581
 2543SOL     OW 8527   2.206   0.846   3.279
 2543SOL    HW1 8528   2.108   0.864   3.266
 2543SOL    HW2 8529   2.218   0.755   3.319
 2544SOL     OW 8530   0.392   5.386   2.518
 2544SOL    HW1 8531   0.343   5.460   2.475
 2544SOL    HW2 8532   0.491   5.400   2.508
 2545SOL     OW 8533   1.823   0.645   1.270
 2545SOL    HW1 8534   1.818   0.717   1.339
 2545SOL    HW2 8535   1.755   0.575   1.290
 2546SOL     OW 8536   6.810   2.762   2.081
 2546SOL    HW1 8537   6.731   2.702   2.092
 2546SOL    HW2 8538   6.811   2.799   1.988
 2547SOL     OW 8539   5.626   5.474   6.860
 2547SOL    HW1 8540   5.567   5.552   6.878
 2547SOL    HW2 8541   5.675   5.488   6.775
 2548SOL     OW 8542   2.998   0.137   5.176
 2548SOL    HW1 8543   3.088   0.105   5.147
 2548SOL    HW2 8544   3.008   0.215   5.237
 2549SOL     OW 8545   2.007   1.886   1.779
 2549SOL    HW1 8546   1.927   1.942   1.800
 2549SOL    HW2 8547   2.081   1.906   1.844
 2550SOL     OW 8548   6.282   0.609   6.660
 2550SOL    HW1 8549   6.251   0.644   6.749
 2550SOL    HW2 8550   6.228   0.652   6.587
 2551SOL     OW 8551   3.148   5.121   0.108
 2551SOL    HW1 8552   3.208   5.161   0.179
 2551SOL    HW2 8553   3.203   5.101   0.027
 2552SOL     OW 8554   1.676   5.500   5.577
 2552SOL    HW1 8555   1.707   5.574   5.518
 2552SOL    HW2 8556   1.594   5.529   5.627
 2553SOL     OW 8557   2.545   3.678   6.790
 2553SOL    HW1 8558   2.602   3.651   6.713
 2553SOL    HW2 8559   2.453   3.642   6.778
 2554SOL     OW 8560   1.388   5.760   6.257
 2554SOL    HW1 8561   1.409   5.825   6.330
 2554SOL    HW2 8562   1.378   5.668   6.296
 2555SOL     OW 8563   5.884   6.306   6.415
 2555SOL    HW1 8564   5.983   6.306   6.432
 2555SOL    HW2 8565   5.858   6.221   6.369
 2556SOL     OW 8566   3.898   6.060   0.671
 2556SOL    HW1 8567   3.956   6.025   0.598
 2556SOL    HW2 8568   3.847   6.140   0.637
 2557SOL     OW 8569   2.228   1.891   6.561
 2557SOL    HW1 8570   2.261   1.800   6.535
 2557SOL    HW2 8571   2.174   1.883   6.645
 2558SOL     OW 8572   3.599   3.284   6.071
 2558SOL    HW1 8573   3.532   3.246   6.135
 2558SOL    HW2 8574   3.596   3.233   5.985
 2559SOL     OW 8575   6.486   3.169   4.373
 2559SOL    HW1 8576   6.481   3.198   4.468
 2559SOL    HW2 8577   6.394   3.147   4.340
 2560SOL     OW 8578   4.916   3.200   4.211
 2560SOL    HW1 8579   4.978   3.122   4.220
 2560SOL    HW2 8580   4.890   3.233   4.301
 2561SOL     OW 8581   3.871   0.294   3.061
 2561SOL    HW1 8582   3.817   0.343   2.992
 2561SOL    HW2 8583   3.892   0.356   3.136
 2562SOL     OW 8584   2.400   5.314   2.407
 2562SOL    HW1 8585   2.432   5.376   2.479
 2562SOL    HW2 8586   2.409   5.220   2.439
 2563SOL     OW 8587   3.816   1.880   0.051
 2563SOL    HW1 8588   3.795   1.782   0.047
 2563SOL    HW2 8589   3.772   1.927   6.997
 2564SOL     OW 8590   1.024   7.000   6.158
 2564SOL    HW1 8591   1.084   0.057   6.164
 2564SOL    HW2 8592   1.076   6.922   6.125
 2565SOL     OW 8593   7.004   0.544   1.007
 2565SOL    HW1 8594   0.014   0.638   0.998
 2565SOL    HW2 8595   6.944   0.522   0.931
 2566SOL     OW 8596   1.357   6.530   0.499
 2566SOL    HW1 8597   1.400   6.546   0.410
 2566SOL    HW2 8598   1.412   6.465   0.551
 2567SOL     OW 8599   1.474   1.205   2.667
 2567SOL    HW1 8600   1.504   1.287   2.716
 2567SOL    HW2 8601   1.418   1.149   2.727
 2568SOL     OW 8602   2.647   0.812   0.317
 2568SOL    HW1 8603   2.729   0.867   0.302
 2568SOL    HW2 8604   2.569   0.856   0.273
 2569SOL     OW 8605   2.472   1.480   2.621
 2569SOL    HW1 8606   2.479   1.401   2.561
 2569SOL    HW2 8607   2.462   1.563   2.567
 2570SOL     OW 8608   5.681   0.272   6.447
 2570SOL    HW1 8609   5.714   0.202   6.511
 2570SOL    HW2 8610   5.592   0.306   6.478
 2571SOL     OW 8611   3.068   3.573   4.631
 2571SOL    HW1 8612   3.014   3.539   4.554
 2571SOL    HW2 8613   3.106   3.497   4.682
 2572SOL     OW 8614   1.651   6.936   1.460
 2572SOL    HW1 8615   1.616   6.856   1.411
 2572SOL    HW2 8616   1.747   6.950   1.435
 2573SOL     OW 8617   6.337   1.341   2.600
 2573SOL    HW1 8618   6.325   1.389   2.514
 2573SOL    HW2 8619   6.388   1.399   2.664
 2574SOL     OW 8620   0.073   2.665   0.394
 2574SOL    HW1 8621   0.037   2.572   0.386
 2574SOL    HW2 8622   0.121   2.691   0.311
 2575SOL     OW 8623   5.120   4.177   0.341
 2575SOL    HW1 8624   5.025   4.180   0.309
 2575SOL    HW2 8625   5.137   4.089   0.384
 2576SOL     OW 8626   3.914   0.191   3.473
 2576SOL    HW1 8627   3.859   0.169   3.393
 2576SOL    HW2 8628   3.962   0.110   3.505
 2577SOL     OW 8629   4.434   6.567   2.880
 2577SOL    HW1 8630   4.355   6.528   2.927
 2577SOL    HW2 8631   4.477   6.498   2.823
 2578SOL     OW 8632   4.742   2.848   4.939
 2578SOL    HW1 8633   4.714   2.897   5.021
 2578SOL    HW2 8634   4.790   2.764   4.964
 2579SOL     OW 8635   1.155   1.345   3.809
 2579SOL    HW1 8636   1.227   1.411   3.788
 2579SOL    HW2 8637   1.153   1.328   3.908
 2580SOL     OW 8638   2.035   2.949   6.258
 2580SOL    HW1 8639   2.051   3.041   6.294
 2580SOL    HW2 8640   1.964   2.952   6.189
 2581SOL     OW 8641   6.151   4.842   1.829
 2581SOL    HW1 8642   6.122   4.808   1.739
 2581SOL    HW2 8643   6.125   4.938   1.839
 2582SOL     OW 8644   1.425   4.440   2.607
 2582SOL    HW1 8645   1.413   4.347   2.573
 2582SOL    HW2 8646   1.496   4.441   2.677
 2583SOL     OW 8647   0.716   1.646   1.138
 2583SOL    HW1 8648   0.654   1.591   1.082
 2583SOL    HW2 8649   0.781   1.586   1.185
 2584SOL     OW 8650   3.648   5.737   0.546
 2584SOL    HW1 8651   3.658   5.772   0.639
 2584SOL    HW2 8652   3.599   5.804   0.490
 2585SOL     OW 8653   3.621   0.950   0.227
 2585SOL    HW1 8654   3.702   0.908   0.268
 2585SOL    HW2 8655   3.549   0.957   0.296
 2586SOL     OW 8656   4.563   1.803   3.530
 2586SOL    HW1 8657   4.512   1.769   3.609
 2586SOL    HW2 8658   4.607   1.889   3.554
 2587SOL     OW 8659   6.731   1.110   4.140
 2587SOL    HW1 8660   6.725   1.070   4.049
 2587SOL    HW2 8661   6.647   1.160   4.160
 2588SOL     OW 8662   5.093   6.905   0.353
 2588SOL    HW1 8663   5.086   6.824   0.411
 2588SOL    HW2 8664   5.001   6.936   0.328
 2589SOL     OW 8665   0.346   5.869   4.865
 2589SOL    HW1 8666   0.369   5.862   4.962
 2589SOL    HW2 8667   0.429   5.861   4.810
 2590SOL     OW 8668   3.374   6.186   2.179
 2590SOL    HW1 8669   3.297   6.224   2.231
 2590SOL    HW2 8670   3.346   6.101   2.136
 2591SOL     OW 8671   6.260   6.123   2.644
 2591SOL    HW1 8672   6.329   6.188   2.611
 2591SOL    HW2 8673   6.178   6.173   2.674
 2592SOL     OW 8674   2.452   6.797   1.316
 2592SOL    HW1 8675   2.528   6.811   1.253
 2592SOL    HW2 8676   2.427   6.884   1.358
 2593SOL     OW 8677   2.592   5.959   1.598
 2593SOL    HW1 8678   2.599   6.039   1.656
 2593SOL    HW2 8679   2.659   5.891   1.626
 2594SOL     OW 8680   0.301   6.241   5.897
 2594SOL    HW1 8681   0.211   6.248   5.852
 2594SOL    HW2 8682   0.361   6.183   5.842
 2595SOL     OW 8683   6.610   1.281   5.502
 2595SOL    HW1 8684   6.587   1.222   5.425
 2595SOL    HW2 8685   6.555   1.255   5.581
 2596SOL     OW 8686   3.950   2.361   1.768
 2596SOL    HW1 8687   3.975   2.289   1.832
 2596SOL    HW2 8688   3.853   2.383   1.779
 2597SOL     OW 8689   1.738   3.806   6.906
 2597SOL    HW1 8690   1.819   3.751   6.889
 2597SOL    HW2 8691   1.727   3.821   7.004
 2598SOL     OW 8692   6.368   0.957   4.266
 2598SOL    HW1 8693   6.418   0.989   4.346
 2598SOL    HW2 8694   6.367   1.029   4.197
 2599SOL     OW 8695   2.826   0.191   0.862
 2599SOL    HW1 8696   2.895   0.260   0.879
 2599SOL    HW2 8697   2.848   0.142   0.778
 2600SOL     OW 8698   4.891   3.556   4.500
 2600SOL    HW1 8699   4.893   3.594   4.593
 2600SOL    HW2 8700   4.864   3.460   4.503
 2601SOL     OW 8701   2.635   1.535   6.539
 2601SOL    HW1 8702   2.660   1.554   6.444
 2601SOL    HW2 8703   2.542   1.567   6.556
 2602SOL     OW 8704   6.944   4.631   3.854
 2602SOL    HW1 8705   6.889   4.714   3.861
 2602SOL    HW2 8706   7.004   4.638   3.774
 2603SOL     OW 8707   2.088   1.745   2.228
 2603SOL    HW1 8708   2.102   1.843   2.241
 2603SOL    HW2 8709   2.176   1.701   2.213
 2604SOL     OW 8710   4.714   1.403   2.881
 2604SOL    HW1 8711   4.763   1.467   2.940
 2604SOL    HW2 8712   4.780   1.356   2.822
 2605SOL     OW 8713   2.912   4.798   3.261
 2605SOL    HW1 8714   2.954   4.774   3.174
 2605SOL    HW2 8715   2.983   4.815   3.329
 2606SOL     OW 8716   0.221   4.460   0.656
 2606SOL    HW1 8717   0.154   4.421   0.719
 2606SOL    HW2 8718   0.313   4.439   0.688
 2607SOL     OW 8719   0.716   1.137   5.515
 2607SOL    HW1 8720   0.672   1.047   5.511
 2607SOL    HW2 8721   0.815   1.125   5.504
 2608SOL     OW 8722   4.218   5.185   2.285
 2608SOL    HW1 8723   4.234   5.164   2.188
 2608SOL    HW2 8724   4.302   5.166   2.337
 2609SOL     OW 8725   0.352   2.022   2.274
 2609SOL    HW1 8726   0.296   1.940   2.263
 2609SOL    HW2 8727   0.430   2.019   2.211
 2610SOL     OW 8728   0.094   4.880   4.115
 2610SOL    HW1 8729   0.155   4.809   4.078
 2610SOL    HW2 8730   0.132   4.914   4.201
 2611SOL     OW 8731   5.109   6.327   1.471
 2611SOL    HW1 8732   5.029   6.272   1.450
 2611SOL    HW2 8733   5.107   6.355   1.567
 2612SOL     OW 8734   6.401   6.596   6.064
 2612SOL    HW1 8735   6.442   6.583   5.974
 2612SOL    HW2 8736   6.391   6.694   6.082
 2613SOL     OW 8737   2.862   6.396   1.096
 2613SOL    HW1 8738   2.773   6.421   1.059
 2613SOL    HW2 8739   2.934   6.434   1.038
 2614SOL     OW 8740   6.205   0.359   6.012
 2614SOL    HW1 8741   6.218   0.451   5.976
 2614SOL    HW2 8742   6.280   0.300   5.982
 2615SOL     OW 8743   6.226   3.709   2.943
 2615SOL    HW1 8744   6.324   3.713   2.924
 2615SOL    HW2 8745   6.181   3.653   2.874
 2616SOL     OW 8746   4.042   3.177   4.076
 2616SOL    HW1 8747   3.972   3.247   4.062
 2616SOL    HW2 8748   4.059   3.165   4.174
 2617SOL     OW 8749   3.990   6.262   1.064
 2617SOL    HW1 8750   3.995   6.181   1.005
 2617SOL    HW2 8751   4.030   6.241   1.153
 2618SOL     OW 8752   6.887   6.908   4.355
 2618SOL    HW1 8753   6.983   6.922   4.334
 2618SOL    HW2 8754   6.873   6.912   4.454
 2619SOL     OW 8755   3.821   1.130   3.101
 2619SOL    HW1 8756   3.902   1.157   3.154
 2619SOL    HW2 8757   3.814   1.188   3.020
 2620SOL     OW 8758   0.590   6.367   3.186
 2620SOL    HW1 8759   0.531   6.304   3.134
 2620SOL    HW2 8760   0.683   6.332   3.187
 2621SOL     OW 8761   1.736   5.730   2.452
 2621SOL    HW1 8762   1.705   5.823   2.429
 2621SOL    HW2 8763   1.739   5.675   2.368
 2622SOL     OW 8764   2.037   2.473   6.338
 2622SOL    HW1 8765   2.041   2.418   6.254
 2622SOL    HW2 8766   1.972   2.548   6.326
 2623SOL     OW 8767   3.286   1.648   5.543
 2623SOL    HW1 8768   3.206   1.589   5.554
 2623SOL    HW2 8769   3.347   1.609   5.474
 2624SOL     OW 8770   6.050   2.651   5.259
 2624SOL    HW1 8771   6.098   2.665   5.172
 2624SOL    HW2 8772   6.068   2.728   5.320
 2625SOL     OW 8773   2.967   1.904   5.727
 2625SOL    HW1 8774   2.992   1.821   5.778
 2625SOL    HW2 8775   2.965   1.884   5.629
 2626SOL     OW 8776   0.181   0.668   5.319
 2626SOL    HW1 8777   0.118   0.600   5.282
 2626SOL    HW2 8778   0.174   0.753   5.265
 2627SOL     OW 8779   1.021   0.987   4.969
 2627SOL    HW1 8780   1.031   1.040   4.885
 2627SOL    HW2 8781   1.033   1.047   5.048
 2628SOL     OW 8782   1.884   4.510   6.611
 2628SOL    HW1 8783   1.793   4.522   6.571
 2628SOL    HW2 8784   1.875   4.492   6.708
 2629SOL     OW 8785   3.294   4.176   1.767
 2629SOL    HW1 8786   3.203   4.211   1.742
 2629SOL    HW2 8787   3.286   4.117   1.847
 2630SOL     OW 8788   3.212   1.698   3.709
 2630SOL    HW1 8789   3.292   1.651   3.746
 2630SOL    HW2 8790   3.211   1.792   3.741
 2631SOL     OW 8791   5.094   0.479   4.316
 2631SOL    HW1 8792   5.089   0.437   4.226
 2631SOL    HW2 8793   5.167   0.436   4.369
 2632SOL     OW 8794   2.886   1.975   6.469
 2632SOL    HW1 8795   2.825   2.050   6.493
 2632SOL    HW2 8796   2.930   1.940   6.552
 2633SOL     OW 8797   6.710   1.501   5.143
 2633SOL    HW1 8798   6.706   1.534   5.238
 2633SOL    HW2 8799   6.617   1.484   5.110
 2634SOL     OW 8800   1.460   3.933   3.017
 2634SOL    HW1 8801   1.366   3.955   3.042
 2634SOL    HW2 8802   1.465   3.910   2.920
 2635SOL     OW 8803   6.191   5.967   5.289
 2635SOL    HW1 8804   6.176   5.869   5.301
 2635SOL    HW2 8805   6.151   5.997   5.202
 2636SOL     OW 8806   4.747   0.633   5.532
 2636SOL    HW1 8807   4.734   0.539   5.501
 2636SOL    HW2 8808   4.694   0.695   5.474
 2637SOL     OW 8809   5.530   1.746   3.897
 2637SOL    HW1 8810   5.463   1.820   3.901
 2637SOL    HW2 8811   5.528   1.703   3.806
 2638SOL     OW 8812   6.798   6.957   2.813
 2638SOL    HW1 8813   6.752   7.003   2.737
 2638SOL    HW2 8814   6.870   6.897   2.778
 2639SOL     OW 8815   1.139   0.474   1.793
 2639SOL    HW1 8816   1.074   0.438   1.727
 2639SOL    HW2 8817   1.161   0.569   1.771
 2640SOL     OW 8818   0.246   6.381   4.420
 2640SOL    HW1 8819   0.314   6.309   4.429
 2640SOL    HW2 8820   0.201   6.375   4.331
 2641SOL     OW 8821   4.955   2.945   1.915
 2641SOL    HW1 8822   4.863   2.943   1.952
 2641SOL    HW2 8823   4.957   3.002   1.833
 2642SOL     OW 8824   4.089   6.898   4.273
 2642SOL    HW1 8825   4.142   6.885   4.357
 2642SOL    HW2 8826   3.999   6.856   4.284
 2643SOL     OW 8827   0.619   3.614   2.791
 2643SOL    HW1 8828   0.698   3.579   2.740
 2643SOL    HW2 8829   0.613   3.713   2.780
 2644SOL     OW 8830   6.308   5.926   6.067
 2644SOL    HW1 8831   6.325   5.837   6.110
 2644SOL    HW2 8832   6.313   5.916   5.968
 2645SOL     OW 8833   4.513   5.614   4.417
 2645SOL    HW1 8834   4.512   5.530   4.364
 2645SOL    HW2 8835   4.549   5.595   4.509
 2646SOL     OW 8836   5.872   0.288   6.976
 2646SOL    HW1 8837   5.859   0.218   6.906
 2646SOL    HW2 8838   5.892   0.244   0.041
 2647SOL     OW 8839   6.732   0.917   2.274
 2647SOL    HW1 8840   6.790   0.958   2.345
 2647SOL    HW2 8841   6.658   0.867   2.318
 2648SOL     OW 8842   0.302   6.785   3.699
 2648SOL    HW1 8843   0.378   6.720   3.701
 2648SOL    HW2 8844   0.311   6.849   3.775
 2649SOL     OW 8845   6.062   3.431   6.671
 2649SOL    HW1 8846   6.137   3.494   6.695
 2649SOL    HW2 8847   6.097   3.338   6.668
 2650SOL     OW 8848   0.422   3.809   4.172
 2650SOL    HW1 8849   0.369   3.776   4.094
 2650SOL    HW2 8850   0.516   3.827   4.143
 2651SOL     OW 8851   0.377   2.069   0.294
 2651SOL    HW1 8852   0.348   2.033   0.205
 2651SOL    HW2 8853   0.322   2.027   0.366
 2652SOL     OW 8854   3.515   3.870   3.845
 2652SOL    HW1 8855   3.507   3.774   3.873
 2652SOL    HW2 8856   3.495   3.929   3.923
 2653SOL     OW 8857   5.374   0.221   5.301
 2653SOL    HW1 8858   5.323   0.258   5.379
 2653SOL    HW2 8859   5.432   0.294   5.262
 2654SOL     OW 8860   5.322   5.047   1.006
 2654SOL    HW1 8861   5.315   5.102   0.923
 2654SOL    HW2 8862   5.246   5.068   1.067
 2655SOL     OW 8863   4.701   5.139   4.215
 2655SOL    HW1 8864   4.741   5.230   4.227
 2655SOL    HW2 8865   4.628   5.126   4.282
 2656SOL     OW 8866   3.631   5.142   3.961
 2656SOL    HW1 8867   3.642   5.081   3.883
 2656SOL    HW2 8868   3.645   5.091   4.046
 2657SOL     OW 8869   1.706   4.029   6.701
 2657SOL    HW1 8870   1.724   3.971   6.780
 2657SOL    HW2 8871   1.792   4.055   6.658
 2658SOL     OW 8872   4.798   4.672   0.260
 2658SOL    HW1 8873   4.870   4.608   0.287
 2658SOL    HW2 8874   4.793   4.677   0.160
 2659SOL     OW 8875   5.856   2.988   5.123
 2659SOL    HW1 8876   5.932   3.018   5.065
 2659SOL    HW2 8877   5.786   3.060   5.125
 2660SOL     OW 8878   0.635   1.132   0.932
 2660SOL    HW1 8879   0.602   1.177   0.849
 2660SOL    HW2 8880   0.606   1.036   0.932
 2661SOL     OW 8881   2.266   6.338   0.805
 2661SOL    HW1 8882   2.262   6.359   0.903
 2661SOL    HW2 8883   2.334   6.267   0.789
 2662SOL     OW 8884   4.511   0.003   5.468
 2662SOL    HW1 8885   4.546   0.063   5.540
 2662SOL    HW2 8886   4.423   6.989   5.496
 2663SOL     OW 8887   2.361   3.958   1.043
 2663SOL    HW1 8888   2.327   4.052   1.053
 2663SOL    HW2 8889   2.381   3.920   1.133
 2664SOL     OW 8890   4.254   3.648   5.360
 2664SOL    HW1 8891   4.226   3.664   5.265
 2664SOL    HW2 8892   4.347   3.682   5.373
 2665SOL     OW 8893   2.517   2.805   5.333
 2665SOL    HW1 8894   2.494   2.899   5.307
 2665SOL    HW2 8895   2.482   2.742   5.264
 2666SOL     OW 8896   5.717   4.304   1.337
 2666SOL    HW1 8897   5.683   4.363   1.409
 2666SOL    HW2 8898   5.811   4.277   1.358
 2667SOL     OW 8899   1.671   5.933   4.219
 2667SOL    HW1 8900   1.766   5.917   4.242
 2667SOL    HW2 8901   1.642   6.021   4.255
 2668SOL     OW 8902   5.752   3.410   4.336
 2668SOL    HW1 8903   5.770   3.319   4.372
 2668SOL    HW2 8904   5.672   3.449   4.382
 2669SOL     OW 8905   2.878   4.570   5.433
 2669SOL    HW1 8906   2.787   4.534   5.453
 2669SOL    HW2 8907   2.902   4.549   5.338
 2670SOL     OW 8908   5.718   2.490   6.385
 2670SOL    HW1 8909   5.659   2.445   6.453
 2670SOL    HW2 8910   5.810   2.451   6.389
 2671SOL     OW 8911   3.986   4.909   6.408
 2671SOL    HW1 8912   3.982   4.816   6.373
 2671SOL    HW2 8913   3.981   4.907   6.508
 2672SOL     OW 8914   0.261   5.335   0.503
 2672SOL    HW1 8915   0.343   5.289   0.538
 2672SOL    HW2 8916   0.287   5.424   0.466
 2673SOL     OW 8917   6.316   1.298   4.472
 2673SOL    HW1 8918   6.364   1.210   4.467
 2673SOL    HW2 8919   6.339   1.344   4.557
 2674SOL     OW 8920   1.106   4.360   3.584
 2674SOL    HW1 8921   1.118   4.316   3.495
 2674SOL    HW2 8922   1.018   4.407   3.587
 2675SOL     OW 8923   6.203   5.453   3.967
 2675SOL    HW1 8924   6.151   5.459   4.052
 2675SOL    HW2 8925   6.267   5.529   3.961
 2676SOL     OW 8926   4.031   1.586   0.960
 2676SOL    HW1 8927   4.047   1.515   1.028
 2676SOL    HW2 8928   3.934   1.610   0.959
 2677SOL     OW 8929   3.018   3.810   0.457
 2677SOL    HW1 8930   2.919   3.813   0.469
 2677SOL    HW2 8931   3.063   3.845   0.539
 2678SOL     OW 8932   7.000   3.429   1.375
 2678SOL    HW1 8933   6.914   3.416   1.426
 2678SOL    HW2 8934   0.052   3.436   1.440
 2679SOL     OW 8935   3.563   4.981   0.939
 2679SOL    HW1 8936   3.468   4.997   0.966
 2679SOL    HW2 8937   3.581   4.883   0.934
 2680SOL     OW 8938   0.626   1.466   0.545
 2680SOL    HW1 8939   0.699   1.512   0.596
 2680SOL    HW2 8940   0.627   1.498   0.450
 2681SOL     OW 8941   1.324   2.523   4.684
 2681SOL    HW1 8942   1.324   2.506   4.783
 2681SOL    HW2 8943   1.236   2.561   4.656
 2682SOL     OW 8944   5.448   4.163   2.476
 2682SOL    HW1 8945   5.500   4.247   2.464
 2682SOL    HW2 8946   5.480   4.093   2.412
 2683SOL     OW 8947   2.573   3.708   0.593
 2683SOL    HW1 8948   2.529   3.739   0.677
 2683SOL    HW2 8949   2.506   3.708   0.519
 2684SOL     OW 8950   4.777   5.627   1.228
 2684SOL    HW1 8951   4.689   5.594   1.195
 2684SOL    HW2 8952   4.773   5.726   1.241
 2685SOL     OW 8953   6.177   6.289   0.026
 2685SOL    HW1 8954   6.169   6.381   7.011
 2685SOL    HW2 8955   6.176   6.222   6.974
 2686SOL     OW 8956   1.732   1.538   5.942
 2686SOL    HW1 8957   1.767   1.560   5.851
 2686SOL    HW2 8958   1.668   1.608   5.972
 2687SOL     OW 8959   4.671   4.409   2.080
 2687SOL    HW1 8960   4.751   4.392   2.023
 2687SOL    HW2 8961   4.590   4.370   2.037
 2688SOL     OW 8962   4.806   4.626   6.996
 2688SOL    HW1 8963   4.867   4.550   7.018
 2688SOL    HW2 8964   4.735   4.594   6.933
 2689SOL     OW 8965   1.264   3.522   3.915
 2689SOL    HW1 8966   1.286   3.440   3.967
 2689SOL    HW2 8967   1.165   3.540   3.920
 2690SOL     OW 8968   3.332   3.726   4.139
 2690SOL    HW1 8969   3.380   3.640   4.157
 2690SOL    HW2 8970   3.267   3.712   4.064
 2691SOL     OW 8971   1.583   5.377   2.367
 2691SOL    HW1 8972   1.661   5.432   2.339
 2691SOL    HW2 8973   1.609   5.319   2.445
 2692SOL     OW 8974   3.468   5.181   3.099
 2692SOL    HW1 8975   3.489   5.086   3.077
 2692SOL    HW2 8976   3.388   5.211   3.046
 2693SOL     OW 8977   1.182   4.299   2.809
 2693SOL    HW1 8978   1.225   4.350   2.883
 2693SOL    HW2 8979   1.083   4.307   2.815
 2694SOL     OW 8980   4.514   6.831   2.851
 2694SOL    HW1 8981   4.530   6.861   2.946
 2694SOL    HW2 8982   4.468   6.743   2.851
 2695SOL     OW 8983   4.614   0.373   2.643
 2695SOL    HW1 8984   4.652   0.324   2.721
 2695SOL    HW2 8985   4.535   0.427   2.672
 2696SOL     OW 8986   3.950   3.405   5.856
 2696SOL    HW1 8987   4.010   3.482   5.877
 2696SOL    HW2 8988   3.874   3.437   5.799
 2697SOL     OW 8989   3.283   1.915   3.099
 2697SOL    HW1 8990   3.290   1.998   3.155
 2697SOL    HW2 8991   3.282   1.940   3.002
 2698SOL     OW 8992   1.852   5.951   0.348
 2698SOL    HW1 8993   1.937   5.901   0.362
 2698SOL    HW2 8994   1.780   5.888   0.320
 2699SOL     OW 8995   3.154   6.730   0.340
 2699SOL    HW1 8996   3.119   6.731   0.434
 2699SOL    HW2 8997   3.134   6.642   0.298
 2700SOL     OW 8998   2.065   4.009   0.712
 2700SOL    HW1 8999   2.157   4.042   0.687
 2700SOL    HW2 9000   2.073   3.946   0.789
 2701SOL     OW 9001   4.222   1.045   6.501
 2701SOL    HW1 9002   4.317   1.013   6.507
 2701SOL    HW2 9003   4.219   1.144   6.515
 2702SOL     OW 9004   0.447   3.083   4.135
 2702SOL    HW1 9005   0.546   3.075   4.131
 2702SOL    HW2 9006   0.414   3.127   4.051
 2703SOL     OW 9007   1.955   0.289   2.356
 2703SOL    HW1 9008   1.890   0.363   2.343
 2703SOL    HW2 9009   2.031   0.320   2.413
 2704SOL     OW 9010   6.820   6.839   1.159
 2704SOL    HW1 9011   6.865   6.917   1.203
 2704SOL    HW2 9012   6.877   6.757   1.170
 2705SOL     OW 9013   0.938   5.266   4.214
 2705SOL    HW1 9014   0.966   5.280   4.119
 2705SOL    HW2 9015   0.962   5.173   4.242
 2706SOL     OW 9016   0.824   0.577   1.518
 2706SOL    HW1 9017   0.874   0.491   1.513
 2706SOL    HW2 9018   0.814   0.615   1.426
 2707SOL     OW 9019   2.957   0.424   4.661
 2707SOL    HW1 9020   2.904   0.380   4.734
 2707SOL    HW2 9021   2.894   0.471   4.599
 2708SOL     OW 9022   0.876   2.634   6.837
 2708SOL    HW1 9023   0.872   2.563   6.908
 2708SOL    HW2 9024   0.784   2.669   6.820
 2709SOL     OW 9025   6.019   6.505   0.270
 2709SOL    HW1 9026   6.107   6.544   0.300
 2709SOL    HW2 9027   5.985   6.443   0.341
 2710SOL     OW 9028   0.809   2.790   3.689
 2710SOL    HW1 9029   0.888   2.751   3.738
 2710SOL    HW2 9030   0.748   2.834   3.755
 2711SOL     OW 9031   2.681   1.577   4.073
 2711SOL    HW1 9032   2.666   1.480   4.055
 2711SOL    HW2 9033   2.658   1.630   3.991
 2712SOL     OW 9034   3.121   4.472   0.595
 2712SOL    HW1 9035   3.155   4.386   0.633
 2712SOL    HW2 9036   3.177   4.498   0.516
 2713SOL     OW 9037   2.019   2.155   5.067
 2713SOL    HW1 9038   2.108   2.200   5.078
 2713SOL    HW2 9039   1.946   2.223   5.074
 2714SOL     OW 9040   4.514   2.242   0.494
 2714SOL    HW1 9041   4.425   2.200   0.473
 2714SOL    HW2 9042   4.502   2.341   0.501
 2715SOL     OW 9043   4.925   1.552   0.465
 2715SOL    HW1 9044   4.891   1.461   0.487
 2715SOL    HW2 9045   4.848   1.616   0.459
 2716SOL     OW 9046   5.064   4.718   2.507
 2716SOL    HW1 9047   5.158   4.747   2.522
 2716SOL    HW2 9048   5.009   4.740   2.587
 2717SOL     OW 9049   2.178   4.736   2.201
 2717SOL    HW1 9050   2.141   4.650   2.165
 2717SOL    HW2 9051   2.244   4.715   2.274
 2718SOL     OW 9052   1.696   2.846   5.719
 2718SOL    HW1 9053   1.658   2.795   5.796
 2718SOL    HW2 9054   1.655   2.937   5.716
 2719SOL     OW 9055   6.723   6.130   1.012
 2719SOL    HW1 9056   6.690   6.101   1.101
 2719SOL    HW2 9057   6.706   6.058   0.944
 2720SOL     OW 9058   1.779   5.994   2.445
 2720SOL    HW1 9059   1.778   6.092   2.427
 2720SOL    HW2 9060   1.860   5.970   2.498
 2721SOL     OW 9061   3.182   0.412   3.845
 2721SOL    HW1 9062   3.158   0.492   3.899
 2721SOL    HW2 9063   3.281   0.401   3.844
 2722SOL     OW 9064   6.584   5.878   1.571
 2722SOL    HW1 9065   6.580   5.861   1.473
 2722SOL    HW2 9066   6.502   5.926   1.601
 2723SOL     OW 9067   0.791   0.032   5.798
 2723SOL    HW1 9068   0.741   7.019   5.719
 2723SOL    HW2 9069   0.864   6.992   5.822
 2724SOL     OW 9070   2.560   6.935   6.664
 2724SOL    HW1 9071   2.604   6.939   6.575
 2724SOL    HW2 9072   2.551   6.839   6.693
 2725SOL     OW 9073   5.639   4.468   4.114
 2725SOL    HW1 9074   5.705   4.401   4.149
 2725SOL    HW2 9075   5.653   4.556   4.160
 2726SOL     OW 9076   6.997   3.205   0.813
 2726SOL    HW1 9077   0.054   3.230   0.758
 2726SOL    HW2 9078   6.914   3.228   0.763
 2727SOL     OW 9079   0.632   5.139   3.857
 2727SOL    HW1 9080   0.720   5.093   3.869
 2727SOL    HW2 9081   0.648   5.233   3.825
 2728SOL     OW 9082   3.932   6.561   5.539
 2728SOL    HW1 9083   3.851   6.601   5.581
 2728SOL    HW2 9084   3.946   6.604   5.449
 2729SOL     OW 9085   6.845   5.831   1.408
 2729SOL    HW1 9086   6.910   5.761   1.438
 2729SOL    HW2 9087   6.817   5.811   1.314
 2730SOL     OW 9088   1.990   5.164   0.910
 2730SOL    HW1 9089   1.929   5.101   0.862
 2730SOL    HW2 9090   2.068   5.113   0.946
 2731SOL     OW 9091   3.795   3.727   2.150
 2731SOL    HW1 9092   3.851   3.790   2.204
 2731SOL    HW2 9093   3.850   3.687   2.078
 2732SOL     OW 9094   5.545   2.499   1.866
 2732SOL    HW1 9095   5.532   2.471   1.771
 2732SOL    HW2 9096   5.456   2.510   1.910
 2733SOL     OW 9097   0.395   0.169   4.788
 2733SOL    HW1 9098   0.461   0.243   4.778
 2733SOL    HW2 9099   0.424   0.091   4.733
 2734SOL     OW 9100   2.064   5.301   1.785
 2734SOL    HW1 9101   2.120   5.304   1.703
 2734SOL    HW2 9102   2.100   5.366   1.853
 2735SOL     OW 9103   1.057   3.417   3.155
 2735SOL    HW1 9104   1.081   3.502   3.110
 2735SOL    HW2 9105   1.088   3.339   3.100
 2736SOL     OW 9106   4.140   6.648   4.883
 2736SOL    HW1 9107   4.102   6.565   4.924
 2736SOL    HW2 9108   4.092   6.728   4.918
 2737SOL     OW 9109   3.751   3.502   5.720
 2737SOL    HW1 9110   3.666   3.477   5.766
 2737SOL    HW2 9111   3.741   3.488   5.622
 2738SOL     OW 9112   5.565   4.952   3.856
 2738SOL    HW1 9113   5.478   4.909   3.880
 2738SOL    HW2 9114   5.638   4.884   3.861
 2739SOL     OW 9115   6.985   4.702   0.863
 2739SOL    HW1 9116   6.948   4.726   0.953
 2739SOL    HW2 9117   7.010   4.785   0.813
 2740SOL     OW 9118   6.110   3.562   2.692
 2740SOL    HW1 9119   6.132   3.533   2.599
 2740SOL    HW2 9120   6.102   3.482   2.751
 2741SOL     OW 9121   6.155   0.493   5.538
 2741SOL    HW1 9122   6.096   0.447   5.471
 2741SOL    HW2 9123   6.204   0.568   5.494
 2742SOL     OW 9124   2.343   5.311   6.547
 2742SOL    HW1 9125   2.403   5.390   6.533
 2742SOL    HW2 9126   2.249   5.342   6.555
 2743SOL     OW 9127   0.028   5.368   2.441
 2743SOL    HW1 9128   0.070   5.432   2.505
 2743SOL    HW2 9129   0.062   5.276   2.458
 2744SOL     OW 9130   5.247   1.536   6.909
 2744SOL    HW1 9131   5.187   1.608   6.941
 2744SOL    HW2 9132   5.198   1.448   6.909
 2745SOL     OW 9133   0.477   6.887   6.072
 2745SOL    HW1 9134   0.429   6.819   6.127
 2745SOL    HW2 9135   0.461   6.869   5.975
 2746SOL     OW 9136   1.949   2.246   4.183
 2746SOL    HW1 9137   1.974   2.281   4.093
 2746SOL    HW2 9138   2.005   2.291   4.253
 2747SOL     OW 9139   5.950   3.687   5.552
 2747SOL    HW1 9140   6.030   3.632   5.529
 2747SOL    HW2 9141   5.893   3.698   5.470
 2748SOL     OW 9142   4.658   2.061   0.970
 2748SOL    HW1 9143   4.739   2.004   0.980
 2748SOL    HW2 9144   4.590   2.035   1.039
 2749SOL     OW 9145   6.304   4.517   3.402
 2749SOL    HW1 9146   6.360   4.569   3.337
 2749SOL    HW2 9147   6.208   4.525   3.378
 2750SOL     OW 9148   0.673   4.827   1.212
 2750SOL    HW1 9149   0.590   4.789   1.172
 2750SOL    HW2 9150   0.742   4.755   1.222
 2751SOL     OW 9151   0.319   6.463   0.868
 2751SOL    HW1 9152   0.337   6.517   0.950
 2751SOL    HW2 9153   0.381   6.493   0.795
 2752SOL     OW 9154   4.801   4.963   5.612
 2752SOL    HW1 9155   4.874   4.902   5.642
 2752SOL    HW2 9156   4.715   4.938   5.657
 2753SOL     OW 9157   0.654   0.210   5.946
 2753SOL    HW1 9158   0.613   0.169   6.028
 2753SOL    HW2 9159   0.722   0.147   5.908
 2754SOL     OW 9160   6.891   0.506   3.466
 2754SOL    HW1 9161   6.984   0.539   3.483
 2754SOL    HW2 9162   6.825   0.579   3.483
 2755SOL     OW 9163   2.419   0.281   3.922
 2755SOL    HW1 9164   2.511   0.320   3.925
 2755SOL    HW2 9165   2.362   0.324   3.992
 2756SOL     OW 9166   5.429   4.306   5.832
 2756SOL    HW1 9167   5.390   4.351   5.752
 2756SOL    HW2 9168   5.388   4.343   5.915
 2757SOL     OW 9169   2.360   1.508   6.124
 2757SOL    HW1 9170   2.419   1.589   6.132
 2757SOL    HW2 9171   2.281   1.519   6.185
 2758SOL     OW 9172   4.842   6.428   2.990
 2758SOL    HW1 9173   4.931   6.447   2.948
 2758SOL    HW2 9174   4.815   6.505   3.048
 2759SOL     OW 9175   4.553   5.363   5.169
 2759SOL    HW1 9176   4.615   5.291   5.138
 2759SOL    HW2 9177   4.569   5.446   5.116
 2760SOL     OW 9178   0.544   5.997   2.590
 2760SOL    HW1 9179   0.625   5.938   2.580
 2760SOL    HW2 9180   0.573   6.093   2.587
 2761SOL     OW 9181   2.016   4.573   5.002
 2761SOL    HW1 9182   2.080   4.606   4.931
 2761SOL    HW2 9183   2.050   4.486   5.039
 2762SOL     OW 9184   2.107   1.358   6.253
 2762SOL    HW1 9185   2.033   1.376   6.319
 2762SOL    HW2 9186   2.075   1.379   6.161
 2763SOL     OW 9187   4.537   2.142   4.754
 2763SOL    HW1 9188   4.623   2.101   4.784
 2763SOL    HW2 9189   4.475   2.071   4.722
 2764SOL     OW 9190   0.354   0.618   2.071
 2764SOL    HW1 9191   0.319   0.542   2.016
 2764SOL    HW2 9192   0.278   0.669   2.110
 2765SOL     OW 9193   6.570   6.929   1.233
 2765SOL    HW1 9194   6.657   6.887   1.207
 2765SOL    HW2 9195   6.511   6.936   1.153
 2766SOL     OW 9196   4.516   2.556   0.031
 2766SOL    HW1 9197   4.561   2.632   0.077
 2766SOL    HW2 9198   4.573   2.474   0.037
 2767SOL     OW 9199   6.866   5.448   0.004
 2767SOL    HW1 9200   6.880   5.404   6.939
 2767SOL    HW2 9201   6.848   5.546   7.014
 2768SOL     OW 9202   4.664   0.752   1.392
 2768SOL    HW1 9203   4.604   0.719   1.319
 2768SOL    HW2 9204   4.657   0.851   1.400
 2769SOL     OW 9205   2.299   4.086   6.526
 2769SOL    HW1 9206   2.309   4.056   6.432
 2769SOL    HW2 9207   2.246   4.171   6.529
 2770SOL     OW 9208   4.733   5.699   5.399
 2770SOL    HW1 9209   4.725   5.600   5.410
 2770SOL    HW2 9210   4.653   5.733   5.350
 2771SOL     OW 9211   5.576   1.350   4.636
 2771SOL    HW1 9212   5.529   1.422   4.687
 2771SOL    HW2 9213   5.643   1.392   4.574
 2772SOL     OW 9214   3.189   1.447   0.874
 2772SOL    HW1 9215   3.189   1.362   0.822
 2772SOL    HW2 9216   3.222   1.522   0.816
 2773SOL     OW 9217   6.364   2.772   4.195
 2773SOL    HW1 9218   6.450   2.726   4.218
 2773SOL    HW2 9219   6.307   2.711   4.140
 2774SOL     OW 9220   5.437   2.898   3.168
 2774SOL    HW1 9221   5.477   2.811   3.197
 2774SOL    HW2 9222   5.496   2.973   3.197
 2775SOL     OW 9223   6.497   3.526   5.513
 2775SOL    HW1 9224   6.593   3.549   5.533
 2775SOL    HW2 9225   6.495   3.458   5.439
 2776SOL     OW 9226   4.931   4.130   5.883
 2776SOL    HW1 9227   4.945   4.090   5.792
 2776SOL    HW2 9228   5.016   4.122   5.936
 2777SOL     OW 9229   2.763   2.028   1.426
 2777SOL    HW1 9230   2.739   2.092   1.353
 2777SOL    HW2 9231   2.685   2.018   1.489
 2778SOL     OW 9232   1.117   6.752   6.076
 2778SOL    HW1 9233   1.115   6.737   5.977
 2778SOL    HW2 9234   1.173   6.682   6.120
 2779SOL     OW 9235   5.577   6.907   2.192
 2779SOL    HW1 9236   5.597   6.971   2.118
 2779SOL    HW2 9237   5.532   6.825   2.155
 2780SOL     OW 9238   0.428   6.821   5.821
 2780SOL    HW1 9239   0.385   6.759   5.755
 2780SOL    HW2 9240   0.485   6.887   5.773
 2781SOL     OW 9241   5.786   0.733   2.738
 2781SOL    HW1 9242   5.785   0.711   2.835
 2781SOL    HW2 9243   5.746   0.824   2.724
 2782SOL     OW 9244   4.455   1.429   5.371
 2782SOL    HW1 9245   4.437   1.477   5.457
 2782SOL    HW2 9246   4.430   1.333   5.380
 2783SOL     OW 9247   6.248   4.254   2.525
 2783SOL    HW1 9248   6.190   4.174   2.513
 2783SOL    HW2 9249   6.308   4.241   2.604
 2784SOL     OW 9250   3.308   1.410   2.199
 2784SOL    HW1 9251   3.394   1.363   2.176
 2784SOL    HW2 9252   3.272   1.456   2.118
 2785SOL     OW 9253   5.323   2.426   0.797
 2785SOL    HW1 9254   5.354   2.513   0.758
 2785SOL    HW2 9255   5.346   2.424   0.895
 2786SOL     OW 9256   6.045   6.992   2.144
 2786SOL    HW1 9257   5.962   6.992   2.089
 2786SOL    HW2 9258   6.042   0.046   2.208
 2787SOL     OW 9259   5.783   6.553   5.759
 2787SOL    HW1 9260   5.818   6.619   5.826
 2787SOL    HW2 9261   5.683   6.558   5.756
 2788SOL     OW 9262   2.932   6.548   5.545
 2788SOL    HW1 9263   2.833   6.566   5.541
 2788SOL    HW2 9264   2.982   6.634   5.542
 2789SOL     OW 9265   2.067   2.156   3.912
 2789SOL    HW1 9266   2.028   2.064   3.917
 2789SOL    HW2 9267   2.082   2.181   3.816
 2790SOL     OW 9268   3.383   5.399   1.174
 2790SOL    HW1 9269   3.352   5.377   1.267
 2790SOL    HW2 9270   3.329   5.347   1.108
 2791SOL     OW 9271   0.526   3.167   2.389
 2791SOL    HW1 9272   0.526   3.069   2.405
 2791SOL    HW2 9273   0.558   3.214   2.472
 2792SOL     OW 9274   2.559   0.611   4.217
 2792SOL    HW1 9275   2.554   0.682   4.287
 2792SOL    HW2 9276   2.499   0.635   4.141
 2793SOL     OW 9277   5.032   3.593   1.565
 2793SOL    HW1 9278   5.088   3.513   1.543
 2793SOL    HW2 9279   4.956   3.565   1.624
 2794SOL     OW 9280   6.510   1.745   6.233
 2794SOL    HW1 9281   6.579   1.714   6.168
 2794SOL    HW2 9282   6.430   1.685   6.228
 2795SOL     OW 9283   1.303   3.359   1.245
 2795SOL    HW1 9284   1.334   3.266   1.266
 2795SOL    HW2 9285   1.365   3.400   1.179
 2796SOL     OW 9286   0.068   6.281   3.176
 2796SOL    HW1 9287   7.011   6.328   3.213
 2796SOL    HW2 9288   0.105   6.219   3.245
 2797SOL     OW 9289   5.242   5.776   5.074
 2797SOL    HW1 9290   5.242   5.679   5.101
 2797SOL    HW2 9291   5.148   5.808   5.064
 2798SOL     OW 9292   6.406   5.906   2.548
 2798SOL    HW1 9293   6.350   5.987   2.561
 2798SOL    HW2 9294   6.361   5.827   2.588
 2799SOL     OW 9295   5.826   5.781   5.718
 2799SOL    HW1 9296   5.799   5.868   5.677
 2799SOL    HW2 9297   5.877   5.798   5.802
 2800SOL     OW 9298   5.233   6.379   5.803
 2800SOL    HW1 9299   5.310   6.418   5.853
 2800SOL    HW2 9300   5.255   6.373   5.706
 2801SOL     OW 9301   0.584   5.359   5.639
 2801SOL    HW1 9302   0.614   5.449   5.670
 2801SOL    HW2 9303   0.544   5.367   5.547
 2802SOL     OW 9304   5.494   6.740   5.346
 2802SOL    HW1 9305   5.451   6.828   5.364
 2802SOL    HW2 9306   5.581   6.734   5.395
 2803SOL     OW 9307   4.050   5.077   5.747
 2803SOL    HW1 9308   4.063   5.080   5.846
 2803SOL    HW2 9309   3.988   5.150   5.720
 2804SOL     OW 9310   1.083   4.047   5.121
 2804SOL    HW1 9311   1.025   4.077   5.045
 2804SOL    HW2 9312   1.120   4.127   5.169
 2805SOL     OW 9313   6.065   3.319   2.802
 2805SOL    HW1 9314   5.978   3.272   2.817
 2805SOL    HW2 9315   6.137   3.273   2.854
 2806SOL     OW 9316   2.136   4.008   6.057
 2806SOL    HW1 9317   2.099   3.956   5.980
 2806SOL    HW2 9318   2.222   3.968   6.087
 2807SOL     OW 9319   4.778   6.914   3.521
 2807SOL    HW1 9320   4.740   6.834   3.475
 2807SOL    HW2 9321   4.706   6.958   3.575
 2808SOL     OW 9322   6.261   5.238   1.851
 2808SOL    HW1 9323   6.360   5.244   1.839
 2808SOL    HW2 9324   6.229   5.313   1.909
 2809SOL     OW 9325   4.863   2.875   1.191
 2809SOL    HW1 9326   4.806   2.916   1.262
 2809SOL    HW2 9327   4.959   2.897   1.209
 2810SOL     OW 9328   2.396   5.865   2.656
 2810SOL    HW1 9329   2.330   5.894   2.726
 2810SOL    HW2 9330   2.457   5.941   2.635
 2811SOL     OW 9331   1.742   1.698   3.668
 2811SOL    HW1 9332   1.706   1.604   3.667
 2811SOL    HW2 9333   1.701   1.748   3.744
 2812SOL     OW 9334   6.061   3.506   0.539
 2812SOL    HW1 9335   6.129   3.509   0.465
 2812SOL    HW2 9336   5.994   3.434   0.519
 2813SOL     OW 9337   0.678   1.550   0.278
 2813SOL    HW1 9338   0.639   1.458   0.267
 2813SOL    HW2 9339   0.771   1.551   0.241
 2814SOL     OW 9340   3.202   3.915   5.359
 2814SOL    HW1 9341   3.239   3.933   5.268
 2814SOL    HW2 9342   3.252   3.969   5.427
 2815SOL     OW 9343   6.618   4.792   6.596
 2815SOL    HW1 9344   6.586   4.709   6.550
 2815SOL    HW2 9345   6.552   4.817   6.668
 2816SOL     OW 9346   6.623   6.102   4.261
 2816SOL    HW1 9347   6.711   6.080   4.304
 2816SOL    HW2 9348   6.549   6.082   4.325
 2817SOL     OW 9349   2.967   0.379   2.206
 2817SOL    HW1 9350   3.019   0.453   2.248
 2817SOL    HW2 9351   2.971   0.386   2.107
 2818SOL     OW 9352   0.101   1.268   2.244
 2818SOL    HW1 9353   0.074   1.224   2.329
 2818SOL    HW2 9354   0.198   1.293   2.249
 2819SOL     OW 9355   2.101   6.962   1.955
 2819SOL    HW1 9356   2.013   7.009   1.961
 2819SOL    HW2 9357   2.136   6.946   2.048
 2820SOL     OW 9358   1.838   1.987   3.354
 2820SOL    HW1 9359   1.739   1.985   3.366
 2820SOL    HW2 9360   1.881   1.937   3.429
 2821SOL     OW 9361   3.206   4.673   5.782
 2821SOL    HW1 9362   3.121   4.713   5.749
 2821SOL    HW2 9363   3.245   4.615   5.710
 2822SOL     OW 9364   4.422   1.964   0.665
 2822SOL    HW1 9365   4.522   1.970   0.666
 2822SOL    HW2 9366   4.392   1.907   0.742
 2823SOL     OW 9367   5.661   1.438   0.262
 2823SOL    HW1 9368   5.580   1.447   0.205
 2823SOL    HW2 9369   5.727   1.379   0.216
 2824SOL     OW 9370   1.751   1.903   5.465
 2824SOL    HW1 9371   1.722   1.981   5.409
 2824SOL    HW2 9372   1.827   1.856   5.420
 2825SOL     OW 9373   5.361   0.081   5.913
 2825SOL    HW1 9374   5.435   0.132   5.870
 2825SOL    HW2 9375   5.372   0.083   6.013
 2826SOL     OW 9376   4.131   2.664   6.840
 2826SOL    HW1 9377   4.136   2.651   6.741
 2826SOL    HW2 9378   4.224   2.669   6.877
 2827SOL     OW 9379   0.140   0.691   6.477
 2827SOL    HW1 9380   0.224   0.669   6.426
 2827SOL    HW2 9381   0.074   0.618   6.466
 2828SOL     OW 9382   1.717   2.423   0.709
 2828SOL    HW1 9383   1.669   2.423   0.797
 2828SOL    HW2 9384   1.797   2.483   0.715
 2829SOL     OW 9385   3.493   3.409   3.693
 2829SOL    HW1 9386   3.449   3.341   3.752
 2829SOL    HW2 9387   3.515   3.368   3.604
 2830SOL     OW 9388   2.897   3.983   5.063
 2830SOL    HW1 9389   2.817   4.019   5.016
 2830SOL    HW2 9390   2.976   3.987   5.002
 2831SOL     OW 9391   1.041   3.517   3.390
 2831SOL    HW1 9392   1.050   3.455   3.312
 2831SOL    HW2 9393   0.959   3.573   3.380
 2832SOL     OW 9394   0.812   2.991   1.838
 2832SOL    HW1 9395   0.870   3.066   1.808
 2832SOL    HW2 9396   0.836   2.908   1.789
 2833SOL     OW 9397   3.175   1.449   2.459
 2833SOL    HW1 9398   3.233   1.487   2.388
 2833SOL    HW2 9399   3.132   1.524   2.510
 2834SOL     OW 9400   3.626   6.343   5.653
 2834SOL    HW1 9401   3.541   6.354   5.704
 2834SOL    HW2 9402   3.665   6.432   5.633
 2835SOL     OW 9403   0.755   6.720   1.345
 2835SOL    HW1 9404   0.796   6.663   1.274
 2835SOL    HW2 9405   0.803   6.807   1.349
 2836SOL     OW 9406   1.263   6.679   1.398
 2836SOL    HW1 9407   1.234   6.773   1.382
 2836SOL    HW2 9408   1.207   6.639   1.470
 2837SOL     OW 9409   5.309   4.517   2.413
 2837SOL    HW1 9410   5.282   4.612   2.426
 2837SOL    HW2 9411   5.354   4.483   2.496
 2838SOL     OW 9412   4.350   3.812   0.941
 2838SOL    HW1 9413   4.401   3.806   1.027
 2838SOL    HW2 9414   4.330   3.720   0.907
 2839SOL     OW 9415   7.018   2.789   2.754
 2839SOL    HW1 9416   0.064   2.813   2.686
 2839SOL    HW2 9417   6.928   2.821   2.723
 2840SOL     OW 9418   1.514   5.831   1.920
 2840SOL    HW1 9419   1.567   5.901   1.873
 2840SOL    HW2 9420   1.416   5.852   1.914
 2841SOL     OW 9421   6.031   2.018   6.292
 2841SOL    HW1 9422   6.124   2.016   6.256
 2841SOL    HW2 9423   6.026   1.963   6.375
 2842SOL     OW 9424   0.392   5.214   4.224
 2842SOL    HW1 9425   0.350   5.285   4.280
 2842SOL    HW2 9426   0.382   5.237   4.127
 2843SOL     OW 9427   2.735   1.952   2.752
 2843SOL    HW1 9428   2.783   1.895   2.818
 2843SOL    HW2 9429   2.761   2.048   2.766
 2844SOL     OW 9430   6.510   5.470   0.721
 2844SOL    HW1 9431   6.494   5.426   0.633
 2844SOL    HW2 9432   6.571   5.548   0.709
 2845SOL     OW 9433   5.105   3.106   2.295
 2845SOL    HW1 9434   5.177   3.036   2.301
 2845SOL    HW2 9435   5.104   3.159   2.380
 2846SOL     OW 9436   3.885   0.215   0.384
 2846SOL    HW1 9437   3.894   0.282   0.310
 2846SOL    HW2 9438   3.788   0.205   0.408
 2847SOL     OW 9439   5.200   3.990   3.607
 2847SOL    HW1 9440   5.241   4.045   3.534
 2847SOL    HW2 9441   5.239   4.017   3.695
 2848SOL     OW 9442   2.581   2.881   5.809
 2848SOL    HW1 9443   2.627   2.949   5.866
 2848SOL    HW2 9444   2.610   2.891   5.714
 2849SOL     OW 9445   3.416   0.361   0.860
 2849SOL    HW1 9446   3.329   0.327   0.895
 2849SOL    HW2 9447   3.489   0.344   0.926
 2850SOL     OW 9448   2.027   0.196   2.959
 2850SOL    HW1 9449   1.971   0.116   2.982
 2850SOL    HW2 9450   2.117   0.165   2.927
 2851SOL     OW 9451   5.449   2.646   6.590
 2851SOL    HW1 9452   5.355   2.676   6.605
 2851SOL    HW2 9453   5.496   2.713   6.532
 2852SOL     OW 9454   6.006   4.445   0.141
 2852SOL    HW1 9455   5.949   4.470   0.063
 2852SOL    HW2 9456   6.095   4.414   0.108
 2853SOL     OW 9457   1.623   2.488   6.885
 2853SOL    HW1 9458   1.625   2.581   6.924
 2853SOL    HW2 9459   1.551   2.435   6.929
 2854SOL     OW 9460   4.215   0.912   5.790
 2854SOL    HW1 9461   4.298   0.920   5.735
 2854SOL    HW2 9462   4.184   0.817   5.790
 2855SOL     OW 9463   1.256   2.069   5.401
 2855SOL    HW1 9464   1.350   2.081   5.434
 2855SOL    HW2 9465   1.237   2.139   5.331
 2856SOL     OW 9466   0.756   3.252   4.349
 2856SOL    HW1 9467   0.825   3.232   4.279
 2856SOL    HW2 9468   0.677   3.295   4.305
 2857SOL     OW 9469   0.602   2.474   1.587
 2857SOL    HW1 9470   0.549   2.542   1.638
 2857SOL    HW2 9471   0.599   2.497   1.490
 2858SOL     OW 9472   4.249   4.944   2.558
 2858SOL    HW1 9473   4.257   4.940   2.458
 2858SOL    HW2 9474   4.337   4.920   2.599
 2859SOL     OW 9475   6.389   6.983   6.813
 2859SOL    HW1 9476   6.436   6.969   6.900
 2859SOL    HW2 9477   6.310   0.019   6.826
 2860SOL     OW 9478   2.318   0.627   2.546
 2860SOL    HW1 9479   2.378   0.701   2.576
 2860SOL    HW2 9480   2.248   0.610   2.615
 2861SOL     OW 9481   3.215   5.500   5.345
 2861SOL    HW1 9482   3.228   5.484   5.247
 2861SOL    HW2 9483   3.146   5.436   5.380
 2862SOL     OW 9484   4.372   2.494   1.540
 2862SOL    HW1 9485   4.310   2.492   1.462
 2862SOL    HW2 9486   4.458   2.450   1.515
 2863SOL     OW 9487   5.048   1.491   6.298
 2863SOL    HW1 9488   5.117   1.561   6.280
 2863SOL    HW2 9489   5.005   1.464   6.212
 2864SOL     OW 9490   4.571   2.551   0.725
 2864SOL    HW1 9491   4.670   2.560   0.710
 2864SOL    HW2 9492   4.552   2.461   0.765
 2865SOL     OW 9493   4.094   6.437   3.847
 2865SOL    HW1 9494   4.117   6.531   3.870
 2865SOL    HW2 9495   4.013   6.409   3.899
 2866SOL     OW 9496   5.592   4.506   0.358
 2866SOL    HW1 9497   5.663   4.572   0.384
 2866SOL    HW2 9498   5.512   4.519   0.417
 2867SOL     OW 9499   5.774   6.024   3.012
 2867SOL    HW1 9500   5.729   5.935   3.007
 2867SOL    HW2 9501   5.855   6.016   3.071
 2868SOL     OW 9502   1.485   1.142   5.535
 2868SOL    HW1 9503   1.468   1.050   5.500
 2868SOL    HW2 9504   1.540   1.136   5.619
 2869SOL     OW 9505   6.669   0.678   3.037
 2869SOL    HW1 9506   6.618   0.678   2.951
 2869SOL    HW2 9507   6.605   0.682   3.113
 2870SOL     OW 9508   0.673   2.117   5.932
 2870SOL    HW1 9509   0.772   2.131   5.939
 2870SOL    HW2 9510   0.648   2.100   5.837
 2871SOL     OW 9511   5.569   0.667   1.148
 2871SOL    HW1 9512   5.523   0.724   1.081
 2871SOL    HW2 9513   5.607   0.725   1.221
 2872SOL     OW 9514   2.394   2.153   1.038
 2872SOL    HW1 9515   2.352   2.064   1.055
 2872SOL    HW2 9516   2.440   2.185   1.121
 2873SOL     OW 9517   6.713   6.787   2.397
 2873SOL    HW1 9518   6.713   6.875   2.351
 2873SOL    HW2 9519   6.803   6.771   2.438
 2874SOL     OW 9520   4.021   6.461   2.814
 2874SOL    HW1 9521   3.930   6.457   2.854
 2874SOL    HW2 9522   4.087   6.419   2.876
 2875SOL     OW 9523   4.528   0.179   1.655
 2875SOL    HW1 9524   4.465   0.212   1.726
 2875SOL    HW2 9525   4.596   0.119   1.697
 2876SOL     OW 9526   1.971   0.362   3.192
 2876SOL    HW1 9527   1.887   0.394   3.147
 2876SOL    HW2 9528   2.020   0.300   3.130
 2877SOL     OW 9529   2.665   1.176   6.136
 2877SOL    HW1 9530   2.724   1.202   6.060
 2877SOL    HW2 9531   2.691   1.084   6.167
 2878SOL     OW 9532   2.872   3.723   5.174
 2878SOL    HW1 9533   2.901   3.811   5.137
 2878SOL    HW2 9534   2.873   3.654   5.101
 2879SOL     OW 9535   5.594   5.409   5.639
 2879SOL    HW1 9536   5.642   5.489   5.676
 2879SOL    HW2 9537   5.658   5.332   5.634
 2880SOL     OW 9538   0.789   1.398   2.966
 2880SOL    HW1 9539   0.778   1.423   3.062
 2880SOL    HW2 9540   0.831   1.474   2.916
 2881SOL     OW 9541   3.979   5.975   0.280
 2881SOL    HW1 9542   3.987   5.887   0.235
 2881SOL    HW2 9543   4.030   5.974   0.366
 2882SOL     OW 9544   0.061   5.754   1.192
 2882SOL    HW1 9545   0.017   5.706   1.117
 2882SOL    HW2 9546   0.024   5.847   1.198
 2883SOL     OW 9547   5.553   0.067   3.751
 2883SOL    HW1 9548   5.541   0.137   3.821
 2883SOL    HW2 9549   5.613   0.102   3.679
 2884SOL     OW 9550   0.908   6.382   2.604
 2884SOL    HW1 9551   0.978   6.311   2.596
 2884SOL    HW2 9552   0.951   6.468   2.633
 2885SOL     OW 9553   1.735   2.786   4.453
 2885SOL    HW1 9554   1.807   2.756   4.515
 2885SOL    HW2 9555   1.645   2.767   4.494
 2886SOL     OW 9556   1.998   3.436   6.490
 2886SOL    HW1 9557   1.945   3.469   6.568
 2886SOL    HW2 9558   2.062   3.507   6.460
 2887SOL     OW 9559   0.911   6.847   4.962
 2887SOL    HW1 9560   0.828   6.801   4.931
 2887SOL    HW2 9561   0.952   6.795   5.037
 2888SOL     OW 9562   0.475   4.383   0.103
 2888SOL    HW1 9563   0.423   4.306   0.141
 2888SOL    HW2 9564   0.430   4.415   0.019
 2889SOL     OW 9565   2.866   5.940   2.600
 2889SOL    HW1 9566   2.881   5.868   2.531
 2889SOL    HW2 9567   2.772   5.975   2.592
 2890SOL     OW 9568   1.583   6.372   0.648
 2890SOL    HW1 9569   1.632   6.435   0.589
 2890SOL    HW2 9570   1.643   6.295   0.673
 2891SOL     OW 9571   0.814   3.852   3.514
 2891SOL    HW1 9572   0.810   3.803   3.601
 2891SOL    HW2 9573   0.838   3.948   3.531
 2892SOL     OW 9574   6.058   3.207   1.270
 2892SOL    HW1 9575   6.003   3.249   1.342
 2892SOL    HW2 9576   6.090   3.277   1.206
 2893SOL     OW 9577   1.044   5.234   4.533
 2893SOL    HW1 9578   1.127   5.182   4.553
 2893SOL    HW2 9579   0.966   5.189   4.576
 2894SOL     OW 9580   1.170   2.970   1.668
 2894SOL    HW1 9581   1.215   2.988   1.755
 2894SOL    HW2 9582   1.108   3.046   1.647
 2895SOL     OW 9583   5.515   1.395   5.564
 2895SOL    HW1 9584   5.428   1.350   5.583
 2895SOL    HW2 9585   5.580   1.327   5.527
 2896SOL     OW 9586   3.913   6.981   5.368
 2896SOL    HW1 9587   3.901   6.884   5.347
 2896SOL    HW2 9588   3.899   0.012   5.286
 2897SOL     OW 9589   3.669   5.182   2.580
 2897SOL    HW1 9590   3.740   5.214   2.642
 2897SOL    HW2 9591   3.697   5.096   2.538
 2898SOL     OW 9592   4.119   4.886   4.503
 2898SOL    HW1 9593   4.128   4.918   4.409
 2898SOL    HW2 9594   4.199   4.830   4.527
 2899SOL     OW 9595   0.517   1.498   1.006
 2899SOL    HW1 9596   0.520   1.427   0.935
 2899SOL    HW2 9597   0.432   1.490   1.057
 2900SOL     OW 9598   3.795   4.624   6.569
 2900SOL    HW1 9599   3.729   4.553   6.593
 2900SOL    HW2 9600   3.754   4.684   6.500
 2901SOL     OW 9601   2.679   4.668   3.316
 2901SOL    HW1 9602   2.654   4.691   3.411
 2901SOL    HW2 9603   2.774   4.694   3.299
 2902SOL     OW 9604   6.721   5.075   3.112
 2902SOL    HW1 9605   6.706   4.977   3.121
 2902SOL    HW2 9606   6.651   5.114   3.052
 2903SOL     OW 9607   4.285   6.424   0.684
 2903SOL    HW1 9608   4.228   6.427   0.766
 2903SOL    HW2 9609   4.231   6.390   0.607
 2904SOL     OW 9610   2.731   5.276   4.768
 2904SOL    HW1 9611   2.767   5.182   4.763
 2904SOL    HW2 9612   2.668   5.283   4.846
 2905SOL     OW 9613   1.459   3.906   4.195
 2905SOL    HW1 9614   1.531   3.903   4.126
 2905SOL    HW2 9615   1.382   3.850   4.165
 2906SOL     OW 9616   4.629   5.621   2.854
 2906SOL    HW1 9617   4.560   5.624   2.927
 2906SOL    HW2 9618   4.654   5.715   2.829
 2907SOL     OW 9619   0.625   1.700   3.337
 2907SOL    HW1 9620   0.669   1.740   3.417
 2907SOL    HW2 9621   0.641   1.758   3.257
 2908SOL     OW 9622   4.866   0.309   3.439
 2908SOL    HW1 9623   4.947   0.257   3.466
 2908SOL    HW2 9624   4.797   0.246   3.403
 2909SOL     OW 9625   2.340   5.925   4.230
 2909SOL    HW1 9626   2.376   5.855   4.292
 2909SOL    HW2 9627   2.342   6.014   4.276
 2910SOL     OW 9628   5.383   0.300   4.203
 2910SOL    HW1 9629   5.344   0.330   4.290
 2910SOL    HW2 9630   5.407   0.204   4.208
 2911SOL     OW 9631   2.065   5.589   3.829
 2911SOL    HW1 9632   2.038   5.639   3.911
 2911SOL    HW2 9633   2.014   5.503   3.824
 2912SOL     OW 9634   6.310   6.908   0.638
 2912SOL    HW1 9635   6.391   6.939   0.687
 2912SOL    HW2 9636   6.302   6.957   0.552
 2913SOL     OW 9637   3.893   4.804   1.928
 2913SOL    HW1 9638   3.884   4.892   1.882
 2913SOL    HW2 9639   3.803   4.762   1.938
 2914SOL     OW 9640   6.000   5.985   6.736
 2914SOL    HW1 9641   5.998   5.943   6.827
 2914SOL    HW2 9642   5.980   5.916   6.666
 2915SOL     OW 9643   3.207   2.016   3.501
 2915SOL    HW1 9644   3.188   2.112   3.524
 2915SOL    HW2 9645   3.120   1.968   3.489
 2916SOL     OW 9646   1.200   5.972   0.572
 2916SOL    HW1 9647   1.284   6.004   0.617
 2916SOL    HW2 9648   1.138   6.049   0.559
 2917SOL     OW 9649   2.728   0.036   3.974
 2917SOL    HW1 9650   2.635   0.072   3.984
 2917SOL    HW2 9651   2.794   0.105   4.003
 2918SOL     OW 9652   6.092   4.416   5.554
 2918SOL    HW1 9653   6.028   4.396   5.480
 2918SOL    HW2 9654   6.185   4.398   5.522
 2919SOL     OW 9655   6.035   0.655   2.643
 2919SOL    HW1 9656   6.032   0.561   2.607
 2919SOL    HW2 9657   5.943   0.683   2.670
 2920SOL     OW 9658   2.745   1.117   1.037
 2920SOL    HW1 9659   2.656   1.157   1.011
 2920SOL    HW2 9660   2.766   1.041   0.976
 2921SOL     OW 9661   0.787   0.154   5.291
 2921SOL    HW1 9662   0.761   0.065   5.253
 2921SOL    HW2 9663   0.708   0.196   5.335
 2922SOL     OW 9664   4.727   6.558   1.654
 2922SOL    HW1 9665   4.740   6.561   1.555
 2922SOL    HW2 9666   4.728   6.462   1.684
 2923SOL     OW 9667   6.145   5.786   3.591
 2923SOL    HW1 9668   6.140   5.844   3.510
 2923SOL    HW2 9669   6.100   5.832   3.668
 2924SOL     OW 9670   6.616   2.415   5.352
 2924SOL    HW1 9671   6.702   2.379   5.317
 2924SOL    HW2 9672   6.599   2.379   5.443
 2925SOL     OW 9673   6.157   2.343   0.314
 2925SOL    HW1 9674   6.095   2.421   0.302
 2925SOL    HW2 9675   6.127   2.288   0.392
 2926SOL     OW 9676   5.882   2.274   6.727
 2926SOL    HW1 9677   5.919   2.351   6.675
 2926SOL    HW2 9678   5.929   2.190   6.700
 2927SOL     OW 9679   1.816   3.466   1.089
 2927SOL    HW1 9680   1.854   3.421   1.008
 2927SOL    HW2 9681   1.842   3.563   1.089
 2928SOL     OW 9682   6.543   0.883   6.394
 2928SOL    HW1 9683   6.458   0.935   6.398
 2928SOL    HW2 9684   6.584   0.878   6.485
 2929SOL     OW 9685   1.190   2.612   6.017
 2929SOL    HW1 9686   1.225   2.522   5.993
 2929SOL    HW2 9687   1.265   2.670   6.049
 2930SOL     OW 9688   5.357   6.962   5.383
 2930SOL    HW1 9689   5.342   6.947   5.480
 2930SOL    HW2 9690   5.341   0.036   5.361
 2931SOL     OW 9691   4.904   5.266   0.092
 2931SOL    HW1 9692   4.875   5.358   0.065
 2931SOL    HW2 9693   4.846   5.233   0.166
 2932SOL     OW 9694   0.860   5.797   2.068
 2932SOL    HW1 9695   0.808   5.780   2.151
 2932SOL    HW2 9696   0.930   5.726   2.058
 2933SOL     OW 9697   1.955   6.523   2.318
 2933SOL    HW1 9698   1.882   6.589   2.300
 2933SOL    HW2 9699   1.921   6.430   2.303
 2934SOL     OW 9700   5.202   2.473   6.791
 2934SOL    HW1 9701   5.289   2.424   6.797
 2934SOL    HW2 9702   5.184   2.520   6.878
 2935SOL     OW 9703   6.775   3.150   6.406
 2935SOL    HW1 9704   6.684   3.141   6.365
 2935SOL    HW2 9705   6.782   3.238   6.454
 2936SOL     OW 9706   4.675   5.947   0.418
 2936SOL    HW1 9707   4.621   6.026   0.393
 2936SOL    HW2 9708   4.756   5.977   0.469
 2937SOL     OW 9709   5.507   5.213   1.299
 2937SOL    HW1 9710   5.531   5.175   1.210
 2937SOL    HW2 9711   5.520   5.312   1.298
 2938SOL     OW 9712   5.543   4.658   0.129
 2938SOL    HW1 9713   5.552   4.620   0.221
 2938SOL    HW2 9714   5.472   4.609   0.079
 2939SOL     OW 9715   2.438   0.534   1.900
 2939SOL    HW1 9716   2.339   0.548   1.894
 2939SOL    HW2 9717   2.472   0.572   1.986
 2940SOL     OW 9718   5.539   4.913   5.443
 2940SOL    HW1 9719   5.589   4.919   5.529
 2940SOL    HW2 9720   5.603   4.916   5.367
 2941SOL     OW 9721   1.436   2.166   4.233
 2941SOL    HW1 9722   1.527   2.187   4.198
 2941SOL    HW2 9723   1.372   2.236   4.201
 2942SOL     OW 9724   3.828   1.734   0.791
 2942SOL    HW1 9725   3.883   1.753   0.710
 2942SOL    HW2 9726   3.828   1.813   0.851
 2943SOL     OW 9727   5.946   3.917   3.955
 2943SOL    HW1 9728   6.008   3.992   3.979
 2943SOL    HW2 9729   5.974   3.877   3.868
 2944SOL     OW 9730   2.919   6.042   4.159
 2944SOL    HW1 9731   2.821   6.023   4.166
 2944SOL    HW2 9732   2.944   6.113   4.225
 2945SOL     OW 9733   4.048   3.350   1.742
 2945SOL    HW1 9734   4.088   3.272   1.791
 2945SOL    HW2 9735   4.107   3.430   1.752
 2946SOL     OW 9736   1.838   4.718   6.318
 2946SOL    HW1 9737   1.930   4.753   6.336
 2946SOL    HW2 9738   1.843   4.620   6.299
 2947SOL     OW 9739   0.670   5.796   1.597
 2947SOL    HW1 9740   0.668   5.846   1.510
 2947SOL    HW2 9741   0.703   5.857   1.670
 2948SOL     OW 9742   0.297   4.585   4.484
 2948SOL    HW1 9743   0.375   4.533   4.449
 2948SOL    HW2 9744   0.222   4.522   4.505
 2949SOL     OW 9745   1.099   5.716   1.234
 2949SOL    HW1 9746   1.171   5.662   1.190
 2949SOL    HW2 9747   1.046   5.657   1.295
 2950SOL     OW 9748   5.811   5.915   4.390
 2950SOL    HW1 9749   5.874   5.983   4.353
 2950SOL    HW2 9750   5.746   5.888   4.318
 2951SOL     OW 9751   5.489   1.960   2.192
 2951SOL    HW1 9752   5.463   1.935   2.285
 2951SOL    HW2 9753   5.486   1.878   2.134
 2952SOL     OW 9754   0.290   6.083   5.320
 2952SOL    HW1 9755   0.200   6.111   5.286
 2952SOL    HW2 9756   0.285   6.063   5.418
 2953SOL     OW 9757   6.114   3.938   2.943
 2953SOL    HW1 9758   6.037   3.904   2.889
 2953SOL    HW2 9759   6.178   3.864   2.960
 2954SOL     OW 9760   1.240   5.345   2.107
 2954SOL    HW1 9761   1.256   5.433   2.152
 2954SOL    HW2 9762   1.165   5.354   2.042
 2955SOL     OW 9763   0.941   4.337   1.254
 2955SOL    HW1 9764   1.015   4.403   1.270
 2955SOL    HW2 9765   0.930   4.280   1.335
 2956SOL     OW 9766   5.334   6.041   3.070
 2956SOL    HW1 9767   5.382   6.110   3.016
 2956SOL    HW2 9768   5.350   6.057   3.167
 2957SOL     OW 9769   5.357   4.333   1.697
 2957SOL    HW1 9770   5.438   4.372   1.653
 2957SOL    HW2 9771   5.296   4.295   1.627
 2958SOL     OW 9772   2.308   4.206   3.696
 2958SOL    HW1 9773   2.241   4.200   3.622
 2958SOL    HW2 9774   2.331   4.114   3.728
 2959SOL     OW 9775   5.002   3.329   1.743
 2959SOL    HW1 9776   5.101   3.321   1.738
 2959SOL    HW2 9777   4.976   3.368   1.831
 2960SOL     OW 9778   2.940   0.252   0.475
 2960SOL    HW1 9779   2.844   0.249   0.505
 2960SOL    HW2 9780   2.944   0.245   0.375
 2961SOL     OW 9781   5.522   4.672   3.352
 2961SOL    HW1 9782   5.563   4.696   3.440
 2961SOL    HW2 9783   5.565   4.725   3.279
 2962SOL     OW 9784   4.522   5.938   3.636
 2962SOL    HW1 9785   4.610   5.956   3.594
 2962SOL    HW2 9786   4.485   6.023   3.675
 2963SOL     OW 9787   1.247   1.073   6.862
 2963SOL    HW1 9788   1.289   1.144   6.920
 2963SOL    HW2 9789   1.303   0.991   6.865
 2964SOL     OW 9790   6.902   1.605   4.963
 2964SOL    HW1 9791   7.000   1.596   4.981
 2964SOL    HW2 9792   6.849   1.569   5.040
 2965SOL     OW 9793   0.717   0.681   4.714
 2965SOL    HW1 9794   0.774   0.720   4.786
 2965SOL    HW2 9795   0.680   0.755   4.658
 2966SOL     OW 9796   4.584   5.074   3.323
 2966SOL    HW1 9797   4.522   5.152   3.327
 2966SOL    HW2 9798   4.679   5.107   3.328
 2967SOL     OW 9799   5.812   0.979   5.522
 2967SOL    HW1 9800   5.714   0.967   5.536
 2967SOL    HW2 9801   5.862   0.928   5.592
 2968SOL     OW 9802   0.892   2.523   0.648
 2968SOL    HW1 9803   0.803   2.483   0.624
 2968SOL    HW2 9804   0.962   2.489   0.584
 2969SOL     OW 9805   4.606   2.126   4.384
 2969SOL    HW1 9806   4.525   2.082   4.422
 2969SOL    HW2 9807   4.613   2.219   4.419
 2970SOL     OW 9808   2.750   3.026   5.305
 2970SOL    HW1 9809   2.658   3.027   5.266
 2970SOL    HW2 9810   2.750   2.977   5.392
 2971SOL     OW 9811   5.047   4.160   0.954
 2971SOL    HW1 9812   5.001   4.071   0.952
 2971SOL    HW2 9813   5.087   4.178   0.864
 2972SOL     OW 9814   6.443   4.578   6.559
 2972SOL    HW1 9815   6.411   4.524   6.637
 2972SOL    HW2 9816   6.365   4.620   6.513
 2973SOL     OW 9817   5.549   5.788   1.986
 2973SOL    HW1 9818   5.483   5.716   1.966
 2973SOL    HW2 9819   5.620   5.787   1.915
 2974SOL     OW 9820   0.134   4.583   3.621
 2974SOL    HW1 9821   0.164   4.592   3.526
 2974SOL    HW2 9822   0.169   4.498   3.659
 2975SOL     OW 9823   4.987   3.988   4.173
 2975SOL    HW1 9824   4.916   3.945   4.229
 2975SOL    HW2 9825   5.071   3.998   4.227
 2976SOL     OW 9826   4.331   2.348   2.769
 2976SOL    HW1 9827   4.402   2.409   2.802
 2976SOL    HW2 9828   4.336   2.340   2.670
 2977SOL     OW 9829   1.289   0.689   2.929
 2977SOL    HW1 9830   1.255   0.604   2.971
 2977SOL    HW2 9831   1.230   0.765   2.955
 2978SOL     OW 9832   3.689   4.799   6.839
 2978SOL    HW1 9833   3.780   4.797   6.797
 2978SOL    HW2 9834   3.634   4.871   6.796
 2979SOL     OW 9835   3.691   1.422   4.122
 2979SOL    HW1 9836   3.658   1.512   4.094
 2979SOL    HW2 9837   3.615   1.356   4.117
 2980SOL     OW 9838   1.842   5.712   5.489
 2980SOL    HW1 9839   1.846   5.806   5.523
 2980SOL    HW2 9840   1.892   5.705   5.403
 2981SOL     OW 9841   2.786   1.052   6.738
 2981SOL    HW1 9842   2.707   1.086   6.687
 2981SOL    HW2 9843   2.867   1.106   6.715
 2982SOL     OW 9844   2.928   5.643   1.102
 2982SOL    HW1 9845   3.026   5.651   1.082
 2982SOL    HW2 9846   2.915   5.634   1.201
 2983SOL     OW 9847   6.357   2.414   2.179
 2983SOL    HW1 9848   6.395   2.331   2.219
 2983SOL    HW2 9849   6.428   2.484   2.175
 2984SOL     OW 9850   5.981   4.790   0.266
 2984SOL    HW1 9851   5.900   4.790   0.208
 2984SOL    HW2 9852   5.981   4.708   0.324
 2985SOL     OW 9853   1.892   2.644   4.633
 2985SOL    HW1 9854   1.982   2.606   4.656
 2985SOL    HW2 9855   1.856   2.693   4.712
 2986SOL     OW 9856   3.579   4.116   2.820
 2986SOL    HW1 9857   3.660   4.171   2.841
 2986SOL    HW2 9858   3.603   4.042   2.757
 2987SOL     OW 9859   1.539   1.628   3.899
 2987SOL    HW1 9860   1.481   1.687   3.956
 2987SOL    HW2 9861   1.561   1.544   3.950
 2988SOL     OW 9862   1.938   6.951   2.693
 2988SOL    HW1 9863   1.885   0.003   2.732
 2988SOL    HW2 9864   1.978   6.896   2.766
 2989SOL     OW 9865   5.027   4.866   6.025
 2989SOL    HW1 9866   5.059   4.863   6.120
 2989SOL    HW2 9867   5.010   4.961   5.999
 2990SOL     OW 9868   3.669   1.747   4.188
 2990SOL    HW1 9869   3.730   1.744   4.268
 2990SOL    HW2 9870   3.581   1.705   4.211
 2991SOL     OW 9871   6.132   3.486   5.770
 2991SOL    HW1 9872   6.099   3.400   5.732
 2991SOL    HW2 9873   6.176   3.540   5.697
 2992SOL     OW 9874   1.264   5.164   4.876
 2992SOL    HW1 9875   1.287   5.067   4.874
 2992SOL    HW2 9876   1.312   5.211   4.802
 2993SOL     OW 9877   0.363   4.942   1.610
 2993SOL    HW1 9878   0.449   4.990   1.592
 2993SOL    HW2 9879   0.291   5.010   1.630
 2994SOL     OW 9880   4.003   6.621   6.949
 2994SOL    HW1 9881   4.069   6.690   6.979
 2994SOL    HW2 9882   4.028   6.532   6.986
 2995SOL     OW 9883   3.696   1.466   6.656
 2995SOL    HW1 9884   3.721   1.374   6.685
 2995SOL    HW2 9885   3.608   1.491   6.696
 2996SOL     OW 9886   0.516   1.292   4.942
 2996SOL    HW1 9887   0.514   1.219   5.010
 2996SOL    HW2 9888   0.524   1.380   4.988
 2997SOL     OW 9889   4.813   0.374   3.051
 2997SOL    HW1 9890   4.747   0.408   3.118
 2997SOL    HW2 9891   4.765   0.348   2.967
 2998SOL     OW 9892   5.158   6.928   3.745
 2998SOL    HW1 9893   5.218   6.856   3.779
 2998SOL    HW2 9894   5.099   6.891   3.673
 2999SOL     OW 9895   2.371   5.093   5.620
 2999SOL    HW1 9896   2.362   5.136   5.530
 2999SOL    HW2 9897   2.319   5.007   5.620
 3000SOL     OW 9898   2.955   4.338   6.100
 3000SOL    HW1 9899   2.979   4.346   6.197
 3000SOL    HW2 9900   3.020   4.392   6.045
 3001SOL     OW 9901   0.142   1.158   6.669
 3001SOL    HW1 9902   0.125   1.062   6.691
 3001SOL    HW2 9903   0.090   1.184   6.588
 3002SOL     OW 9904   3.370   1.911   7.023
 3002SOL    HW1 9905   3.412   1.973   0.066
 3002SOL    HW2 9906   3.316   1.842   0.048
 3003SOL     OW 9907   0.787   6.631   1.063
 3003SOL    HW1 9908   0.751   6.723   1.047
 3003SOL    HW2 9909   0.843   6.602   0.985
 3004SOL     OW 9910   0.786   4.148   2.669
 3004SOL    HW1 9911   0.813   4.220   2.605
 3004SOL    HW2 9912   0.690   4.123   2.652
 3005SOL     OW 9913   1.414   2.357   0.001
 3005SOL    HW1 9914   1.326   2.336   6.983
 3005SOL    HW2 9915   1.400   2.406   0.087
 3006SOL     OW 9916   5.579   2.340   4.189
 3006SOL    HW1 9917   5.512   2.309   4.257
 3006SOL    HW2 9918   5.577   2.279   4.110
 3007SOL     OW 9919   5.927   3.933   0.885
 3007SOL    HW1 9920   5.926   3.877   0.802
 3007SOL    HW2 9921   5.890   3.879   0.961
 3008SOL     OW 9922   3.236   2.684   6.411
 3008SOL    HW1 9923   3.150   2.634   6.417
 3008SOL    HW2 9924   3.232   2.749   6.335
 3009SOL     OW 9925   6.741   2.689   3.001
 3009SOL    HW1 9926   6.654   2.641   3.006
 3009SOL    HW2 9927   6.813   2.627   2.969
 3010SOL     OW 9928   2.931   5.718   3.431
 3010SOL    HW1 9929   2.847   5.726   3.378
 3010SOL    HW2 9930   2.914   5.750   3.525
 3011SOL     OW 9931   5.605   1.238   2.991
 3011SOL    HW1 9932   5.619   1.273   2.898
 3011SOL    HW2 9933   5.515   1.267   3.025
 3012SOL     OW 9934   2.456   3.358   6.476
 3012SOL    HW1 9935   2.506   3.430   6.428
 3012SOL    HW2 9936   2.390   3.317   6.414
 3013SOL     OW 9937   5.569   5.295   3.928
 3013SOL    HW1 9938   5.572   5.319   3.831
 3013SOL    HW2 9939   5.528   5.370   3.980
 3014SOL     OW 9940   4.859   2.215   5.535
 3014SOL    HW1 9941   4.937   2.190   5.592
 3014SOL    HW2 9942   4.784   2.151   5.552
 3015SOL     OW 9943   1.926   1.845   0.351
 3015SOL    HW1 9944   1.909   1.773   0.284
 3015SOL    HW2 9945   1.881   1.930   0.321
 3016SOL     OW 9946   2.848   6.280   4.583
 3016SOL    HW1 9947   2.814   6.191   4.552
 3016SOL    HW2 9948   2.923   6.265   4.648
 3017SOL     OW 9949   6.096   5.562   2.260
 3017SOL    HW1 9950   6.032   5.620   2.210
 3017SOL    HW2 9951   6.095   5.586   2.357
 3018SOL     OW 9952   2.866   0.208   6.446
 3018SOL    HW1 9953   2.948   0.258   6.419
 3018SOL    HW2 9954   2.828   0.161   6.367
 3019SOL     OW 9955   0.478   0.053   6.558
 3019SOL    HW1 9956   0.387   0.042   6.519
 3019SOL    HW2 9957   0.521   6.986   6.567
 3020SOL     OW 9958   3.964   3.046   0.956
 3020SOL    HW1 9959   3.928   3.132   0.919
 3020SOL    HW2 9960   4.046   3.066   1.011
 3021SOL     OW 9961   3.768   0.278   5.329
 3021SOL    HW1 9962   3.781   0.355   5.267
 3021SOL    HW2 9963   3.811   0.197   5.290
 3022SOL     OW 9964   3.998   5.287   4.948
 3022SOL    HW1 9965   3.908   5.248   4.967
 3022SOL    HW2 9966   4.065   5.249   5.011
 3023SOL     OW 9967   4.249   6.380   2.995
 3023SOL    HW1 9968   4.218   6.286   3.012
 3023SOL    HW2 9969   4.280   6.421   3.080
 3024SOL     OW 9970   5.544   6.814   4.549
 3024SOL    HW1 9971   5.446   6.818   4.531
 3024SOL    HW2 9972   5.562   6.844   4.643
 3025SOL     OW 9973   4.122   6.143   1.256
 3025SOL    HW1 9974   4.022   6.139   1.257
 3025SOL    HW2 9975   4.158   6.094   1.336
 3026SOL     OW 9976   0.191   1.258   5.812
 3026SOL    HW1 9977   0.184   1.334   5.747
 3026SOL    HW2 9978   0.106   1.205   5.810
 3027SOL     OW 9979   3.988   1.504   2.933
 3027SOL    HW1 9980   3.894   1.537   2.921
 3027SOL    HW2 9981   3.987   1.421   2.989
 3028SOL     OW 9982   1.258   3.570   5.993
 3028SOL    HW1 9983   1.342   3.549   5.943
 3028SOL    HW2 9984   1.179   3.547   5.936
 3029SOL     OW 9985   0.594   3.160   4.939
 3029SOL    HW1 9986   0.568   3.256   4.925
 3029SOL    HW2 9987   0.607   3.143   5.036
 3030SOL     OW 9988   1.154   2.966   0.614
 3030SOL    HW1 9989   1.219   3.038   0.640
 3030SOL    HW2 9990   1.084   3.006   0.555
 3031SOL     OW 9991   0.238   5.081   1.109
 3031SOL    HW1 9992   0.254   4.989   1.145
 3031SOL    HW2 9993   0.267   5.149   1.177
 3032SOL     OW 9994   1.919   0.028   1.421
 3032SOL    HW1 9995   1.955   0.108   1.373
 3032SOL    HW2 9996   1.993   7.006   1.470
 3033SOL     OW 9997   5.363   1.243   2.073
 3033SOL    HW1 9998   5.347   1.301   1.993
 3033SOL    HW2 9999   5.302   1.164   2.070
 3034SOL     OW10000   1.097   0.267   3.264
 3034SOL    HW110001   1.056   0.334   3.202
 3034SOL    HW210002   1.048   0.268   3.351
 3035SOL     OW10003   0.570   2.912   6.029
 3035SOL    HW110004   0.523   2.989   6.071
 3035SOL    HW210005   0.529   2.892   5.940
 3036SOL     OW10006   1.476   2.205   5.528
 3036SOL    HW110007   1.514   2.293   5.556
 3036SOL    HW210008   1.550   2.145   5.498
 3037SOL     OW10009   6.219   5.320   6.157
 3037SOL    HW110010   6.303   5.367   6.185
 3037SOL    HW210011   6.242   5.230   6.120
 3038SOL     OW10012   5.131   5.185   5.588
 3038SOL    HW110013   5.223   5.224   5.594
 3038SOL    HW210014   5.078   5.212   5.668
 3039SOL     OW10015   0.918   2.989   1.383
 3039SOL    HW110016   0.831   2.986   1.432
 3039SOL    HW210017   0.937   3.083   1.355
 3040SOL     OW10018   3.249   4.030   6.084
 3040SOL    HW110019   3.294   3.948   6.049
 3040SOL    HW210020   3.166   4.049   6.032
 3041SOL     OW10021   1.712   4.138   5.647
 3041SOL    HW110022   1.809   4.123   5.670
 3041SOL    HW210023   1.699   4.129   5.549
 3042SOL     OW10024   6.364   6.183   3.249
 3042SOL    HW110025   6.447   6.132   3.274
 3042SOL    HW210026   6.324   6.143   3.166
 3043SOL     OW10027   3.022   3.968   1.800
 3043SOL    HW110028   3.077   3.929   1.874
 3043SOL    HW210029   3.032   4.067   1.800
 3044SOL     OW10030   3.886   5.509   5.754
 3044SOL    HW110031   3.928   5.527   5.843
 3044SOL    HW210032   3.787   5.498   5.766
 3045SOL     OW10033   5.064   0.109   3.336
 3045SOL    HW110034   5.106   0.022   3.310
 3045SOL    HW210035   5.003   0.140   3.264
 3046SOL     OW10036   3.504   1.031   6.092
 3046SOL    HW110037   3.556   1.005   6.173
 3046SOL    HW210038   3.480   1.128   6.098
 3047SOL     OW10039   5.923   0.666   1.691
 3047SOL    HW110040   5.849   0.632   1.749
 3047SOL    HW210041   5.930   0.765   1.700
 3048SOL     OW10042   4.274   2.412   1.293
 3048SOL    HW110043   4.273   2.499   1.245
 3048SOL    HW210044   4.362   2.367   1.279
 3049SOL     OW10045   1.526   6.895   3.365
 3049SOL    HW110046   1.503   6.811   3.413
 3049SOL    HW210047   1.479   6.972   3.407
 3050SOL     OW10048   3.050   1.936   1.905
 3050SOL    HW110049   3.104   2.001   1.852
 3050SOL    HW210050   2.984   1.890   1.846
 3051SOL     OW10051   2.059   6.537   6.529
 3051SOL    HW110052   2.069   6.440   6.509
 3051SOL    HW210053   2.022   6.549   6.621
 3052SOL     OW10054   5.000   5.507   1.786
 3052SOL    HW110055   5.052   5.492   1.702
 3052SOL    HW210056   4.975   5.604   1.793
 3053SOL     OW10057   6.693   3.121   1.047
 3053SOL    HW110058   6.788   3.113   1.077
 3053SOL    HW210059   6.679   3.210   1.005
 3054SOL     OW10060   6.076   2.196   1.541
 3054SOL    HW110061   6.055   2.265   1.471
 3054SOL    HW210062   6.113   2.242   1.622
 3055SOL     OW10063   5.225   0.145   5.080
 3055SOL    HW110064   5.240   0.147   5.179
 3055SOL    HW210065   5.298   0.195   5.034
 3056SOL     OW10066   5.997   0.995   5.915
 3056SOL    HW110067   6.027   1.057   5.988
 3056SOL    HW210068   5.909   0.954   5.940
 3057SOL     OW10069   4.233   5.185   3.575
 3057SOL    HW110070   4.261   5.242   3.498
 3057SOL    HW210071   4.133   5.185   3.583
 3058SOL     OW10072   0.267   4.735   1.038
 3058SOL    HW110073   0.282   4.749   1.136
 3058SOL    HW210074   0.169   4.729   1.020
 3059SOL     OW10075   2.727   1.894   4.128
 3059SOL    HW110076   2.743   1.919   4.224
 3059SOL    HW210077   2.629   1.879   4.113
 3060SOL     OW10078   1.525   5.297   0.154
 3060SOL    HW110079   1.513   5.224   0.086
 3060SOL    HW210080   1.596   5.271   0.220
 3061SOL     OW10081   6.742   5.985   5.841
 3061SOL    HW110082   6.712   6.079   5.859
 3061SOL    HW210083   6.785   5.948   5.923
 3062SOL     OW10084   2.364   0.099   1.068
 3062SOL    HW110085   2.370   0.018   1.010
 3062SOL    HW210086   2.279   0.147   1.049
 3063SOL     OW10087   1.941   4.576   1.565
 3063SOL    HW110088   1.993   4.639   1.507
 3063SOL    HW210089   1.945   4.607   1.660
 3064SOL     OW10090   5.185   3.319   1.000
 3064SOL    HW110091   5.176   3.370   0.915
 3064SOL    HW210092   5.094   3.299   1.037
 3065SOL     OW10093   1.521   2.475   6.611
 3065SOL    HW110094   1.536   2.478   6.710
 3065SOL    HW210095   1.471   2.557   6.583
 3066SOL     OW10096   5.100   4.514   0.509
 3066SOL    HW110097   5.193   4.482   0.528
 3066SOL    HW210098   5.097   4.613   0.519
 3067SOL     OW10099   3.863   1.620   6.426
 3067SOL    HW110100   3.804   1.608   6.506
 3067SOL    HW210101   3.841   1.706   6.380
 3068SOL     OW10102   0.048   6.653   1.161
 3068SOL    HW110103   0.039   6.709   1.243
 3068SOL    HW210104   0.098   6.569   1.183
 3069SOL     OW10105   6.774   6.395   2.290
 3069SOL    HW110106   6.716   6.314   2.295
 3069SOL    HW210107   6.765   6.437   2.200
 3070SOL     OW10108   2.952   1.325   6.868
 3070SOL    HW110109   2.869   1.377   6.849
 3070SOL    HW210110   2.995   1.298   6.781
 3071SOL     OW10111   6.548   6.196   4.009
 3071SOL    HW110112   6.564   6.152   4.097
 3071SOL    HW210113   6.536   6.295   4.023
 3072SOL     OW10114   2.454   5.759   6.258
 3072SOL    HW110115   2.517   5.776   6.333
 3072SOL    HW210116   2.481   5.815   6.179
 3073SOL     OW10117   0.094   3.614   3.762
 3073SOL    HW110118   0.078   3.629   3.664
 3073SOL    HW210119   0.006   3.609   3.809
 3074SOL     OW10120   0.020   4.123   1.179
 3074SOL    HW110121   0.060   4.200   1.229
 3074SOL    HW210122   6.945   4.139   1.168
 3075SOL     OW10123   2.246   5.439   2.684
 3075SOL    HW110124   2.232   5.496   2.766
 3075SOL    HW210125   2.335   5.460   2.643
 3076SOL     OW10126   6.426   1.225   3.522
 3076SOL    HW110127   6.403   1.267   3.609
 3076SOL    HW210128   6.493   1.282   3.473
 3077SOL     OW10129   5.705   4.624   1.677
 3077SOL    HW110130   5.655   4.566   1.741
 3077SOL    HW210131   5.748   4.699   1.727
 3078SOL     OW10132   0.089   3.257   2.909
 3078SOL    HW110133   0.077   3.312   2.992
 3078SOL    HW210134   0.160   3.189   2.925
 3079SOL     OW10135   2.960   2.258   3.508
 3079SOL    HW110136   2.962   2.298   3.599
 3079SOL    HW210137   2.890   2.187   3.504
 3080SOL     OW10138   6.287   5.273   2.585
 3080SOL    HW110139   6.299   5.179   2.553
 3080SOL    HW210140   6.248   5.329   2.511
 3081SOL     OW10141   1.186   3.992   6.328
 3081SOL    HW110142   1.195   3.899   6.293
 3081SOL    HW210143   1.222   4.056   6.260
 3082SOL     OW10144   2.055   5.742   4.312
 3082SOL    HW110145   2.116   5.705   4.242
 3082SOL    HW210146   2.020   5.831   4.281
 3083SOL     OW10147   3.088   6.002   3.719
 3083SOL    HW110148   3.045   5.929   3.772
 3083SOL    HW210149   3.167   5.965   3.670
 3084SOL     OW10150   6.507   3.835   3.797
 3084SOL    HW110151   6.494   3.853   3.700
 3084SOL    HW210152   6.604   3.817   3.815
 3085SOL     OW10153   6.670   4.338   0.537
 3085SOL    HW110154   6.720   4.292   0.610
 3085SOL    HW210155   6.663   4.436   0.557
 3086SOL     OW10156   5.068   1.675   0.657
 3086SOL    HW110157   5.014   1.624   0.589
 3086SOL    HW210158   5.088   1.767   0.621
 3087SOL     OW10159   2.204   6.988   3.666
 3087SOL    HW110160   2.272   6.991   3.593
 3087SOL    HW210161   2.126   6.932   3.638
 3088SOL     OW10162   2.138   4.691   4.803
 3088SOL    HW110163   2.112   4.624   4.733
 3088SOL    HW210164   2.231   4.674   4.833
 3089SOL     OW10165   3.380   1.745   4.534
 3089SOL    HW110166   3.367   1.673   4.602
 3089SOL    HW210167   3.391   1.703   4.443
 3090SOL     OW10168   2.288   1.470   1.801
 3090SOL    HW110169   2.279   1.541   1.731
 3090SOL    HW210170   2.222   1.487   1.874
 3091SOL     OW10171   1.334   0.978   0.838
 3091SOL    HW110172   1.265   1.048   0.855
 3091SOL    HW210173   1.422   1.023   0.819
 3092SOL     OW10174   5.635   0.129   0.771
 3092SOL    HW110175   5.609   0.147   0.865
 3092SOL    HW210176   5.558   0.087   0.722
 3093SOL     OW10177   5.351   5.885   6.999
 3093SOL    HW110178   5.327   5.837   0.061
 3093SOL    HW210179   5.301   5.972   6.995
 3094SOL     OW10180   2.317   0.608   3.952
 3094SOL    HW110181   2.352   0.614   3.858
 3094SOL    HW210182   2.248   0.536   3.957
 3095SOL     OW10183   2.576   4.079   5.352
 3095SOL    HW110184   2.555   4.029   5.436
 3095SOL    HW210185   2.510   4.055   5.281
 3096SOL     OW10186   0.906   5.263   5.123
 3096SOL    HW110187   0.832   5.218   5.174
 3096SOL    HW210188   0.973   5.298   5.188
 3097SOL     OW10189   5.883   3.693   6.918
 3097SOL    HW110190   5.899   3.595   6.906
 3097SOL    HW210191   5.912   3.742   6.836
 3098SOL     OW10192   1.730   3.262   1.469
 3098SOL    HW110193   1.729   3.162   1.469
 3098SOL    HW210194   1.689   3.295   1.555
 3099SOL     OW10195   1.157   6.199   4.080
 3099SOL    HW110196   1.088   6.269   4.094
 3099SOL    HW210197   1.117   6.120   4.035
 3100SOL     OW10198   6.684   5.887   3.931
 3100SOL    HW110199   6.623   5.943   3.988
 3100SOL    HW210200   6.733   5.946   3.866
 3101SOL     OW10201   6.226   5.742   6.832
 3101SOL    HW110202   6.219   5.737   6.732
 3101SOL    HW210203   6.227   5.649   6.869
 3102SOL     OW10204   6.225   0.009   1.859
 3102SOL    HW110205   6.158   6.964   1.890
 3102SOL    HW210206   6.179   0.098   1.848
 3103SOL     OW10207   4.211   1.536   1.903
 3103SOL    HW110208   4.186   1.446   1.869
 3103SOL    HW210209   4.182   1.546   1.998
 3104SOL     OW10210   4.284   0.509   6.312
 3104SOL    HW110211   4.331   0.574   6.253
 3104SOL    HW210212   4.349   0.441   6.345
 3105SOL     OW10213   6.234   3.990   1.201
 3105SOL    HW110214   6.143   4.033   1.200
 3105SOL    HW210215   6.300   4.054   1.241
 3106SOL     OW10216   4.566   0.131   4.377
 3106SOL    HW110217   4.649   0.179   4.403
 3106SOL    HW210218   4.566   0.114   4.278
 3107SOL     OW10219   3.517   0.732   4.593
 3107SOL    HW110220   3.556   0.822   4.614
 3107SOL    HW210221   3.536   0.669   4.669
 3108SOL     OW10222   2.537   5.862   4.680
 3108SOL    HW110223   2.612   5.833   4.621
 3108SOL    HW210224   2.521   5.791   4.750
 3109SOL     OW10225   5.692   6.647   3.591
 3109SOL    HW110226   5.688   6.556   3.633
 3109SOL    HW210227   5.704   6.716   3.662
 3110SOL     OW10228   1.302   3.644   3.332
 3110SOL    HW110229   1.340   3.725   3.377
 3110SOL    HW210230   1.209   3.628   3.364
 3111SOL     OW10231   6.973   5.114   3.087
 3111SOL    HW110232   7.007   5.183   3.151
 3111SOL    HW210233   6.873   5.108   3.094
 3112SOL     OW10234   3.514   2.786   6.964
 3112SOL    HW110235   3.539   2.719   6.894
 3112SOL    HW210236   3.415   2.800   6.962
 3113SOL     OW10237   3.207   4.882   3.180
 3113SOL    HW110238   3.181   4.978   3.191
 3113SOL    HW210239   3.237   4.866   3.086
 3114SOL     OW10240   3.403   1.657   0.181
 3114SOL    HW110241   3.330   1.618   0.124
 3114SOL    HW210242   3.365   1.731   0.237
 3115SOL     OW10243   3.776   4.394   5.986
 3115SOL    HW110244   3.747   4.314   6.039
 3115SOL    HW210245   3.754   4.477   6.037
 3116SOL     OW10246   7.022   1.984   6.877
 3116SOL    HW110247   6.969   1.980   6.792
 3116SOL    HW210248   0.095   1.998   6.856
 3117SOL     OW10249   4.681   4.159   5.194
 3117SOL    HW110250   4.666   4.258   5.196
 3117SOL    HW210251   4.604   4.114   5.240
 3118SOL     OW10252   0.990   5.156   1.996
 3118SOL    HW110253   1.076   5.157   2.046
 3118SOL    HW210254   1.008   5.148   1.898
 3119SOL     OW10255   2.215   2.827   6.980
 3119SOL    HW110256   2.201   2.900   0.023
 3119SOL    HW210257   2.304   2.783   6.997
 3120SOL     OW10258   3.125   0.151   5.973
 3120SOL    HW110259   3.162   0.239   5.941
 3120SOL    HW210260   3.033   0.166   6.010
 3121SOL     OW10261   6.713   1.532   4.361
 3121SOL    HW110262   6.658   1.608   4.325
 3121SOL    HW210263   6.710   1.534   4.461
 3122SOL     OW10264   4.503   5.564   6.166
 3122SOL    HW110265   4.546   5.612   6.243
 3122SOL    HW210266   4.518   5.615   6.082
 3123SOL     OW10267   2.438   1.762   2.495
 3123SOL    HW110268   2.414   1.859   2.501
 3123SOL    HW210269   2.535   1.750   2.514
 3124SOL     OW10270   5.012   0.068   4.636
 3124SOL    HW110271   5.057   0.035   4.719
 3124SOL    HW210272   5.075   0.065   4.559
 3125SOL     OW10273   1.227   3.508   5.566
 3125SOL    HW110274   1.274   3.511   5.478
 3125SOL    HW210275   1.231   3.415   5.603
 3126SOL     OW10276   5.862   4.315   5.381
 3126SOL    HW110277   5.901   4.224   5.371
 3126SOL    HW210278   5.792   4.314   5.453
 3127SOL     OW10279   2.096   2.374   6.924
 3127SOL    HW110280   2.016   2.416   6.967
 3127SOL    HW210281   2.077   2.277   6.906
 3128SOL     OW10282   3.219   1.217   6.357
 3128SOL    HW110283   3.156   1.229   6.280
 3128SOL    HW210284   3.189   1.138   6.412
 3129SOL     OW10285   6.287   3.678   6.936
 3129SOL    HW110286   6.359   3.746   6.953
 3129SOL    HW210287   6.279   3.661   6.838
 3130SOL     OW10288   2.035   4.474   2.134
 3130SOL    HW110289   1.960   4.436   2.080
 3130SOL    HW210290   2.001   4.498   2.225
 3131SOL     OW10291   0.546   3.304   1.459
 3131SOL    HW110292   0.587   3.316   1.549
 3131SOL    HW210293   0.575   3.217   1.419
 3132SOL     OW10294   5.181   5.421   6.485
 3132SOL    HW110295   5.179   5.367   6.401
 3132SOL    HW210296   5.246   5.380   6.549
 3133SOL     OW10297   3.284   1.229   2.754
 3133SOL    HW110298   3.375   1.266   2.774
 3133SOL    HW210299   3.264   1.154   2.816
 3134SOL     OW10300   4.318   4.124   1.357
 3134SOL    HW110301   4.406   4.126   1.309
 3134SOL    HW210302   4.328   4.164   1.448
 3135SOL     OW10303   4.629   0.518   6.049
 3135SOL    HW110304   4.600   0.475   5.964
 3135SOL    HW210305   4.624   0.452   6.124
 3136SOL     OW10306   5.422   0.444   2.885
 3136SOL    HW110307   5.511   0.425   2.845
 3136SOL    HW210308   5.369   0.359   2.891
 3137SOL     OW10309   6.202   0.349   2.884
 3137SOL    HW110310   6.193   0.411   2.962
 3137SOL    HW210311   6.116   0.300   2.870
 3138SOL     OW10312   6.943   5.972   3.393
 3138SOL    HW110313   6.952   5.963   3.293
 3138SOL    HW210314   6.944   6.069   3.417
 3139SOL     OW10315   4.083   5.308   0.137
 3139SOL    HW110316   4.128   5.251   0.069
 3139SOL    HW210317   3.987   5.279   0.146
 3140SOL     OW10318   6.381   6.096   6.655
 3140SOL    HW110319   6.340   6.048   6.577
 3140SOL    HW210320   6.470   6.133   6.628
 3141SOL     OW10321   1.151   0.459   6.472
 3141SOL    HW110322   1.117   0.366   6.458
 3141SOL    HW210323   1.099   0.503   6.545
 3142SOL     OW10324   2.952   6.952   2.299
 3142SOL    HW110325   2.991   6.888   2.365
 3142SOL    HW210326   2.865   6.988   2.334
 3143SOL     OW10327   6.372   1.940   0.482
 3143SOL    HW110328   6.307   1.941   0.406
 3143SOL    HW210329   6.460   1.904   0.450
 3144SOL     OW10330   4.071   3.923   1.044
 3144SOL    HW110331   4.160   3.901   1.003
 3144SOL    HW210332   4.026   3.839   1.074
 3145SOL     OW10333   2.143   6.193   2.466
 3145SOL    HW110334   2.143   6.100   2.428
 3145SOL    HW210335   2.055   6.211   2.510
 3146SOL     OW10336   0.581   1.677   4.158
 3146SOL    HW110337   0.530   1.625   4.227
 3146SOL    HW210338   0.649   1.735   4.204
 3147SOL     OW10339   3.075   5.443   0.733
 3147SOL    HW110340   3.153   5.384   0.709
 3147SOL    HW210341   3.005   5.388   0.779
 3148SOL     OW10342   6.687   0.170   3.420
 3148SOL    HW110343   6.679   0.079   3.381
 3148SOL    HW210344   6.666   0.238   3.351
 3149SOL     OW10345   3.275   0.554   6.056
 3149SOL    HW110346   3.192   0.574   6.108
 3149SOL    HW210347   3.332   0.636   6.052
 3150SOL     OW10348   6.532   5.602   5.414
 3150SOL    HW110349   6.503   5.683   5.465
 3150SOL    HW210350   6.463   5.581   5.345
 3151SOL     OW10351   0.698   1.226   4.757
 3151SOL    HW110352   0.631   1.250   4.827
 3151SOL    HW210353   0.718   1.128   4.763
 3152SOL     OW10354   0.811   5.474   0.684
 3152SOL    HW110355   0.743   5.480   0.611
 3152SOL    HW210356   0.900   5.501   0.648
 3153SOL     OW10357   6.275   5.744   0.587
 3153SOL    HW110358   6.275   5.833   0.631
 3153SOL    HW210359   6.256   5.755   0.489
 3154SOL     OW10360   0.110   1.931   6.470
 3154SOL    HW110361   0.189   1.934   6.408
 3154SOL    HW210362   0.110   1.843   6.518
 3155SOL     OW10363   6.741   4.592   0.568
 3155SOL    HW110364   6.728   4.691   0.566
 3155SOL    HW210365   6.790   4.562   0.486
 3156SOL     OW10366   3.421   2.993   2.146
 3156SOL    HW110367   3.444   2.945   2.230
 3156SOL    HW210368   3.504   3.027   2.103
 3157SOL     OW10369   2.333   1.591   5.376
 3157SOL    HW110370   2.303   1.637   5.460
 3157SOL    HW210371   2.311   1.648   5.297
 3158SOL     OW10372   3.415   1.757   3.896
 3158SOL    HW110373   3.437   1.682   3.833
 3158SOL    HW210374   3.438   1.844   3.852
 3159SOL     OW10375   5.771   0.551   0.016
 3159SOL    HW110376   5.794   0.456   7.016
 3159SOL    HW210377   5.855   0.603   0.031
 3160SOL     OW10378   0.695   5.913   5.507
 3160SOL    HW110379   0.676   5.852   5.430
 3160SOL    HW210380   0.762   5.871   5.568
 3161SOL     OW10381   2.250   2.960   2.936
 3161SOL    HW110382   2.178   2.894   2.916
 3161SOL    HW210383   2.293   2.989   2.850
 3162SOL     OW10384   1.337   5.447   1.795
 3162SOL    HW110385   1.279   5.520   1.832
 3162SOL    HW210386   1.414   5.432   1.857
 3163SOL     OW10387   4.366   3.293   6.732
 3163SOL    HW110388   4.403   3.209   6.770
 3163SOL    HW210389   4.296   3.329   6.793
 3164SOL     OW10390   3.979   5.475   1.179
 3164SOL    HW110391   3.983   5.499   1.082
 3164SOL    HW210392   4.048   5.526   1.229
 3165SOL     OW10393   1.135   6.976   1.475
 3165SOL    HW110394   1.186   6.991   1.390
 3165SOL    HW210395   1.187   7.015   1.551
 3166SOL     OW10396   3.837   1.749   3.723
 3166SOL    HW110397   3.841   1.733   3.821
 3166SOL    HW210398   3.903   1.691   3.676
 3167SOL     OW10399   6.231   4.352   0.907
 3167SOL    HW110400   6.147   4.298   0.904
 3167SOL    HW210401   6.292   4.324   0.833
 3168SOL     OW10402   5.008   2.674   0.273
 3168SOL    HW110403   4.973   2.723   0.192
 3168SOL    HW210404   4.934   2.619   0.313
 3169SOL     OW10405   2.336   4.357   4.464
 3169SOL    HW110406   2.303   4.279   4.411
 3169SOL    HW210407   2.258   4.413   4.492
 3170SOL     OW10408   3.918   6.011   1.501
 3170SOL    HW110409   3.894   5.935   1.441
 3170SOL    HW210410   3.999   5.987   1.555
 3171SOL     OW10411   6.907   1.282   2.437
 3171SOL    HW110412   6.884   1.297   2.533
 3171SOL    HW210413   6.899   1.368   2.387
 3172SOL     OW10414   0.189   5.925   0.060
 3172SOL    HW110415   0.123   5.984   0.013
 3172SOL    HW210416   0.184   5.832   0.022
 3173SOL     OW10417   3.267   2.363   0.351
 3173SOL    HW110418   3.335   2.311   0.401
 3173SOL    HW210419   3.312   2.414   0.277
 3174SOL     OW10420   3.132   2.288   0.742
 3174SOL    HW110421   3.041   2.321   0.765
 3174SOL    HW210422   3.127   2.191   0.718
 3175SOL     OW10423   5.858   0.944   1.800
 3175SOL    HW110424   5.808   1.029   1.816
 3175SOL    HW210425   5.865   0.892   1.885
 3176SOL     OW10426   1.241   4.493   5.873
 3176SOL    HW110427   1.338   4.505   5.894
 3176SOL    HW210428   1.226   4.404   5.829
 3177SOL     OW10429   4.834   4.184   3.741
 3177SOL    HW110430   4.849   4.172   3.839
 3177SOL    HW210431   4.871   4.107   3.691
 3178SOL     OW10432   6.677   2.333   1.073
 3178SOL    HW110433   6.641   2.422   1.047
 3178SOL    HW210434   6.769   2.321   1.035
 3179SOL     OW10435   0.769   2.589   2.155
 3179SOL    HW110436   0.856   2.624   2.122
 3179SOL    HW210437   0.784   2.530   2.234
 3180SOL     OW10438   5.643   0.767   6.916
 3180SOL    HW110439   5.656   0.693   6.982
 3180SOL    HW210440   5.619   0.729   6.827
 3181SOL     OW10441   0.384   2.057   2.814
 3181SOL    HW110442   0.289   2.045   2.784
 3181SOL    HW210443   0.435   2.107   2.744
 3182SOL     OW10444   2.786   0.442   6.571
 3182SOL    HW110445   2.732   0.479   6.495
 3182SOL    HW210446   2.824   0.354   6.544
 3183SOL     OW10447   5.014   3.836   2.285
 3183SOL    HW110448   4.975   3.846   2.376
 3183SOL    HW210449   4.960   3.890   2.220
 3184SOL     OW10450   0.899   3.038   2.909
 3184SOL    HW110451   0.972   3.107   2.903
 3184SOL    HW210452   0.811   3.084   2.922
 3185SOL     OW10453   5.093   5.709   6.988
 3185SOL    HW110454   5.113   5.656   6.905
 3185SOL    HW210455   5.076   5.804   6.962
 3186SOL     OW10456   3.089   2.166   1.346
 3186SOL    HW110457   3.186   2.184   1.359
 3186SOL    HW210458   3.075   2.119   1.258
 3187SOL     OW10459   4.481   4.640   0.677
 3187SOL    HW110460   4.516   4.614   0.587
 3187SOL    HW210461   4.529   4.721   0.709
 3188SOL     OW10462   1.102   6.827   4.196
 3188SOL    HW110463   1.090   6.813   4.097
 3188SOL    HW210464   1.021   6.873   4.234
 3189SOL     OW10465   1.129   1.807   1.341
 3189SOL    HW110466   1.110   1.721   1.294
 3189SOL    HW210467   1.206   1.794   1.404
 3190SOL     OW10468   0.800   5.230   0.081
 3190SOL    HW110469   0.722   5.178   0.116
 3190SOL    HW210470   0.809   5.214   7.006
 3191SOL     OW10471   5.322   5.926   0.935
 3191SOL    HW110472   5.304   5.830   0.911
 3191SOL    HW210473   5.366   5.931   1.025
 3192SOL     OW10474   0.101   3.151   1.303
 3192SOL    HW110475   0.036   3.165   1.378
 3192SOL    HW210476   0.117   3.238   1.256
 3193SOL     OW10477   4.278   1.248   6.722
 3193SOL    HW110478   4.311   1.297   6.642
 3193SOL    HW210479   4.183   1.276   6.741
 3194SOL     OW10480   1.441   1.555   6.677
 3194SOL    HW110481   1.389   1.639   6.690
 3194SOL    HW210482   1.512   1.548   6.747
 3195SOL     OW10483   2.546   1.419   3.746
 3195SOL    HW110484   2.587   1.361   3.677
 3195SOL    HW210485   2.446   1.410   3.742
 3196SOL     OW10486   0.360   0.422   6.552
 3196SOL    HW110487   0.336   0.504   6.501
 3196SOL    HW210488   0.277   0.373   6.580
 3197SOL     OW10489   3.181   6.770   4.074
 3197SOL    HW110490   3.168   6.869   4.066
 3197SOL    HW210491   3.099   6.723   4.041
 3198SOL     OW10492   6.094   2.981   4.451
 3198SOL    HW110493   6.024   2.929   4.401
 3198SOL    HW210494   6.159   2.917   4.493
 3199SOL     OW10495   4.990   4.302   2.946
 3199SOL    HW110496   4.901   4.312   2.991
 3199SOL    HW210497   5.011   4.385   2.894
 3200SOL     OW10498   5.870   3.356   2.526
 3200SOL    HW110499   5.846   3.287   2.458
 3200SOL    HW210500   5.925   3.428   2.483
 3201SOL     OW10501   6.128   4.815   4.030
 3201SOL    HW110502   6.078   4.896   3.999
 3201SOL    HW210503   6.187   4.783   3.956
 3202SOL     OW10504   0.933   4.685   1.595
 3202SOL    HW110505   0.848   4.649   1.554
 3202SOL    HW210506   0.979   4.743   1.528
 3203SOL     OW10507   6.535   2.309   0.514
 3203SOL    HW110508   6.519   2.301   0.415
 3203SOL    HW210509   6.533   2.405   0.540
 3204SOL     OW10510   4.788   6.239   3.565
 3204SOL    HW110511   4.750   6.147   3.557
 3204SOL    HW210512   4.888   6.234   3.562
 3205SOL     OW10513   5.894   2.616   6.066
 3205SOL    HW110514   5.809   2.577   6.102
 3205SOL    HW210515   5.873   2.697   6.011
 3206SOL     OW10516   2.191   4.847   0.060
 3206SOL    HW110517   2.201   4.753   0.092
 3206SOL    HW210518   2.226   4.854   6.990
 3207SOL     OW10519   0.644   1.211   5.792
 3207SOL    HW110520   0.660   1.203   5.694
 3207SOL    HW210521   0.564   1.156   5.817
 3208SOL     OW10522   4.735   6.440   5.946
 3208SOL    HW110523   4.819   6.488   5.919
 3208SOL    HW210524   4.661   6.506   5.957
 3209SOL     OW10525   4.040   5.209   3.370
 3209SOL    HW110526   4.088   5.123   3.352
 3209SOL    HW210527   4.076   5.281   3.311
 3210SOL     OW10528   0.940   4.317   0.858
 3210SOL    HW110529   0.860   4.378   0.858
 3210SOL    HW210530   0.923   4.239   0.918
 3211SOL     OW10531   2.166   3.556   0.371
 3211SOL    HW110532   2.160   3.508   0.283
 3211SOL    HW210533   2.154   3.491   0.446
 3212SOL     OW10534   3.073   6.482   1.493
 3212SOL    HW110535   3.064   6.577   1.462
 3212SOL    HW210536   3.035   6.472   1.585
 3213SOL     OW10537   0.966   6.801   0.550
 3213SOL    HW110538   0.991   6.783   0.645
 3213SOL    HW210539   1.035   6.762   0.489
 3214SOL     OW10540   4.133   5.750   0.510
 3214SOL    HW110541   4.044   5.708   0.490
 3214SOL    HW210542   4.206   5.688   0.483
 3215SOL     OW10543   0.024   3.403   1.037
 3215SOL    HW110544   6.976   3.471   1.056
 3215SOL    HW210545   7.012   3.334   0.974
 3216SOL     OW10546   6.531   5.556   0.153
 3216SOL    HW110547   6.486   5.640   0.124
 3216SOL    HW210548   6.553   5.562   0.250
 3217SOL     OW10549   6.895   4.980   2.056
 3217SOL    HW110550   6.985   4.971   2.013
 3217SOL    HW210551   6.827   5.003   1.987
 3218SOL     OW10552   4.475   2.178   3.712
 3218SOL    HW110553   4.551   2.232   3.676
 3218SOL    HW210554   4.407   2.164   3.639
 3219SOL     OW10555   0.389   1.615   3.511
 3219SOL    HW110556   0.415   1.602   3.607
 3219SOL    HW210557   0.472   1.620   3.455
 3220SOL     OW10558   0.067   5.400   6.483
 3220SOL    HW110559   0.012   5.373   6.404
 3220SOL    HW210560   0.010   5.452   6.547
 3221SOL     OW10561   4.466   0.688   1.220
 3221SOL    HW110562   4.551   0.677   1.169
 3221SOL    HW210563   4.392   0.713   1.157
 3222SOL     OW10564   3.455   1.281   2.427
 3222SOL    HW110565   3.402   1.347   2.373
 3222SOL    HW210566   3.443   1.301   2.524
 3223SOL     OW10567   2.374   6.515   6.558
 3223SOL    HW110568   2.275   6.520   6.561
 3223SOL    HW210569   2.404   6.422   6.577
 3224SOL     OW10570   4.672   4.070   5.693
 3224SOL    HW110571   4.663   4.169   5.706
 3224SOL    HW210572   4.755   4.050   5.641
 3225SOL     OW10573   5.326   3.062   6.130
 3225SOL    HW110574   5.408   3.117   6.146
 3225SOL    HW210575   5.350   2.982   6.075
 3226SOL     OW10576   2.208   1.493   2.941
 3226SOL    HW110577   2.290   1.456   2.897
 3226SOL    HW210578   2.143   1.521   2.871
 3227SOL     OW10579   3.357   2.464   6.974
 3227SOL    HW110580   3.344   2.545   6.917
 3227SOL    HW210581   3.336   2.382   6.920
 3228SOL     OW10582   0.123   4.095   2.136
 3228SOL    HW110583   0.074   4.115   2.051
 3228SOL    HW210584   0.071   4.029   2.190
 3229SOL     OW10585   4.183   0.175   4.894
 3229SOL    HW110586   4.113   0.152   4.827
 3229SOL    HW210587   4.237   0.254   4.862
 3230SOL     OW10588   2.550   3.891   5.563
 3230SOL    HW110589   2.570   3.842   5.478
 3230SOL    HW210590   2.490   3.835   5.621
 3231SOL     OW10591   2.773   0.132   1.233
 3231SOL    HW110592   2.782   0.212   1.173
 3231SOL    HW210593   2.713   0.155   1.309
 3232SOL     OW10594   4.783   6.295   4.948
 3232SOL    HW110595   4.816   6.387   4.970
 3232SOL    HW210596   4.757   6.291   4.851
 3233SOL     OW10597   0.748   2.277   1.711
 3233SOL    HW110598   0.836   2.319   1.734
 3233SOL    HW210599   0.689   2.346   1.668
 3234SOL     OW10600   0.202   2.203   0.103
 3234SOL    HW110601   0.103   2.198   0.116
 3234SOL    HW210602   0.237   2.114   0.074
 3235SOL     OW10603   6.227   0.678   2.881
 3235SOL    HW110604   6.139   0.658   2.836
 3235SOL    HW210605   6.226   0.639   2.973
 3236SOL     OW10606   1.484   3.330   0.747
 3236SOL    HW110607   1.482   3.416   0.696
 3236SOL    HW210608   1.577   3.311   0.778
 3237SOL     OW10609   5.557   1.447   3.604
 3237SOL    HW110610   5.600   1.430   3.693
 3237SOL    HW210611   5.580   1.540   3.574
 3238SOL     OW10612   6.864   5.862   0.645
 3238SOL    HW110613   6.878   5.871   0.547
 3238SOL    HW210614   6.920   5.929   0.693
 3239SOL     OW10615   6.539   1.457   2.757
 3239SOL    HW110616   6.495   1.531   2.808
 3239SOL    HW210617   6.638   1.461   2.769
 3240SOL     OW10618   6.668   6.716   6.333
 3240SOL    HW110619   6.635   6.765   6.252
 3240SOL    HW210620   6.767   6.729   6.341
 3241SOL     OW10621   4.363   1.323   4.786
 3241SOL    HW110622   4.341   1.309   4.690
 3241SOL    HW210623   4.431   1.396   4.795
 3242SOL     OW10624   3.994   3.727   6.773
 3242SOL    HW110625   4.089   3.756   6.762
 3242SOL    HW210626   3.940   3.762   6.697
 3243SOL     OW10627   4.456   3.860   0.672
 3243SOL    HW110628   4.428   3.785   0.612
 3243SOL    HW210629   4.406   3.855   0.758
 3244SOL     OW10630   4.575   5.699   6.972
 3244SOL    HW110631   4.584   5.769   0.019
 3244SOL    HW210632   4.586   5.740   6.882
 3245SOL     OW10633   5.361   3.283   5.104
 3245SOL    HW110634   5.276   3.232   5.096
 3245SOL    HW210635   5.402   3.294   5.014
 3246SOL     OW10636   5.591   0.573   2.501
 3246SOL    HW110637   5.578   0.651   2.562
 3246SOL    HW210638   5.627   0.495   2.553
 3247SOL     OW10639   6.376   4.727   2.651
 3247SOL    HW110640   6.416   4.742   2.561
 3247SOL    HW210641   6.377   4.629   2.671
 3248SOL     OW10642   6.590   3.646   1.171
 3248SOL    HW110643   6.605   3.637   1.269
 3248SOL    HW210644   6.645   3.577   1.123
 3249SOL     OW10645   3.727   3.093   4.343
 3249SOL    HW110646   3.671   3.050   4.414
 3249SOL    HW210647   3.822   3.099   4.374
 3250SOL     OW10648   5.693   0.231   2.203
 3250SOL    HW110649   5.607   0.201   2.244
 3250SOL    HW210650   5.712   0.325   2.229
 3251SOL     OW10651   3.310   1.012   3.670
 3251SOL    HW110652   3.380   1.027   3.599
 3251SOL    HW210653   3.249   1.091   3.673
 3252SOL     OW10654   2.456   1.061   2.911
 3252SOL    HW110655   2.441   1.134   2.977
 3252SOL    HW210656   2.381   0.995   2.918
 3253SOL     OW10657   4.870   4.335   1.925
 3253SOL    HW110658   4.956   4.299   1.960
 3253SOL    HW210659   4.887   4.418   1.872
 3254SOL     OW10660   4.882   5.875   5.565
 3254SOL    HW110661   4.971   5.907   5.533
 3254SOL    HW210662   4.845   5.808   5.501
 3255SOL     OW10663   5.431   6.435   0.392
 3255SOL    HW110664   5.333   6.419   0.389
 3255SOL    HW210665   5.453   6.496   0.468
 3256SOL     OW10666   3.044   0.608   0.725
 3256SOL    HW110667   3.070   0.702   0.701
 3256SOL    HW210668   2.950   0.591   0.694
 3257SOL     OW10669   1.486   1.954   2.200
 3257SOL    HW110670   1.531   1.893   2.134
 3257SOL    HW210671   1.554   1.987   2.265
 3258SOL     OW10672   4.471   5.185   2.388
 3258SOL    HW110673   4.507   5.121   2.456
 3258SOL    HW210674   4.542   5.251   2.364
 3259SOL     OW10675   5.330   5.280   4.186
 3259SOL    HW110676   5.395   5.229   4.242
 3259SOL    HW210677   5.374   5.363   4.152
 3260SOL     OW10678   0.871   1.785   1.441
 3260SOL    HW110679   0.826   1.874   1.446
 3260SOL    HW210680   0.970   1.797   1.434
 3261SOL     OW10681   5.807   0.403   1.459
 3261SOL    HW110682   5.830   0.491   1.499
 3261SOL    HW210683   5.735   0.415   1.391
 3262SOL     OW10684   3.072   2.179   2.907
 3262SOL    HW110685   2.978   2.197   2.936
 3262SOL    HW210686   3.076   2.172   2.807
 3263SOL     OW10687   2.598   1.062   3.338
 3263SOL    HW110688   2.500   1.084   3.343
 3263SOL    HW210689   2.638   1.110   3.260
 3264SOL     OW10690   1.141   3.984   0.763
 3264SOL    HW110691   1.121   4.080   0.783
 3264SOL    HW210692   1.126   3.966   0.666
 3265SOL     OW10693   5.426   0.592   6.298
 3265SOL    HW110694   5.434   0.524   6.371
 3265SOL    HW210695   5.346   0.649   6.316
 3266SOL     OW10696   1.819   3.973   0.564
 3266SOL    HW110697   1.829   4.035   0.487
 3266SOL    HW210698   1.903   3.971   0.618
 3267SOL     OW10699   3.319   6.536   0.881
 3267SOL    HW110700   3.310   6.444   0.843
 3267SOL    HW210701   3.301   6.604   0.810
 3268SOL     OW10702   1.243   3.560   1.621
 3268SOL    HW110703   1.152   3.558   1.581
 3268SOL    HW210704   1.308   3.513   1.560
 3269SOL     OW10705   4.988   5.750   2.199
 3269SOL    HW110706   5.050   5.776   2.124
 3269SOL    HW210707   5.042   5.720   2.278
 3270SOL     OW10708   1.185   4.476   6.212
 3270SOL    HW110709   1.093   4.472   6.251
 3270SOL    HW210710   1.189   4.550   6.145
 3271SOL     OW10711   5.610   3.432   3.072
 3271SOL    HW110712   5.538   3.421   3.003
 3271SOL    HW210713   5.573   3.480   3.151
 3272SOL     OW10714   3.483   4.730   6.149
 3272SOL    HW110715   3.451   4.772   6.063
 3272SOL    HW210716   3.405   4.718   6.211
 3273SOL     OW10717   0.232   6.208   0.835
 3273SOL    HW110718   0.272   6.293   0.869
 3273SOL    HW210719   0.273   6.185   0.747
 3274SOL     OW10720   5.088   0.850   0.901
 3274SOL    HW110721   5.090   0.853   0.801
 3274SOL    HW210722   5.116   0.938   0.938
 3275SOL     OW10723   5.947   1.697   6.944
 3275SOL    HW110724   5.853   1.720   6.918
 3275SOL    HW210725   5.968   1.738   0.010
 3276SOL     OW10726   2.790   5.765   0.262
 3276SOL    HW110727   2.751   5.790   0.351
 3276SOL    HW210728   2.725   5.708   0.212
 3277SOL     OW10729   3.684   6.933   6.324
 3277SOL    HW110730   3.609   6.892   6.272
 3277SOL    HW210731   3.676   0.009   6.322
 3278SOL     OW10732   0.950   0.989   5.423
 3278SOL    HW110733   0.918   1.016   5.332
 3278SOL    HW210734   0.935   0.891   5.435
 3279SOL     OW10735   5.388   0.324   0.401
 3279SOL    HW110736   5.466   0.264   0.420
 3279SOL    HW210737   5.303   0.271   0.405
 3280SOL     OW10738   3.822   4.989   4.501
 3280SOL    HW110739   3.842   5.082   4.468
 3280SOL    HW210740   3.908   4.943   4.523
 3281SOL     OW10741   1.906   5.073   1.814
 3281SOL    HW110742   1.955   5.159   1.827
 3281SOL    HW210743   1.807   5.088   1.825
 3282SOL     OW10744   6.960   4.848   5.691
 3282SOL    HW110745   6.946   4.828   5.788
 3282SOL    HW210746   0.030   4.824   5.665
 3283SOL     OW10747   3.610   0.308   1.020
 3283SOL    HW110748   3.635   0.271   1.109
 3283SOL    HW210749   3.692   0.323   0.965
 3284SOL     OW10750   0.040   5.069   6.764
 3284SOL    HW110751   0.098   5.117   6.698
 3284SOL    HW210752   0.076   5.085   6.856
 3285SOL     OW10753   4.063   2.259   3.235
 3285SOL    HW110754   4.154   2.220   3.253
 3285SOL    HW210755   4.072   2.356   3.212
 3286SOL     OW10756   3.497   2.814   2.366
 3286SOL    HW110757   3.590   2.831   2.400
 3286SOL    HW210758   3.482   2.715   2.360
 3287SOL     OW10759   0.673   0.516   0.099
 3287SOL    HW110760   0.732   0.453   0.150
 3287SOL    HW210761   0.651   0.477   0.010
 3288SOL     OW10762   0.743   5.583   5.671
 3288SOL    HW110763   0.741   5.588   5.571
 3288SOL    HW210764   0.838   5.587   5.702
 3289SOL     OW10765   2.767   6.986   5.611
 3289SOL    HW110766   2.686   7.022   5.563
 3289SOL    HW210767   2.751   6.989   5.709
 3290SOL     OW10768   0.271   6.867   1.735
 3290SOL    HW110769   0.205   6.825   1.797
 3290SOL    HW210770   0.360   6.874   1.779
 3291SOL     OW10771   1.295   6.796   0.575
 3291SOL    HW110772   1.337   6.809   0.665
 3291SOL    HW210773   1.319   6.706   0.540
 3292SOL     OW10774   0.461   1.268   0.358
 3292SOL    HW110775   0.468   1.175   0.395
 3292SOL    HW210776   0.516   1.274   0.274
 3293SOL     OW10777   0.167   3.643   2.246
 3293SOL    HW110778   0.112   3.580   2.300
 3293SOL    HW210779   0.248   3.670   2.298
 3294SOL     OW10780   5.955   1.835   6.506
 3294SOL    HW110781   5.892   1.844   6.583
 3294SOL    HW210782   5.955   1.741   6.473
 3295SOL     OW10783   1.159   3.046   2.123
 3295SOL    HW110784   1.070   3.006   2.144
 3295SOL    HW210785   1.223   3.028   2.198
 3296SOL     OW10786   1.165   6.863   2.748
 3296SOL    HW110787   1.110   6.918   2.811
 3296SOL    HW210788   1.256   6.849   2.787
 3297SOL     OW10789   2.924   0.714   5.148
 3297SOL    HW110790   3.000   0.653   5.127
 3297SOL    HW210791   2.940   0.803   5.106
 3298SOL     OW10792   6.146   1.750   5.339
 3298SOL    HW110793   6.119   1.721   5.247
 3298SOL    HW210794   6.075   1.807   5.379
 3299SOL     OW10795   2.943   5.749   2.796
 3299SOL    HW110796   2.895   5.781   2.878
 3299SOL    HW210797   2.963   5.827   2.737
 3300SOL     OW10798   6.569   0.824   5.243
 3300SOL    HW110799   6.481   0.870   5.238
 3300SOL    HW210800   6.558   0.728   5.214
 3301SOL     OW10801   1.666   3.297   3.647
 3301SOL    HW110802   1.690   3.207   3.612
 3301SOL    HW210803   1.585   3.332   3.599
 3302SOL     OW10804   0.574   4.836   5.480
 3302SOL    HW110805   0.560   4.770   5.553
 3302SOL    HW210806   0.486   4.865   5.444
 3303SOL     OW10807   3.298   4.075   1.482
 3303SOL    HW110808   3.258   3.985   1.468
 3303SOL    HW210809   3.317   4.088   1.579
 3304SOL     OW10810   1.251   5.654   4.173
 3304SOL    HW110811   1.264   5.721   4.100
 3304SOL    HW210812   1.177   5.684   4.233
 3305SOL     OW10813   2.159   0.927   2.564
 3305SOL    HW110814   2.197   0.974   2.484
 3305SOL    HW210815   2.133   0.995   2.633
 3306SOL     OW10816   2.098   5.186   5.306
 3306SOL    HW110817   2.149   5.153   5.227
 3306SOL    HW210818   2.001   5.163   5.296
 3307SOL     OW10819   0.209   5.187   6.605
 3307SOL    HW110820   0.307   5.203   6.618
 3307SOL    HW210821   0.168   5.266   6.558
 3308SOL     OW10822   2.630   6.401   0.955
 3308SOL    HW110823   2.663   6.326   0.897
 3308SOL    HW210824   2.596   6.476   0.898
 3309SOL     OW10825   0.295   5.940   2.452
 3309SOL    HW110826   0.229   5.955   2.526
 3309SOL    HW210827   0.387   5.935   2.489
 3310SOL     OW10828   7.007   3.339   6.570
 3310SOL    HW110829   7.016   3.320   6.667
 3310SOL    HW210830   6.910   3.343   6.545
 3311SOL     OW10831   2.237   4.246   1.243
 3311SOL    HW110832   2.293   4.233   1.326
 3311SOL    HW210833   2.296   4.274   1.168
 3312SOL     OW10834   4.018   4.487   5.788
 3312SOL    HW110835   4.105   4.439   5.790
 3312SOL    HW210836   3.952   4.440   5.846
 3313SOL     OW10837   0.900   5.620   3.520
 3313SOL    HW110838   0.984   5.605   3.572
 3313SOL    HW210839   0.909   5.578   3.430
 3314SOL     OW10840   2.615   1.499   2.876
 3314SOL    HW110841   2.704   1.461   2.850
 3314SOL    HW210842   2.554   1.498   2.797
 3315SOL     OW10843   6.409   3.613   4.350
 3315SOL    HW110844   6.503   3.582   4.357
 3315SOL    HW210845   6.349   3.534   4.331
 3316SOL     OW10846   5.050   1.579   5.989
 3316SOL    HW110847   4.954   1.555   5.980
 3316SOL    HW210848   5.104   1.527   5.922
 3317SOL     OW10849   4.434   3.181   1.709
 3317SOL    HW110850   4.359   3.171   1.775
 3317SOL    HW210851   4.518   3.145   1.750
 3318SOL     OW10852   1.769   1.106   1.290
 3318SOL    HW110853   1.772   1.200   1.255
 3318SOL    HW210854   1.696   1.056   1.244
 3319SOL     OW10855   6.615   1.376   3.905
 3319SOL    HW110856   6.601   1.361   4.003
 3319SOL    HW210857   6.712   1.363   3.883
 3320SOL     OW10858   6.325   6.967   4.986
 3320SOL    HW110859   6.360   6.909   5.059
 3320SOL    HW210860   6.242   7.014   5.016
 3321SOL     OW10861   4.751   1.411   0.247
 3321SOL    HW110862   4.683   1.370   0.187
 3321SOL    HW210863   4.716   1.413   0.341
 3322SOL     OW10864   6.155   3.153   0.840
 3322SOL    HW110865   6.234   3.174   0.898
 3322SOL    HW210866   6.185   3.105   0.758
 3323SOL     OW10867   3.047   2.837   0.421
 3323SOL    HW110868   2.987   2.805   0.494
 3323SOL    HW210869   3.137   2.859   0.459
 3324SOL     OW10870   3.824   5.492   6.641
 3324SOL    HW110871   3.795   5.399   6.619
 3324SOL    HW210872   3.875   5.490   6.727
 3325SOL     OW10873   0.885   3.185   0.000
 3325SOL    HW110874   0.858   3.106   0.055
 3325SOL    HW210875   0.892   3.158   6.927
 3326SOL     OW10876   4.512   2.206   1.629
 3326SOL    HW110877   4.548   2.261   1.553
 3326SOL    HW210878   4.450   2.136   1.593
 3327SOL     OW10879   3.137   5.590   1.800
 3327SOL    HW110880   3.093   5.673   1.836
 3327SOL    HW210881   3.235   5.593   1.821
 3328SOL     OW10882   4.087   2.410   0.492
 3328SOL    HW110883   4.123   2.445   0.578
 3328SOL    HW210884   3.991   2.437   0.482
 3329SOL     OW10885   4.598   0.371   5.156
 3329SOL    HW110886   4.582   0.290   5.099
 3329SOL    HW210887   4.693   0.401   5.145
 3330SOL     OW10888   6.159   5.109   1.486
 3330SOL    HW110889   6.104   5.027   1.502
 3330SOL    HW210890   6.255   5.089   1.507
 3331SOL     OW10891   1.968   2.924   1.477
 3331SOL    HW110892   1.964   2.912   1.577
 3331SOL    HW210893   1.884   2.968   1.446
 3332SOL     OW10894   6.190   5.181   6.961
 3332SOL    HW110895   6.242   5.235   0.004
 3332SOL    HW210896   6.093   5.207   6.966
 3333SOL     OW10897   4.180   4.207   6.870
 3333SOL    HW110898   4.184   4.306   6.858
 3333SOL    HW210899   4.240   4.180   6.946
 3334SOL     OW10900   2.861   3.822   1.637
 3334SOL    HW110901   2.855   3.882   1.557
 3334SOL    HW210902   2.908   3.870   1.711
 3335SOL     OW10903   5.028   6.784   5.027
 3335SOL    HW110904   5.071   6.718   5.088
 3335SOL    HW210905   4.956   6.833   5.077
 3336SOL     OW10906   2.297   6.564   4.780
 3336SOL    HW110907   2.359   6.488   4.763
 3336SOL    HW210908   2.238   6.543   4.858
 3337SOL     OW10909   3.189   3.954   2.703
 3337SOL    HW110910   3.112   3.891   2.702
 3337SOL    HW210911   3.183   4.015   2.623
 3338SOL     OW10912   5.244   3.332   2.084
 3338SOL    HW110913   5.275   3.259   2.145
 3338SOL    HW210914   5.321   3.395   2.066
 3339SOL     OW10915   6.850   0.595   6.727
 3339SOL    HW110916   6.774   0.634   6.778
 3339SOL    HW210917   6.936   0.638   6.756
 3340SOL     OW10918   3.329   1.707   2.351
 3340SOL    HW110919   3.417   1.727   2.310
 3340SOL    HW210920   3.257   1.719   2.283
 3341SOL     OW10921   1.346   5.518   3.369
 3341SOL    HW110922   1.401   5.437   3.351
 3341SOL    HW210923   1.382   5.595   3.317
 3342SOL     OW10924   2.314   7.018   4.110
 3342SOL    HW110925   2.233   6.990   4.161
 3342SOL    HW210926   2.289   0.062   4.041
 3343SOL     OW10927   5.874   3.324   0.405
 3343SOL    HW110928   5.944   3.256   0.427
 3343SOL    HW210929   5.805   3.284   0.345
 3344SOL     OW10930   5.532   3.234   4.151
 3344SOL    HW110931   5.627   3.226   4.180
 3344SOL    HW210932   5.471   3.209   4.226
 3345SOL     OW10933   1.514   3.658   5.707
 3345SOL    HW110934   1.434   3.618   5.661
 3345SOL    HW210935   1.592   3.597   5.696
 3346SOL     OW10936   1.598   0.655   0.831
 3346SOL    HW110937   1.655   0.726   0.873
 3346SOL    HW210938   1.538   0.616   0.900
 3347SOL     OW10939   0.815   3.768   5.753
 3347SOL    HW110940   0.908   3.742   5.726
 3347SOL    HW210941   0.779   3.836   5.689
 3348SOL     OW10942   3.563   3.863   4.122
 3348SOL    HW110943   3.475   3.816   4.121
 3348SOL    HW210944   3.637   3.796   4.120
 3349SOL     OW10945   1.127   6.115   2.943
 3349SOL    HW110946   1.178   6.135   3.027
 3349SOL    HW210947   1.064   6.190   2.924
 3350SOL     OW10948   0.630   2.630   6.502
 3350SOL    HW110949   0.715   2.599   6.545
 3350SOL    HW210950   0.652   2.699   6.433
 3351SOL     OW10951   4.519   1.185   2.044
 3351SOL    HW110952   4.420   1.195   2.033
 3351SOL    HW210953   4.546   1.217   2.134
 3352SOL     OW10954   6.797   2.211   0.490
 3352SOL    HW110955   6.807   2.229   0.392
 3352SOL    HW210956   6.705   2.238   0.519
 3353SOL     OW10957   1.978   5.489   1.601
 3353SOL    HW110958   2.043   5.559   1.629
 3353SOL    HW210959   1.973   5.418   1.670
 3354SOL     OW10960   4.785   2.611   5.446
 3354SOL    HW110961   4.877   2.652   5.444
 3354SOL    HW210962   4.717   2.683   5.434
 3355SOL     OW10963   2.344   2.098   6.713
 3355SOL    HW110964   2.311   2.029   6.649
 3355SOL    HW210965   2.392   2.054   6.789
 3356SOL     OW10966   0.743   4.879   5.816
 3356SOL    HW110967   0.754   4.937   5.735
 3356SOL    HW210968   0.667   4.912   5.871
 3357SOL     OW10969   2.354   4.384   1.821
 3357SOL    HW110970   2.275   4.420   1.773
 3357SOL    HW210971   2.407   4.325   1.760
 3358SOL     OW10972   4.384   1.472   0.888
 3358SOL    HW110973   4.435   1.407   0.945
 3358SOL    HW210974   4.441   1.552   0.871
 3359SOL     OW10975   0.110   6.979   3.128
 3359SOL    HW110976   0.053   6.924   3.188
 3359SOL    HW210977   0.204   6.943   3.130
 3360SOL     OW10978   1.133   1.256   6.678
 3360SOL    HW110979   1.200   1.193   6.719
 3360SOL    HW210980   1.153   1.349   6.707
 3361SOL     OW10981   1.208   5.002   4.055
 3361SOL    HW110982   1.177   4.950   4.135
 3361SOL    HW210983   1.301   5.033   4.070
 3362SOL     OW10984   3.700   1.275   2.326
 3362SOL    HW110985   3.611   1.259   2.369
 3362SOL    HW210986   3.688   1.330   2.243
 3363SOL     OW10987   6.146   6.844   1.398
 3363SOL    HW110988   6.175   6.937   1.419
 3363SOL    HW210989   6.226   6.787   1.379
 3364SOL     OW10990   1.170   4.821   3.677
 3364SOL    HW110991   1.151   4.764   3.597
 3364SOL    HW210992   1.219   4.904   3.648
 3365SOL     OW10993   6.762   2.103   5.169
 3365SOL    HW110994   6.734   2.081   5.263
 3365SOL    HW210995   6.748   2.023   5.111
 3366SOL     OW10996   5.887   6.364   4.642
 3366SOL    HW110997   5.877   6.316   4.730
 3366SOL    HW210998   5.818   6.436   4.636
 3367SOL     OW10999   3.717   2.805   1.886
 3367SOL    HW111000   3.710   2.797   1.986
 3367SOL    HW211001   3.764   2.890   1.863
 3368SOL     OW11002   0.692   5.121   5.679
 3368SOL    HW111003   0.733   5.138   5.769
 3368SOL    HW211004   0.612   5.180   5.668
 3369SOL     OW11005   3.882   2.587   6.911
 3369SOL    HW111006   3.884   2.488   6.918
 3369SOL    HW211007   3.974   2.621   6.892
 3370SOL     OW11008   6.993   5.638   6.635
 3370SOL    HW111009   7.002   5.679   6.545
 3370SOL    HW211010   6.925   5.688   6.688
 3371SOL     OW11011   2.108   2.957   2.053
 3371SOL    HW111012   2.110   3.006   2.140
 3371SOL    HW211013   2.128   3.022   1.979
 3372SOL     OW11014   0.612   2.049   1.000
 3372SOL    HW111015   0.541   1.984   0.972
 3372SOL    HW211016   0.695   1.999   1.024
 3373SOL     OW11017   6.957   1.692   3.145
 3373SOL    HW111018   6.902   1.732   3.218
 3373SOL    HW211019   0.031   1.702   3.167
 3374SOL     OW11020   1.270   6.421   4.925
 3374SOL    HW111021   1.365   6.450   4.937
 3374SOL    HW211022   1.267   6.336   4.873
 3375SOL     OW11023   6.998   5.102   6.444
 3375SOL    HW111024   0.049   5.139   6.501
 3375SOL    HW211025   6.959   5.022   6.489
 3376SOL     OW11026   4.044   3.190   3.529
 3376SOL    HW111027   4.072   3.171   3.623
 3376SOL    HW211028   4.085   3.277   3.499
 3377SOL     OW11029   6.623   6.202   6.138
 3377SOL    HW111030   6.528   6.184   6.112
 3377SOL    HW211031   6.634   6.298   6.162
 3378SOL     OW11032   0.635   1.301   0.099
 3378SOL    HW111033   0.716   1.259   0.058
 3378SOL    HW211034   0.555   1.244   0.082
 3379SOL     OW11035   6.326   6.908   6.110
 3379SOL    HW111036   6.290   6.973   6.044
 3379SOL    HW211037   6.298   6.935   6.202
 3380SOL     OW11038   5.986   6.703   4.900
 3380SOL    HW111039   6.083   6.724   4.895
 3380SOL    HW211040   5.948   6.741   4.985
 3381SOL     OW11041   0.827   2.680   1.459
 3381SOL    HW111042   0.889   2.613   1.418
 3381SOL    HW211043   0.821   2.760   1.399
 3382SOL     OW11044   0.545   2.558   0.811
 3382SOL    HW111045   0.521   2.461   0.801
 3382SOL    HW211046   0.629   2.566   0.865
 3383SOL     OW11047   4.555   5.712   1.531
 3383SOL    HW111048   4.617   5.638   1.555
 3383SOL    HW211049   4.498   5.685   1.453
 3384SOL     OW11050   2.747   3.309   6.238
 3384SOL    HW111051   2.686   3.316   6.159
 3384SOL    HW211052   2.741   3.393   6.292
 3385SOL     OW11053   6.619   3.009   4.155
 3385SOL    HW111054   6.535   2.956   4.166
 3385SOL    HW211055   6.612   3.094   4.207
 3386SOL     OW11056   5.801   4.751   0.058
 3386SOL    HW111057   5.711   4.717   0.085
 3386SOL    HW211058   5.841   4.689   7.013
 3387SOL     OW11059   3.395   0.611   3.137
 3387SOL    HW111060   3.492   0.625   3.157
 3387SOL    HW211061   3.373   0.514   3.140
 3388SOL     OW11062   5.207   3.062   1.902
 3388SOL    HW111063   5.248   3.146   1.868
 3388SOL    HW211064   5.156   3.082   1.986
 3389SOL     OW11065   5.611   5.011   6.375
 3389SOL    HW111066   5.675   5.051   6.309
 3389SOL    HW211067   5.633   4.914   6.388
 3390SOL     OW11068   4.960   5.968   6.494
 3390SOL    HW111069   5.045   5.919   6.477
 3390SOL    HW211070   4.962   6.056   6.448
 3391SOL     OW11071   4.940   3.261   5.465
 3391SOL    HW111072   4.908   3.356   5.465
 3391SOL    HW211073   4.932   3.224   5.372
 3392SOL     OW11074   2.828   0.058   3.300
 3392SOL    HW111075   2.882   0.127   3.253
 3392SOL    HW211076   2.731   0.082   3.295
 3393SOL     OW11077   0.052   6.330   6.787
 3393SOL    HW111078   0.142   6.307   6.751
 3393SOL    HW211079   0.033   6.427   6.771
 3394SOL     OW11080   5.183   3.531   1.909
 3394SOL    HW111081   5.139   3.590   1.977
 3394SOL    HW211082   5.189   3.438   1.944
 3395SOL     OW11083   5.158   2.893   3.186
 3395SOL    HW111084   5.257   2.885   3.172
 3395SOL    HW211085   5.138   2.899   3.283
 3396SOL     OW11086   4.505   1.917   3.284
 3396SOL    HW111087   4.512   1.865   3.370
 3396SOL    HW211088   4.484   1.854   3.209
 3397SOL     OW11089   2.763   0.407   5.513
 3397SOL    HW111090   2.725   0.351   5.439
 3397SOL    HW211091   2.812   0.484   5.475
 3398SOL     OW11092   0.744   6.605   4.861
 3398SOL    HW111093   0.676   6.563   4.922
 3398SOL    HW211094   0.829   6.553   4.867
 3399SOL     OW11095   5.811   4.225   3.763
 3399SOL    HW111096   5.862   4.141   3.745
 3399SOL    HW211097   5.872   4.293   3.805
 3400SOL     OW11098   4.599   3.254   5.845
 3400SOL    HW111099   4.527   3.276   5.779
 3400SOL    HW211100   4.683   3.231   5.796
 3401SOL     OW11101   6.932   3.011   1.150
 3401SOL    HW111102   6.958   2.969   1.063
 3401SOL    HW211103   7.013   3.049   1.195
 3402SOL     OW11104   3.999   5.973   6.892
 3402SOL    HW111105   4.054   6.056   6.881
 3402SOL    HW211106   3.928   5.970   6.822
 3403SOL     OW11107   3.648   5.342   4.954
 3403SOL    HW111108   3.710   5.407   4.909
 3403SOL    HW211109   3.601   5.388   5.029
 3404SOL     OW11110   4.864   1.127   0.012
 3404SOL    HW111111   4.872   1.094   6.941
 3404SOL    HW211112   4.767   1.142   0.034
 3405SOL     OW11113   6.727   3.781   4.557
 3405SOL    HW111114   6.768   3.816   4.642
 3405SOL    HW211115   6.728   3.852   4.487
 3406SOL     OW11116   1.105   4.298   1.513
 3406SOL    HW111117   1.136   4.385   1.473
 3406SOL    HW211118   1.091   4.309   1.611
 3407SOL     OW11119   1.650   4.908   6.364
 3407SOL    HW111120   1.710   4.841   6.320
 3407SOL    HW211121   1.556   4.873   6.365
 3408SOL     OW11122   4.829   3.814   5.148
 3408SOL    HW111123   4.846   3.877   5.073
 3408SOL    HW211124   4.813   3.722   5.111
 3409SOL     OW11125   3.343   6.610   6.675
 3409SOL    HW111126   3.349   6.540   6.747
 3409SOL    HW211127   3.407   6.589   6.602
 3410SOL     OW11128   6.629   6.569   1.142
 3410SOL    HW111129   6.624   6.554   1.241
 3410SOL    HW211130   6.717   6.610   1.119
 3411SOL     OW11131   0.579   2.932   2.006
 3411SOL    HW111132   0.667   2.966   1.973
 3411SOL    HW211133   0.526   2.897   1.928
 3412SOL     OW11134   4.432   2.526   0.477
 3412SOL    HW111135   4.334   2.508   0.470
 3412SOL    HW211136   4.453   2.564   0.568
 3413SOL     OW11137   5.871   1.435   0.711
 3413SOL    HW111138   5.886   1.528   0.677
 3413SOL    HW211139   5.953   1.404   0.759
 3414SOL     OW11140   3.594   0.965   5.638
 3414SOL    HW111141   3.664   0.930   5.700
 3414SOL    HW211142   3.635   0.980   5.548
 3415SOL     OW11143   1.954   3.838   4.701
 3415SOL    HW111144   2.028   3.900   4.729
 3415SOL    HW211145   1.980   3.793   4.615
 3416SOL     OW11146   6.937   5.666   0.969
 3416SOL    HW111147   6.955   5.764   0.979
 3416SOL    HW211148   6.839   5.652   0.957
 3417SOL     OW11149   0.636   6.250   2.579
 3417SOL    HW111150   0.715   6.307   2.556
 3417SOL    HW211151   0.552   6.300   2.558
 3418SOL     OW11152   3.547   0.063   3.756
 3418SOL    HW111153   3.598   0.125   3.697
 3418SOL    HW211154   3.495   7.022   3.699
 3419SOL     OW11155   2.687   6.264   5.048
 3419SOL    HW111156   2.752   6.192   5.023
 3419SOL    HW211157   2.613   6.225   5.102
 3420SOL     OW11158   5.748   2.895   4.370
 3420SOL    HW111159   5.726   2.837   4.292
 3420SOL    HW211160   5.715   2.853   4.454
 3421SOL     OW11161   5.191   1.013   5.040
 3421SOL    HW111162   5.255   1.009   4.963
 3421SOL    HW211163   5.212   0.940   5.104
 3422SOL     OW11164   2.094   0.520   0.583
 3422SOL    HW111165   2.137   0.528   0.673
 3422SOL    HW211166   2.163   0.498   0.514
 3423SOL     OW11167   0.177   4.574   6.323
 3423SOL    HW111168   0.242   4.559   6.397
 3423SOL    HW211169   0.109   4.641   6.351
 3424SOL     OW11170   3.037   6.282   1.281
 3424SOL    HW111171   3.048   6.348   1.356
 3424SOL    HW211172   2.975   6.321   1.212
 3425SOL     OW11173   5.691   4.736   2.820
 3425SOL    HW111174   5.632   4.751   2.899
 3425SOL    HW211175   5.778   4.784   2.833
 3426SOL     OW11176   3.869   2.523   0.599
 3426SOL    HW111177   3.781   2.508   0.553
 3426SOL    HW211178   3.866   2.483   0.690
 3427SOL     OW11179   6.571   0.620   0.257
 3427SOL    HW111180   6.505   0.573   0.199
 3427SOL    HW211181   6.637   0.554   0.292
 3428SOL     OW11182   2.014   5.346   0.093
 3428SOL    HW111183   1.997   5.307   0.003
 3428SOL    HW211184   2.092   5.301   0.135
 3429SOL     OW11185   0.789   1.793   0.482
 3429SOL    HW111186   0.783   1.794   0.382
 3429SOL    HW211187   0.701   1.820   0.521
 3430SOL     OW11188   1.379   6.734   5.439
 3430SOL    HW111189   1.354   6.826   5.468
 3430SOL    HW211190   1.303   6.694   5.387
 3431SOL     OW11191   1.230   6.919   1.198
 3431SOL    HW111192   1.272   6.966   1.121
 3431SOL    HW211193   1.182   6.837   1.165
 3432SOL     OW11194   1.688   2.783   6.921
 3432SOL    HW111195   1.786   2.766   6.931
 3432SOL    HW211196   1.673   2.877   6.891
 3433SOL     OW11197   1.228   0.222   5.701
 3433SOL    HW111198   1.248   0.269   5.615
 3433SOL    HW211199   1.136   0.245   5.731
 3434SOL     OW11200   4.363   1.120   1.079
 3434SOL    HW111201   4.283   1.160   1.123
 3434SOL    HW211202   4.421   1.193   1.042
 3435SOL     OW11203   0.272   1.394   0.800
 3435SOL    HW111204   0.353   1.336   0.786
 3435SOL    HW211205   0.204   1.343   0.853
 3436SOL     OW11206   4.084   6.140   6.538
 3436SOL    HW111207   4.013   6.088   6.584
 3436SOL    HW211208   4.051   6.233   6.520
 3437SOL     OW11209   2.459   0.663   5.993
 3437SOL    HW111210   2.486   0.576   5.953
 3437SOL    HW211211   2.491   0.738   5.935
 3438SOL     OW11212   0.983   2.701   0.169
 3438SOL    HW111213   0.964   2.705   0.267
 3438SOL    HW211214   1.049   2.628   0.151
 3439SOL     OW11215   2.092   6.180   4.714
 3439SOL    HW111216   2.033   6.107   4.680
 3439SOL    HW211217   2.173   6.141   4.757
 3440SOL     OW11218   3.175   3.610   1.218
 3440SOL    HW111219   3.109   3.548   1.260
 3440SOL    HW211220   3.267   3.585   1.246
 3441SOL     OW11221   5.334   6.628   4.764
 3441SOL    HW111222   5.235   6.630   4.780
 3441SOL    HW211223   5.367   6.534   4.771
 3442SOL     OW11224   2.201   4.652   1.886
 3442SOL    HW111225   2.260   4.729   1.865
 3442SOL    HW211226   2.243   4.596   1.958
 3443SOL     OW11227   4.923   6.141   1.393
 3443SOL    HW111228   4.831   6.156   1.357
 3443SOL    HW211229   4.944   6.043   1.390
 3444SOL     OW11230   4.739   5.194   0.303
 3444SOL    HW111231   4.672   5.267   0.299
 3444SOL    HW211232   4.759   5.171   0.398
 3445SOL     OW11233   6.488   5.459   3.220
 3445SOL    HW111234   6.567   5.399   3.232
 3445SOL    HW211235   6.514   5.553   3.242
 3446SOL     OW11236   6.208   1.098   2.607
 3446SOL    HW111237   6.267   1.179   2.613
 3446SOL    HW211238   6.264   1.018   2.587
 3447SOL     OW11239   6.219   5.413   0.733
 3447SOL    HW111240   6.224   5.314   0.726
 3447SOL    HW211241   6.307   5.453   0.709
 3448SOL     OW11242   3.264   0.673   0.437
 3448SOL    HW111243   3.339   0.720   0.390
 3448SOL    HW211244   3.298   0.628   0.519
 3449SOL     OW11245   5.884   6.582   4.087
 3449SOL    HW111246   5.884   6.560   3.989
 3449SOL    HW211247   5.793   6.613   4.115
 3450SOL     OW11248   6.993   2.482   6.421
 3450SOL    HW111249   6.901   2.513   6.399
 3450SOL    HW211250   0.026   2.560   6.448
 3451SOL     OW11251   2.046   5.609   1.257
 3451SOL    HW111252   1.995   5.559   1.327
 3451SOL    HW211253   2.135   5.566   1.243
 3452SOL     OW11254   6.154   0.609   5.916
 3452SOL    HW111255   6.203   0.687   5.876
 3452SOL    HW211256   6.056   0.627   5.914
 3453SOL     OW11257   6.766   5.797   6.469
 3453SOL    HW111258   6.766   5.725   6.400
 3453SOL    HW211259   6.812   5.878   6.433
 3454SOL     OW11260   0.970   2.313   5.378
 3454SOL    HW111261   1.004   2.222   5.404
 3454SOL    HW211262   1.023   2.383   5.426
 3455SOL     OW11263   2.702   2.166   4.839
 3455SOL    HW111264   2.622   2.109   4.861
 3455SOL    HW211265   2.674   2.240   4.778
 3456SOL     OW11266   5.628   5.656   2.360
 3456SOL    HW111267   5.663   5.679   2.450
 3456SOL    HW211268   5.676   5.576   2.324
 3457SOL     OW11269   2.772   5.023   3.267
 3457SOL    HW111270   2.807   4.944   3.217
 3457SOL    HW211271   2.801   5.017   3.362
 3458SOL     OW11272   4.916   0.641   2.052
 3458SOL    HW111273   4.976   0.658   1.974
 3458SOL    HW211274   4.825   0.616   2.020
 3459SOL     OW11275   5.228   3.201   3.294
 3459SOL    HW111276   5.211   3.134   3.367
 3459SOL    HW211277   5.321   3.236   3.302
 3460SOL     OW11278   2.459   3.377   6.913
 3460SOL    HW111279   2.374   3.417   6.879
 3460SOL    HW211280   2.513   3.345   6.835
 3461SOL     OW11281   4.878   5.395   4.873
 3461SOL    HW111282   4.795   5.420   4.823
 3461SOL    HW211283   4.953   5.381   4.808
 3462SOL     OW11284   0.254   4.070   2.910
 3462SOL    HW111285   0.192   4.021   2.972
 3462SOL    HW211286   0.224   4.164   2.901
 3463SOL     OW11287   0.818   3.606   2.596
 3463SOL    HW111288   0.821   3.706   2.597
 3463SOL    HW211289   0.899   3.571   2.548
 3464SOL     OW11290   6.167   4.046   6.429
 3464SOL    HW111291   6.214   4.000   6.353
 3464SOL    HW211292   6.196   4.142   6.433
 3465SOL     OW11293   1.449   2.402   2.398
 3465SOL    HW111294   1.529   2.383   2.341
 3465SOL    HW211295   1.421   2.497   2.385
 3466SOL     OW11296   0.351   4.872   0.409
 3466SOL    HW111297   0.279   4.812   0.445
 3466SOL    HW211298   0.405   4.908   0.485
 3467SOL     OW11299   1.751   2.765   0.529
 3467SOL    HW111300   1.814   2.803   0.597
 3467SOL    HW211301   1.658   2.766   0.564
 3468SOL     OW11302   4.949   6.726   3.041
 3468SOL    HW111303   5.046   6.713   3.023
 3468SOL    HW211304   4.909   6.781   2.968
 3469SOL     OW11305   5.309   0.586   2.687
 3469SOL    HW111306   5.368   0.664   2.663
 3469SOL    HW211307   5.354   0.531   2.757
 3470SOL     OW11308   5.978   3.391   1.482
 3470SOL    HW111309   5.976   3.467   1.418
 3470SOL    HW211310   5.996   3.425   1.574
 3471SOL     OW11311   3.914   5.204   4.376
 3471SOL    HW111312   3.944   5.156   4.294
 3471SOL    HW211313   3.963   5.291   4.384
 3472SOL     OW11314   2.626   0.657   2.632
 3472SOL    HW111315   2.565   0.719   2.583
 3472SOL    HW211316   2.571   0.595   2.689
 3473SOL     OW11317   6.965   2.133   1.637
 3473SOL    HW111318   6.987   2.189   1.717
 3473SOL    HW211319   6.917   2.189   1.570
 3474SOL     OW11320   1.116   4.538   1.296
 3474SOL    HW111321   1.193   4.484   1.261
 3474SOL    HW211322   1.123   4.632   1.264
 3475SOL     OW11323   1.066   4.858   4.222
 3475SOL    HW111324   1.029   4.783   4.166
 3475SOL    HW211325   1.063   4.832   4.318
 3476SOL     OW11326   2.919   1.365   3.433
 3476SOL    HW111327   3.006   1.394   3.473
 3476SOL    HW211328   2.896   1.425   3.356
 3477SOL     OW11329   2.396   5.203   0.691
 3477SOL    HW111330   2.324   5.173   0.628
 3477SOL    HW211331   2.482   5.159   0.666
 3478SOL     OW11332   2.834   5.701   5.204
 3478SOL    HW111333   2.756   5.744   5.159
 3478SOL    HW211334   2.812   5.605   5.223
 3479SOL     OW11335   1.612   0.274   3.267
 3479SOL    HW111336   1.620   0.185   3.223
 3479SOL    HW211337   1.515   0.298   3.277
 3480SOL     OW11338   0.622   7.001   5.036
 3480SOL    HW111339   0.599   7.006   4.938
 3480SOL    HW211340   0.691   6.931   5.050
 3481SOL     OW11341   4.737   0.273   0.449
 3481SOL    HW111342   4.670   0.345   0.467
 3481SOL    HW211343   4.710   0.190   0.497
 3482SOL     OW11344   5.149   1.241   1.685
 3482SOL    HW111345   5.052   1.256   1.663
 3482SOL    HW211346   5.173   1.294   1.766
 3483SOL     OW11347   4.725   1.899   1.221
 3483SOL    HW111348   4.719   1.809   1.264
 3483SOL    HW211349   4.637   1.947   1.231
 3484SOL     OW11350   1.063   3.603   0.075
 3484SOL    HW111351   1.127   3.628   0.002
 3484SOL    HW211352   1.082   3.510   0.106
 3485SOL     OW11353   1.894   1.447   4.656
 3485SOL    HW111354   1.892   1.366   4.714
 3485SOL    HW211355   1.829   1.515   4.689
 3486SOL     OW11356   3.002   0.952   2.966
 3486SOL    HW111357   3.003   0.942   3.065
 3486SOL    HW211358   2.968   0.868   2.924
 3487SOL     OW11359   5.296   2.752   5.306
 3487SOL    HW111360   5.342   2.665   5.324
 3487SOL    HW211361   5.198   2.741   5.321
 3488SOL     OW11362   6.211   1.665   4.442
 3488SOL    HW111363   6.232   1.759   4.470
 3488SOL    HW211364   6.130   1.664   4.384
 3489SOL     OW11365   3.971   0.196   1.081
 3489SOL    HW111366   4.067   0.191   1.054
 3489SOL    HW211367   3.915   0.226   1.004
 3490SOL     OW11368   4.244   4.276   0.429
 3490SOL    HW111369   4.343   4.273   0.443
 3490SOL    HW211370   4.217   4.204   0.365
 3491SOL     OW11371   4.697   2.587   4.874
 3491SOL    HW111372   4.717   2.628   4.785
 3491SOL    HW211373   4.777   2.535   4.906
 3492SOL     OW11374   0.371   5.306   1.292
 3492SOL    HW111375   0.365   5.332   1.388
 3492SOL    HW211376   0.455   5.343   1.252
 3493SOL     OW11377   5.643   4.698   6.723
 3493SOL    HW111378   5.646   4.606   6.762
 3493SOL    HW211379   5.648   4.691   6.623
 3494SOL     OW11380   4.124   0.526   1.000
 3494SOL    HW111381   4.027   0.550   0.998
 3494SOL    HW211382   4.135   0.441   1.052
 3495SOL     OW11383   5.142   5.328   2.663
 3495SOL    HW111384   5.167   5.414   2.619
 3495SOL    HW211385   5.136   5.342   2.762
 3496SOL     OW11386   6.621   4.249   0.281
 3496SOL    HW111387   6.599   4.339   0.243
 3496SOL    HW211388   6.648   4.260   0.377
 3497SOL     OW11389   3.581   0.843   3.991
 3497SOL    HW111390   3.579   0.930   3.942
 3497SOL    HW211391   3.569   0.860   4.089
 3498SOL     OW11392   2.765   2.390   0.577
 3498SOL    HW111393   2.669   2.412   0.591
 3498SOL    HW211394   2.806   2.458   0.515
 3499SOL     OW11395   4.861   3.274   4.471
 3499SOL    HW111396   4.919   3.257   4.552
 3499SOL    HW211397   4.786   3.209   4.471
 3500SOL     OW11398   1.621   3.368   4.377
 3500SOL    HW111399   1.637   3.428   4.455
 3500SOL    HW211400   1.705   3.363   4.321
 3501SOL     OW11401   1.800   5.878   4.767
 3501SOL    HW111402   1.717   5.849   4.719
 3501SOL    HW211403   1.784   5.968   4.809
 3502SOL     OW11404   6.258   2.838   2.589
 3502SOL    HW111405   6.290   2.789   2.507
 3502SOL    HW211406   6.179   2.895   2.565
 3503SOL     OW11407   6.683   6.256   4.611
 3503SOL    HW111408   6.639   6.344   4.629
 3503SOL    HW211409   6.614   6.189   4.583
 3504SOL     OW11410   1.710   1.874   1.363
 3504SOL    HW111411   1.633   1.913   1.413
 3504SOL    HW211412   1.794   1.886   1.417
 3505SOL     OW11413   5.626   4.863   5.159
 3505SOL    HW111414   5.528   4.847   5.142
 3505SOL    HW211415   5.667   4.780   5.196
 3506SOL     OW11416   4.960   5.316   5.780
 3506SOL    HW111417   4.974   5.379   5.856
 3506SOL    HW211418   4.877   5.341   5.730
 3507SOL     OW11419   1.600   1.110   0.193
 3507SOL    HW111420   1.560   1.086   0.104
 3507SOL    HW211421   1.541   1.175   0.240
 3508SOL     OW11422   3.294   2.382   6.190
 3508SOL    HW111423   3.254   2.404   6.101
 3508SOL    HW211424   3.222   2.378   6.259
 3509SOL     OW11425   5.995   0.158   5.560
 3509SOL    HW111426   5.965   0.186   5.651
 3509SOL    HW211427   5.988   0.236   5.497
 3510SOL     OW11428   1.708   2.763   1.602
 3510SOL    HW111429   1.661   2.715   1.675
 3510SOL    HW211430   1.806   2.747   1.608
 3511SOL     OW11431   3.085   5.161   0.512
 3511SOL    HW111432   3.035   5.180   0.596
 3511SOL    HW211433   3.035   5.092   0.458
 3512SOL     OW11434   0.493   4.920   0.664
 3512SOL    HW111435   0.465   4.964   0.750
 3512SOL    HW211436   0.571   4.860   0.682
 3513SOL     OW11437   6.369   3.192   0.493
 3513SOL    HW111438   6.421   3.155   0.416
 3513SOL    HW211439   6.374   3.128   0.570
 3514SOL     OW11440   1.138   1.442   1.996
 3514SOL    HW111441   1.221   1.401   2.035
 3514SOL    HW211442   1.061   1.380   2.011
 3515SOL     OW11443   4.959   5.928   3.327
 3515SOL    HW111444   5.018   6.006   3.306
 3515SOL    HW211445   5.015   5.850   3.355
 3516SOL     OW11446   4.699   6.839   0.914
 3516SOL    HW111447   4.743   6.776   0.850
 3516SOL    HW211448   4.767   6.906   0.946
 3517SOL     OW11449   1.245   2.021   0.847
 3517SOL    HW111450   1.229   2.105   0.899
 3517SOL    HW211451   1.180   1.951   0.876
 3518SOL     OW11452   5.534   3.426   4.558
 3518SOL    HW111453   5.468   3.419   4.483
 3518SOL    HW211454   5.588   3.510   4.547
 3519SOL     OW11455   1.169   1.014   5.892
 3519SOL    HW111456   1.259   1.053   5.912
 3519SOL    HW211457   1.098   1.078   5.920
 3520SOL     OW11458   3.346   4.995   6.313
 3520SOL    HW111459   3.428   5.027   6.266
 3520SOL    HW211460   3.266   5.008   6.255
 3521SOL     OW11461   5.156   3.224   6.798
 3521SOL    HW111462   5.196   3.213   6.707
 3521SOL    HW211463   5.057   3.207   6.794
 3522SOL     OW11464   6.576   4.413   1.841
 3522SOL    HW111465   6.482   4.434   1.815
 3522SOL    HW211466   6.581   4.404   1.941
 3523SOL     OW11467   3.098   5.184   6.249
 3523SOL    HW111468   3.018   5.219   6.201
 3523SOL    HW211469   3.137   5.256   6.306
 3524SOL     OW11470   3.822   1.041   1.017
 3524SOL    HW111471   3.874   1.112   1.063
 3524SOL    HW211472   3.738   1.080   0.979
 3525SOL     OW11473   0.903   3.909   2.637
 3525SOL    HW111474   0.862   3.996   2.665
 3525SOL    HW211475   0.927   3.914   2.540
 3526SOL     OW11476   2.502   6.147   4.151
 3526SOL    HW111477   2.485   6.098   4.066
 3526SOL    HW211478   2.540   6.237   4.131
 3527SOL     OW11479   5.995   3.100   5.905
 3527SOL    HW111480   6.090   3.095   5.936
 3527SOL    HW211481   5.987   3.053   5.817
 3528SOL     OW11482   0.493   4.664   3.881
 3528SOL    HW111483   0.512   4.669   3.783
 3528SOL    HW211484   0.531   4.580   3.919
 3529SOL     OW11485   4.618   0.155   0.213
 3529SOL    HW111486   4.627   0.238   0.268
 3529SOL    HW211487   4.534   0.161   0.158
 3530SOL     OW11488   1.652   5.010   3.411
 3530SOL    HW111489   1.618   5.020   3.504
 3530SOL    HW211490   1.750   4.987   3.413
 3531SOL     OW11491   4.814   3.412   0.771
 3531SOL    HW111492   4.797   3.314   0.785
 3531SOL    HW211493   4.739   3.464   0.811
 3532SOL     OW11494   2.886   0.721   1.243
 3532SOL    HW111495   2.838   0.792   1.295
 3532SOL    HW211496   2.969   0.759   1.202
 3533SOL     OW11497   1.760   1.424   2.452
 3533SOL    HW111498   1.786   1.508   2.404
 3533SOL    HW211499   1.719   1.360   2.386
 3534SOL     OW11500   5.760   1.273   5.532
 3534SOL    HW111501   5.760   1.176   5.557
 3534SOL    HW211502   5.814   1.287   5.449
 3535SOL     OW11503   0.913   5.613   0.423
 3535SOL    HW111504   0.828   5.666   0.421
 3535SOL    HW211505   0.899   5.526   0.377
 3536SOL     OW11506   2.323   2.252   3.988
 3536SOL    HW111507   2.335   2.195   4.069
 3536SOL    HW211508   2.253   2.213   3.929
 3537SOL     OW11509   2.979   5.171   0.757
 3537SOL    HW111510   2.887   5.207   0.736
 3537SOL    HW211511   2.971   5.095   0.821
 3538SOL     OW11512   1.198   0.689   5.989
 3538SOL    HW111513   1.125   0.756   6.007
 3538SOL    HW211514   1.226   0.695   5.893
 3539SOL     OW11515   5.956   3.663   5.949
 3539SOL    HW111516   6.043   3.633   5.910
 3539SOL    HW211517   5.941   3.759   5.925
 3540SOL     OW11518   1.680   2.511   5.998
 3540SOL    HW111519   1.614   2.470   5.936
 3540SOL    HW211520   1.767   2.525   5.949
 3541SOL     OW11521   1.823   3.180   6.639
 3541SOL    HW111522   1.791   3.146   6.551
 3541SOL    HW211523   1.902   3.127   6.669
 3542SOL     OW11524   1.118   4.531   1.776
 3542SOL    HW111525   1.060   4.536   1.856
 3542SOL    HW211526   1.077   4.584   1.701
 3543SOL     OW11527   0.721   3.477   5.427
 3543SOL    HW111528   0.691   3.542   5.357
 3543SOL    HW211529   0.650   3.468   5.497
 3544SOL     OW11530   2.797   4.812   6.558
 3544SOL    HW111531   2.752   4.894   6.523
 3544SOL    HW211532   2.868   4.838   6.623
 3545SOL     OW11533   4.206   5.064   0.024
 3545SOL    HW111534   4.125   5.028   0.070
 3545SOL    HW211535   4.288   5.024   0.064
 3546SOL     OW11536   0.533   4.737   3.114
 3546SOL    HW111537   0.593   4.764   3.038
 3546SOL    HW211538   0.555   4.643   3.141
 3547SOL     OW11539   6.516   5.123   5.096
 3547SOL    HW111540   6.519   5.214   5.054
 3547SOL    HW211541   6.601   5.074   5.076
 3548SOL     OW11542   5.200   0.289   5.790
 3548SOL    HW111543   5.228   0.216   5.852
 3548SOL    HW211544   5.174   0.370   5.843
 3549SOL     OW11545   6.957   5.177   5.836
 3549SOL    HW111546   7.009   5.254   5.801
 3549SOL    HW211547   6.910   5.131   5.761
 3550SOL     OW11548   5.953   2.814   3.322
 3550SOL    HW111549   5.958   2.908   3.355
 3550SOL    HW211550   5.872   2.769   3.361
 3551SOL     OW11551   3.416   2.053   3.332
 3551SOL    HW111552   3.361   2.017   3.407
 3551SOL    HW211553   3.380   2.142   3.304
 3552SOL     OW11554   6.267   6.592   1.801
 3552SOL    HW111555   6.201   6.613   1.728
 3552SOL    HW211556   6.276   6.493   1.810
 3553SOL     OW11557   4.242   5.355   0.771
 3553SOL    HW111558   4.255   5.257   0.756
 3553SOL    HW211559   4.265   5.405   0.688
 3554SOL     OW11560   4.552   1.323   1.034
 3554SOL    HW111561   4.594   1.309   1.124
 3554SOL    HW211562   4.616   1.373   0.975
 3555SOL     OW11563   0.392   3.993   4.361
 3555SOL    HW111564   0.368   4.085   4.330
 3555SOL    HW211565   0.413   3.936   4.282
 3556SOL     OW11566   4.138   1.034   4.595
 3556SOL    HW111567   4.076   1.101   4.555
 3556SOL    HW211568   4.233   1.065   4.581
 3557SOL     OW11569   0.660   1.000   4.336
 3557SOL    HW111570   0.598   0.996   4.258
 3557SOL    HW211571   0.671   0.908   4.374
 3558SOL     OW11572   1.770   6.248   2.345
 3558SOL    HW111573   1.683   6.280   2.306
 3558SOL    HW211574   1.819   6.194   2.277
 3559SOL     OW11575   0.558   6.731   5.342
 3559SOL    HW111576   0.633   6.796   5.352
 3559SOL    HW211577   0.590   6.639   5.366
 3560SOL     OW11578   1.848   5.451   2.700
 3560SOL    HW111579   1.903   5.423   2.779
 3560SOL    HW211580   1.818   5.369   2.651
 3561SOL     OW11581   4.565   4.410   5.152
 3561SOL    HW111582   4.480   4.447   5.114
 3561SOL    HW211583   4.643   4.460   5.115
 3562SOL     OW11584   3.489   1.405   2.858
 3562SOL    HW111585   3.490   1.495   2.815
 3562SOL    HW211586   3.456   1.414   2.952
 3563SOL     OW11587   6.246   2.167   0.752
 3563SOL    HW111588   6.194   2.156   0.836
 3563SOL    HW211589   6.342   2.141   0.768
 3564SOL     OW11590   1.190   4.493   3.026
 3564SOL    HW111591   1.197   4.428   3.102
 3564SOL    HW211592   1.109   4.550   3.038
 3565SOL     OW11593   3.116   6.504   4.954
 3565SOL    HW111594   3.159   6.593   4.970
 3565SOL    HW211595   3.019   6.517   4.936
 3566SOL     OW11596   6.604   3.400   6.155
 3566SOL    HW111597   6.556   3.391   6.243
 3566SOL    HW211598   6.702   3.405   6.172
 3567SOL     OW11599   0.178   2.127   5.861
 3567SOL    HW111600   0.095   2.107   5.809
 3567SOL    HW211601   0.190   2.058   5.933
 3568SOL     OW11602   4.656   4.328   3.583
 3568SOL    HW111603   4.626   4.419   3.610
 3568SOL    HW211604   4.718   4.291   3.652
 3569SOL     OW11605   2.702   1.557   6.268
 3569SOL    HW111606   2.684   1.639   6.212
 3569SOL    HW211607   2.797   1.529   6.256
 3570SOL     OW11608   5.551   0.954   5.591
 3570SOL    HW111609   5.511   0.878   5.643
 3570SOL    HW211610   5.484   0.989   5.526
 3571SOL     OW11611   0.664   5.124   4.490
 3571SOL    HW111612   0.724   5.091   4.563
 3571SOL    HW211613   0.654   5.223   4.497
 3572SOL     OW11614   5.885   3.486   3.007
 3572SOL    HW111615   5.906   3.407   2.949
 3572SOL    HW211616   5.788   3.484   3.031
 3573SOL     OW11617   0.629   5.690   3.292
 3573SOL    HW111618   0.600   5.722   3.383
 3573SOL    HW211619   0.561   5.626   3.256
 3574SOL     OW11620   0.416   3.537   0.231
 3574SOL    HW111621   0.470   3.558   0.313
 3574SOL    HW211622   0.349   3.466   0.251
 3575SOL     OW11623   5.296   5.043   2.274
 3575SOL    HW111624   5.361   5.113   2.247
 3575SOL    HW211625   5.279   4.981   2.197
 3576SOL     OW11626   6.997   1.710   6.067
 3576SOL    HW111627   6.961   1.651   6.140
 3576SOL    HW211628   0.051   1.665   6.023
 3577SOL     OW11629   1.548   1.753   6.054
 3577SOL    HW111630   1.485   1.767   5.978
 3577SOL    HW211631   1.501   1.705   6.128
 3578SOL     OW11632   3.661   2.073   0.672
 3578SOL    HW111633   3.648   2.150   0.736
 3578SOL    HW211634   3.746   2.025   0.695
 3579SOL     OW11635   6.244   2.602   4.019
 3579SOL    HW111636   6.153   2.562   4.026
 3579SOL    HW211637   6.260   2.633   3.926
 3580SOL     OW11638   5.630   3.085   1.741
 3580SOL    HW111639   5.588   2.996   1.756
 3580SOL    HW211640   5.698   3.078   1.668
 3581SOL     OW11641   1.668   5.670   3.641
 3581SOL    HW111642   1.571   5.679   3.667
 3581SOL    HW211643   1.686   5.726   3.560
 3582SOL     OW11644   0.222   3.510   6.190
 3582SOL    HW111645   0.192   3.600   6.223
 3582SOL    HW211646   0.213   3.506   6.091
 3583SOL     OW11647   0.785   4.114   6.382
 3583SOL    HW111648   0.702   4.129   6.435
 3583SOL    HW211649   0.781   4.025   6.337
 3584SOL     OW11650   5.392   5.680   6.814
 3584SOL    HW111651   5.363   5.760   6.868
 3584SOL    HW211652   5.401   5.706   6.718
 3585SOL     OW11653   3.310   0.431   4.618
 3585SOL    HW111654   3.403   0.449   4.650
 3585SOL    HW211655   3.314   0.390   4.527
 3586SOL     OW11656   6.877   2.263   4.984
 3586SOL    HW111657   6.820   2.214   5.049
 3586SOL    HW211658   6.973   2.257   5.013
 3587SOL     OW11659   2.499   4.524   6.005
 3587SOL    HW111660   2.559   4.468   5.948
 3587SOL    HW211661   2.538   4.532   6.097
 3588SOL     OW11662   1.018   2.618   5.799
 3588SOL    HW111663   1.074   2.615   5.881
 3588SOL    HW211664   0.963   2.702   5.799
 3589SOL     OW11665   4.536   1.555   4.735
 3589SOL    HW111666   4.572   1.630   4.679
 3589SOL    HW211667   4.540   1.581   4.832
 3590SOL     OW11668   0.707   2.535   0.275
 3590SOL    HW111669   0.694   2.521   0.374
 3590SOL    HW211670   0.752   2.456   0.236
 3591SOL     OW11671   5.201   4.027   6.873
 3591SOL    HW111672   5.132   3.980   6.818
 3591SOL    HW211673   5.289   3.980   6.863
 3592SOL     OW11674   0.519   5.039   2.112
 3592SOL    HW111675   0.570   5.092   2.045
 3592SOL    HW211676   0.440   5.091   2.143
 3593SOL     OW11677   0.618   5.572   4.716
 3593SOL    HW111678   0.622   5.671   4.731
 3593SOL    HW211679   0.690   5.527   4.767
 3594SOL     OW11680   4.388   6.496   3.560
 3594SOL    HW111681   4.404   6.454   3.470
 3594SOL    HW211682   4.313   6.562   3.552
 3595SOL     OW11683   3.434   5.658   6.646
 3595SOL    HW111684   3.347   5.668   6.693
 3595SOL    HW211685   3.494   5.734   6.670
 3596SOL     OW11686   6.208   3.070   3.308
 3596SOL    HW111687   6.108   3.070   3.303
 3596SOL    HW211688   6.238   3.145   3.367
 3597SOL     OW11689   1.767   2.733   5.485
 3597SOL    HW111690   1.764   2.788   5.569
 3597SOL    HW211691   1.850   2.755   5.434
 3598SOL     OW11692   1.445   5.488   6.402
 3598SOL    HW111693   1.468   5.393   6.384
 3598SOL    HW211694   1.528   5.543   6.404
 3599SOL     OW11695   6.757   2.230   6.325
 3599SOL    HW111696   6.849   2.204   6.298
 3599SOL    HW211697   6.693   2.207   6.251
 3600SOL     OW11698   0.623   3.039   1.440
 3600SOL    HW111699   0.584   3.007   1.526
 3600SOL    HW211700   0.572   3.000   1.363
 3601SOL     OW11701   5.454   3.934   6.829
 3601SOL    HW111702   5.494   3.970   6.744
 3601SOL    HW211703   5.497   3.847   6.852
 3602SOL     OW11704   1.984   2.525   0.486
 3602SOL    HW111705   1.895   2.570   0.482
 3602SOL    HW211706   2.002   2.493   0.579
 3603SOL     OW11707   3.615   1.055   3.827
 3603SOL    HW111708   3.703   1.098   3.846
 3603SOL    HW211709   3.617   1.011   3.738
 3604SOL     OW11710   6.353   5.378   2.949
 3604SOL    HW111711   6.400   5.394   2.862
 3604SOL    HW211712   6.407   5.416   3.024
 3605SOL     OW11713   6.713   3.450   4.888
 3605SOL    HW111714   6.654   3.514   4.838
 3605SOL    HW211715   6.709   3.360   4.845
 3606SOL     OW11716   0.069   0.512   4.759
 3606SOL    HW111717   0.077   0.578   4.685
 3606SOL    HW211718   0.094   0.421   4.726
 3607SOL     OW11719   6.057   5.082   1.893
 3607SOL    HW111720   6.147   5.119   1.869
 3607SOL    HW211721   6.040   5.098   1.991
 3608SOL     OW11722   5.235   2.608   4.099
 3608SOL    HW111723   5.204   2.677   4.034
 3608SOL    HW211724   5.314   2.559   4.062
 3609SOL     OW11725   1.328   7.009   4.059
 3609SOL    HW111726   1.248   6.952   4.077
 3609SOL    HW211727   1.411   6.953   4.059
 3610SOL     OW11728   2.082   6.963   6.211
 3610SOL    HW111729   2.009   6.979   6.278
 3610SOL    HW211730   2.144   0.019   6.212
 3611SOL     OW11731   4.434   5.027   4.675
 3611SOL    HW111732   4.334   5.032   4.684
 3611SOL    HW211733   4.476   5.032   4.765
 3612SOL     OW11734   6.648   6.883   0.444
 3612SOL    HW111735   6.743   6.858   0.465
 3612SOL    HW211736   6.611   6.939   0.518
 3613SOL     OW11737   4.386   4.555   1.985
 3613SOL    HW111738   4.303   4.594   2.023
 3613SOL    HW211739   4.379   4.455   1.984
 3614SOL     OW11740   3.777   3.431   1.569
 3614SOL    HW111741   3.826   3.499   1.515
 3614SOL    HW211742   3.693   3.470   1.605
 3615SOL     OW11743   5.260   4.742   6.454
 3615SOL    HW111744   5.289   4.837   6.468
 3615SOL    HW211745   5.277   4.715   6.359
 3616SOL     OW11746   0.346   1.975   0.031
 3616SOL    HW111747   0.301   1.958   6.967
 3616SOL    HW211748   0.410   1.899   0.051
 3617SOL     OW11749   3.767   1.209   6.751
 3617SOL    HW111750   3.851   1.238   6.797
 3617SOL    HW211751   3.709   1.159   6.815
 3618SOL     OW11752   2.267   2.908   5.671
 3618SOL    HW111753   2.366   2.894   5.664
 3618SOL    HW211754   2.226   2.904   5.580
 3619SOL     OW11755   5.645   2.454   4.556
 3619SOL    HW111756   5.653   2.435   4.654
 3619SOL    HW211757   5.590   2.536   4.542
 3620SOL     OW11758   5.933   6.707   5.933
 3620SOL    HW111759   6.011   6.699   5.871
 3620SOL    HW211760   5.957   6.668   6.022
 3621SOL     OW11761   3.103   2.770   5.351
 3621SOL    HW111762   3.128   2.864   5.329
 3621SOL    HW211763   3.116   2.754   5.449
 3622SOL     OW11764   0.999   1.273   5.633
 3622SOL    HW111765   1.083   1.259   5.687
 3622SOL    HW211766   1.024   1.296   5.539
 3623SOL     OW11767   6.975   5.982   4.572
 3623SOL    HW111768   6.943   6.038   4.649
 3623SOL    HW211769   0.046   5.954   4.588
 3624SOL     OW11770   1.448   6.812   2.287
 3624SOL    HW111771   1.398   6.834   2.371
 3624SOL    HW211772   1.518   6.882   2.272
 3625SOL     OW11773   0.029   2.732   6.504
 3625SOL    HW111774   0.004   2.828   6.515
 3625SOL    HW211775   7.012   2.678   6.578
 3626SOL     OW11776   1.445   1.863   5.802
 3626SOL    HW111777   1.416   1.958   5.789
 3626SOL    HW211778   1.485   1.828   5.717
 3627SOL     OW11779   3.133   3.484   2.500
 3627SOL    HW111780   3.173   3.392   2.502
 3627SOL    HW211781   3.052   3.487   2.559
 3628SOL     OW11782   2.064   1.096   2.186
 3628SOL    HW111783   2.009   1.159   2.131
 3628SOL    HW211784   2.060   1.005   2.146
 3629SOL     OW11785   6.456   0.854   5.605
 3629SOL    HW111786   6.415   0.911   5.533
 3629SOL    HW211787   6.556   0.860   5.600
 3630SOL     OW11788   5.077   2.263   4.060
 3630SOL    HW111789   5.085   2.346   4.115
 3630SOL    HW211790   5.135   2.271   3.979
 3631SOL     OW11791   2.529   1.516   3.428
 3631SOL    HW111792   2.596   1.445   3.448
 3631SOL    HW211793   2.514   1.520   3.329
 3632SOL     OW11794   5.351   4.860   1.594
 3632SOL    HW111795   5.278   4.924   1.569
 3632SOL    HW211796   5.422   4.909   1.644
 3633SOL     OW11797   4.401   1.886   5.587
 3633SOL    HW111798   4.318   1.936   5.560
 3633SOL    HW211799   4.432   1.919   5.676
 3634SOL     OW11800   1.738   5.010   5.040
 3634SOL    HW111801   1.713   5.068   4.962
 3634SOL    HW211802   1.745   5.066   5.123
 3635SOL     OW11803   3.415   6.952   0.767
 3635SOL    HW111804   3.321   6.988   0.773
 3635SOL    HW211805   3.465   7.002   0.697
 3636SOL     OW11806   0.123   5.746   0.692
 3636SOL    HW111807   0.082   5.809   0.627
 3636SOL    HW211808   0.168   5.798   0.765
 3637SOL     OW11809   6.838   2.140   2.262
 3637SOL    HW111810   6.784   2.220   2.236
 3637SOL    HW211811   6.801   2.100   2.346
 3638SOL     OW11812   0.791   4.743   3.273
 3638SOL    HW111813   0.704   4.723   3.228
 3638SOL    HW211814   0.827   4.660   3.315
 3639SOL     OW11815   3.822   5.530   0.722
 3639SOL    HW111816   3.847   5.458   0.657
 3639SOL    HW211817   3.891   5.602   0.720
 3640SOL     OW11818   3.916   0.664   0.207
 3640SOL    HW111819   3.961   0.577   0.231
 3640SOL    HW211820   3.856   0.691   0.282
 3641SOL     OW11821   5.620   3.478   2.313
 3641SOL    HW111822   5.598   3.507   2.407
 3641SOL    HW211823   5.670   3.391   2.316
 3642SOL     OW11824   5.133   1.916   0.458
 3642SOL    HW111825   5.217   1.894   0.409
 3642SOL    HW211826   5.056   1.911   0.394
 3643SOL     OW11827   3.202   5.441   4.054
 3643SOL    HW111828   3.299   5.422   4.071
 3643SOL    HW211829   3.161   5.481   4.136
 3644SOL     OW11830   0.290   0.976   1.937
 3644SOL    HW111831   0.284   1.068   1.897
 3644SOL    HW211832   0.385   0.957   1.962
 3645SOL     OW11833   1.174   2.643   4.031
 3645SOL    HW111834   1.266   2.604   4.025
 3645SOL    HW211835   1.154   2.666   4.126
 3646SOL     OW11836   1.446   4.094   6.666
 3646SOL    HW111837   1.377   4.034   6.706
 3646SOL    HW211838   1.533   4.044   6.658
 3647SOL     OW11839   2.455   6.246   6.524
 3647SOL    HW111840   2.435   6.169   6.585
 3647SOL    HW211841   2.406   6.233   6.438
 3648SOL     OW11842   4.504   5.140   1.774
 3648SOL    HW111843   4.522   5.215   1.710
 3648SOL    HW211844   4.408   5.115   1.771
 3649SOL     OW11845   6.121   2.916   1.279
 3649SOL    HW111846   6.165   2.898   1.191
 3649SOL    HW211847   6.078   3.006   1.277
 3650SOL     OW11848   6.635   5.951   1.907
 3650SOL    HW111849   6.670   5.950   1.813
 3650SOL    HW211850   6.579   5.870   1.922
 3651SOL     OW11851   0.203   0.321   4.634
 3651SOL    HW111852   0.136   0.269   4.580
 3651SOL    HW211853   0.271   0.258   4.671
 3652SOL     OW11854   6.367   7.014   3.807
 3652SOL    HW111855   6.418   6.931   3.825
 3652SOL    HW211856   6.419   0.070   3.839
 3653SOL     OW11857   1.060   1.826   3.710
 3653SOL    HW111858   1.136   1.840   3.773
 3653SOL    HW211859   1.087   1.762   3.638
 3654SOL     OW11860   3.484   4.356   0.523
 3654SOL    HW111861   3.441   4.419   0.458
 3654SOL    HW211862   3.574   4.391   0.548
 3655SOL     OW11863   3.158   6.713   3.785
 3655SOL    HW111864   3.247   6.723   3.829
 3655SOL    HW211865   3.089   6.764   3.837
 3656SOL     OW11866   0.472   4.399   1.094
 3656SOL    HW111867   0.432   4.488   1.115
 3656SOL    HW211868   0.438   4.330   1.158
 3657SOL     OW11869   5.455   6.042   5.633
 3657SOL    HW111870   5.467   5.961   5.576
 3657SOL    HW211871   5.419   6.118   5.578
 3658SOL     OW11872   2.060   4.681   6.488
 3658SOL    HW111873   1.985   4.629   6.529
 3658SOL    HW211874   2.085   4.639   6.401
 3659SOL     OW11875   2.135   3.449   5.622
 3659SOL    HW111876   2.097   3.464   5.713
 3659SOL    HW211877   2.083   3.377   5.576
 3660SOL     OW11878   5.718   5.611   3.930
 3660SOL    HW111879   5.709   5.658   4.018
 3660SOL    HW211880   5.815   5.595   3.911
 3661SOL     OW11881   6.307   0.675   5.435
 3661SOL    HW111882   6.358   0.724   5.506
 3661SOL    HW211883   6.319   0.722   5.347
 3662SOL     OW11884   3.873   0.741   4.145
 3662SOL    HW111885   3.829   0.824   4.181
 3662SOL    HW211886   3.822   0.661   4.176
 3663SOL     OW11887   2.166   2.145   0.496
 3663SOL    HW111888   2.074   2.170   0.527
 3663SOL    HW211889   2.172   2.046   0.486
 3664SOL     OW11890   4.494   2.282   1.227
 3664SOL    HW111891   4.557   2.335   1.170
 3664SOL    HW211892   4.480   2.192   1.186
 3665SOL     OW11893   0.967   6.267   5.130
 3665SOL    HW111894   0.976   6.244   5.033
 3665SOL    HW211895   0.876   6.306   5.146
 3666SOL     OW11896   0.575   3.259   3.107
 3666SOL    HW111897   0.509   3.261   3.182
 3666SOL    HW211898   0.619   3.348   3.098
 3667SOL     OW11899   0.442   1.504   3.769
 3667SOL    HW111900   0.512   1.439   3.740
 3667SOL    HW211901   0.357   1.456   3.789
 3668SOL     OW11902   1.518   1.229   1.014
 3668SOL    HW111903   1.606   1.257   0.975
 3668SOL    HW211904   1.489   1.296   1.082
 3669SOL     OW11905   5.443   1.487   3.982
 3669SOL    HW111906   5.425   1.585   3.991
 3669SOL    HW211907   5.428   1.442   4.070
 3670SOL     OW11908   1.648   5.832   6.678
 3670SOL    HW111909   1.683   5.811   6.769
 3670SOL    HW211910   1.610   5.924   6.678
 3671SOL     OW11911   0.295   1.840   3.778
 3671SOL    HW111912   0.332   1.880   3.695
 3671SOL    HW211913   0.369   1.797   3.830
 3672SOL     OW11914   4.605   2.022   1.818
 3672SOL    HW111915   4.567   2.094   1.761
 3672SOL    HW211916   4.540   1.999   1.891
 3673SOL     OW11917   4.049   6.384   0.020
 3673SOL    HW111918   4.069   6.458   0.084
 3673SOL    HW211919   4.060   6.296   0.067
 3674SOL     OW11920   1.537   5.758   5.374
 3674SOL    HW111921   1.473   5.824   5.413
 3674SOL    HW211922   1.618   5.751   5.432
 3675SOL     OW11923   2.184   2.927   3.925
 3675SOL    HW111924   2.224   2.888   3.842
 3675SOL    HW211925   2.194   2.862   4.000
 3676SOL     OW11926   6.400   4.232   2.770
 3676SOL    HW111927   6.347   4.204   2.850
 3676SOL    HW211928   6.446   4.152   2.731
 3677SOL     OW11929   2.893   6.276   4.302
 3677SOL    HW111930   2.910   6.270   4.400
 3677SOL    HW211931   2.850   6.364   4.281
 3678SOL     OW11932   0.493   1.183   3.947
 3678SOL    HW111933   0.550   1.164   3.867
 3678SOL    HW211934   0.494   1.103   4.008
 3679SOL     OW11935   7.019   0.265   3.676
 3679SOL    HW111936   6.920   0.257   3.660
 3679SOL    HW211937   0.033   0.339   3.619
 3680SOL     OW11938   5.072   2.998   4.227
 3680SOL    HW111939   5.120   2.984   4.141
 3680SOL    HW211940   5.096   2.924   4.291
 3681SOL     OW11941   0.259   0.738   6.106
 3681SOL    HW111942   0.206   0.756   6.023
 3681SOL    HW211943   0.293   0.825   6.143
 3682SOL     OW11944   5.073   2.529   0.020
 3682SOL    HW111945   5.051   2.435   0.044
 3682SOL    HW211946   5.093   2.581   0.103
 3683SOL     OW11947   6.774   1.728   4.160
 3683SOL    HW111948   6.842   1.661   4.187
 3683SOL    HW211949   6.799   1.768   4.072
 3684SOL     OW11950   1.229   5.185   7.016
 3684SOL    HW111951   1.195   5.223   0.080
 3684SOL    HW211952   1.165   5.116   6.983
 3685SOL     OW11953   1.759   6.465   6.517
 3685SOL    HW111954   1.754   6.539   6.450
 3685SOL    HW211955   1.718   6.494   6.603
 3686SOL     OW11956   6.252   5.323   4.785
 3686SOL    HW111957   6.327   5.370   4.832
 3686SOL    HW211958   6.171   5.381   4.786
 3687SOL     OW11959   3.740   6.611   3.839
 3687SOL    HW111960   3.828   6.571   3.868
 3687SOL    HW211961   3.705   6.669   3.912
 3688SOL     OW11962   0.662   3.227   6.676
 3688SOL    HW111963   0.565   3.215   6.697
 3688SOL    HW211964   0.694   3.315   6.711
 3689SOL     OW11965   2.517   0.402   5.864
 3689SOL    HW111966   2.473   0.389   5.775
 3689SOL    HW211967   2.534   0.313   5.906
 3690SOL     OW11968   4.356   5.775   0.115
 3690SOL    HW111969   4.422   5.712   0.074
 3690SOL    HW211970   4.266   5.732   0.120
 3691SOL     OW11971   2.327   1.631   6.472
 3691SOL    HW111972   2.378   1.697   6.418
 3691SOL    HW211973   2.247   1.600   6.420
 3692SOL     OW11974   6.443   5.263   5.599
 3692SOL    HW111975   6.467   5.344   5.652
 3692SOL    HW211976   6.465   5.278   5.503
 3693SOL     OW11977   1.888   3.888   3.325
 3693SOL    HW111978   1.825   3.964   3.306
 3693SOL    HW211979   1.934   3.860   3.241
 3694SOL     OW11980   0.848   6.476   1.725
 3694SOL    HW111981   0.754   6.461   1.756
 3694SOL    HW211982   0.873   6.572   1.740
 3695SOL     OW11983   5.391   2.886   2.045
 3695SOL    HW111984   5.481   2.861   2.009
 3695SOL    HW211985   5.333   2.918   1.970
 3696SOL     OW11986   4.186   6.956   3.804
 3696SOL    HW111987   4.254   6.890   3.836
 3696SOL    HW211988   4.201   0.020   3.850
 3697SOL     OW11989   0.182   6.476   2.605
 3697SOL    HW111990   0.236   6.554   2.574
 3697SOL    HW211991   0.213   6.393   2.558
 3698SOL     OW11992   2.938   1.075   4.528
 3698SOL    HW111993   3.034   1.083   4.555
 3698SOL    HW211994   2.927   1.112   4.436
 3699SOL     OW11995   1.378   2.118   4.511
 3699SOL    HW111996   1.402   2.133   4.415
 3699SOL    HW211997   1.409   2.027   4.540
 3700SOL     OW11998   1.276   5.599   4.841
 3700SOL    HW111999   1.325   5.528   4.791
 3700SOL    HW212000   1.181   5.602   4.808
 3701SOL     OW12001   1.324   1.056   4.129
 3701SOL    HW112002   1.414   1.019   4.106
 3701SOL    HW212003   1.281   0.998   4.198
 3702SOL     OW12004   5.506   6.676   3.027
 3702SOL    HW112005   5.566   6.746   3.064
 3702SOL    HW212006   5.500   6.687   2.928
 3703SOL     OW12007   6.253   0.376   6.272
 3703SOL    HW112008   6.207   0.460   6.302
 3703SOL    HW212009   6.243   0.366   6.174
 3704SOL     OW12010   3.272   1.873   1.126
 3704SOL    HW112011   3.227   1.801   1.178
 3704SOL    HW212012   3.206   1.916   1.065
 3705SOL     OW12013   5.284   4.084   4.791
 3705SOL    HW112014   5.208   4.149   4.791
 3705SOL    HW212015   5.278   4.025   4.871
 3706SOL     OW12016   1.357   4.145   0.155
 3706SOL    HW112017   1.315   4.108   0.239
 3706SOL    HW212018   1.359   4.073   0.086
 3707SOL     OW12019   5.308   4.844   4.177
 3707SOL    HW112020   5.259   4.779   4.235
 3707SOL    HW212021   5.396   4.867   4.218
 3708SOL     OW12022   6.349   1.234   0.153
 3708SOL    HW112023   6.257   1.212   0.122
 3708SOL    HW212024   6.349   1.245   0.252
 3709SOL     OW12025   3.575   1.189   0.935
 3709SOL    HW112026   3.537   1.184   0.843
 3709SOL    HW212027   3.511   1.237   0.995
 3710SOL     OW12028   6.282   5.709   5.165
 3710SOL    HW112029   6.326   5.657   5.092
 3710SOL    HW212030   6.201   5.659   5.198
 3711SOL     OW12031   0.957   6.195   4.701
 3711SOL    HW112032   0.889   6.242   4.757
 3711SOL    HW212033   0.988   6.112   4.748
 3712SOL     OW12034   1.090   5.407   6.321
 3712SOL    HW112035   1.004   5.385   6.367
 3712SOL    HW212036   1.143   5.471   6.378
 3713SOL     OW12037   0.418   7.011   5.244
 3713SOL    HW112038   0.378   0.015   5.156
 3713SOL    HW212039   0.500   6.956   5.228
 3714SOL     OW12040   5.438   5.961   6.101
 3714SOL    HW112041   5.369   6.026   6.069
 3714SOL    HW212042   5.431   5.951   6.200
 3715SOL     OW12043   0.622   3.889   2.889
 3715SOL    HW112044   0.556   3.853   2.955
 3715SOL    HW212045   0.581   3.965   2.838
 3716SOL     OW12046   6.204   6.866   3.641
 3716SOL    HW112047   6.198   6.780   3.692
 3716SOL    HW212048   6.236   6.939   3.703
 3717SOL     OW12049   6.019   6.858   6.461
 3717SOL    HW112050   6.009   6.814   6.551
 3717SOL    HW212051   6.082   6.936   6.469
 3718SOL     OW12052   0.695   0.849   6.881
 3718SOL    HW112053   0.784   0.848   6.926
 3718SOL    HW212054   0.624   0.822   6.947
 3719SOL     OW12055   5.458   4.098   1.255
 3719SOL    HW112056   5.525   4.097   1.181
 3719SOL    HW212057   5.495   4.147   1.333
 3720SOL     OW12058   5.905   2.956   0.020
 3720SOL    HW112059   5.903   2.897   6.963
 3720SOL    HW212060   5.812   2.969   0.054
 3721SOL     OW12061   6.674   5.063   1.894
 3721SOL    HW112062   6.615   5.132   1.854
 3721SOL    HW212063   6.623   5.011   1.963
 3722SOL     OW12064   5.864   5.798   0.936
 3722SOL    HW112065   5.885   5.892   0.910
 3722SOL    HW212066   5.788   5.764   0.881
 3723SOL     OW12067   5.687   5.119   1.103
 3723SOL    HW112068   5.687   5.028   1.146
 3723SOL    HW212069   5.745   5.118   1.022
 3724SOL     OW12070   1.689   4.807   4.876
 3724SOL    HW112071   1.600   4.815   4.830
 3724SOL    HW212072   1.695   4.873   4.950
 3725SOL     OW12073   6.948   5.088   0.090
 3725SOL    HW112074   7.004   5.017   0.132
 3725SOL    HW212075   6.988   5.178   0.110
 3726SOL     OW12076   6.166   3.172   6.710
 3726SOL    HW112077   6.106   3.181   6.790
 3726SOL    HW212078   6.170   3.075   6.683
 3727SOL     OW12079   6.393   1.552   5.822
 3727SOL    HW112080   6.465   1.487   5.845
 3727SOL    HW212081   6.308   1.526   5.867
 3728SOL     OW12082   0.977   3.353   6.414
 3728SOL    HW112083   0.950   3.268   6.369
 3728SOL    HW212084   1.058   3.391   6.368
 3729SOL     OW12085   1.822   1.808   4.398
 3729SOL    HW112086   1.876   1.836   4.318
 3729SOL    HW212087   1.865   1.844   4.481
 3730SOL     OW12088   3.210   5.825   5.618
 3730SOL    HW112089   3.119   5.805   5.584
 3730SOL    HW212090   3.264   5.741   5.621
 3731SOL     OW12091   6.760   1.495   1.025
 3731SOL    HW112092   6.833   1.452   0.972
 3731SOL    HW212093   6.693   1.535   0.962
 3732SOL     OW12094   2.773   1.858   6.903
 3732SOL    HW112095   2.809   1.810   6.823
 3732SOL    HW212096   2.822   1.944   6.915
 3733SOL     OW12097   1.622   3.305   3.045
 3733SOL    HW112098   1.643   3.360   2.964
 3733SOL    HW212099   1.524   3.307   3.063
 3734SOL     OW12100   5.075   0.346   1.180
 3734SOL    HW112101   5.023   0.372   1.098
 3734SOL    HW212102   5.039   0.396   1.259
 3735SOL     OW12103   2.963   1.247   3.022
 3735SOL    HW112104   2.998   1.175   2.963
 3735SOL    HW212105   3.024   1.326   3.019
 3736SOL     OW12106   6.707   1.985   1.453
 3736SOL    HW112107   6.767   2.063   1.433
 3736SOL    HW212108   6.659   1.958   1.369
 3737SOL     OW12109   5.428   0.980   4.490
 3737SOL    HW112110   5.446   0.901   4.431
 3737SOL    HW212111   5.332   1.007   4.481
 3738SOL     OW12112   6.738   0.316   2.013
 3738SOL    HW112113   6.798   0.298   1.936
 3738SOL    HW212114   6.714   0.413   2.016
 3739SOL     OW12115   2.592   5.480   0.763
 3739SOL    HW112116   2.611   5.390   0.801
 3739SOL    HW212117   2.618   5.483   0.667
 3740SOL     OW12118   6.786   0.336   1.068
 3740SOL    HW112119   6.855   0.297   1.128
 3740SOL    HW212120   6.721   0.389   1.123
 3741SOL     OW12121   5.655   2.901   5.802
 3741SOL    HW112122   5.700   2.960   5.735
 3741SOL    HW212123   5.570   2.945   5.833
 3742SOL     OW12124   2.889   1.705   6.593
 3742SOL    HW112125   2.795   1.671   6.586
 3742SOL    HW212126   2.934   1.697   6.504
 3743SOL     OW12127   6.106   3.171   0.427
 3743SOL    HW112128   6.197   3.174   0.468
 3743SOL    HW212129   6.114   3.147   0.330
 3744SOL     OW12130   1.869   6.090   1.485
 3744SOL    HW112131   1.948   6.082   1.424
 3744SOL    HW212132   1.837   5.999   1.511
 3745SOL     OW12133   4.605   4.493   2.555
 3745SOL    HW112134   4.620   4.419   2.490
 3745SOL    HW212135   4.638   4.579   2.516
 3746SOL     OW12136   6.036   0.928   3.834
 3746SOL    HW112137   5.973   1.006   3.838
 3746SOL    HW212138   5.995   0.855   3.778
 3747SOL     OW12139   3.061   6.244   5.028
 3747SOL    HW112140   3.101   6.334   5.012
 3747SOL    HW212141   2.995   6.249   5.102
 3748SOL     OW12142   5.843   0.771   2.031
 3748SOL    HW112143   5.865   0.703   2.101
 3748SOL    HW212144   5.762   0.823   2.060
 3749SOL     OW12145   1.712   5.155   3.167
 3749SOL    HW112146   1.682   5.122   3.257
 3749SOL    HW212147   1.694   5.253   3.159
 3750SOL     OW12148   6.678   5.210   1.468
 3750SOL    HW112149   6.638   5.293   1.506
 3750SOL    HW212150   6.760   5.186   1.521
 3751SOL     OW12151   6.879   3.768   1.461
 3751SOL    HW112152   6.798   3.715   1.437
 3751SOL    HW212153   6.935   3.782   1.379
 3752SOL     OW12154   6.532   6.621   0.892
 3752SOL    HW112155   6.564   6.578   0.976
 3752SOL    HW212156   6.462   6.689   0.913
 3753SOL     OW12157   6.925   0.953   4.450
 3753SOL    HW112158   6.960   0.865   4.418
 3753SOL    HW212159   6.984   1.027   4.417
 3754SOL     OW12160   4.408   6.689   0.995
 3754SOL    HW112161   4.334   6.640   1.041
 3754SOL    HW212162   4.481   6.624   0.972
 3755SOL     OW12163   5.420   5.747   4.243
 3755SOL    HW112164   5.351   5.744   4.169
 3755SOL    HW212165   5.401   5.825   4.302
 3756SOL     OW12166   1.909   5.611   6.618
 3756SOL    HW112167   1.927   5.595   6.715
 3756SOL    HW212168   1.876   5.704   6.605
 3757SOL     OW12169   4.380   6.661   6.327
 3757SOL    HW112170   4.341   6.720   6.398
 3757SOL    HW212171   4.474   6.689   6.308
 3758SOL     OW12172   2.081   1.448   5.558
 3758SOL    HW112173   2.149   1.521   5.565
 3758SOL    HW212174   2.092   1.401   5.470
 3759SOL     OW12175   4.503   5.716   6.411
 3759SOL    HW112176   4.467   5.751   6.325
 3759SOL    HW212177   4.428   5.700   6.475
 3760SOL     OW12178   1.736   1.485   5.197
 3760SOL    HW112179   1.833   1.506   5.188
 3760SOL    HW212180   1.721   1.432   5.280
 3761SOL     OW12181   1.076   0.877   4.578
 3761SOL    HW112182   1.021   0.820   4.517
 3761SOL    HW212183   1.137   0.819   4.633
 3762SOL     OW12184   1.364   3.644   0.195
 3762SOL    HW112185   1.361   3.733   0.242
 3762SOL    HW212186   1.317   3.576   0.251
 3763SOL     OW12187   6.629   4.172   1.703
 3763SOL    HW112188   6.616   4.094   1.763
 3763SOL    HW212189   6.617   4.257   1.755
 3764SOL     OW12190   1.778   6.628   3.647
 3764SOL    HW112191   1.726   6.545   3.631
 3764SOL    HW212192   1.729   6.686   3.713
 3765SOL     OW12193   4.471   1.017   0.848
 3765SOL    HW112194   4.433   1.053   0.934
 3765SOL    HW212195   4.421   0.935   0.821
 3766SOL     OW12196   1.355   1.087   3.720
 3766SOL    HW112197   1.288   1.145   3.766
 3766SOL    HW212198   1.328   0.991   3.728
 3767SOL     OW12199   2.215   4.517   0.326
 3767SOL    HW112200   2.266   4.440   0.288
 3767SOL    HW212201   2.117   4.497   0.321
 3768SOL     OW12202   1.687   6.499   4.742
 3768SOL    HW112203   1.692   6.578   4.682
 3768SOL    HW212204   1.770   6.445   4.735
 3769SOL     OW12205   6.204   6.623   5.304
 3769SOL    HW112206   6.271   6.616   5.378
 3769SOL    HW212207   6.112   6.610   5.341
 3770SOL     OW12208   1.840   0.450   6.930
 3770SOL    HW112209   1.768   0.518   6.913
 3770SOL    HW212210   1.839   0.425   0.004
 3771SOL     OW12211   5.844   3.373   6.531
 3771SOL    HW112212   5.816   3.278   6.544
 3771SOL    HW212213   5.907   3.400   6.604
 3772SOL     OW12214   6.698   0.861   6.646
 3772SOL    HW112215   6.698   0.874   6.745
 3772SOL    HW212216   6.744   0.775   6.624
 3773SOL     OW12217   6.272   2.727   6.297
 3773SOL    HW112218   6.221   2.673   6.230
 3773SOL    HW212219   6.281   2.821   6.263
 3774SOL     OW12220   0.211   6.063   0.342
 3774SOL    HW112221   0.187   6.093   0.250
 3774SOL    HW212222   0.265   6.134   0.388
 3775SOL     OW12223   4.745   5.238   2.240
 3775SOL    HW112224   4.766   5.333   2.221
 3775SOL    HW212225   4.827   5.182   2.229
 3776SOL     OW12226   4.157   1.055   0.515
 3776SOL    HW112227   4.169   1.025   0.610
 3776SOL    HW212228   4.196   0.987   0.453
 3777SOL     OW12229   3.426   5.405   3.734
 3777SOL    HW112230   3.438   5.362   3.824
 3777SOL    HW212231   3.515   5.429   3.697
 3778SOL     OW12232   3.728   5.017   2.354
 3778SOL    HW112233   3.824   5.007   2.380
 3778SOL    HW212234   3.722   5.028   2.254
 3779SOL     OW12235   1.708   4.748   0.628
 3779SOL    HW112236   1.614   4.751   0.663
 3779SOL    HW212237   1.748   4.658   0.647
 3780SOL     OW12238   5.905   5.939   5.290
 3780SOL    HW112239   5.946   5.942   5.198
 3780SOL    HW212240   5.912   6.029   5.332
 3781SOL     OW12241   0.589   6.691   4.527
 3781SOL    HW112242   0.618   6.750   4.602
 3781SOL    HW212243   0.646   6.709   4.446
 3782SOL     OW12244   3.068   0.987   4.080
 3782SOL    HW112245   3.076   1.079   4.119
 3782SOL    HW212246   3.006   0.989   4.002
 3783SOL     OW12247   5.819   5.375   4.077
 3783SOL    HW112248   5.723   5.352   4.057
 3783SOL    HW212249   5.824   5.424   4.164
 3784SOL     OW12250   4.772   2.756   2.191
 3784SOL    HW112251   4.752   2.842   2.143
 3784SOL    HW212252   4.759   2.679   2.128
 3785SOL     OW12253   2.046   2.121   6.374
 3785SOL    HW112254   2.098   2.089   6.453
 3785SOL    HW212255   1.964   2.168   6.404
 3786SOL     OW12256   2.224   5.974   2.834
 3786SOL    HW112257   2.250   6.031   2.913
 3786SOL    HW212258   2.126   5.956   2.837
 3787SOL     OW12259   6.026   0.807   2.312
 3787SOL    HW112260   6.028   0.862   2.395
 3787SOL    HW212261   5.973   0.855   2.242
 3788SOL     OW12262   0.757   4.204   4.603
 3788SOL    HW112263   0.696   4.168   4.674
 3788SOL    HW212264   0.795   4.128   4.551
 3789SOL     OW12265   0.391   2.673   5.187
 3789SOL    HW112266   0.398   2.773   5.183
 3789SOL    HW212267   0.396   2.636   5.094
 3790SOL     OW12268   1.221   4.762   5.190
 3790SOL    HW112269   1.134   4.799   5.221
 3790SOL    HW212270   1.292   4.783   5.258
 3791SOL     OW12271   5.278   0.672   0.282
 3791SOL    HW112272   5.269   0.574   0.263
 3791SOL    HW212273   5.372   0.701   0.267
 3792SOL     OW12274   1.069   1.877   5.254
 3792SOL    HW112275   1.080   1.895   5.156
 3792SOL    HW212276   1.149   1.910   5.303
 3793SOL     OW12277   5.069   6.466   2.438
 3793SOL    HW112278   5.120   6.550   2.458
 3793SOL    HW212279   4.988   6.489   2.383
 3794SOL     OW12280   2.385   3.732   0.415
 3794SOL    HW112281   2.412   3.764   0.324
 3794SOL    HW212282   2.315   3.662   0.406
 3795SOL     OW12283   4.208   6.621   6.704
 3795SOL    HW112284   4.213   6.554   6.778
 3795SOL    HW212285   4.298   6.659   6.687
 3796SOL     OW12286   2.860   1.924   2.326
 3796SOL    HW112287   2.874   1.838   2.277
 3796SOL    HW212288   2.929   1.991   2.297
 3797SOL     OW12289   6.701   4.032   1.460
 3797SOL    HW112290   6.797   4.011   1.477
 3797SOL    HW212291   6.667   4.091   1.533
 3798SOL     OW12292   2.487   5.649   2.916
 3798SOL    HW112293   2.581   5.655   2.949
 3798SOL    HW212294   2.480   5.692   2.826
 3799SOL     OW12295   0.741   2.263   4.246
 3799SOL    HW112296   0.684   2.272   4.164
 3799SOL    HW212297   0.835   2.289   4.224
 3800SOL     OW12298   5.478   3.299   3.892
 3800SOL    HW112299   5.565   3.344   3.870
 3800SOL    HW212300   5.466   3.295   3.991
 3801SOL     OW12301   6.183   6.894   3.062
 3801SOL    HW112302   6.252   6.821   3.058
 3801SOL    HW212303   6.113   6.877   2.992
 3802SOL     OW12304   1.206   2.096   3.121
 3802SOL    HW112305   1.145   2.043   3.180
 3802SOL    HW212306   1.204   2.192   3.148
 3803SOL     OW12307   3.243   2.371   1.740
 3803SOL    HW112308   3.151   2.345   1.769
 3803SOL    HW212309   3.257   2.469   1.755
 3804SOL     OW12310   4.935   1.084   3.847
 3804SOL    HW112311   4.903   1.107   3.755
 3804SOL    HW212312   4.880   1.009   3.883
 3805SOL     OW12313   2.652   2.943   1.689
 3805SOL    HW112314   2.725   3.005   1.718
 3805SOL    HW212315   2.570   2.997   1.666
 3806SOL     OW12316   3.717   3.816   6.284
 3806SOL    HW112317   3.723   3.728   6.238
 3806SOL    HW212318   3.807   3.858   6.289
 3807SOL     OW12319   1.899   5.707   2.685
 3807SOL    HW112320   1.834   5.736   2.614
 3807SOL    HW212321   1.895   5.608   2.695
 3808SOL     OW12322   3.784   0.535   0.712
 3808SOL    HW112323   3.869   0.565   0.667
 3808SOL    HW212324   3.737   0.615   0.750
 3809SOL     OW12325   5.319   3.059   1.010
 3809SOL    HW112326   5.289   3.153   0.993
 3809SOL    HW212327   5.388   3.033   0.943
 3810SOL     OW12328   4.277   2.154   4.254
 3810SOL    HW112329   4.375   2.136   4.248
 3810SOL    HW212330   4.248   2.148   4.350
 3811SOL     OW12331   1.395   4.114   4.384
 3811SOL    HW112332   1.432   4.070   4.302
 3811SOL    HW212333   1.419   4.059   4.464
 3812SOL     OW12334   5.240   6.819   4.549
 3812SOL    HW112335   5.231   6.837   4.647
 3812SOL    HW212336   5.239   6.905   4.498
 3813SOL     OW12337   4.549   4.581   0.384
 3813SOL    HW112338   4.474   4.561   0.321
 3813SOL    HW212339   4.633   4.599   0.331
 3814SOL     OW12340   0.050   6.816   6.941
 3814SOL    HW112341   0.026   6.726   6.904
 3814SOL    HW212342   0.149   6.824   6.947
 3815SOL     OW12343   4.709   2.770   0.393
 3815SOL    HW112344   4.778   2.731   0.332
 3815SOL    HW212345   4.628   2.710   0.394
 3816SOL     OW12346   0.895   6.123   6.443
 3816SOL    HW112347   0.889   6.028   6.415
 3816SOL    HW212348   0.804   6.157   6.467
 3817SOL     OW12349   4.661   4.248   2.699
 3817SOL    HW112350   4.666   4.342   2.666
 3817SOL    HW212351   4.594   4.197   2.645
 3818SOL     OW12352   6.020   0.842   0.365
 3818SOL    HW112353   6.101   0.899   0.381
 3818SOL    HW212354   5.938   0.897   0.378
 3819SOL     OW12355   5.549   5.469   2.083
 3819SOL    HW112356   5.627   5.519   2.045
 3819SOL    HW212357   5.542   5.488   2.181
 3820SOL     OW12358   5.378   6.831   3.300
 3820SOL    HW112359   5.419   6.849   3.211
 3820SOL    HW212360   5.426   6.885   3.369
 3821SOL     OW12361   2.154   1.575   1.237
 3821SOL    HW112362   2.177   1.649   1.301
 3821SOL    HW212363   2.237   1.549   1.187
 3822SOL     OW12364   1.753   6.934   2.298
 3822SOL    HW112365   1.819   6.972   2.362
 3822SOL    HW212366   1.761   6.981   2.210
 3823SOL     OW12367   3.089   2.806   5.641
 3823SOL    HW112368   3.044   2.730   5.687
 3823SOL    HW212369   3.065   2.892   5.685
 3824SOL     OW12370   6.227   2.470   0.740
 3824SOL    HW112371   6.318   2.497   0.773
 3824SOL    HW212372   6.229   2.377   0.706
 3825SOL     OW12373   1.037   6.202   0.551
 3825SOL    HW112374   0.963   6.157   0.502
 3825SOL    HW212375   1.001   6.281   0.602
 3826SOL     OW12376   1.247   2.888   6.581
 3826SOL    HW112377   1.173   2.867   6.645
 3826SOL    HW212378   1.232   2.978   6.541
 3827SOL     OW12379   2.396   2.361   0.863
 3827SOL    HW112380   2.400   2.440   0.924
 3827SOL    HW212381   2.404   2.277   0.917
 3828SOL     OW12382   3.917   2.617   1.590
 3828SOL    HW112383   3.915   2.581   1.497
 3828SOL    HW212384   3.831   2.595   1.637
 3829SOL     OW12385   1.492   4.735   4.577
 3829SOL    HW112386   1.428   4.694   4.512
 3829SOL    HW212387   1.579   4.685   4.575
 3830SOL     OW12388   0.775   0.631   3.848
 3830SOL    HW112389   0.837   0.553   3.844
 3830SOL    HW212390   0.798   0.688   3.928
 3831SOL     OW12391   4.599   2.412   2.608
 3831SOL    HW112392   4.567   2.475   2.679
 3831SOL    HW212393   4.612   2.462   2.523
 3832SOL     OW12394   5.929   1.017   3.074
 3832SOL    HW112395   5.952   1.016   2.977
 3832SOL    HW212396   5.869   1.095   3.093
 3833SOL     OW12397   0.673   6.503   5.405
 3833SOL    HW112398   0.756   6.461   5.442
 3833SOL    HW212399   0.607   6.432   5.381
 3834SOL     OW12400   4.738   3.502   1.703
 3834SOL    HW112401   4.729   3.589   1.653
 3834SOL    HW212402   4.813   3.509   1.768
 3835SOL     OW12403   2.872   5.693   4.808
 3835SOL    HW112404   2.947   5.719   4.869
 3835SOL    HW212405   2.908   5.635   4.735
 3836SOL     OW12406   1.621   4.096   5.382
 3836SOL    HW112407   1.576   4.007   5.375
 3836SOL    HW212408   1.611   4.145   5.296
 3837SOL     OW12409   4.839   4.342   0.039
 3837SOL    HW112410   4.928   4.297   0.046
 3837SOL    HW212411   4.786   4.300   6.988
 3838SOL     OW12412   6.645   3.529   4.491
 3838SOL    HW112413   6.573   3.533   4.560
 3838SOL    HW212414   6.705   3.608   4.501
 3839SOL     OW12415   4.002   0.779   3.898
 3839SOL    HW112416   4.100   0.761   3.910
 3839SOL    HW212417   3.952   0.749   3.978
 3840SOL     OW12418   1.727   1.325   5.439
 3840SOL    HW112419   1.664   1.325   5.517
 3840SOL    HW212420   1.808   1.271   5.461
 3841SOL     OW12421   0.318   3.468   5.578
 3841SOL    HW112422   0.364   3.523   5.647
 3841SOL    HW212423   0.219   3.473   5.591
 3842SOL     OW12424   1.500   3.817   6.460
 3842SOL    HW112425   1.597   3.804   6.481
 3842SOL    HW212426   1.490   3.846   6.365
 3843SOL     OW12427   6.842   4.183   2.771
 3843SOL    HW112428   6.783   4.188   2.852
 3843SOL    HW212429   6.787   4.161   2.691
 3844SOL     OW12430   0.399   2.988   6.410
 3844SOL    HW112431   0.347   3.024   6.488
 3844SOL    HW212432   0.360   3.022   6.325
 3845SOL     OW12433   3.785   2.955   3.128
 3845SOL    HW112434   3.728   2.902   3.192
 3845SOL    HW212435   3.788   3.050   3.158
 3846SOL     OW12436   0.836   4.984   4.016
 3846SOL    HW112437   0.866   4.892   3.991
 3846SOL    HW212438   0.770   4.978   4.092
 3847SOL     OW12439   6.102   0.902   4.613
 3847SOL    HW112440   6.183   0.866   4.660
 3847SOL    HW212441   6.117   0.899   4.514
 3848SOL     OW12442   3.137   5.549   2.834
 3848SOL    HW112443   3.126   5.512   2.927
 3848SOL    HW212444   3.070   5.622   2.819
 3849SOL     OW12445   0.614   1.875   5.158
 3849SOL    HW112446   0.630   1.824   5.243
 3849SOL    HW212447   0.618   1.973   5.177
 3850SOL     OW12448   2.866   3.089   1.384
 3850SOL    HW112449   2.846   3.162   1.448
 3850SOL    HW212450   2.796   3.085   1.313
 3851SOL     OW12451   1.839   4.588   2.768
 3851SOL    HW112452   1.910   4.542   2.822
 3851SOL    HW212453   1.759   4.528   2.761
 3852SOL     OW12454   4.878   6.858   4.294
 3852SOL    HW112455   4.786   6.844   4.259
 3852SOL    HW212456   4.912   6.947   4.265
 3853SOL     OW12457   1.153   3.065   3.125
 3853SOL    HW112458   1.123   3.074   3.030
 3853SOL    HW212459   1.214   2.987   3.134
 3854SOL     OW12460   1.016   3.485   2.463
 3854SOL    HW112461   1.101   3.518   2.422
 3854SOL    HW212462   0.955   3.450   2.392
 3855SOL     OW12463   5.004   5.970   6.934
 3855SOL    HW112464   4.943   5.983   6.857
 3855SOL    HW212465   5.057   6.054   6.949
 3856SOL     OW12466   6.468   6.372   5.618
 3856SOL    HW112467   6.505   6.396   5.528
 3856SOL    HW212468   6.499   6.281   5.644
 3857SOL     OW12469   0.692   5.932   5.823
 3857SOL    HW112470   0.764   6.000   5.807
 3857SOL    HW212471   0.666   5.933   5.920
 3858SOL     OW12472   1.397   6.412   5.382
 3858SOL    HW112473   1.314   6.462   5.409
 3858SOL    HW212474   1.387   6.379   5.288
 3859SOL     OW12475   6.608   2.066   2.915
 3859SOL    HW112476   6.668   2.042   2.991
 3859SOL    HW212477   6.523   2.105   2.950
 3860SOL     OW12478   1.896   0.501   5.477
 3860SOL    HW112479   1.927   0.577   5.535
 3860SOL    HW212480   1.959   0.491   5.400
 3861SOL     OW12481   4.954   4.844   2.280
 3861SOL    HW112482   4.977   4.761   2.230
 3861SOL    HW212483   4.997   4.842   2.371
 3862SOL     OW12484   0.910   0.333   5.045
 3862SOL    HW112485   0.945   0.242   5.022
 3862SOL    HW212486   0.810   0.332   5.045
 3863SOL     OW12487   5.076   2.865   6.421
 3863SOL    HW112488   5.113   2.941   6.366
 3863SOL    HW212489   5.149   2.828   6.479
 3864SOL     OW12490   3.096   1.229   5.435
 3864SOL    HW112491   3.111   1.148   5.378
 3864SOL    HW212492   3.079   1.201   5.530
 3865SOL     OW12493   3.668   0.068   0.591
 3865SOL    HW112494   3.638   0.163   0.593
 3865SOL    HW212495   3.760   0.061   0.630
 3866SOL     OW12496   4.205   1.008   0.792
 3866SOL    HW112497   4.263   1.084   0.821
 3866SOL    HW212498   4.111   1.040   0.779
 3867SOL     OW12499   1.251   3.805   3.995
 3867SOL    HW112500   1.271   3.707   3.993
 3867SOL    HW212501   1.271   3.845   3.905
 3868SOL     OW12502   2.566   6.791   1.052
 3868SOL    HW112503   2.475   6.816   1.020
 3868SOL    HW212504   2.634   6.850   1.008
 3869SOL     OW12505   0.030   3.354   4.585
 3869SOL    HW112506   0.055   3.341   4.681
 3869SOL    HW212507   0.093   3.303   4.527
 3870SOL     OW12508   4.682   5.209   0.947
 3870SOL    HW112509   4.660   5.262   0.865
 3870SOL    HW212510   4.603   5.154   0.973
 3871SOL     OW12511   4.333   0.310   1.828
 3871SOL    HW112512   4.387   0.297   1.911
 3871SOL    HW212513   4.237   0.325   1.851
 3872SOL     OW12514   4.143   3.237   2.102
 3872SOL    HW112515   4.073   3.307   2.117
 3872SOL    HW212516   4.228   3.266   2.145
 3873SOL     OW12517   6.955   4.923   1.309
 3873SOL    HW112518   6.992   4.846   1.360
 3873SOL    HW212519   6.966   5.007   1.362
 3874SOL     OW12520   3.533   5.909   6.704
 3874SOL    HW112521   3.534   5.931   6.802
 3874SOL    HW212522   3.466   5.968   6.658
 3875SOL     OW12523   1.038   2.712   2.419
 3875SOL    HW112524   1.114   2.703   2.484
 3875SOL    HW212525   0.988   2.626   2.413
 3876SOL     OW12526   5.645   5.114   6.704
 3876SOL    HW112527   5.723   5.052   6.704
 3876SOL    HW212528   5.628   5.147   6.796
 3877SOL     OW12529   0.197   2.595   7.007
 3877SOL    HW112530   0.263   2.590   6.932
 3877SOL    HW212531   0.220   2.671   0.043
 3878SOL     OW12532   2.437   6.681   5.629
 3878SOL    HW112533   2.387   6.602   5.592
 3878SOL    HW212534   2.432   6.679   5.729
 3879SOL     OW12535   5.177   6.605   1.436
 3879SOL    HW112536   5.166   6.506   1.443
 3879SOL    HW212537   5.198   6.642   1.527
 3880SOL     OW12538   6.156   4.100   3.561
 3880SOL    HW112539   6.071   4.049   3.547
 3880SOL    HW212540   6.134   4.195   3.584
 3881SOL     OW12541   1.269   5.183   0.527
 3881SOL    HW112542   1.239   5.233   0.445
 3881SOL    HW212543   1.343   5.121   0.502
 3882SOL     OW12544   6.284   1.704   5.033
 3882SOL    HW112545   6.334   1.773   5.084
 3882SOL    HW212546   6.187   1.708   5.055
 3883SOL     OW12547   5.007   0.955   3.214
 3883SOL    HW112548   5.011   0.970   3.116
 3883SOL    HW212549   5.094   0.980   3.256
 3884SOL     OW12550   1.591   5.648   4.297
 3884SOL    HW112551   1.597   5.700   4.211
 3884SOL    HW212552   1.673   5.593   4.309
 3885SOL     OW12553   6.561   1.308   4.173
 3885SOL    HW112554   6.464   1.287   4.166
 3885SOL    HW212555   6.577   1.363   4.256
 3886SOL     OW12556   6.883   0.016   5.003
 3886SOL    HW112557   6.813   6.988   5.053
 3886SOL    HW212558   6.957   0.040   5.065
 3887SOL     OW12559   5.522   1.877   5.430
 3887SOL    HW112560   5.553   1.832   5.513
 3887SOL    HW212561   5.482   1.810   5.368
 3888SOL     OW12562   0.584   0.282   6.630
 3888SOL    HW112563   0.507   0.340   6.604
 3888SOL    HW212564   0.567   0.188   6.599
 3889SOL     OW12565   6.857   2.641   6.083
 3889SOL    HW112566   6.888   2.719   6.137
 3889SOL    HW212567   6.757   2.636   6.084
 3890SOL     OW12568   5.834   6.104   2.764
 3890SOL    HW112569   5.823   6.053   2.850
 3890SOL    HW212570   5.779   6.188   2.768
 3891SOL     OW12571   5.461   4.990   4.650
 3891SOL    HW112572   5.372   4.965   4.687
 3891SOL    HW212573   5.531   4.976   4.719
 3892SOL     OW12574   0.272   0.868   2.575
 3892SOL    HW112575   0.173   0.855   2.567
 3892SOL    HW212576   0.308   0.906   2.490
 3893SOL     OW12577   2.767   5.261   2.163
 3893SOL    HW112578   2.782   5.346   2.112
 3893SOL    HW212579   2.832   5.191   2.133
 3894SOL     OW12580   3.096   1.896   0.414
 3894SOL    HW112581   3.001   1.870   0.433
 3894SOL    HW212582   3.104   1.996   0.414
 3895SOL     OW12583   1.184   1.153   5.425
 3895SOL    HW112584   1.099   1.101   5.415
 3895SOL    HW212585   1.237   1.116   5.501
 3896SOL     OW12586   0.192   2.365   5.988
 3896SOL    HW112587   0.107   2.361   6.040
 3896SOL    HW212588   0.191   2.294   5.917
 3897SOL     OW12589   3.610   6.266   2.097
 3897SOL    HW112590   3.611   6.360   2.065
 3897SOL    HW212591   3.516   6.236   2.112
 3898SOL     OW12592   3.104   3.099   3.311
 3898SOL    HW112593   3.041   3.173   3.335
 3898SOL    HW212594   3.130   3.108   3.215
 3899SOL     OW12595   4.740   1.081   4.263
 3899SOL    HW112596   4.651   1.084   4.309
 3899SOL    HW212597   4.799   1.015   4.310
 3900SOL     OW12598   5.089   3.420   3.378
 3900SOL    HW112599   5.034   3.384   3.454
 3900SOL    HW212600   5.124   3.343   3.324
 3901SOL     OW12601   2.746   6.198   5.509
 3901SOL    HW112602   2.830   6.226   5.555
 3901SOL    HW212603   2.742   6.098   5.504
 3902SOL     OW12604   4.839   4.100   2.165
 3902SOL    HW112605   4.862   4.153   2.247
 3902SOL    HW212606   4.746   4.124   2.136
 3903SOL     OW12607   4.166   3.384   6.870
 3903SOL    HW112608   4.118   3.326   6.936
 3903SOL    HW212609   4.204   3.464   6.917
 3904SOL     OW12610   1.750   0.854   6.271
 3904SOL    HW112611   1.780   0.759   6.263
 3904SOL    HW212612   1.671   0.859   6.333
 3905SOL     OW12613   5.968   6.175   5.742
 3905SOL    HW112614   6.046   6.201   5.685
 3905SOL    HW212615   5.906   6.117   5.690
 3906SOL     OW12616   1.575   5.091   5.757
 3906SOL    HW112617   1.493   5.142   5.728
 3906SOL    HW212618   1.552   5.035   5.837
 3907SOL     OW12619   0.273   0.962   4.300
 3907SOL    HW112620   0.187   1.012   4.289
 3907SOL    HW212621   0.313   0.983   4.389
 3908SOL     OW12622   1.148   0.873   6.256
 3908SOL    HW112623   1.245   0.891   6.239
 3908SOL    HW212624   1.098   0.960   6.263
 3909SOL     OW12625   6.285   4.288   6.529
 3909SOL    HW112626   6.370   4.240   6.550
 3909SOL    HW212627   6.225   4.286   6.610
 3910SOL     OW12628   3.580   4.096   2.139
 3910SOL    HW112629   3.513   4.142   2.198
 3910SOL    HW212630   3.669   4.142   2.147
 3911SOL     OW12631   4.978   1.159   0.777
 3911SOL    HW112632   5.005   1.188   0.685
 3911SOL    HW212633   5.059   1.157   0.836
 3912SOL     OW12634   3.874   0.863   6.091
 3912SOL    HW112635   3.785   0.845   6.134
 3912SOL    HW212636   3.916   0.943   6.134
 3913SOL     OW12637   3.541   6.000   6.974
 3913SOL    HW112638   3.454   6.009   7.022
 3913SOL    HW212639   3.596   6.083   6.989
 3914SOL     OW12640   5.340   0.909   1.399
 3914SOL    HW112641   5.394   0.938   1.320
 3914SOL    HW212642   5.300   0.819   1.381
 3915SOL     OW12643   4.411   6.831   7.012
 3915SOL    HW112644   4.318   6.851   6.980
 3915SOL    HW212645   4.448   6.754   6.959
 3916SOL     OW12646   2.912   0.071   2.935
 3916SOL    HW112647   2.910   0.095   2.838
 3916SOL    HW212648   2.881   7.000   2.947
 3917SOL     OW12649   2.264   4.669   0.780
 3917SOL    HW112650   2.214   4.620   0.709
 3917SOL    HW212651   2.310   4.749   0.739
 3918SOL     OW12652   4.051   0.223   0.650
 3918SOL    HW112653   4.138   0.270   0.665
 3918SOL    HW212654   4.019   0.242   0.557
 3919SOL     OW12655   3.735   0.774   6.645
 3919SOL    HW112656   3.761   0.699   6.706
 3919SOL    HW212657   3.645   0.809   6.672
 3920SOL     OW12658   2.271   0.765   0.266
 3920SOL    HW112659   2.243   0.724   0.179
 3920SOL    HW212660   2.335   0.840   0.248
 3921SOL     OW12661   0.038   2.219   6.540
 3921SOL    HW112662   6.974   2.182   6.575
 3921SOL    HW212663   0.021   2.305   6.492
 3922SOL     OW12664   4.925   5.020   1.346
 3922SOL    HW112665   4.874   4.957   1.404
 3922SOL    HW212666   4.867   5.051   1.271
 3923SOL     OW12667   5.550   2.134   0.918
 3923SOL    HW112668   5.583   2.221   0.953
 3923SOL    HW212669   5.487   2.150   0.842
 3924SOL     OW12670   0.670   4.479   3.143
 3924SOL    HW112671   0.709   4.394   3.177
 3924SOL    HW212672   0.704   4.497   3.051
 3925SOL     OW12673   5.206   4.686   1.422
 3925SOL    HW112674   5.277   4.729   1.478
 3925SOL    HW212675   5.230   4.591   1.404
 3926SOL     OW12676   0.599   0.286   5.446
 3926SOL    HW112677   0.658   0.351   5.493
 3926SOL    HW212678   0.525   0.335   5.400
 3927SOL     OW12679   0.721   3.054   4.061
 3927SOL    HW112680   0.735   2.964   4.102
 3927SOL    HW212681   0.791   3.117   4.095
 3928SOL     OW12682   3.227   5.994   2.430
 3928SOL    HW112683   3.313   6.043   2.443
 3928SOL    HW212684   3.207   5.985   2.333
 3929SOL     OW12685   0.227   0.922   0.151
 3929SOL    HW112686   0.303   0.957   0.097
 3929SOL    HW212687   0.224   0.970   0.239
 3930SOL     OW12688   0.934   2.018   3.526
 3930SOL    HW112689   1.028   2.011   3.560
 3930SOL    HW212690   0.916   2.112   3.496
 3931SOL     OW12691   1.750   1.989   1.781
 3931SOL    HW112692   1.727   2.036   1.867
 3931SOL    HW212693   1.691   2.023   1.708
 3932SOL     OW12694   2.755   5.209   4.441
 3932SOL    HW112695   2.672   5.246   4.482
 3932SOL    HW212696   2.734   5.121   4.397
 3933SOL     OW12697   1.547   6.694   0.111
 3933SOL    HW112698   1.498   6.735   0.034
 3933SOL    HW212699   1.616   6.758   0.145
 3934SOL     OW12700   7.023   1.187   3.247
 3934SOL    HW112701   0.075   1.125   3.225
 3934SOL    HW212702   0.018   1.277   3.207
 3935SOL     OW12703   6.982   2.060   5.735
 3935SOL    HW112704   6.955   1.965   5.719
 3935SOL    HW212705   6.927   2.098   5.810
 3936SOL     OW12706   6.831   6.169   5.477
 3936SOL    HW112707   6.859   6.156   5.382
 3936SOL    HW212708   6.800   6.263   5.490
 3937SOL     OW12709   0.472   6.066   3.326
 3937SOL    HW112710   0.567   6.036   3.319
 3937SOL    HW212711   0.441   6.098   3.236
 3938SOL     OW12712   6.734   3.299   4.331
 3938SOL    HW112713   6.743   3.380   4.388
 3938SOL    HW212714   6.640   3.266   4.334
 3939SOL     OW12715   2.481   1.935   3.918
 3939SOL    HW112716   2.535   2.015   3.892
 3939SOL    HW212717   2.533   1.852   3.901
 3940SOL     OW12718   2.916   4.843   1.901
 3940SOL    HW112719   2.882   4.752   1.922
 3940SOL    HW212720   2.998   4.861   1.956
 3941SOL     OW12721   5.732   0.106   4.343
 3941SOL    HW112722   5.781   0.177   4.393
 3941SOL    HW212723   5.757   0.016   4.379
 3942SOL     OW12724   0.969   6.042   5.346
 3942SOL    HW112725   0.869   6.051   5.343
 3942SOL    HW212726   1.010   6.108   5.283
 3943SOL     OW12727   0.976   3.212   1.785
 3943SOL    HW112728   1.057   3.235   1.839
 3943SOL    HW212729   0.975   3.267   1.701
 3944SOL     OW12730   5.621   3.784   5.593
 3944SOL    HW112731   5.660   3.831   5.672
 3944SOL    HW212732   5.526   3.760   5.611
 3945SOL     OW12733   1.377   2.374   3.528
 3945SOL    HW112734   1.307   2.442   3.553
 3945SOL    HW212735   1.466   2.419   3.522
 3946SOL     OW12736   0.600   3.972   6.773
 3946SOL    HW112737   0.561   3.908   6.707
 3946SOL    HW212738   0.529   4.000   6.838
 3947SOL     OW12739   6.163   5.260   0.339
 3947SOL    HW112740   6.099   5.250   0.415
 3947SOL    HW212741   6.170   5.174   0.289
 3948SOL     OW12742   1.340   3.917   7.004
 3948SOL    HW112743   1.261   3.925   6.944
 3948SOL    HW212744   1.328   3.839   0.042
 3949SOL     OW12745   6.436   0.053   3.489
 3949SOL    HW112746   6.407   0.031   3.582
 3949SOL    HW212747   6.521   0.106   3.493
 3950SOL     OW12748   4.121   3.991   1.788
 3950SOL    HW112749   4.217   4.017   1.773
 3950SOL    HW212750   4.107   3.974   1.886
 3951SOL     OW12751   6.952   1.709   6.902
 3951SOL    HW112752   6.974   1.806   6.910
 3951SOL    HW212753   0.008   1.659   6.868
 3952SOL     OW12754   5.879   3.134   4.385
 3952SOL    HW112755   5.832   3.046   4.377
 3952SOL    HW212756   5.970   3.119   4.425
 3953SOL     OW12757   3.341   4.469   5.662
 3953SOL    HW112758   3.426   4.494   5.616
 3953SOL    HW212759   3.358   4.394   5.725
 3954SOL     OW12760   6.148   4.832   5.857
 3954SOL    HW112761   6.141   4.897   5.932
 3954SOL    HW212762   6.125   4.740   5.889
 3955SOL     OW12763   4.784   6.270   0.067
 3955SOL    HW112764   4.687   6.251   0.086
 3955SOL    HW212765   4.790   6.340   7.019
 3956SOL     OW12766   0.400   2.949   5.124
 3956SOL    HW112767   0.423   2.940   5.027
 3956SOL    HW212768   0.475   2.994   5.172
 3957SOL     OW12769   3.316   5.884   3.580
 3957SOL    HW112770   3.335   5.933   3.665
 3957SOL    HW212771   3.310   5.786   3.598
 3958SOL     OW12772   5.845   6.717   0.274
 3958SOL    HW112773   5.753   6.686   0.252
 3958SOL    HW212774   5.907   6.638   0.275
 3959SOL     OW12775   3.453   6.279   0.902
 3959SOL    HW112776   3.444   6.347   0.974
 3959SOL    HW212777   3.544   6.287   0.860
 3960SOL     OW12778   5.316   2.404   5.979
 3960SOL    HW112779   5.312   2.319   6.032
 3960SOL    HW212780   5.288   2.480   6.037
 3961SOL     OW12781   4.822   2.097   1.489
 3961SOL    HW112782   4.872   2.183   1.500
 3961SOL    HW212783   4.767   2.100   1.405
 3962SOL     OW12784   0.627   5.878   6.801
 3962SOL    HW112785   0.713   5.828   6.799
 3962SOL    HW212786   0.588   5.875   6.893
 3963SOL     OW12787   5.884   5.658   3.403
 3963SOL    HW112788   5.894   5.564   3.369
 3963SOL    HW212789   5.953   5.717   3.361
 3964SOL     OW12790   4.856   5.661   5.078
 3964SOL    HW112791   4.758   5.641   5.071
 3964SOL    HW212792   4.887   5.645   5.171
 3965SOL     OW12793   3.404   4.828   5.922
 3965SOL    HW112794   3.347   4.789   5.850
 3965SOL    HW212795   3.494   4.851   5.886
 3966SOL     OW12796   6.548   5.279   6.741
 3966SOL    HW112797   6.464   5.232   6.715
 3966SOL    HW212798   6.525   5.366   6.785
 3967SOL     OW12799   1.178   4.908   3.240
 3967SOL    HW112800   1.098   4.921   3.299
 3967SOL    HW212801   1.148   4.882   3.149
 3968SOL     OW12802   5.329   0.688   2.370
 3968SOL    HW112803   5.374   0.719   2.453
 3968SOL    HW212804   5.342   0.589   2.360
 3969SOL     OW12805   0.803   4.673   2.662
 3969SOL    HW112806   0.798   4.707   2.568
 3969SOL    HW212807   0.881   4.611   2.672
 3970SOL     OW12808   5.005   5.352   3.646
 3970SOL    HW112809   4.933   5.385   3.585
 3970SOL    HW212810   4.964   5.305   3.724
 3971SOL     OW12811   3.187   5.364   2.671
 3971SOL    HW112812   3.189   5.397   2.577
 3971SOL    HW212813   3.179   5.442   2.734
 3972SOL     OW12814   0.721   5.832   0.351
 3972SOL    HW112815   0.762   5.921   0.369
 3972SOL    HW212816   0.629   5.829   0.389
 3973SOL     OW12817   3.414   3.643   4.863
 3973SOL    HW112818   3.478   3.718   4.876
 3973SOL    HW212819   3.433   3.597   4.776
 3974SOL     OW12820   0.639   0.780   6.285
 3974SOL    HW112821   0.670   0.704   6.342
 3974SOL    HW212822   0.689   0.863   6.309
 3975SOL     OW12823   6.839   0.123   5.646
 3975SOL    HW112824   6.880   0.214   5.643
 3975SOL    HW212825   6.855   0.082   5.736
 3976SOL     OW12826   1.019   4.933   1.121
 3976SOL    HW112827   0.984   4.843   1.096
 3976SOL    HW212828   1.105   4.950   1.074
 3977SOL     OW12829   3.106   5.218   5.719
 3977SOL    HW112830   3.023   5.168   5.743
 3977SOL    HW212831   3.176   5.202   5.789
 3978SOL     OW12832   5.035   0.883   4.686
 3978SOL    HW112833   5.129   0.852   4.676
 3978SOL    HW212834   4.978   0.807   4.715
 3979SOL     OW12835   2.280   6.403   2.072
 3979SOL    HW112836   2.271   6.311   2.034
 3979SOL    HW212837   2.349   6.402   2.144
 3980SOL     OW12838   6.691   3.733   5.497
 3980SOL    HW112839   6.783   3.698   5.515
 3980SOL    HW212840   6.656   3.780   5.578
 3981SOL     OW12841   0.892   1.707   6.044
 3981SOL    HW112842   0.906   1.798   6.082
 3981SOL    HW212843   0.903   1.710   5.945
 3982SOL     OW12844   2.773   0.543   4.498
 3982SOL    HW112845   2.808   0.636   4.486
 3982SOL    HW212846   2.748   0.506   4.408
 3983SOL     OW12847   2.803   6.023   4.508
 3983SOL    HW112848   2.883   5.966   4.491
 3983SOL    HW212849   2.732   6.002   4.440
 3984SOL     OW12850   2.277   0.292   1.404
 3984SOL    HW112851   2.195   0.285   1.347
 3984SOL    HW212852   2.255   0.341   1.489
 3985SOL     OW12853   2.089   3.734   6.838
 3985SOL    HW112854   2.148   3.812   6.820
 3985SOL    HW212855   2.143   3.650   6.842
 3986SOL     OW12856   0.436   1.575   3.098
 3986SOL    HW112857   0.460   1.509   3.026
 3986SOL    HW212858   0.486   1.660   3.083
 3987SOL     OW12859   1.605   5.296   5.021
 3987SOL    HW112860   1.565   5.297   5.113
 3987SOL    HW212861   1.540   5.254   4.957
 3988SOL     OW12862   3.500   1.728   5.827
 3988SOL    HW112863   3.585   1.686   5.796
 3988SOL    HW212864   3.465   1.789   5.756
 3989SOL     OW12865   5.910   0.556   5.672
 3989SOL    HW112866   5.849   0.514   5.605
 3989SOL    HW212867   6.005   0.550   5.639
 3990SOL     OW12868   5.567   2.132   4.005
 3990SOL    HW112869   5.476   2.091   4.001
 3990SOL    HW212870   5.636   2.065   3.980
 3991SOL     OW12871   6.690   2.287   3.623
 3991SOL    HW112872   6.744   2.349   3.681
 3991SOL    HW212873   6.709   2.307   3.527
 3992SOL     OW12874   4.903   3.159   6.867
 3992SOL    HW112875   4.863   3.193   6.952
 3992SOL    HW212876   4.873   3.216   6.791
 3993SOL     OW12877   2.475   2.203   3.379
 3993SOL    HW112878   2.430   2.227   3.465
 3993SOL    HW212879   2.442   2.114   3.349
 3994SOL     OW12880   1.931   2.786   5.073
 3994SOL    HW112881   1.877   2.737   5.003
 3994SOL    HW212882   2.028   2.764   5.062
 3995SOL     OW12883   2.464   5.005   4.239
 3995SOL    HW112884   2.563   5.006   4.253
 3995SOL    HW212885   2.418   5.017   4.327
 3996SOL     OW12886   1.910   1.237   5.084
 3996SOL    HW112887   1.835   1.199   5.138
 3996SOL    HW212888   1.892   1.222   4.987
 3997SOL     OW12889   4.906   4.002   3.544
 3997SOL    HW112890   5.001   4.015   3.572
 3997SOL    HW212891   4.903   3.939   3.466
 3998SOL     OW12892   5.393   2.223   2.117
 3998SOL    HW112893   5.491   2.234   2.103
 3998SOL    HW212894   5.370   2.126   2.114
 3999SOL     OW12895   6.014   3.811   3.698
 3999SOL    HW112896   6.082   3.739   3.712
 3999SOL    HW212897   5.929   3.771   3.665
 4000SOL     OW12898   3.252   5.078   2.583
 4000SOL    HW112899   3.233   5.170   2.618
 4000SOL    HW212900   3.170   5.021   2.595
 4001SOL     OW12901   2.204   3.619   5.145
 4001SOL    HW112902   2.155   3.697   5.183
 4001SOL    HW212903   2.148   3.575   5.075
 4002SOL     OW12904   3.652   3.802   5.084
 4002SOL    HW112905   3.643   3.704   5.099
 4002SOL    HW212906   3.634   3.851   5.169
 4003SOL     OW12907   2.018   1.238   5.953
 4003SOL    HW112908   2.061   1.150   5.975
 4003SOL    HW212909   2.079   1.290   5.893
 4004SOL     OW12910   6.083   2.625   4.724
 4004SOL    HW112911   6.157   2.669   4.673
 4004SOL    HW212912   6.121   2.576   4.802
 4005SOL     OW12913   5.554   4.630   1.259
 4005SOL    HW112914   5.516   4.560   1.199
 4005SOL    HW212915   5.484   4.700   1.277
 4006SOL     OW12916   5.507   4.566   2.213
 4006SOL    HW112917   5.537   4.661   2.215
 4006SOL    HW212918   5.415   4.559   2.251
 4007SOL     OW12919   0.649   2.320   2.903
 4007SOL    HW112920   0.676   2.410   2.939
 4007SOL    HW212921   0.691   2.248   2.958
 4008SOL     OW12922   3.411   1.296   6.162
 4008SOL    HW112923   3.422   1.394   6.143
 4008SOL    HW212924   3.350   1.284   6.240
 4009SOL     OW12925   4.002   2.072   1.042
 4009SOL    HW112926   3.976   1.983   1.080
 4009SOL    HW212927   4.006   2.066   0.942
 4010SOL     OW12928   2.809   3.297   1.550
 4010SOL    HW112929   2.728   3.339   1.592
 4010SOL    HW212930   2.880   3.367   1.538
 4011SOL     OW12931   0.479   6.599   1.723
 4011SOL    HW112932   0.380   6.586   1.729
 4011SOL    HW212933   0.525   6.530   1.778
 4012SOL     OW12934   4.401   6.218   2.262
 4012SOL    HW112935   4.346   6.294   2.296
 4012SOL    HW212936   4.341   6.145   2.229
 4013SOL     OW12937   2.524   0.380   1.313
 4013SOL    HW112938   2.446   0.336   1.358
 4013SOL    HW212939   2.534   0.473   1.349
 4014SOL     OW12940   3.530   5.734   3.717
 4014SOL    HW112941   3.501   5.816   3.766
 4014SOL    HW212942   3.449   5.680   3.692
 4015SOL     OW12943   4.447   4.421   0.052
 4015SOL    HW112944   4.517   4.466   7.020
 4015SOL    HW212945   4.434   4.471   0.137
 4016SOL     OW12946   2.354   5.861   0.359
 4016SOL    HW112947   2.362   5.955   0.326
 4016SOL    HW212948   2.266   5.822   0.331
 4017SOL     OW12949   0.805   6.203   6.113
 4017SOL    HW112950   0.709   6.184   6.132
 4017SOL    HW212951   0.827   6.297   6.139
 4018SOL     OW12952   4.868   6.629   1.149
 4018SOL    HW112953   4.949   6.605   1.095
 4018SOL    HW212954   4.813   6.696   1.099
 4019SOL     OW12955   5.966   4.133   2.755
 4019SOL    HW112956   5.901   4.107   2.826
 4019SOL    HW212957   6.059   4.128   2.792
 4020SOL     OW12958   6.860   3.326   5.835
 4020SOL    HW112959   6.944   3.304   5.785
 4020SOL    HW212960   6.850   3.263   5.912
 4021SOL     OW12961   3.300   4.048   5.136
 4021SOL    HW112962   3.376   4.073   5.076
 4021SOL    HW212963   3.214   4.081   5.097
 4022SOL     OW12964   4.648   6.957   0.039
 4022SOL    HW112965   4.560   6.918   0.013
 4022SOL    HW212966   4.634   0.010   0.101
 4023SOL     OW12967   0.411   0.624   4.621
 4023SOL    HW112968   0.326   0.675   4.608
 4023SOL    HW212969   0.408   0.575   4.707
 4024SOL     OW12970   2.497   5.717   4.339
 4024SOL    HW112971   2.471   5.629   4.300
 4024SOL    HW212972   2.574   5.704   4.401
 4025SOL     OW12973   1.051   5.971   3.921
 4025SOL    HW112974   1.042   6.036   3.845
 4025SOL    HW212975   0.963   5.962   3.968
 4026SOL     OW12976   6.159   6.659   3.428
 4026SOL    HW112977   6.076   6.614   3.460
 4026SOL    HW212978   6.181   6.736   3.488
 4027SOL     OW12979   2.818   2.300   0.294
 4027SOL    HW112980   2.764   2.332   0.372
 4027SOL    HW212981   2.758   2.290   0.214
 4028SOL     OW12982   3.919   1.527   3.349
 4028SOL    HW112983   3.992   1.549   3.413
 4028SOL    HW212984   3.858   1.605   3.338
 4029SOL     OW12985   2.854   4.551   5.744
 4029SOL    HW112986   2.905   4.470   5.714
 4029SOL    HW212987   2.877   4.628   5.686
 4030SOL     OW12988   0.364   1.598   2.104
 4030SOL    HW112989   0.423   1.558   2.033
 4030SOL    HW212990   0.270   1.604   2.069
 4031SOL     OW12991   5.578   5.980   3.582
 4031SOL    HW112992   5.578   5.895   3.635
 4031SOL    HW212993   5.616   5.961   3.491
 4032SOL     OW12994   6.609   0.237   2.250
 4032SOL    HW112995   6.549   0.157   2.236
 4032SOL    HW212996   6.654   0.260   2.164
 4033SOL     OW12997   2.161   3.434   1.383
 4033SOL    HW112998   2.067   3.418   1.354
 4033SOL    HW212999   2.166   3.434   1.483
 4034SOL     OW13000   6.514   1.720   4.601
 4034SOL    HW113001   6.587   1.768   4.553
 4034SOL    HW213002   6.506   1.755   4.694
 4035SOL     OW13003   6.367   2.234   1.039
 4035SOL    HW113004   6.433   2.240   0.964
 4035SOL    HW213005   6.415   2.210   1.124
 4036SOL     OW13006   4.239   5.507   2.217
 4036SOL    HW113007   4.149   5.465   2.228
 4036SOL    HW213008   4.307   5.454   2.267
 4037SOL     OW13009   2.010   1.512   0.258
 4037SOL    HW113010   1.991   1.441   0.327
 4037SOL    HW213011   1.923   1.544   0.219
 4038SOL     OW13012   4.758   2.908   1.481
 4038SOL    HW113013   4.794   2.994   1.517
 4038SOL    HW213014   4.670   2.888   1.524
 4039SOL     OW13015   5.683   5.013   1.484
 4039SOL    HW113016   5.608   5.006   1.418
 4039SOL    HW213017   5.763   5.053   1.439
 4040SOL     OW13018   3.882   0.201   6.061
 4040SOL    HW113019   3.857   0.298   6.057
 4040SOL    HW213020   3.982   0.193   6.061
 4041SOL     OW13021   0.957   5.126   1.326
 4041SOL    HW113022   0.932   5.222   1.312
 4041SOL    HW213023   0.962   5.080   1.238
 4042SOL     OW13024   6.058   5.842   3.232
 4042SOL    HW113025   6.151   5.857   3.266
 4042SOL    HW213026   6.062   5.799   3.142
 4043SOL     OW13027   6.174   2.428   4.981
 4043SOL    HW113028   6.183   2.344   4.927
 4043SOL    HW213029   6.263   2.450   5.022
 4044SOL     OW13030   4.529   0.139   3.099
 4044SOL    HW113031   4.525   0.203   3.176
 4044SOL    HW213032   4.447   0.150   3.042
 4045SOL     OW13033   3.970   5.937   5.021
 4045SOL    HW113034   3.912   5.869   4.977
 4045SOL    HW213035   3.915   6.019   5.042
 4046SOL     OW13036   1.388   1.873   4.320
 4046SOL    HW113037   1.382   1.784   4.366
 4046SOL    HW213038   1.300   1.920   4.327
 4047SOL     OW13039   2.070   2.320   0.285
 4047SOL    HW113040   2.035   2.357   0.371
 4047SOL    HW213041   2.124   2.238   0.303
 4048SOL     OW13042   4.851   2.168   1.865
 4048SOL    HW113043   4.917   2.215   1.807
 4048SOL    HW213044   4.784   2.120   1.808
 4049SOL     OW13045   6.056   5.087   6.480
 4049SOL    HW113046   6.006   5.166   6.447
 4049SOL    HW213047   5.993   5.009   6.488
 4050SOL     OW13048   1.641   0.274   1.622
 4050SOL    HW113049   1.550   0.313   1.634
 4050SOL    HW213050   1.694   0.286   1.706
 4051SOL     OW13051   4.105   1.913   0.056
 4051SOL    HW113052   4.035   1.945   7.015
 4051SOL    HW213053   4.087   1.818   0.081
 4052SOL     OW13054   6.741   1.010   2.817
 4052SOL    HW113055   6.745   0.937   2.750
 4052SOL    HW213056   6.664   1.071   2.797
 4053SOL     OW13057   3.046   5.478   3.838
 4053SOL    HW113058   2.953   5.508   3.857
 4053SOL    HW213059   3.096   5.468   3.925
 4054SOL     OW13060   6.244   3.891   1.923
 4054SOL    HW113061   6.162   3.875   1.978
 4054SOL    HW213062   6.217   3.906   1.827
 4055SOL     OW13063   3.211   3.262   0.325
 4055SOL    HW113064   3.119   3.271   0.286
 4055SOL    HW213065   3.214   3.310   0.412
 4056SOL     OW13066   3.864   4.178   0.474
 4056SOL    HW113067   3.955   4.204   0.507
 4056SOL    HW213068   3.805   4.259   0.472
 4057SOL     OW13069   6.214   3.147   1.508
 4057SOL    HW113070   6.175   3.157   1.416
 4057SOL    HW213071   6.287   3.078   1.506
 4058SOL     OW13072   1.773   0.336   4.602
 4058SOL    HW113073   1.708   0.346   4.527
 4058SOL    HW213074   1.789   0.426   4.644
 4059SOL     OW13075   1.562   1.905   3.273
 4059SOL    HW113076   1.558   1.998   3.310
 4059SOL    HW213077   1.516   1.902   3.184
 4060SOL     OW13078   5.625   5.638   4.852
 4060SOL    HW113079   5.676   5.555   4.827
 4060SOL    HW213080   5.607   5.638   4.950
 4061SOL     OW13081   2.901   4.741   2.259
 4061SOL    HW113082   2.945   4.665   2.211
 4061SOL    HW213083   2.809   4.715   2.287
 4062SOL     OW13084   1.723   2.206   2.262
 4062SOL    HW113085   1.748   2.292   2.306
 4062SOL    HW213086   1.751   2.130   2.321
 4063SOL     OW13087   6.152   6.485   6.699
 4063SOL    HW113088   6.166   6.582   6.679
 4063SOL    HW213089   6.055   6.469   6.719
 4064SOL     OW13090   2.673   0.380   3.921
 4064SOL    HW113091   2.757   0.328   3.937
 4064SOL    HW213092   2.683   0.472   3.960
 4065SOL     OW13093   0.591   0.131   1.183
 4065SOL    HW113094   0.540   0.180   1.253
 4065SOL    HW213095   0.689   0.138   1.202
 4066SOL     OW13096   5.537   5.131   3.645
 4066SOL    HW113097   5.579   5.221   3.653
 4066SOL    HW213098   5.545   5.082   3.732
 4067SOL     OW13099   6.277   3.166   2.905
 4067SOL    HW113100   6.247   3.076   2.934
 4067SOL    HW213101   6.369   3.184   2.942
 4068SOL     OW13102   2.421   1.409   4.600
 4068SOL    HW113103   2.457   1.502   4.592
 4068SOL    HW213104   2.465   1.351   4.531
 4069SOL     OW13105   2.486   5.179   6.246
 4069SOL    HW113106   2.446   5.261   6.204
 4069SOL    HW213107   2.417   5.107   6.251
 4070SOL     OW13108   0.406   3.625   2.429
 4070SOL    HW113109   0.477   3.687   2.397
 4070SOL    HW213110   0.445   3.564   2.499
 4071SOL     OW13111   1.611   0.520   5.559
 4071SOL    HW113112   1.570   0.473   5.481
 4071SOL    HW213113   1.710   0.505   5.558
 4072SOL     OW13114   0.154   5.642   4.119
 4072SOL    HW113115   0.240   5.597   4.142
 4072SOL    HW213116   0.084   5.573   4.100
 4073SOL     OW13117   2.698   6.143   6.469
 4073SOL    HW113118   2.605   6.167   6.494
 4073SOL    HW213119   2.756   6.225   6.470
 4074SOL     OW13120   0.107   3.427   1.966
 4074SOL    HW113121   0.031   3.390   2.018
 4074SOL    HW213122   0.074   3.461   1.878
 4075SOL     OW13123   3.577   1.971   1.875
 4075SOL    HW113124   3.611   2.056   1.916
 4075SOL    HW213125   3.483   1.984   1.844
 4076SOL     OW13126   2.764   2.787   5.578
 4076SOL    HW113127   2.817   2.720   5.630
 4076SOL    HW213128   2.791   2.880   5.606
 4077SOL     OW13129   3.047   0.879   0.582
 4077SOL    HW113130   3.006   0.834   0.502
 4077SOL    HW213131   2.975   0.920   0.638
 4078SOL     OW13132   0.130   6.054   1.793
 4078SOL    HW113133   0.204   6.121   1.794
 4078SOL    HW213134   0.082   6.056   1.881
 4079SOL     OW13135   1.282   1.902   3.832
 4079SOL    HW113136   1.259   1.991   3.871
 4079SOL    HW213137   1.344   1.853   3.894
 4080SOL     OW13138   3.664   4.404   6.689
 4080SOL    HW113139   3.617   4.357   6.763
 4080SOL    HW213140   3.760   4.375   6.687
 4081SOL     OW13141   1.536   2.913   4.964
 4081SOL    HW113142   1.471   2.893   4.890
 4081SOL    HW213143   1.615   2.961   4.927
 4082SOL     OW13144   1.275   3.161   0.792
 4082SOL    HW113145   1.303   3.083   0.848
 4082SOL    HW213146   1.345   3.233   0.799
 4083SOL     OW13147   0.038   4.702   1.777
 4083SOL    HW113148   0.051   4.675   1.682
 4083SOL    HW213149   6.964   4.722   1.793
 4084SOL     OW13150   4.719   2.050   3.523
 4084SOL    HW113151   4.808   2.048   3.477
 4084SOL    HW213152   4.671   2.134   3.498
 4085SOL     OW13153   2.101   5.931   1.053
 4085SOL    HW113154   2.068   6.009   0.999
 4085SOL    HW213155   2.047   5.850   1.032
 4086SOL     OW13156   0.858   5.434   1.810
 4086SOL    HW113157   0.871   5.481   1.898
 4086SOL    HW213158   0.938   5.379   1.790
 4087SOL     OW13159   2.034   1.522   3.541
 4087SOL    HW113160   2.112   1.490   3.488
 4087SOL    HW213161   2.062   1.599   3.599
 4088SOL     OW13162   6.095   0.767   6.548
 4088SOL    HW113163   6.051   0.855   6.528
 4088SOL    HW213164   6.072   0.739   6.641
 4089SOL     OW13165   5.716   5.056   4.124
 4089SOL    HW113166   5.714   4.960   4.097
 4089SOL    HW213167   5.734   5.114   4.044
 4090SOL     OW13168   1.594   5.537   5.190
 4090SOL    HW113169   1.527   5.519   5.118
 4090SOL    HW213170   1.567   5.619   5.240
 4091SOL     OW13171   6.517   6.551   6.471
 4091SOL    HW113172   6.576   6.612   6.417
 4091SOL    HW213173   6.453   6.505   6.410
 4092SOL     OW13174   5.652   2.190   4.443
 4092SOL    HW113175   5.655   2.288   4.465
 4092SOL    HW213176   5.651   2.179   4.343
 4093SOL     OW13177   4.381   5.739   2.303
 4093SOL    HW113178   4.474   5.707   2.323
 4093SOL    HW213179   4.325   5.662   2.271
 4094SOL     OW13180   1.966   5.504   5.653
 4094SOL    HW113181   2.010   5.422   5.615
 4094SOL    HW213182   1.903   5.542   5.584
 4095SOL     OW13183   1.109   3.435   0.374
 4095SOL    HW113184   1.154   3.374   0.310
 4095SOL    HW213185   1.118   3.398   0.467
 4096SOL     OW13186   4.574   6.990   6.569
 4096SOL    HW113187   4.599   0.025   6.647
 4096SOL    HW213188   4.523   0.021   6.503
 4097SOL     OW13189   4.080   4.867   4.964
 4097SOL    HW113190   4.111   4.876   4.870
 4097SOL    HW213191   3.980   4.876   4.968
 4098SOL     OW13192   6.967   2.627   1.758
 4098SOL    HW113193   6.892   2.692   1.745
 4098SOL    HW213194   0.020   2.653   1.699
 4099SOL     OW13195   3.293   5.007   1.054
 4099SOL    HW113196   3.269   5.101   1.078
 4099SOL    HW213197   3.210   4.951   1.053
 4100SOL     OW13198   0.025   0.174   4.525
 4100SOL    HW113199   6.993   0.125   4.592
 4100SOL    HW213200   6.989   0.213   4.455
 4101SOL     OW13201   6.069   0.995   6.302
 4101SOL    HW113202   6.138   0.924   6.284
 4101SOL    HW213203   5.980   0.963   6.270
 4102SOL     OW13204   0.401   0.767   0.559
 4102SOL    HW113205   0.479   0.722   0.603
 4102SOL    HW213206   0.323   0.705   0.557
 4103SOL     OW13207   6.803   0.226   0.277
 4103SOL    HW113208   6.878   0.200   0.337
 4103SOL    HW213209   6.757   0.143   0.244
 4104SOL     OW13210   6.770   4.856   2.824
 4104SOL    HW113211   6.736   4.798   2.750
 4104SOL    HW213212   6.698   4.869   2.892
 4105SOL     OW13213   5.383   0.067   1.476
 4105SOL    HW113214   5.320   0.101   1.407
 4105SOL    HW213215   5.453   0.137   1.494
 4106SOL     OW13216   6.465   3.160   2.567
 4106SOL    HW113217   6.382   3.116   2.533
 4106SOL    HW213218   6.441   3.242   2.619
 4107SOL     OW13219   0.872   5.137   0.977
 4107SOL    HW113220   0.915   5.050   1.003
 4107SOL    HW213221   0.941   5.209   0.975
 4108SOL     OW13222   6.024   4.890   5.621
 4108SOL    HW113223   6.087   4.953   5.576
 4108SOL    HW213224   6.060   4.865   5.711
 4109SOL     OW13225   6.435   6.756   4.546
 4109SOL    HW113226   6.373   6.823   4.506
 4109SOL    HW213227   6.441   6.677   4.485
 4110SOL     OW13228   4.515   3.597   6.267
 4110SOL    HW113229   4.487   3.591   6.171
 4110SOL    HW213230   4.524   3.505   6.305
 4111SOL     OW13231   5.422   3.913   0.272
 4111SOL    HW113232   5.475   3.993   0.302
 4111SOL    HW213233   5.360   3.940   0.199
 4112SOL     OW13234   4.951   6.129   4.545
 4112SOL    HW113235   4.873   6.181   4.580
 4112SOL    HW213236   4.919   6.051   4.492
 4113SOL     OW13237   5.168   6.297   4.969
 4113SOL    HW113238   5.087   6.239   4.971
 4113SOL    HW213239   5.185   6.328   4.876
 4114SOL     OW13240   3.507   2.144   4.459
 4114SOL    HW113241   3.481   2.237   4.481
 4114SOL    HW213242   3.427   2.084   4.468
 4115SOL     OW13243   3.453   5.353   1.657
 4115SOL    HW113244   3.514   5.273   1.657
 4115SOL    HW213245   3.395   5.350   1.576
 4116SOL     OW13246   3.442   1.019   2.483
 4116SOL    HW113247   3.534   1.014   2.522
 4116SOL    HW213248   3.430   1.107   2.436
 4117SOL     OW13249   1.568   3.820   2.506
 4117SOL    HW113250   1.603   3.914   2.502
 4117SOL    HW213251   1.552   3.787   2.413
 4118SOL     OW13252   4.362   6.029   0.213
 4118SOL    HW113253   4.359   5.940   0.169
 4118SOL    HW213254   4.364   6.018   0.312
 4119SOL     OW13255   3.095   1.839   3.983
 4119SOL    HW113256   3.179   1.834   4.037
 4119SOL    HW213257   3.088   1.929   3.940
 4120SOL     OW13258   3.379   1.135   6.678
 4120SOL    HW113259   3.411   1.184   6.597
 4120SOL    HW213260   3.364   1.200   6.753
 4121SOL     OW13261   5.873   0.726   4.326
 4121SOL    HW113262   5.966   0.753   4.301
 4121SOL    HW213263   5.836   0.792   4.392
 4122SOL     OW13264   1.057   5.782   4.352
 4122SOL    HW113265   1.096   5.863   4.309
 4122SOL    HW213266   0.959   5.779   4.335
 4123SOL     OW13267   4.241   4.623   5.541
 4123SOL    HW113268   4.184   4.702   5.565
 4123SOL    HW213269   4.319   4.618   5.603
 4124SOL     OW13270   0.173   6.333   0.120
 4124SOL    HW113271   0.191   6.430   0.141
 4124SOL    HW213272   0.075   6.321   0.101
 4125SOL     OW13273   4.879   1.520   2.150
 4125SOL    HW113274   4.907   1.490   2.059
 4125SOL    HW213275   4.813   1.594   2.142
 4126SOL     OW13276   1.638   3.615   4.484
 4126SOL    HW113277   1.544   3.649   4.479
 4126SOL    HW213278   1.690   3.649   4.406
 4127SOL     OW13279   5.333   4.840   5.155
 4127SOL    HW113280   5.254   4.891   5.188
 4127SOL    HW213281   5.322   4.743   5.177
 4128SOL     OW13282   0.978   2.691   2.002
 4128SOL    HW113283   0.980   2.768   2.066
 4128SOL    HW213284   0.961   2.725   1.910
 4129SOL     OW13285   4.162   1.305   5.914
 4129SOL    HW113286   4.128   1.390   5.954
 4129SOL    HW213287   4.183   1.240   5.987
 4130SOL     OW13288   6.726   3.355   6.962
 4130SOL    HW113289   6.700   3.416   6.887
 4130SOL    HW213290   6.744   3.409   0.021
 4131SOL     OW13291   0.672   1.276   3.647
 4131SOL    HW113292   0.681   1.183   3.684
 4131SOL    HW213293   0.686   1.274   3.548
 4132SOL     OW13294   5.032   4.350   3.467
 4132SOL    HW113295   4.945   4.311   3.439
 4132SOL    HW213296   5.096   4.348   3.391
 4133SOL     OW13297   3.068   5.719   0.724
 4133SOL    HW113298   3.049   5.621   0.723
 4133SOL    HW213299   3.166   5.734   0.708
 4134SOL     OW13300   2.347   3.501   0.985
 4134SOL    HW113301   2.399   3.576   0.945
 4134SOL    HW213302   2.326   3.521   1.080
 4135SOL     OW13303   1.273   1.451   2.656
 4135SOL    HW113304   1.343   1.518   2.678
 4135SOL    HW213305   1.235   1.414   2.741
 4136SOL     OW13306   1.481   3.010   3.775
 4136SOL    HW113307   1.382   2.998   3.775
 4136SOL    HW213308   1.508   3.065   3.855
 4137SOL     OW13309   1.367   4.363   1.185
 4137SOL    HW113310   1.305   4.285   1.186
 4137SOL    HW213311   1.439   4.347   1.117
 4138SOL     OW13312   4.895   5.558   2.747
 4138SOL    HW113313   4.806   5.586   2.782
 4138SOL    HW213314   4.945   5.510   2.819
 4139SOL     OW13315   1.979   1.796   5.749
 4139SOL    HW113316   2.054   1.753   5.799
 4139SOL    HW213317   2.008   1.816   5.656
 4140SOL     OW13318   3.585   0.166   5.498
 4140SOL    HW113319   3.657   0.212   5.446
 4140SOL    HW213320   3.496   0.196   5.464
 4141SOL     OW13321   5.823   6.413   0.977
 4141SOL    HW113322   5.772   6.497   0.997
 4141SOL    HW213323   5.859   6.417   0.884
 4142SOL     OW13324   6.665   5.003   1.294
 4142SOL    HW113325   6.758   4.969   1.305
 4142SOL    HW213326   6.653   5.085   1.351
 4143SOL     OW13327   5.554   1.662   0.556
 4143SOL    HW113328   5.570   1.727   0.481
 4143SOL    HW213329   5.638   1.651   0.608
 4144SOL     OW13330   4.779   3.228   0.086
 4144SOL    HW113331   4.741   3.301   0.141
 4144SOL    HW213332   4.851   3.181   0.137
 4145SOL     OW13333   0.096   6.529   1.447
 4145SOL    HW113334   0.180   6.578   1.470
 4145SOL    HW213335   0.097   6.439   1.491
 4146SOL     OW13336   6.571   0.326   3.240
 4146SOL    HW113337   6.526   0.410   3.271
 4146SOL    HW213338   6.541   0.303   3.148
 4147SOL     OW13339   5.042   3.945   6.391
 4147SOL    HW113340   4.947   3.967   6.371
 4147SOL    HW213341   5.049   3.851   6.425
 4148SOL     OW13342   1.516   0.397   5.287
 4148SOL    HW113343   1.497   0.493   5.266
 4148SOL    HW213344   1.463   0.339   5.226
 4149SOL     OW13345   0.362   3.287   0.736
 4149SOL    HW113346   0.436   3.227   0.766
 4149SOL    HW213347   0.376   3.378   0.776
 4150SOL     OW13348   1.265   0.537   5.723
 4150SOL    HW113349   1.236   0.552   5.628
 4150SOL    HW213350   1.298   0.444   5.733
 4151SOL     OW13351   2.442   6.057   5.848
 4151SOL    HW113352   2.361   6.094   5.803
 4151SOL    HW213353   2.479   5.982   5.793
 4152SOL     OW13354   4.146   5.725   0.766
 4152SOL    HW113355   4.138   5.750   0.669
 4152SOL    HW213356   4.223   5.774   0.806
 4153SOL     OW13357   4.558   5.388   0.197
 4153SOL    HW113358   4.547   5.486   0.210
 4153SOL    HW213359   4.497   5.356   0.124
 4154SOL     OW13360   6.993   5.386   3.256
 4154SOL    HW113361   6.958   5.465   3.308
 4154SOL    HW213362   0.068   5.376   3.272
 4155SOL     OW13363   1.225   1.121   3.289
 4155SOL    HW113364   1.291   1.077   3.350
 4155SOL    HW213365   1.247   1.218   3.281
 4156SOL     OW13366   5.577   6.071   5.097
 4156SOL    HW113367   5.608   5.977   5.081
 4156SOL    HW213368   5.634   6.135   5.045
 4157SOL     OW13369   4.355   5.234   3.809
 4157SOL    HW113370   4.352   5.140   3.844
 4157SOL    HW213371   4.309   5.237   3.720
 4158SOL     OW13372   0.458   4.085   1.829
 4158SOL    HW113373   0.528   4.040   1.885
 4158SOL    HW213374   0.443   4.032   1.746
 4159SOL     OW13375   1.714   3.698   3.884
 4159SOL    HW113376   1.693   3.675   3.979
 4159SOL    HW213377   1.676   3.629   3.823
 4160SOL     OW13378   6.318   0.995   0.758
 4160SOL    HW113379   6.323   1.090   0.788
 4160SOL    HW213380   6.317   0.935   0.838
 4161SOL     OW13381   0.892   1.208   0.987
 4161SOL    HW113382   0.798   1.192   0.955
 4161SOL    HW213383   0.920   1.132   1.047
 4162SOL     OW13384   6.952   6.033   6.372
 4162SOL    HW113385   6.915   6.120   6.406
 4162SOL    HW213386   0.029   6.039   6.368
 4163SOL     OW13387   4.700   6.612   3.217
 4163SOL    HW113388   4.719   6.543   3.287
 4163SOL    HW213389   4.785   6.659   3.192
 4164SOL     OW13390   1.687   6.860   5.661
 4164SOL    HW113391   1.674   6.764   5.684
 4164SOL    HW213392   1.745   6.904   5.731
 4165SOL     OW13393   4.197   6.978   6.320
 4165SOL    HW113394   4.206   6.904   6.386
 4165SOL    HW213395   4.102   6.985   6.291
 4166SOL     OW13396   6.156   2.899   0.653
 4166SOL    HW113397   6.201   2.902   0.563
 4166SOL    HW213398   6.061   2.869   0.642
 4167SOL     OW13399   1.389   3.671   0.927
 4167SOL    HW113400   1.437   3.751   0.964
 4167SOL    HW213401   1.292   3.677   0.951
 4168SOL     OW13402   6.735   4.549   1.431
 4168SOL    HW113403   6.648   4.523   1.474
 4168SOL    HW213404   6.739   4.649   1.423
 4169SOL     OW13405   6.048   4.179   4.582
 4169SOL    HW113406   6.129   4.228   4.547
 4169SOL    HW213407   6.045   4.187   4.681
 4170SOL     OW13408   4.767   4.562   5.760
 4170SOL    HW113409   4.807   4.487   5.813
 4170SOL    HW213410   4.764   4.536   5.664
 4171SOL     OW13411   6.707   5.840   0.345
 4171SOL    HW113412   6.785   5.786   0.314
 4171SOL    HW213413   6.636   5.779   0.380
 4172SOL     OW13414   0.891   1.779   5.780
 4172SOL    HW113415   0.796   1.759   5.806
 4172SOL    HW213416   0.896   1.869   5.738
 4173SOL     OW13417   5.331   4.284   5.428
 4173SOL    HW113418   5.295   4.307   5.519
 4173SOL    HW213419   5.320   4.186   5.412
 4174SOL     OW13420   5.791   0.647   3.506
 4174SOL    HW113421   5.798   0.637   3.406
 4174SOL    HW213422   5.694   0.654   3.531
 4175SOL     OW13423   2.288   6.422   4.387
 4175SOL    HW113424   2.363   6.419   4.453
 4175SOL    HW213425   2.323   6.398   4.296
 4176SOL     OW13426   3.343   5.936   2.051
 4176SOL    HW113427   3.358   5.854   2.106
 4176SOL    HW213428   3.262   5.924   1.994
 4177SOL     OW13429   6.460   4.186   5.306
 4177SOL    HW113430   6.537   4.249   5.297
 4177SOL    HW213431   6.375   4.239   5.309
 4178SOL     OW13432   5.067   0.694   3.803
 4178SOL    HW113433   5.151   0.747   3.817
 4178SOL    HW213434   5.088   0.597   3.806
 4179SOL     OW13435   4.575   2.644   3.523
 4179SOL    HW113436   4.603   2.645   3.619
 4179SOL    HW213437   4.514   2.721   3.506
 4180SOL     OW13438   5.673   4.606   0.790
 4180SOL    HW113439   5.679   4.664   0.708
 4180SOL    HW213440   5.605   4.644   0.852
 4181SOL     OW13441   2.354   1.459   1.076
 4181SOL    HW113442   2.295   1.461   0.995
 4181SOL    HW213443   2.450   1.461   1.048
 4182SOL     OW13444   0.896   6.780   3.165
 4182SOL    HW113445   0.979   6.731   3.138
 4182SOL    HW213446   0.826   6.768   3.095
 4183SOL     OW13447   3.978   1.190   7.007
 4183SOL    HW113448   3.927   1.220   0.064
 4183SOL    HW213449   3.948   1.098   6.981
 4184SOL     OW13450   5.143   5.057   1.548
 4184SOL    HW113451   5.047   5.071   1.524
 4184SOL    HW213452   5.193   5.143   1.536
 4185SOL     OW13453   0.321   5.618   2.394
 4185SOL    HW113454   0.314   5.657   2.302
 4185SOL    HW213455   0.336   5.692   2.460
 4186SOL     OW13456   2.192   5.107   0.136
 4186SOL    HW113457   2.286   5.131   0.113
 4186SOL    HW213458   2.180   5.008   0.126
 4187SOL     OW13459   3.378   3.258   5.483
 4187SOL    HW113460   3.327   3.339   5.453
 4187SOL    HW213461   3.396   3.264   5.581
 4188SOL     OW13462   4.800   0.160   4.514
 4188SOL    HW113463   4.845   0.116   4.592
 4188SOL    HW213464   4.814   0.104   4.432
 4189SOL     OW13465   3.989   6.185   5.212
 4189SOL    HW113466   3.928   6.264   5.199
 4189SOL    HW213467   3.980   6.151   5.305
 4190SOL     OW13468   0.919   0.811   0.029
 4190SOL    HW113469   1.001   0.768   7.015
 4190SOL    HW213470   0.925   0.812   0.129
 4191SOL     OW13471   4.848   4.024   2.837
 4191SOL    HW113472   4.799   4.087   2.777
 4191SOL    HW213473   4.865   4.067   2.925
 4192SOL     OW13474   0.658   1.364   4.116
 4192SOL    HW113475   0.563   1.347   4.092
 4192SOL    HW213476   0.712   1.377   4.033
 4193SOL     OW13477   1.388   0.651   2.120
 4193SOL    HW113478   1.289   0.662   2.110
 4193SOL    HW213479   1.408   0.559   2.154
 4194SOL     OW13480   5.467   0.757   4.967
 4194SOL    HW113481   5.398   0.765   5.039
 4194SOL    HW213482   5.438   0.811   4.888
 4195SOL     OW13483   4.075   6.211   1.789
 4195SOL    HW113484   4.110   6.301   1.817
 4195SOL    HW213485   4.108   6.141   1.853
 4196SOL     OW13486   5.390   1.890   3.459
 4196SOL    HW113487   5.396   1.898   3.360
 4196SOL    HW213488   5.361   1.978   3.498
 4197SOL     OW13489   4.883   5.974   5.825
 4197SOL    HW113490   4.868   5.930   5.736
 4197SOL    HW213491   4.975   6.013   5.827
 4198SOL     OW13492   5.698   3.219   0.208
 4198SOL    HW113493   5.632   3.244   0.136
 4198SOL    HW213494   5.650   3.205   0.294
 4199SOL     OW13495   2.271   2.807   6.150
 4199SOL    HW113496   2.315   2.876   6.092
 4199SOL    HW213497   2.184   2.843   6.183
 4200SOL     OW13498   3.319   6.664   6.283
 4200SOL    HW113499   3.227   6.670   6.322
 4200SOL    HW213500   3.315   6.627   6.190
 4201SOL     OW13501   6.065   6.319   3.686
 4201SOL    HW113502   6.160   6.305   3.658
 4201SOL    HW213503   6.015   6.363   3.612
 4202SOL     OW13504   4.156   4.848   5.658
 4202SOL    HW113505   4.177   4.812   5.749
 4202SOL    HW213506   4.116   4.939   5.666
 4203SOL     OW13507   5.076   4.793   0.518
 4203SOL    HW113508   5.155   4.835   0.474
 4203SOL    HW213509   4.993   4.839   0.487
 4204SOL     OW13510   3.967   3.198   2.525
 4204SOL    HW113511   3.932   3.291   2.515
 4204SOL    HW213512   4.003   3.186   2.618
 4205SOL     OW13513   4.175   5.650   3.206
 4205SOL    HW113514   4.228   5.732   3.224
 4205SOL    HW213515   4.078   5.669   3.223
 4206SOL     OW13516   6.899   0.378   6.220
 4206SOL    HW113517   6.885   0.280   6.207
 4206SOL    HW213518   6.950   0.414   6.142
 4207SOL     OW13519   1.696   0.853   1.829
 4207SOL    HW113520   1.694   0.889   1.736
 4207SOL    HW213521   1.767   0.901   1.881
 4208SOL     OW13522   0.831   3.839   6.347
 4208SOL    HW113523   0.829   3.748   6.388
 4208SOL    HW213524   0.922   3.856   6.308
 4209SOL     OW13525   0.419   1.076   5.899
 4209SOL    HW113526   0.388   1.035   5.985
 4209SOL    HW213527   0.373   1.163   5.885
 4210SOL     OW13528   2.922   3.195   2.313
 4210SOL    HW113529   2.827   3.166   2.325
 4210SOL    HW213530   2.981   3.145   2.376
 4211SOL     OW13531   3.971   5.312   5.616
 4211SOL    HW113532   3.924   5.380   5.673
 4211SOL    HW213533   3.977   5.346   5.522
 4212SOL     OW13534   6.096   2.373   2.738
 4212SOL    HW113535   6.049   2.461   2.733
 4212SOL    HW213536   6.084   2.334   2.830
 4213SOL     OW13537   2.468   1.067   1.716
 4213SOL    HW113538   2.557   1.108   1.694
 4213SOL    HW213539   2.421   1.123   1.783
 4214SOL     OW13540   1.645   4.686   5.324
 4214SOL    HW113541   1.732   4.648   5.292
 4214SOL    HW213542   1.603   4.624   5.389
 4215SOL     OW13543   0.034   6.521   4.786
 4215SOL    HW113544   0.123   6.564   4.800
 4215SOL    HW213545   0.047   6.424   4.763
 4216SOL     OW13546   1.211   1.859   3.450
 4216SOL    HW113547   1.264   1.777   3.474
 4216SOL    HW213548   1.241   1.936   3.506
 4217SOL     OW13549   0.098   0.529   2.978
 4217SOL    HW113550   0.106   0.453   3.043
 4217SOL    HW213551   0.188   0.573   2.967
 4218SOL     OW13552   4.365   0.980   1.550
 4218SOL    HW113553   4.339   0.884   1.550
 4218SOL    HW213554   4.283   1.037   1.551
 4219SOL     OW13555   2.847   5.351   3.246
 4219SOL    HW113556   2.830   5.350   3.345
 4219SOL    HW213557   2.765   5.320   3.198
 4220SOL     OW13558   5.365   2.428   3.379
 4220SOL    HW113559   5.278   2.469   3.350
 4220SOL    HW213560   5.439   2.494   3.368
 4221SOL     OW13561   6.206   5.194   6.708
 4221SOL    HW113562   6.139   5.141   6.656
 4221SOL    HW213563   6.193   5.177   6.806
 4222SOL     OW13564   6.200   2.148   3.268
 4222SOL    HW113565   6.151   2.070   3.307
 4222SOL    HW213566   6.135   2.219   3.241
 4223SOL     OW13567   3.229   3.600   5.646
 4223SOL    HW113568   3.172   3.640   5.574
 4223SOL    HW213569   3.275   3.673   5.696
 4224SOL     OW13570   4.935   3.091   3.261
 4224SOL    HW113571   5.020   3.045   3.235
 4224SOL    HW213572   4.936   3.184   3.224
 4225SOL     OW13573   4.121   0.654   5.747
 4225SOL    HW113574   4.080   0.667   5.837
 4225SOL    HW213575   4.063   0.595   5.691
 4226SOL     OW13576   0.953   1.021   2.510
 4226SOL    HW113577   0.935   1.099   2.570
 4226SOL    HW213578   1.025   1.045   2.445
 4227SOL     OW13579   3.941   5.076   6.664
 4227SOL    HW113580   3.922   4.981   6.691
 4227SOL    HW213581   3.922   5.137   6.740
 4228SOL     OW13582   0.800   3.515   4.520
 4228SOL    HW113583   0.729   3.578   4.552
 4228SOL    HW213584   0.756   3.437   4.474
 4229SOL     OW13585   4.698   4.896   5.355
 4229SOL    HW113586   4.768   4.905   5.283
 4229SOL    HW213587   4.733   4.936   5.440
 4230SOL     OW13588   1.774   0.576   4.092
 4230SOL    HW113589   1.752   0.673   4.081
 4230SOL    HW213590   1.709   0.521   4.040
 4231SOL     OW13591   5.667   6.562   4.613
 4231SOL    HW113592   5.697   6.657   4.613
 4231SOL    HW213593   5.576   6.555   4.653
 4232SOL     OW13594   0.541   4.629   2.738
 4232SOL    HW113595   0.528   4.717   2.784
 4232SOL    HW213596   0.634   4.625   2.699
 4233SOL     OW13597   0.238   0.166   0.279
 4233SOL    HW113598   0.182   0.224   0.338
 4233SOL    HW213599   0.261   0.216   0.195
 4234SOL     OW13600   2.013   0.290   6.237
 4234SOL    HW113601   2.100   0.256   6.203
 4234SOL    HW213602   2.026   0.334   6.326
 4235SOL     OW13603   5.361   4.055   5.850
 4235SOL    HW113604   5.413   4.138   5.830
 4235SOL    HW213605   5.419   3.989   5.896
 4236SOL     OW13606   0.405   3.511   3.304
 4236SOL    HW113607   0.433   3.420   3.334
 4236SOL    HW213608   0.346   3.504   3.223
 4237SOL     OW13609   6.725   5.407   2.986
 4237SOL    HW113610   6.814   5.452   2.982
 4237SOL    HW213611   6.700   5.373   2.896
 4238SOL     OW13612   3.218   4.922   2.311
 4238SOL    HW113613   3.137   4.881   2.353
 4238SOL    HW213614   3.293   4.925   2.377
 4239SOL     OW13615   5.500   1.711   3.624
 4239SOL    HW113616   5.433   1.640   3.645
 4239SOL    HW213617   5.469   1.764   3.546
 4240SOL     OW13618   2.691   0.210   0.074
 4240SOL    HW113619   2.680   0.148   7.019
 4240SOL    HW213620   2.634   0.178   0.150
 4241SOL     OW13621   6.222   0.578   1.281
 4241SOL    HW113622   6.228   0.577   1.381
 4241SOL    HW213623   6.140   0.628   1.253
 4242SOL     OW13624   2.299   0.585   3.289
 4242SOL    HW113625   2.331   0.494   3.261
 4242SOL    HW213626   2.200   0.583   3.301
 4243SOL     OW13627   6.360   3.922   3.518
 4243SOL    HW113628   6.303   3.866   3.457
 4243SOL    HW213629   6.320   4.014   3.524
 4244SOL     OW13630   5.444   4.914   1.337
 4244SOL    HW113631   5.365   4.920   1.399
 4244SOL    HW213632   5.451   4.999   1.285
 4245SOL     OW13633   5.967   0.743   6.146
 4245SOL    HW113634   5.903   0.820   6.150
 4245SOL    HW213635   5.930   0.673   6.085
 4246SOL     OW13636   5.918   3.112   3.308
 4246SOL    HW113637   5.836   3.088   3.360
 4246SOL    HW213638   5.927   3.211   3.305
 4247SOL     OW13639   2.283   4.921   3.402
 4247SOL    HW113640   2.207   4.881   3.350
 4247SOL    HW213641   2.368   4.908   3.351
 4248SOL     OW13642   1.809   1.187   4.000
 4248SOL    HW113643   1.845   1.262   3.945
 4248SOL    HW213644   1.712   1.174   3.981
 4249SOL     OW13645   5.009   1.131   4.102
 4249SOL    HW113646   4.986   1.226   4.126
 4249SOL    HW213647   4.967   1.109   4.014
 4250SOL     OW13648   6.125   6.042   4.395
 4250SOL    HW113649   6.182   6.001   4.324
 4250SOL    HW213650   6.093   6.131   4.365
 4251SOL     OW13651   5.750   3.375   0.921
 4251SOL    HW113652   5.765   3.282   0.956
 4251SOL    HW213653   5.836   3.411   0.885
 4252SOL     OW13654   5.678   6.156   6.250
 4252SOL    HW113655   5.617   6.226   6.213
 4252SOL    HW213656   5.659   6.069   6.206
 4253SOL     OW13657   3.530   6.652   1.020
 4253SOL    HW113658   3.531   6.750   1.003
 4253SOL    HW213659   3.455   6.609   0.970
 4254SOL     OW13660   1.805   3.646   2.096
 4254SOL    HW113661   1.823   3.588   2.175
 4254SOL    HW213662   1.749   3.596   2.030
 4255SOL     OW13663   6.528   4.270   3.946
 4255SOL    HW113664   6.448   4.289   3.889
 4255SOL    HW213665   6.589   4.349   3.945
 4256SOL     OW13666   1.355   5.948   1.049
 4256SOL    HW113667   1.349   5.940   1.148
 4256SOL    HW213668   1.349   6.045   1.023
 4257SOL     OW13669   3.697   1.270   4.927
 4257SOL    HW113670   3.637   1.351   4.928
 4257SOL    HW213671   3.772   1.285   4.863
 4258SOL     OW13672   3.556   5.968   0.452
 4258SOL    HW113673   3.481   5.989   0.514
 4258SOL    HW213674   3.533   5.999   0.360
 4259SOL     OW13675   1.279   6.963   0.873
 4259SOL    HW113676   1.375   6.976   0.897
 4259SOL    HW213677   1.257   7.021   0.794
 4260SOL     OW13678   5.808   0.246   3.296
 4260SOL    HW113679   5.821   0.337   3.256
 4260SOL    HW213680   5.889   0.190   3.276
 4261SOL     OW13681   2.206   0.517   2.811
 4261SOL    HW113682   2.158   0.604   2.796
 4261SOL    HW213683   2.163   0.446   2.754
 4262SOL     OW13684   0.540   3.721   6.094
 4262SOL    HW113685   0.589   3.797   6.136
 4262SOL    HW213686   0.604   3.649   6.068
 4263SOL     OW13687   2.670   0.553   3.341
 4263SOL    HW113688   2.619   0.625   3.294
 4263SOL    HW213689   2.757   0.589   3.373
 4264SOL     OW13690   6.893   2.577   4.957
 4264SOL    HW113691   6.800   2.606   4.979
 4264SOL    HW213692   6.895   2.478   4.944
 4265SOL     OW13693   3.932   1.345   0.733
 4265SOL    HW113694   3.939   1.428   0.789
 4265SOL    HW213695   3.904   1.370   0.640
 4266SOL     OW13696   1.990   6.571   6.189
 4266SOL    HW113697   1.925   6.551   6.116
 4266SOL    HW213698   2.058   6.497   6.193
 4267SOL     OW13699   2.200   3.942   4.537
 4267SOL    HW113700   2.195   3.960   4.636
 4267SOL    HW213701   2.212   3.844   4.522
 4268SOL     OW13702   1.116   5.900   6.537
 4268SOL    HW113703   1.209   5.863   6.535
 4268SOL    HW213704   1.089   5.917   6.632
 4269SOL     OW13705   2.912   0.179   2.693
 4269SOL    HW113706   2.980   0.137   2.633
 4269SOL    HW213707   2.869   0.256   2.645
 4270SOL     OW13708   4.156   3.546   2.418
 4270SOL    HW113709   4.208   3.475   2.467
 4270SOL    HW213710   4.111   3.506   2.339
 4271SOL     OW13711   6.932   0.496   0.567
 4271SOL    HW113712   6.922   0.595   0.574
 4271SOL    HW213713   6.862   0.460   0.505
 4272SOL     OW13714   6.620   2.453   4.461
 4272SOL    HW113715   6.660   2.429   4.549
 4272SOL    HW213716   6.633   2.377   4.397
 4273SOL     OW13717   4.504   6.733   4.434
 4273SOL    HW113718   4.564   6.690   4.366
 4273SOL    HW213719   4.451   6.662   4.481
 4274SOL     OW13720   1.724   0.051   1.772
 4274SOL    HW113721   1.654   7.015   1.811
 4274SOL    HW213722   1.719   0.048   1.672
 4275SOL     OW13723   6.724   2.335   3.984
 4275SOL    HW113724   6.641   2.391   3.986
 4275SOL    HW213725   6.703   2.242   4.013
 4276SOL     OW13726   2.711   5.283   3.946
 4276SOL    HW113727   2.760   5.341   4.012
 4276SOL    HW213728   2.734   5.312   3.853
 4277SOL     OW13729   6.296   4.714   2.961
 4277SOL    HW113730   6.218   4.679   2.909
 4277SOL    HW213731   6.361   4.756   2.898
 4278SOL     OW13732   0.284   0.039   5.005
 4278SOL    HW113733   0.314   0.066   4.913
 4278SOL    HW213734   0.237   6.974   5.001
 4279SOL     OW13735   2.678   1.288   3.542
 4279SOL    HW113736   2.770   1.318   3.516
 4279SOL    HW213737   2.650   1.213   3.483
 4280SOL     OW13738   5.726   6.818   5.526
 4280SOL    HW113739   5.715   6.913   5.497
 4280SOL    HW213740   5.707   6.811   5.624
 4281SOL     OW13741   6.091   4.897   3.091
 4281SOL    HW113742   6.096   4.862   3.185
 4281SOL    HW213743   6.183   4.920   3.059
 4282SOL     OW13744   3.087   4.153   0.187
 4282SOL    HW113745   3.046   4.203   0.263
 4282SOL    HW213746   3.064   4.056   0.193
 4283SOL     OW13747   2.520   0.767   3.237
 4283SOL    HW113748   2.523   0.855   3.284
 4283SOL    HW213749   2.428   0.728   3.245
 4284SOL     OW13750   3.345   4.076   1.193
 4284SOL    HW113751   3.373   3.982   1.173
 4284SOL    HW213752   3.323   4.083   1.291
 4285SOL     OW13753   2.532   0.868   5.707
 4285SOL    HW113754   2.454   0.928   5.690
 4285SOL    HW213755   2.546   0.808   5.629
 4286SOL     OW13756   5.498   6.801   6.043
 4286SOL    HW113757   5.496   6.731   6.115
 4286SOL    HW213758   5.563   6.873   6.068
 4287SOL     OW13759   4.880   0.481   6.230
 4287SOL    HW113760   4.955   0.471   6.295
 4287SOL    HW213761   4.805   0.530   6.272
 4288SOL     OW13762   0.687   5.492   3.617
 4288SOL    HW113763   0.748   5.489   3.696
 4288SOL    HW213764   0.737   5.530   3.539
 4289SOL     OW13765   0.296   2.771   5.493
 4289SOL    HW113766   0.381   2.721   5.473
 4289SOL    HW213767   0.236   2.768   5.414
 4290SOL     OW13768   1.156   6.024   4.296
 4290SOL    HW113769   1.233   6.002   4.357
 4290SOL    HW213770   1.192   6.056   4.208
 4291SOL     OW13771   4.709   3.598   0.105
 4291SOL    HW113772   4.676   3.533   0.174
 4291SOL    HW213773   4.678   3.568   0.014
 4292SOL     OW13774   6.854   3.118   7.001
 4292SOL    HW113775   6.911   3.149   0.054
 4292SOL    HW213776   6.782   3.186   6.984
 4293SOL     OW13777   3.171   3.721   0.090
 4293SOL    HW113778   3.250   3.760   0.043
 4293SOL    HW213779   3.106   3.794   0.111
 4294SOL     OW13780   2.026   1.599   6.820
 4294SOL    HW113781   1.968   1.559   6.891
 4294SOL    HW213782   1.969   1.635   6.746
 4295SOL     OW13783   4.773   5.809   4.645
 4295SOL    HW113784   4.731   5.883   4.697
 4295SOL    HW213785   4.840   5.846   4.581
 4296SOL     OW13786   3.334   0.043   0.161
 4296SOL    HW113787   3.379   0.015   0.246
 4296SOL    HW213788   3.283   0.128   0.177
 4297SOL     OW13789   5.788   0.335   1.916
 4297SOL    HW113790   5.784   0.340   2.016
 4297SOL    HW213791   5.747   0.418   1.877
 4298SOL     OW13792   3.715   5.756   1.060
 4298SOL    HW113793   3.705   5.659   1.042
 4298SOL    HW213794   3.646   5.785   1.126
 4299SOL     OW13795   1.880   2.474   6.790
 4299SOL    HW113796   1.908   2.563   6.824
 4299SOL    HW213797   1.786   2.455   6.818
 4300SOL     OW13798   2.570   6.872   0.567
 4300SOL    HW113799   2.638   6.823   0.622
 4300SOL    HW213800   2.552   6.961   0.609
 4301SOL     OW13801   4.939   0.061   1.464
 4301SOL    HW113802   4.875   7.011   1.487
 4301SOL    HW213803   5.027   0.045   1.510
 4302SOL     OW13804   6.838   0.122   6.295
 4302SOL    HW113805   6.810   0.112   6.390
 4302SOL    HW213806   6.758   0.126   6.236
 4303SOL     OW13807   0.107   4.439   4.193
 4303SOL    HW113808   0.157   4.512   4.146
 4303SOL    HW213809   0.010   4.443   4.167
 4304SOL     OW13810   3.218   3.011   2.352
 4304SOL    HW113811   3.258   3.042   2.266
 4304SOL    HW213812   3.254   2.920   2.374
 4305SOL     OW13813   0.913   7.011   5.523
 4305SOL    HW113814   0.936   0.051   5.448
 4305SOL    HW213815   0.989   6.949   5.539
 4306SOL     OW13816   4.224   5.234   4.302
 4306SOL    HW113817   4.267   5.273   4.221
 4306SOL    HW213818   4.197   5.140   4.283
 4307SOL     OW13819   6.261   3.909   4.905
 4307SOL    HW113820   6.353   3.948   4.894
 4307SOL    HW213821   6.235   3.913   5.002
 4308SOL     OW13822   6.202   5.665   1.618
 4308SOL    HW113823   6.214   5.566   1.608
 4308SOL    HW213824   6.250   5.712   1.544
 4309SOL     OW13825   1.128   1.163   1.241
 4309SOL    HW113826   1.146   1.241   1.301
 4309SOL    HW213827   1.030   1.158   1.221
 4310SOL     OW13828   1.028   2.351   1.692
 4310SOL    HW113829   1.064   2.359   1.785
 4310SOL    HW213830   1.040   2.257   1.660
 4311SOL     OW13831   0.355   6.316   2.233
 4311SOL    HW113832   0.439   6.342   2.279
 4311SOL    HW213833   0.283   6.299   2.300
 4312SOL     OW13834   1.382   5.836   2.289
 4312SOL    HW113835   1.471   5.835   2.243
 4312SOL    HW213836   1.354   5.931   2.305
 4313SOL     OW13837   5.113   2.265   0.894
 4313SOL    HW113838   5.202   2.297   0.862
 4313SOL    HW213839   5.042   2.330   0.867
 4314SOL     OW13840   5.334   1.809   4.814
 4314SOL    HW113841   5.376   1.740   4.756
 4314SOL    HW213842   5.337   1.779   4.909
 4315SOL     OW13843   2.757   0.894   4.066
 4315SOL    HW113844   2.770   0.797   4.048
 4315SOL    HW213845   2.798   0.947   3.992
 4316SOL     OW13846   5.078   0.618   1.807
 4316SOL    HW113847   5.146   0.685   1.778
 4316SOL    HW213848   5.035   0.577   1.726
 4317SOL     OW13849   5.518   2.289   5.234
 4317SOL    HW113850   5.553   2.242   5.153
 4317SOL    HW213851   5.419   2.303   5.225
 4318SOL     OW13852   0.941   1.858   4.964
 4318SOL    HW113853   0.950   1.920   4.886
 4318SOL    HW213854   0.844   1.838   4.980
 4319SOL     OW13855   1.975   1.842   1.062
 4319SOL    HW113856   1.976   1.907   1.137
 4319SOL    HW213857   2.033   1.876   0.987
 4320SOL     OW13858   3.679   5.191   0.793
 4320SOL    HW113859   3.738   5.234   0.861
 4320SOL    HW213860   3.615   5.129   0.839
 4321SOL     OW13861   0.281   4.767   4.765
 4321SOL    HW113862   0.240   4.687   4.808
 4321SOL    HW213863   0.266   4.764   4.666
 4322SOL     OW13864   6.457   3.121   6.919
 4322SOL    HW113865   6.452   3.220   6.903
 4322SOL    HW213866   6.524   3.081   6.856
 4323SOL     OW13867   4.503   4.150   0.682
 4323SOL    HW113868   4.420   4.158   0.627
 4323SOL    HW213869   4.512   4.056   0.716
 4324SOL     OW13870   5.591   4.713   5.809
 4324SOL    HW113871   5.583   4.795   5.866
 4324SOL    HW213872   5.619   4.739   5.717
 4325SOL     OW13873   2.843   1.516   1.847
 4325SOL    HW113874   2.914   1.477   1.788
 4325SOL    HW213875   2.776   1.445   1.869
 4326SOL     OW13876   4.878   4.638   1.878
 4326SOL    HW113877   4.786   4.678   1.875
 4326SOL    HW213878   4.939   4.691   1.819
 4327SOL     OW13879   5.665   5.447   1.723
 4327SOL    HW113880   5.746   5.394   1.747
 4327SOL    HW213881   5.584   5.405   1.764
 4328SOL     OW13882   5.208   4.376   5.662
 4328SOL    HW113883   5.168   4.453   5.612
 4328SOL    HW213884   5.182   4.381   5.758
 4329SOL     OW13885   4.651   2.845   6.349
 4329SOL    HW113886   4.590   2.921   6.369
 4329SOL    HW213887   4.600   2.759   6.351
 4330SOL     OW13888   1.905   6.382   4.666
 4330SOL    HW113889   1.888   6.390   4.568
 4330SOL    HW213890   1.979   6.316   4.682
 4331SOL     OW13891   5.950   1.050   2.411
 4331SOL    HW113892   6.012   1.075   2.486
 4331SOL    HW213893   5.928   1.132   2.358
 4332SOL     OW13894   5.099   3.108   2.607
 4332SOL    HW113895   5.019   3.061   2.569
 4332SOL    HW213896   5.140   3.051   2.678
 4333SOL     OW13897   4.656   1.779   5.489
 4333SOL    HW113898   4.665   1.792   5.391
 4333SOL    HW213899   4.646   1.868   5.534
 4334SOL     OW13900   2.385   2.771   2.619
 4334SOL    HW113901   2.382   2.797   2.522
 4334SOL    HW213902   2.339   2.841   2.674
 4335SOL     OW13903   3.577   3.343   1.984
 4335SOL    HW113904   3.528   3.402   2.049
 4335SOL    HW213905   3.519   3.328   1.904
 4336SOL     OW13906   2.837   6.627   6.036
 4336SOL    HW113907   2.796   6.580   6.114
 4336SOL    HW213908   2.813   6.724   6.040
 4337SOL     OW13909   1.666   4.364   0.987
 4337SOL    HW113910   1.726   4.444   0.980
 4337SOL    HW213911   1.684   4.316   1.073
 4338SOL     OW13912   6.202   6.517   5.674
 4338SOL    HW113913   6.160   6.603   5.645
 4338SOL    HW213914   6.275   6.537   5.739
 4339SOL     OW13915   4.285   2.853   6.444
 4339SOL    HW113916   4.374   2.895   6.429
 4339SOL    HW213917   4.216   2.924   6.459
 4340SOL     OW13918   6.673   3.591   1.441
 4340SOL    HW113919   6.590   3.617   1.492
 4340SOL    HW213920   6.681   3.491   1.439
 4341SOL     OW13921   1.094   5.305   1.716
 4341SOL    HW113922   1.187   5.342   1.709
 4341SOL    HW213923   1.091   5.214   1.674
 4342SOL     OW13924   5.263   4.137   2.912
 4342SOL    HW113925   5.180   4.187   2.936
 4342SOL    HW213926   5.264   4.050   2.961
 4343SOL     OW13927   2.843   6.078   4.873
 4343SOL    HW113928   2.934   6.107   4.901
 4343SOL    HW213929   2.849   6.032   4.784
 4344SOL     OW13930   0.873   3.810   2.884
 4344SOL    HW113931   0.776   3.828   2.900
 4344SOL    HW213932   0.894   3.827   2.787
 4345SOL     OW13933   4.068   3.671   4.327
 4345SOL    HW113934   4.008   3.750   4.313
 4345SOL    HW213935   4.112   3.679   4.416
 4346SOL     OW13936   2.116   3.492   2.906
 4346SOL    HW113937   2.056   3.502   2.827
 4346SOL    HW213938   2.162   3.403   2.901
 4347SOL     OW13939   5.362   7.000   3.076
 4347SOL    HW113940   5.327   0.061   3.117
 4347SOL    HW213941   5.457   6.986   3.101
 4348SOL     OW13942   0.027   5.415   4.107
 4348SOL    HW113943   6.972   5.465   4.069
 4348SOL    HW213944   0.053   5.342   4.045
 4349SOL     OW13945   6.374   2.173   3.027
 4349SOL    HW113946   6.340   2.153   3.119
 4349SOL    HW213947   6.300   2.211   2.972
 4350SOL     OW13948   3.855   1.760   3.976
 4350SOL    HW113949   3.770   1.742   4.024
 4350SOL    HW213950   3.906   1.831   4.024
 4351SOL     OW13951   1.272   6.142   1.452
 4351SOL    HW113952   1.176   6.128   1.478
 4351SOL    HW213953   1.286   6.238   1.429
 4352SOL     OW13954   6.104   4.027   2.466
 4352SOL    HW113955   6.016   4.015   2.512
 4352SOL    HW213956   6.162   3.948   2.485
 4353SOL     OW13957   3.575   2.915   6.613
 4353SOL    HW113958   3.516   2.967   6.674
 4353SOL    HW213959   3.653   2.972   6.586
 4354SOL     OW13960   2.128   1.164   6.567
 4354SOL    HW113961   2.054   1.134   6.507
 4354SOL    HW213962   2.205   1.195   6.512
 4355SOL     OW13963   2.417   6.952   2.400
 4355SOL    HW113964   2.323   6.968   2.371
 4355SOL    HW213965   2.457   0.015   2.431
 4356SOL     OW13966   5.101   3.523   6.672
 4356SOL    HW113967   5.110   3.426   6.651
 4356SOL    HW213968   5.191   3.561   6.693
 4357SOL     OW13969   6.985   1.084   1.636
 4357SOL    HW113970   6.895   1.125   1.649
 4357SOL    HW213971   6.981   0.988   1.663
 4358SOL     OW13972   6.652   1.124   1.064
 4358SOL    HW113973   6.585   1.130   1.138
 4358SOL    HW213974   6.673   1.028   1.046
 4359SOL     OW13975   1.325   1.350   6.962
 4359SOL    HW113976   1.245   1.400   6.929
 4359SOL    HW213977   1.408   1.393   6.925
 4360SOL     OW13978   0.767   3.500   3.801
 4360SOL    HW113979   0.747   3.485   3.705
 4360SOL    HW213980   0.690   3.469   3.857
 4361SOL     OW13981   2.245   3.997   1.778
 4361SOL    HW113982   2.213   3.902   1.777
 4361SOL    HW213983   2.338   4.001   1.814
 4362SOL     OW13984   6.689   5.498   3.538
 4362SOL    HW113985   6.695   5.406   3.576
 4362SOL    HW213986   6.740   5.562   3.596
 4363SOL     OW13987   4.526   2.270   0.818
 4363SOL    HW113988   4.471   2.231   0.744
 4363SOL    HW213989   4.597   2.205   0.845
 4364SOL     OW13990   3.135   4.050   3.543
 4364SOL    HW113991   3.164   4.129   3.488
 4364SOL    HW213992   3.125   3.970   3.483
 4365SOL     OW13993   2.607   0.611   2.115
 4365SOL    HW113994   2.619   0.656   2.204
 4365SOL    HW213995   2.612   0.512   2.127
 4366SOL     OW13996   6.021   0.046   6.241
 4366SOL    HW113997   5.937   0.007   6.277
 4366SOL    HW213998   6.099   0.015   6.297
 4367SOL     OW13999   2.681   4.764   4.117
 4367SOL    HW114000   2.645   4.736   4.206
 4367SOL    HW214001   2.652   4.698   4.047
 4368SOL     OW14002   3.740   5.581   1.478
 4368SOL    HW114003   3.643   5.604   1.481
 4368SOL    HW214004   3.786   5.637   1.409
 4369SOL     OW14005   4.576   4.767   2.858
 4369SOL    HW114006   4.589   4.853   2.906
 4369SOL    HW214007   4.540   4.784   2.767
 4370SOL     OW14008   3.611   4.592   1.516
 4370SOL    HW114009   3.645   4.656   1.447
 4370SOL    HW214010   3.629   4.630   1.607
 4371SOL     OW14011   1.711   1.924   2.375
 4371SOL    HW114012   1.724   1.946   2.471
 4371SOL    HW214013   1.777   1.854   2.346
 4372SOL     OW14014   2.353   2.500   4.545
 4372SOL    HW114015   2.341   2.544   4.456
 4372SOL    HW214016   2.446   2.465   4.553
 4373SOL     OW14017   4.320   0.990   0.083
 4373SOL    HW114018   4.252   0.923   0.113
 4373SOL    HW214019   4.406   0.943   0.064
 4374SOL     OW14020   0.855   1.501   1.367
 4374SOL    HW114021   0.862   1.599   1.386
 4374SOL    HW214022   0.775   1.464   1.414
 4375SOL     OW14023   4.210   6.093   2.905
 4375SOL    HW114024   4.303   6.076   2.940
 4375SOL    HW214025   4.208   6.075   2.806
 4376SOL     OW14026   6.032   0.109   2.827
 4376SOL    HW114027   5.999   0.015   2.821
 4376SOL    HW214028   6.122   0.116   2.785
 4377SOL     OW14029   5.703   5.830   6.842
 4377SOL    HW114030   5.798   5.815   6.870
 4377SOL    HW214031   5.643   5.807   6.919
 4378SOL     OW14032   1.700   3.039   2.686
 4378SOL    HW114033   1.729   3.067   2.777
 4378SOL    HW214034   1.780   3.031   2.626
 4379SOL     OW14035   2.462   2.008   2.141
 4379SOL    HW114036   2.530   1.959   2.088
 4379SOL    HW214037   2.469   1.981   2.237
 4380SOL     OW14038   1.716   6.350   3.638
 4380SOL    HW114039   1.761   6.377   3.553
 4380SOL    HW214040   1.731   6.253   3.654
 4381SOL     OW14041   2.334   4.263   5.226
 4381SOL    HW114042   2.333   4.191   5.157
 4381SOL    HW214043   2.418   4.317   5.217
 4382SOL     OW14044   6.124   3.495   6.237
 4382SOL    HW114045   6.024   3.495   6.228
 4382SOL    HW214046   6.163   3.433   6.170
 4383SOL     OW14047   0.841   2.834   5.790
 4383SOL    HW114048   0.806   2.909   5.733
 4383SOL    HW214049   0.767   2.770   5.809
 4384SOL     OW14050   5.344   1.557   6.524
 4384SOL    HW114051   5.259   1.526   6.567
 4384SOL    HW214052   5.324   1.633   6.462
 4385SOL     OW14053   6.381   3.134   5.113
 4385SOL    HW114054   6.309   3.065   5.104
 4385SOL    HW214055   6.385   3.165   5.208
 4386SOL     OW14056   2.035   3.809   6.565
 4386SOL    HW114057   2.035   3.762   6.653
 4386SOL    HW214058   2.000   3.902   6.576
 4387SOL     OW14059   0.052   1.126   1.997
 4387SOL    HW114060   0.045   1.148   2.094
 4387SOL    HW214061   0.132   1.067   1.982
 4388SOL     OW14062   5.106   1.061   6.480
 4388SOL    HW114063   5.126   1.014   6.566
 4388SOL    HW214064   5.153   1.149   6.478
 4389SOL     OW14065   6.158   2.705   0.858
 4389SOL    HW114066   6.179   2.610   0.835
 4389SOL    HW214067   6.161   2.760   0.775
 4390SOL     OW14068   3.691   1.291   1.890
 4390SOL    HW114069   3.620   1.267   1.824
 4390SOL    HW214070   3.768   1.228   1.882
 4391SOL     OW14071   1.481   5.600   6.032
 4391SOL    HW114072   1.442   5.657   6.104
 4391SOL    HW214073   1.574   5.572   6.059
 4392SOL     OW14074   6.514   3.337   5.708
 4392SOL    HW114075   6.609   3.358   5.683
 4392SOL    HW214076   6.456   3.341   5.626
 4393SOL     OW14077   5.527   0.082   2.709
 4393SOL    HW114078   5.550   0.012   2.642
 4393SOL    HW214079   5.530   0.172   2.665
 4394SOL     OW14080   5.649   5.799   2.769
 4394SOL    HW114081   5.567   5.751   2.798
 4394SOL    HW214082   5.722   5.784   2.836
 4395SOL     OW14083   4.097   0.535   1.634
 4395SOL    HW114084   4.076   0.531   1.536
 4395SOL    HW214085   4.097   0.443   1.672
 4396SOL     OW14086   2.644   2.441   4.280
 4396SOL    HW114087   2.640   2.343   4.294
 4396SOL    HW214088   2.598   2.465   4.194
 4397SOL     OW14089   0.104   1.265   4.661
 4397SOL    HW114090   0.166   1.275   4.739
 4397SOL    HW214091   0.017   1.228   4.693
 4398SOL     OW14092   0.611   4.743   4.718
 4398SOL    HW114093   0.519   4.714   4.743
 4398SOL    HW214094   0.615   4.763   4.621
 4399SOL     OW14095   1.731   1.251   1.737
 4399SOL    HW114096   1.754   1.168   1.685
 4399SOL    HW214097   1.762   1.332   1.686
 4400SOL     OW14098   2.813   6.928   5.161
 4400SOL    HW114099   2.883   6.999   5.163
 4400SOL    HW214100   2.857   6.838   5.166
 4401SOL     OW14101   4.925   0.267   6.533
 4401SOL    HW114102   4.950   0.209   6.456
 4401SOL    HW214103   4.837   0.237   6.570
 4402SOL     OW14104   2.596   6.543   1.416
 4402SOL    HW114105   2.573   6.483   1.340
 4402SOL    HW214106   2.543   6.628   1.410
 4403SOL     OW14107   0.776   6.754   3.608
 4403SOL    HW114108   0.807   6.846   3.631
 4403SOL    HW214109   0.837   6.714   3.541
 4404SOL     OW14110   0.213   4.290   5.601
 4404SOL    HW114111   0.209   4.215   5.667
 4404SOL    HW214112   0.296   4.281   5.546
 4405SOL     OW14113   2.194   4.661   1.055
 4405SOL    HW114114   2.225   4.657   0.960
 4405SOL    HW214115   2.136   4.582   1.075
 4406SOL     OW14116   6.886   4.116   0.386
 4406SOL    HW114117   6.830   4.112   0.468
 4406SOL    HW214118   6.866   4.200   0.336
 4407SOL     OW14119   0.118   4.091   0.705
 4407SOL    HW114120   0.180   4.153   0.657
 4407SOL    HW214121   0.131   4.100   0.803
 4408SOL     OW14122   3.728   0.897   1.345
 4408SOL    HW114123   3.695   0.947   1.265
 4408SOL    HW214124   3.661   0.829   1.373
 4409SOL     OW14125   4.520   6.670   1.812
 4409SOL    HW114126   4.564   6.705   1.894
 4409SOL    HW214127   4.586   6.615   1.759
 4410SOL     OW14128   1.496   5.757   0.358
 4410SOL    HW114129   1.519   5.772   0.454
 4410SOL    HW214130   1.516   5.662   0.334
 4411SOL     OW14131   3.198   3.297   3.522
 4411SOL    HW114132   3.202   3.210   3.474
 4411SOL    HW214133   3.190   3.281   3.621
 4412SOL     OW14134   3.554   0.265   4.494
 4412SOL    HW114135   3.552   0.361   4.466
 4412SOL    HW214136   3.595   0.210   4.422
 4413SOL     OW14137   5.471   5.690   4.612
 4413SOL    HW114138   5.389   5.651   4.655
 4413SOL    HW214139   5.542   5.700   4.682
 4414SOL     OW14140   3.833   4.903   1.500
 4414SOL    HW114141   3.863   4.809   1.484
 4414SOL    HW214142   3.849   4.957   1.417
 4415SOL     OW14143   3.889   3.511   6.402
 4415SOL    HW114144   3.800   3.516   6.448
 4415SOL    HW214145   3.961   3.503   6.470
 4416SOL     OW14146   2.714   0.299   4.290
 4416SOL    HW114147   2.674   0.207   4.289
 4416SOL    HW214148   2.645   0.365   4.316
 4417SOL     OW14149   5.891   4.250   3.389
 4417SOL    HW114150   5.799   4.249   3.350
 4417SOL    HW214151   5.919   4.344   3.407
 4418SOL     OW14152   5.764   1.275   2.680
 4418SOL    HW114153   5.862   1.288   2.693
 4418SOL    HW214154   5.742   1.178   2.686
 4419SOL     OW14155   5.689   5.653   0.600
 4419SOL    HW114156   5.674   5.561   0.565
 4419SOL    HW214157   5.699   5.650   0.700
 4420SOL     OW14158   4.865   1.453   1.456
 4420SOL    HW114159   4.910   1.543   1.459
 4420SOL    HW214160   4.924   1.388   1.408
 4421SOL     OW14161   1.880   1.427   4.386
 4421SOL    HW114162   1.785   1.445   4.363
 4421SOL    HW214163   1.893   1.433   4.485
 4422SOL     OW14164   2.910   4.117   5.714
 4422SOL    HW114165   2.982   4.071   5.662
 4422SOL    HW214166   2.866   4.186   5.658
 4423SOL     OW14167   1.212   2.711   5.447
 4423SOL    HW114168   1.115   2.721   5.421
 4423SOL    HW214169   1.247   2.800   5.476
 4424SOL     OW14170   5.277   0.339   4.483
 4424SOL    HW114171   5.354   0.383   4.530
 4424SOL    HW214172   5.272   0.243   4.510
 4425SOL     OW14173   3.178   5.375   6.822
 4425SOL    HW114174   3.160   5.325   6.907
 4425SOL    HW214175   3.099   5.433   6.800
 4426SOL     OW14176   0.357   1.534   4.826
 4426SOL    HW114177   0.427   1.558   4.758
 4426SOL    HW214178   0.327   1.440   4.812
 4427SOL     OW14179   0.044   6.031   2.074
 4427SOL    HW114180   0.127   5.991   2.112
 4427SOL    HW214181   6.993   6.025   2.141
 4428SOL     OW14182   3.379   5.760   1.812
 4428SOL    HW114183   3.469   5.787   1.845
 4428SOL    HW214184   3.327   5.842   1.788
 4429SOL     OW14185   3.008   0.488   3.054
 4429SOL    HW114186   3.011   0.481   2.954
 4429SOL    HW214187   2.987   0.582   3.081
 4430SOL     OW14188   5.044   3.608   4.999
 4430SOL    HW114189   5.070   3.700   5.028
 4430SOL    HW214190   4.948   3.592   5.022
 4431SOL     OW14191   2.300   0.884   1.961
 4431SOL    HW114192   2.247   0.889   2.046
 4431SOL    HW214193   2.269   0.954   1.897
 4432SOL     OW14194   4.105   3.676   4.044
 4432SOL    HW114195   4.131   3.772   4.029
 4432SOL    HW214196   4.110   3.656   4.142
 4433SOL     OW14197   5.559   0.520   4.896
 4433SOL    HW114198   5.636   0.545   4.838
 4433SOL    HW214199   5.505   0.601   4.917
 4434SOL     OW14200   4.002   1.994   3.553
 4434SOL    HW114201   4.046   1.926   3.493
 4434SOL    HW214202   3.954   1.947   3.627
 4435SOL     OW14203   4.105   3.945   1.365
 4435SOL    HW114204   4.135   3.864   1.315
 4435SOL    HW214205   4.185   4.000   1.391
 4436SOL     OW14206   3.528   1.793   1.062
 4436SOL    HW114207   3.541   1.724   1.133
 4436SOL    HW214208   3.440   1.839   1.076
 4437SOL     OW14209   5.947   1.454   3.953
 4437SOL    HW114210   5.889   1.511   4.011
 4437SOL    HW214211   6.042   1.484   3.960
 4438SOL     OW14212   4.903   0.658   0.737
 4438SOL    HW114213   4.864   0.735   0.788
 4438SOL    HW214214   4.993   0.684   0.701
 4439SOL     OW14215   0.523   5.762   1.179
 4439SOL    HW114216   0.544   5.665   1.165
 4439SOL    HW214217   0.519   5.808   1.090
 4440SOL     OW14218   2.188   5.140   0.542
 4440SOL    HW114219   2.211   5.143   0.445
 4440SOL    HW214220   2.162   5.231   0.573
 4441SOL     OW14221   6.653   1.846   2.757
 4441SOL    HW114222   6.608   1.934   2.771
 4441SOL    HW214223   6.585   1.776   2.741
 4442SOL     OW14224   2.541   5.834   5.081
 4442SOL    HW114225   2.520   5.931   5.071
 4442SOL    HW214226   2.547   5.792   4.991
 4443SOL     OW14227   6.896   2.552   0.634
 4443SOL    HW114228   6.875   2.466   0.682
 4443SOL    HW214229   6.989   2.547   0.598
 4444SOL     OW14230   3.806   4.889   6.123
 4444SOL    HW114231   3.876   4.961   6.118
 4444SOL    HW214232   3.767   4.874   6.032
 4445SOL     OW14233   6.615   0.867   1.263
 4445SOL    HW114234   6.630   0.832   1.170
 4445SOL    HW214235   6.548   0.942   1.260
 4446SOL     OW14236   5.707   1.346   1.978
 4446SOL    HW114237   5.717   1.417   1.908
 4446SOL    HW214238   5.692   1.258   1.933
 4447SOL     OW14239   5.816   4.341   6.494
 4447SOL    HW114240   5.824   4.246   6.522
 4447SOL    HW214241   5.748   4.349   6.421
 4448SOL     OW14242   2.767   3.946   1.391
 4448SOL    HW114243   2.724   3.856   1.382
 4448SOL    HW214244   2.714   4.013   1.339
 4449SOL     OW14245   5.131   0.661   5.694
 4449SOL    HW114246   5.099   0.605   5.770
 4449SOL    HW214247   5.108   0.757   5.711
 4450SOL     OW14248   3.650   3.302   4.210
 4450SOL    HW114249   3.729   3.348   4.169
 4450SOL    HW214250   3.680   3.217   4.254
 4451SOL     OW14251   5.915   3.823   4.322
 4451SOL    HW114252   6.013   3.826   4.306
 4451SOL    HW214253   5.867   3.803   4.237
 4452SOL     OW14254   5.253   6.590   4.029
 4452SOL    HW114255   5.184   6.586   4.101
 4452SOL    HW214256   5.302   6.504   4.024
 4453SOL     OW14257   0.263   2.963   1.416
 4453SOL    HW114258   0.281   2.981   1.512
 4453SOL    HW214259   0.207   3.036   1.377
 4454SOL     OW14260   0.263   1.862   6.793
 4454SOL    HW114261   0.288   1.933   6.727
 4454SOL    HW214262   0.212   1.790   6.746
 4455SOL     OW14263   3.510   6.340   6.289
 4455SOL    HW114264   3.511   6.246   6.255
 4455SOL    HW214265   3.421   6.382   6.270
 4456SOL     OW14266   3.249   5.302   2.057
 4456SOL    HW114267   3.304   5.228   2.095
 4456SOL    HW214268   3.307   5.361   2.000
 4457SOL     OW14269   4.207   2.249   0.877
 4457SOL    HW114270   4.299   2.252   0.916
 4457SOL    HW214271   4.164   2.161   0.900
 4458SOL     OW14272   1.332   3.531   6.584
 4458SOL    HW114273   1.428   3.557   6.595
 4458SOL    HW214274   1.302   3.482   6.665
 4459SOL     OW14275   4.791   0.639   4.039
 4459SOL    HW114276   4.769   0.718   3.983
 4459SOL    HW214277   4.891   0.630   4.048
 4460SOL     OW14278   3.097   3.069   5.754
 4460SOL    HW114279   3.054   3.127   5.684
 4460SOL    HW214280   3.117   3.125   5.834
 4461SOL     OW14281   1.713   0.894   2.308
 4461SOL    HW114282   1.632   0.848   2.345
 4461SOL    HW214283   1.787   0.890   2.375
 4462SOL     OW14284   6.347   4.151   2.249
 4462SOL    HW114285   6.350   4.053   2.269
 4462SOL    HW214286   6.291   4.198   2.316
 4463SOL     OW14287   5.007   2.917   6.743
 4463SOL    HW114288   4.994   3.001   6.795
 4463SOL    HW214289   4.949   2.917   6.662
 4464SOL     OW14290   0.046   4.936   0.713
 4464SOL    HW114291   0.035   4.994   0.794
 4464SOL    HW214292   0.050   4.993   0.631
 4465SOL     OW14293   2.407   5.568   2.255
 4465SOL    HW114294   2.438   5.577   2.160
 4465SOL    HW214295   2.420   5.474   2.285
 4466SOL     OW14296   2.272   1.403   3.448
 4466SOL    HW114297   2.359   1.451   3.453
 4466SOL    HW214298   2.238   1.403   3.354
 4467SOL     OW14299   2.221   6.981   2.930
 4467SOL    HW114300   2.320   6.963   2.933
 4467SOL    HW214301   2.172   6.900   2.961
 4468SOL     OW14302   1.696   2.978   1.411
 4468SOL    HW114303   1.695   2.898   1.472
 4468SOL    HW214304   1.634   2.962   1.335
 4469SOL     OW14305   4.216   0.029   1.256
 4469SOL    HW114306   4.291   0.022   1.322
 4469SOL    HW214307   4.216   6.971   1.197
 4470SOL     OW14308   5.912   2.508   2.051
 4470SOL    HW114309   5.986   2.572   2.030
 4470SOL    HW214310   5.862   2.540   2.131
 4471SOL     OW14311   0.175   1.696   6.581
 4471SOL    HW114312   0.263   1.653   6.559
 4471SOL    HW214313   0.101   1.630   6.565
 4472SOL     OW14314   1.713   3.043   4.057
 4472SOL    HW114315   1.738   2.967   4.117
 4472SOL    HW214316   1.778   3.048   3.981
 4473SOL     OW14317   6.941   2.834   4.269
 4473SOL    HW114318   0.016   2.852   4.272
 4473SOL    HW214319   6.898   2.891   4.198
 4474SOL     OW14320   3.384   0.926   1.529
 4474SOL    HW114321   3.318   0.999   1.513
 4474SOL    HW214322   3.474   0.954   1.494
 4475SOL     OW14323   1.742   3.965   2.742
 4475SOL    HW114324   1.833   3.925   2.735
 4475SOL    HW214325   1.690   3.917   2.812
 4476SOL     OW14326   4.349   6.790   4.203
 4476SOL    HW114327   4.254   6.808   4.229
 4476SOL    HW214328   4.406   6.789   4.284
 4477SOL     OW14329   1.399   0.280   5.483
 4477SOL    HW114330   1.448   0.310   5.401
 4477SOL    HW214331   1.466   0.255   5.554
 4478SOL     OW14332   3.538   6.618   2.520
 4478SOL    HW114333   3.451   6.605   2.569
 4478SOL    HW214334   3.560   6.534   2.470
 4479SOL     OW14335   1.456   0.678   1.556
 4479SOL    HW114336   1.440   0.776   1.546
 4479SOL    HW214337   1.459   0.654   1.653
 4480SOL     OW14338   2.538   3.328   5.889
 4480SOL    HW114339   2.632   3.363   5.886
 4480SOL    HW214340   2.540   3.229   5.907
 4481SOL     OW14341   2.548   6.376   5.659
 4481SOL    HW114342   2.600   6.323   5.592
 4481SOL    HW214343   2.607   6.402   5.735
 4482SOL     OW14344   1.082   4.534   4.242
 4482SOL    HW114345   0.988   4.509   4.218
 4482SOL    HW214346   1.137   4.537   4.159
 4483SOL     OW14347   5.025   3.681   2.065
 4483SOL    HW114348   5.015   3.754   1.998
 4483SOL    HW214349   5.022   3.720   2.157
 4484SOL     OW14350   3.421   2.936   5.940
 4484SOL    HW114351   3.382   2.954   5.850
 4484SOL    HW214352   3.459   2.844   5.942
 4485SOL     OW14353   4.959   2.156   4.890
 4485SOL    HW114354   4.928   2.233   4.947
 4485SOL    HW214355   5.045   2.121   4.927
 4486SOL     OW14356   5.210   4.905   4.751
 4486SOL    HW114357   5.194   4.846   4.831
 4486SOL    HW214358   5.124   4.917   4.701
 4487SOL     OW14359   2.776   2.708   6.077
 4487SOL    HW114360   2.840   2.784   6.090
 4487SOL    HW214361   2.708   2.709   6.150
 4488SOL     OW14362   6.458   3.270   5.968
 4488SOL    HW114363   6.509   3.321   6.037
 4488SOL    HW214364   6.489   3.298   5.877
 4489SOL     OW14365   6.035   5.482   4.786
 4489SOL    HW114366   5.940   5.458   4.768
 4489SOL    HW214367   6.050   5.578   4.766
 4490SOL     OW14368   6.480   2.587   3.048
 4490SOL    HW114369   6.386   2.604   3.077
 4490SOL    HW214370   6.480   2.519   2.974
 4491SOL     OW14371   6.998   2.384   4.722
 4491SOL    HW114372   7.012   2.385   4.623
 4491SOL    HW214373   6.917   2.438   4.745
 4492SOL     OW14374   5.450   4.180   2.045
 4492SOL    HW114375   5.461   4.080   2.041
 4492SOL    HW214376   5.532   4.221   2.083
 4493SOL     OW14377   5.151   6.325   5.336
 4493SOL    HW114378   5.185   6.382   5.261
 4493SOL    HW214379   5.132   6.233   5.301
 4494SOL     OW14380   6.894   1.309   5.483
 4494SOL    HW114381   6.956   1.291   5.406
 4494SOL    HW214382   6.803   1.274   5.461
 4495SOL     OW14383   4.111   6.196   4.482
 4495SOL    HW114384   4.055   6.230   4.558
 4495SOL    HW214385   4.087   6.100   4.464
 4496SOL     OW14386   5.612   5.408   0.881
 4496SOL    HW114387   5.542   5.352   0.837
 4496SOL    HW214388   5.632   5.371   0.971
 4497SOL     OW14389   4.701   0.784   6.742
 4497SOL    HW114390   4.697   0.725   6.822
 4497SOL    HW214391   4.773   0.852   6.755
 4498SOL     OW14392   6.746   3.421   6.481
 4498SOL    HW114393   6.650   3.400   6.464
 4498SOL    HW214394   6.769   3.509   6.441
 4499SOL     OW14395   6.860   3.328   4.077
 4499SOL    HW114396   6.822   3.273   4.002
 4499SOL    HW214397   6.814   3.304   4.162
 4500SOL     OW14398   3.010   3.823   3.787
 4500SOL    HW114399   3.021   3.870   3.699
 4500SOL    HW214400   3.013   3.889   3.861
 4501SOL     OW14401   0.285   3.253   4.817
 4501SOL    HW114402   0.261   3.275   4.912
 4501SOL    HW214403   0.322   3.160   4.813
 4502SOL     OW14404   1.101   2.707   6.429
 4502SOL    HW114405   1.105   2.747   6.338
 4502SOL    HW214406   1.168   2.751   6.488
 4503SOL     OW14407   3.381   6.792   2.006
 4503SOL    HW114408   3.323   6.871   2.026
 4503SOL    HW214409   3.342   6.740   1.930
 4504SOL     OW14410   6.455   1.471   5.089
 4504SOL    HW114411   6.422   1.552   5.041
 4504SOL    HW214412   6.385   1.439   5.152
 4505SOL     OW14413   6.101   5.652   2.509
 4505SOL    HW114414   6.099   5.742   2.552
 4505SOL    HW214415   6.016   5.604   2.531
 4506SOL     OW14416   4.239   2.130   3.577
 4506SOL    HW114417   4.262   2.145   3.481
 4506SOL    HW214418   4.150   2.084   3.584
 4507SOL     OW14419   5.748   5.033   2.385
 4507SOL    HW114420   5.723   5.047   2.289
 4507SOL    HW214421   5.808   4.954   2.393
 4508SOL     OW14422   0.507   4.522   5.945
 4508SOL    HW114423   0.467   4.612   5.928
 4508SOL    HW214424   0.597   4.533   5.988
 4509SOL     OW14425   4.985   2.449   2.311
 4509SOL    HW114426   4.901   2.424   2.263
 4509SOL    HW214427   4.962   2.497   2.396
 4510SOL     OW14428   4.430   0.635   4.563
 4510SOL    HW114429   4.492   0.711   4.545
 4510SOL    HW214430   4.454   0.593   4.650
 4511SOL     OW14431   7.009   3.342   6.838
 4511SOL    HW114432   6.923   3.359   6.887
 4511SOL    HW214433   0.022   3.253   6.866
 4512SOL     OW14434   2.284   0.286   5.191
 4512SOL    HW114435   2.313   0.205   5.242
 4512SOL    HW214436   2.279   0.265   5.094
 4513SOL     OW14437   5.886   5.737   0.430
 4513SOL    HW114438   5.916   5.817   0.481
 4513SOL    HW214439   5.792   5.715   0.453
 4514SOL     OW14440   4.656   1.430   6.223
 4514SOL    HW114441   4.676   1.335   6.200
 4514SOL    HW214442   4.682   1.447   6.318
 4515SOL     OW14443   0.066   2.725   5.630
 4515SOL    HW114444   0.013   2.678   5.560
 4515SOL    HW214445   0.160   2.739   5.597
 4516SOL     OW14446   1.379   0.435   6.961
 4516SOL    HW114447   1.391   0.420   0.036
 4516SOL    HW214448   1.293   0.482   6.945
 4517SOL     OW14449   3.053   1.080   6.964
 4517SOL    HW114450   3.022   1.164   6.919
 4517SOL    HW214451   3.085   1.015   6.895
 4518SOL     OW14452   6.905   0.804   3.071
 4518SOL    HW114453   6.931   0.810   3.168
 4518SOL    HW214454   6.818   0.755   3.063
 4519SOL     OW14455   5.722   0.606   1.842
 4519SOL    HW114456   5.770   0.651   1.917
 4519SOL    HW214457   5.624   0.621   1.851
 4520SOL     OW14458   4.533   5.879   4.324
 4520SOL    HW114459   4.514   5.894   4.227
 4520SOL    HW214460   4.493   5.792   4.353
 4521SOL     OW14461   5.976   2.175   3.956
 4521SOL    HW114462   6.010   2.264   3.988
 4521SOL    HW214463   6.053   2.112   3.945
 4522SOL     OW14464   6.245   0.084   3.271
 4522SOL    HW114465   6.294   0.055   3.188
 4522SOL    HW214466   6.310   0.090   3.347
 4523SOL     OW14467   1.592   4.587   0.372
 4523SOL    HW114468   1.604   4.677   0.414
 4523SOL    HW214469   1.545   4.597   0.284
 4524SOL     OW14470   5.834   2.615   3.708
 4524SOL    HW114471   5.824   2.515   3.702
 4524SOL    HW214472   5.774   2.651   3.779
 4525SOL     OW14473   4.996   1.307   3.376
 4525SOL    HW114474   4.945   1.246   3.316
 4525SOL    HW214475   5.031   1.385   3.323
 4526SOL     OW14476   6.173   0.291   1.554
 4526SOL    HW114477   6.185   0.384   1.520
 4526SOL    HW214478   6.178   0.291   1.654
 4527SOL     OW14479   4.261   1.092   3.464
 4527SOL    HW114480   4.231   1.186   3.448
 4527SOL    HW214481   4.268   1.075   3.562
 4528SOL     OW14482   4.848   7.015   0.246
 4528SOL    HW114483   4.800   0.063   0.298
 4528SOL    HW214484   4.825   0.000   0.150
 4529SOL     OW14485   3.392   1.508   5.328
 4529SOL    HW114486   3.401   1.415   5.290
 4529SOL    HW214487   3.480   1.537   5.367
 4530SOL     OW14488   1.214   3.489   6.313
 4530SOL    HW114489   1.270   3.545   6.373
 4530SOL    HW214490   1.272   3.446   6.244
 4531SOL     OW14491   0.368   3.639   4.399
 4531SOL    HW114492   0.303   3.700   4.446
 4531SOL    HW214493   0.379   3.669   4.304
 4532SOL     OW14494   5.751   2.164   3.544
 4532SOL    HW114495   5.716   2.071   3.558
 4532SOL    HW214496   5.754   2.184   3.446
 4533SOL     OW14497   1.910   0.618   2.133
 4533SOL    HW114498   1.900   0.613   2.232
 4533SOL    HW214499   1.837   0.566   2.089
 4534SOL     OW14500   4.569   4.419   4.555
 4534SOL    HW114501   4.591   4.516   4.551
 4534SOL    HW214502   4.620   4.376   4.630
 4535SOL     OW14503   5.026   1.367   2.339
 4535SOL    HW114504   5.026   1.397   2.435
 4535SOL    HW214505   4.955   1.416   2.289
 4536SOL     OW14506   4.046   1.311   3.718
 4536SOL    HW114507   3.987   1.355   3.786
 4536SOL    HW214508   4.092   1.232   3.760
 4537SOL     OW14509   3.481   2.671   5.966
 4537SOL    HW114510   3.492   2.623   6.053
 4537SOL    HW214511   3.501   2.608   5.891
 4538SOL     OW14512   2.227   0.345   4.128
 4538SOL    HW114513   2.154   0.402   4.090
 4538SOL    HW214514   2.237   0.366   4.226
 4539SOL     OW14515   2.166   0.856   4.756
 4539SOL    HW114516   2.081   0.831   4.802
 4539SOL    HW214517   2.158   0.837   4.658
 4540SOL     OW14518   2.962   3.173   5.164
 4540SOL    HW114519   2.874   3.142   5.199
 4540SOL    HW214520   2.988   3.258   5.210
 4541SOL     OW14521   5.929   1.372   1.056
 4541SOL    HW114522   5.979   1.397   1.138
 4541SOL    HW214523   5.871   1.449   1.027
 4542SOL     OW14524   6.298   1.022   3.076
 4542SOL    HW114525   6.308   1.108   3.025
 4542SOL    HW214526   6.351   0.950   3.030
 4543SOL     OW14527   4.435   1.809   1.442
 4543SOL    HW114528   4.379   1.759   1.509
 4543SOL    HW214529   4.529   1.776   1.447
 4544SOL     OW14530   2.991   6.326   6.161
 4544SOL    HW114531   3.016   6.257   6.228
 4544SOL    HW214532   2.997   6.417   6.203
 4545SOL     OW14533   4.965   3.922   4.929
 4545SOL    HW114534   5.064   3.916   4.920
 4545SOL    HW214535   4.937   4.018   4.921
 4546SOL     OW14536   2.306   1.231   6.390
 4546SOL    HW114537   2.260   1.275   6.313
 4546SOL    HW214538   2.400   1.266   6.397
 4547SOL     OW14539   5.923   2.608   3.138
 4547SOL    HW114540   5.954   2.667   3.212
 4547SOL    HW214541   5.846   2.650   3.091
 4548SOL     OW14542   1.057   4.130   4.725
 4548SOL    HW114543   1.008   4.155   4.809
 4548SOL    HW214544   1.079   4.212   4.673
 4549SOL     OW14545   5.613   4.327   2.233
 4549SOL    HW114546   5.697   4.320   2.287
 4549SOL    HW214547   5.584   4.423   2.230
 4550SOL     OW14548   1.704   5.825   3.398
 4550SOL    HW114549   1.643   5.768   3.342
 4550SOL    HW214550   1.702   5.919   3.364
 4551SOL     OW14551   6.302   1.794   5.744
 4551SOL    HW114552   6.204   1.780   5.728
 4551SOL    HW214553   6.342   1.710   5.780
 4552SOL     OW14554   6.273   2.887   1.037
 4552SOL    HW114555   6.330   2.961   1.001
 4552SOL    HW214556   6.245   2.827   0.961
 4553SOL     OW14557   3.937   4.311   6.700
 4553SOL    HW114558   3.965   4.216   6.693
 4553SOL    HW214559   4.018   4.370   6.691
 4554SOL     OW14560   4.846   0.163   1.191
 4554SOL    HW114561   4.929   0.182   1.243
 4554SOL    HW214562   4.769   0.149   1.253
 4555SOL     OW14563   3.236   1.411   5.726
 4555SOL    HW114564   3.300   1.406   5.649
 4555SOL    HW214565   3.233   1.322   5.772
 4556SOL     OW14566   4.402   2.481   4.107
 4556SOL    HW114567   4.413   2.446   4.014
 4556SOL    HW214568   4.352   2.414   4.162
 4557SOL     OW14569   5.058   6.635   4.793
 4557SOL    HW114570   4.984   6.674   4.738
 4557SOL    HW214571   5.050   6.667   4.887
 4558SOL     OW14572   0.568   4.019   5.160
 4558SOL    HW114573   0.491   4.068   5.119
 4558SOL    HW214574   0.651   4.039   5.108
 4559SOL     OW14575   0.799   3.747   1.970
 4559SOL    HW114576   0.852   3.787   1.895
 4559SOL    HW214577   0.757   3.661   1.940
 4560SOL     OW14578   5.488   4.899   2.683
 4560SOL    HW114579   5.534   4.983   2.655
 4560SOL    HW214580   5.555   4.837   2.724
 4561SOL     OW14581   2.652   0.816   1.543
 4561SOL    HW114582   2.604   0.806   1.630
 4561SOL    HW214583   2.620   0.900   1.497
 4562SOL     OW14584   3.410   6.331   4.951
 4562SOL    HW114585   3.332   6.392   4.963
 4562SOL    HW214586   3.382   6.236   4.965
 4563SOL     OW14587   0.667   4.046   0.725
 4563SOL    HW114588   0.746   4.057   0.664
 4563SOL    HW214589   0.584   4.077   0.679
 4564SOL     OW14590   6.707   6.953   0.736
 4564SOL    HW114591   6.779   7.001   0.686
 4564SOL    HW214592   6.747   6.879   0.789
 4565SOL     OW14593   6.982   0.908   5.654
 4565SOL    HW114594   0.041   0.904   5.598
 4565SOL    HW214595   6.962   1.004   5.677
 4566SOL     OW14596   6.240   1.764   0.631
 4566SOL    HW114597   6.286   1.755   0.720
 4566SOL    HW214598   6.278   1.843   0.582
 4567SOL     OW14599   0.172   0.636   0.146
 4567SOL    HW114600   0.213   0.727   0.145
 4567SOL    HW214601   0.242   0.569   0.169
 4568SOL     OW14602   1.580   4.299   5.853
 4568SOL    HW114603   1.644   4.373   5.872
 4568SOL    HW214604   1.613   4.244   5.776
 4569SOL     OW14605   2.298   1.063   3.727
 4569SOL    HW114606   2.292   1.155   3.767
 4569SOL    HW214607   2.226   1.006   3.764
 4570SOL     OW14608   1.038   6.276   3.234
 4570SOL    HW114609   1.022   6.288   3.136
 4570SOL    HW214610   1.127   6.232   3.247
 4571SOL     OW14611   4.378   3.041   6.039
 4571SOL    HW114612   4.435   3.109   5.992
 4571SOL    HW214613   4.287   3.079   6.055
 4572SOL     OW14614   1.079   6.528   6.834
 4572SOL    HW114615   1.074   6.598   6.905
 4572SOL    HW214616   1.168   6.483   6.837
 4573SOL     OW14617   6.249   6.647   0.687
 4573SOL    HW114618   6.261   6.746   0.681
 4573SOL    HW214619   6.221   6.622   0.780
 4574SOL     OW14620   6.694   3.895   1.213
 4574SOL    HW114621   6.675   3.943   1.299
 4574SOL    HW214622   6.623   3.826   1.197
 4575SOL     OW14623   5.662   1.728   6.586
 4575SOL    HW114624   5.680   1.737   6.488
 4575SOL    HW214625   5.631   1.635   6.606
 4576SOL     OW14626   2.403   6.164   6.260
 4576SOL    HW114627   2.359   6.099   6.198
 4576SOL    HW214628   2.474   6.214   6.210
 4577SOL     OW14629   0.902   1.870   4.558
 4577SOL    HW114630   0.960   1.796   4.524
 4577SOL    HW214631   0.955   1.929   4.620
 4578SOL     OW14632   0.977   3.519   4.901
 4578SOL    HW114633   1.071   3.507   4.931
 4578SOL    HW214634   0.976   3.550   4.806
 4579SOL     OW14635   4.619   2.333   3.548
 4579SOL    HW114636   4.539   2.392   3.562
 4579SOL    HW214637   4.663   2.356   3.462
 4580SOL     OW14638   4.811   4.894   6.887
 4580SOL    HW114639   4.727   4.929   6.929
 4580SOL    HW214640   4.827   4.800   6.917
 4581SOL     OW14641   2.714   4.842   2.924
 4581SOL    HW114642   2.674   4.912   2.865
 4581SOL    HW214643   2.642   4.784   2.962
 4582SOL     OW14644   5.954   6.291   4.388
 4582SOL    HW114645   5.998   6.380   4.376
 4582SOL    HW214646   5.958   6.265   4.484
 4583SOL     OW14647   2.276   1.791   5.174
 4583SOL    HW114648   2.303   1.811   5.079
 4583SOL    HW214649   2.300   1.869   5.232
 4584SOL     OW14650   0.034   5.417   5.775
 4584SOL    HW114651   7.009   5.467   5.703
 4584SOL    HW214652   0.131   5.443   5.773
 4585SOL     OW14653   2.517   0.012   3.217
 4585SOL    HW114654   2.426   0.052   3.228
 4585SOL    HW214655   2.544   0.017   3.120
 4586SOL     OW14656   3.309   4.564   0.408
 4586SOL    HW114657   3.299   4.643   0.469
 4586SOL    HW214658   3.338   4.596   0.318
 4587SOL     OW14659   4.058   3.875   2.035
 4587SOL    HW114660   4.041   3.904   2.129
 4587SOL    HW214661   4.103   3.786   2.036
 4588SOL     OW14662   3.923   3.861   5.036
 4588SOL    HW114663   3.829   3.826   5.038
 4588SOL    HW214664   3.923   3.956   5.067
 4589SOL     OW14665   5.699   1.031   2.573
 4589SOL    HW114666   5.626   0.972   2.539
 4589SOL    HW214667   5.747   1.073   2.496
 4590SOL     OW14668   4.620   5.673   0.311
 4590SOL    HW114669   4.652   5.622   0.391
 4590SOL    HW214670   4.678   5.754   0.298
 4591SOL     OW14671   0.713   6.348   4.601
 4591SOL    HW114672   0.647   6.367   4.673
 4591SOL    HW214673   0.736   6.434   4.554
 4592SOL     OW14674   3.285   1.452   1.576
 4592SOL    HW114675   3.234   1.505   1.509
 4592SOL    HW214676   3.347   1.512   1.626
 4593SOL     OW14677   4.384   5.494   3.721
 4593SOL    HW114678   4.469   5.545   3.727
 4593SOL    HW214679   4.393   5.408   3.772
 4594SOL     OW14680   3.197   0.653   1.526
 4594SOL    HW114681   3.297   0.648   1.526
 4594SOL    HW214682   3.168   0.724   1.461
 4595SOL     OW14683   4.111   2.281   6.516
 4595SOL    HW114684   4.104   2.365   6.462
 4595SOL    HW214685   4.041   2.282   6.587
 4596SOL     OW14686   5.932   6.862   2.919
 4596SOL    HW114687   5.895   6.894   3.006
 4596SOL    HW214688   5.863   6.806   2.872
 4597SOL     OW14689   4.633   4.144   6.857
 4597SOL    HW114690   4.603   4.239   6.849
 4597SOL    HW214691   4.688   4.119   6.778
 4598SOL     OW14692   1.788   5.466   0.192
 4598SOL    HW114693   1.717   5.494   0.127
 4598SOL    HW214694   1.860   5.417   0.144
 4599SOL     OW14695   0.490   5.444   0.253
 4599SOL    HW114696   0.512   5.491   0.168
 4599SOL    HW214697   0.471   5.347   0.234
 4600SOL     OW14698   0.847   4.543   5.311
 4600SOL    HW114699   0.832   4.641   5.293
 4600SOL    HW214700   0.917   4.533   5.381
 4601SOL     OW14701   1.955   0.228   5.994
 4601SOL    HW114702   1.972   0.130   5.980
 4601SOL    HW214703   1.991   0.256   6.083
 4602SOL     OW14704   0.848   5.602   1.351
 4602SOL    HW114705   0.805   5.669   1.411
 4602SOL    HW214706   0.814   5.510   1.374
 4603SOL     OW14707   3.012   5.943   0.587
 4603SOL    HW114708   3.021   5.848   0.615
 4603SOL    HW214709   2.995   6.000   0.667
 4604SOL     OW14710   4.809   0.255   1.620
 4604SOL    HW114711   4.868   0.204   1.559
 4604SOL    HW214712   4.755   0.322   1.568
 4605SOL     OW14713   3.570   0.742   3.511
 4605SOL    HW114714   3.650   0.683   3.518
 4605SOL    HW214715   3.521   0.742   3.598
 4606SOL     OW14716   0.940   0.311   1.515
 4606SOL    HW114717   0.913   0.286   1.608
 4606SOL    HW214718   0.867   0.288   1.451
 4607SOL     OW14719   2.472   2.412   0.593
 4607SOL    HW114720   2.490   2.510   0.606
 4607SOL    HW214721   2.396   2.384   0.652
 4608SOL     OW14722   1.053   6.157   3.705
 4608SOL    HW114723   1.015   6.246   3.728
 4608SOL    HW214724   0.989   6.107   3.647
 4609SOL     OW14725   4.594   5.013   6.280
 4609SOL    HW114726   4.545   5.079   6.223
 4609SOL    HW214727   4.569   4.920   6.254
 4610SOL     OW14728   5.188   2.838   0.811
 4610SOL    HW114729   5.230   2.910   0.756
 4610SOL    HW214730   5.107   2.803   0.764
 4611SOL     OW14731   6.996   6.067   5.683
 4611SOL    HW114732   6.972   6.141   5.620
 4611SOL    HW214733   6.959   6.087   5.773
 4612SOL     OW14734   1.192   5.958   6.944
 4612SOL    HW114735   1.265   5.948   7.011
 4612SOL    HW214736   1.107   5.982   6.991
 4613SOL     OW14737   2.195   5.953   2.277
 4613SOL    HW114738   2.268   6.017   2.254
 4613SOL    HW214739   2.233   5.879   2.334
 4614SOL     OW14740   7.006   3.467   4.346
 4614SOL    HW114741   7.013   3.447   4.444
 4614SOL    HW214742   6.934   3.410   4.305
 4615SOL     OW14743   1.676   0.703   0.425
 4615SOL    HW114744   1.713   0.796   0.426
 4615SOL    HW214745   1.730   0.645   0.484
 4616SOL     OW14746   6.252   0.834   5.778
 4616SOL    HW114747   6.215   0.908   5.835
 4616SOL    HW214748   6.321   0.870   5.716
 4617SOL     OW14749   0.483   2.514   2.464
 4617SOL    HW114750   0.469   2.601   2.416
 4617SOL    HW214751   0.462   2.438   2.403
 4618SOL     OW14752   1.893   3.055   5.144
 4618SOL    HW114753   1.975   3.096   5.182
 4618SOL    HW214754   1.908   2.957   5.130
 4619SOL     OW14755   3.059   6.337   2.969
 4619SOL    HW114756   3.121   6.353   3.045
 4619SOL    HW214757   3.108   6.292   2.894
 4620SOL     OW14758   2.785   4.773   0.389
 4620SOL    HW114759   2.834   4.846   0.341
 4620SOL    HW214760   2.773   4.695   0.328
 4621SOL     OW14761   5.325   1.237   2.458
 4621SOL    HW114762   5.298   1.142   2.447
 4621SOL    HW214763   5.387   1.263   2.384
 4622SOL     OW14764   2.372   4.333   0.235
 4622SOL    HW114765   2.346   4.248   0.189
 4622SOL    HW214766   2.464   4.323   0.274
 4623SOL     OW14767   5.947   6.464   0.735
 4623SOL    HW114768   6.027   6.500   0.783
 4623SOL    HW214769   5.913   6.532   0.671
 4624SOL     OW14770   5.502   0.241   3.220
 4624SOL    HW114771   5.598   0.214   3.212
 4624SOL    HW214772   5.494   0.341   3.215
 4625SOL     OW14773   1.418   4.046   0.530
 4625SOL    HW114774   1.383   4.020   0.620
 4625SOL    HW214775   1.368   3.997   0.459
 4626SOL     OW14776   5.275   5.589   2.150
 4626SOL    HW114777   5.224   5.634   2.077
 4626SOL    HW214778   5.337   5.521   2.110
 4627SOL     OW14779   2.979   4.806   4.179
 4627SOL    HW114780   2.893   4.756   4.177
 4627SOL    HW214781   2.980   4.867   4.259
 4628SOL     OW14782   6.244   4.490   4.020
 4628SOL    HW114783   6.299   4.409   4.040
 4628SOL    HW214784   6.304   4.562   3.983
 4629SOL     OW14785   2.287   5.227   5.855
 4629SOL    HW114786   2.283   5.140   5.906
 4629SOL    HW214787   2.300   5.207   5.758
 4630SOL     OW14788   3.981   5.325   2.314
 4630SOL    HW114789   3.941   5.354   2.400
 4630SOL    HW214790   4.065   5.274   2.331
 4631SOL     OW14791   2.235   6.391   3.246
 4631SOL    HW114792   2.227   6.316   3.180
 4631SOL    HW214793   2.208   6.477   3.203
 4632SOL     OW14794   3.492   5.359   2.730
 4632SOL    HW114795   3.538   5.294   2.668
 4632SOL    HW214796   3.413   5.315   2.772
 4633SOL     OW14797   5.341   1.467   4.279
 4633SOL    HW114798   5.246   1.477   4.247
 4633SOL    HW214799   5.357   1.532   4.354
 4634SOL     OW14800   2.873   5.076   5.805
 4634SOL    HW114801   2.848   5.043   5.896
 4634SOL    HW214802   2.803   5.141   5.773
 4635SOL     OW14803   5.484   3.564   1.410
 4635SOL    HW114804   5.472   3.567   1.510
 4635SOL    HW214805   5.458   3.652   1.371
 4636SOL     OW14806   2.664   5.132   0.200
 4636SOL    HW114807   2.586   5.118   0.139
 4636SOL    HW214808   2.726   5.054   0.193
 4637SOL     OW14809   0.653   6.825   0.072
 4637SOL    HW114810   0.731   6.805   0.013
 4637SOL    HW214811   0.667   6.782   0.162
 4638SOL     OW14812   5.065   2.988   0.011
 4638SOL    HW114813   5.134   2.940   6.978
 4638SOL    HW214814   5.000   3.035   6.974
 4639SOL     OW14815   2.590   4.352   5.266
 4639SOL    HW114816   2.635   4.269   5.297
 4639SOL    HW214817   2.593   4.421   5.338
 4640SOL     OW14818   4.976   4.689   3.433
 4640SOL    HW114819   4.974   4.781   3.395
 4640SOL    HW214820   4.883   4.662   3.461
 4641SOL     OW14821   2.152   6.492   4.989
 4641SOL    HW114822   2.092   6.411   4.992
 4641SOL    HW214823   2.103   6.570   5.027
 4642SOL     OW14824   0.389   5.370   3.990
 4642SOL    HW114825   0.436   5.420   4.062
 4642SOL    HW214826   0.385   5.428   3.908
 4643SOL     OW14827   5.761   3.150   1.465
 4643SOL    HW114828   5.853   3.164   1.501
 4643SOL    HW214829   5.730   3.232   1.418
 4644SOL     OW14830   0.158   4.751   5.165
 4644SOL    HW114831   0.107   4.708   5.239
 4644SOL    HW214832   0.113   4.732   5.077
 4645SOL     OW14833   0.492   1.512   4.366
 4645SOL    HW114834   0.463   1.432   4.314
 4645SOL    HW214835   0.591   1.509   4.380
 4646SOL     OW14836   2.209   5.227   3.839
 4646SOL    HW114837   2.237   5.251   3.746
 4646SOL    HW214838   2.289   5.196   3.891
 4647SOL     OW14839   1.561   1.137   3.902
 4647SOL    HW114840   1.503   1.132   3.820
 4647SOL    HW214841   1.575   1.045   3.938
 4648SOL     OW14842   4.504   1.209   2.333
 4648SOL    HW114843   4.568   1.157   2.390
 4648SOL    HW214844   4.415   1.164   2.333
 4649SOL     OW14845   5.350   0.075   6.174
 4649SOL    HW114846   5.327   7.007   6.208
 4649SOL    HW214847   5.442   0.100   6.206
 4650SOL     OW14848   4.678   5.419   3.295
 4650SOL    HW114849   4.694   5.376   3.207
 4650SOL    HW214850   4.677   5.518   3.285
 4651SOL     OW14851   6.765   1.695   0.624
 4651SOL    HW114852   6.791   1.603   0.593
 4651SOL    HW214853   6.762   1.757   0.546
 4652SOL     OW14854   6.884   0.378   4.367
 4652SOL    HW114855   6.823   0.434   4.424
 4652SOL    HW214856   6.853   0.381   4.272
 4653SOL     OW14857   5.827   5.274   0.218
 4653SOL    HW114858   5.871   5.364   0.228
 4653SOL    HW214859   5.790   5.265   0.126
 4654SOL     OW14860   0.875   6.552   0.374
 4654SOL    HW114861   0.845   6.637   0.332
 4654SOL    HW214862   0.975   6.544   0.364
 4655SOL     OW14863   6.337   4.512   1.756
 4655SOL    HW114864   6.292   4.513   1.845
 4655SOL    HW214865   6.287   4.572   1.693
 4656SOL     OW14866   0.995   0.462   3.825
 4656SOL    HW114867   0.938   0.382   3.844
 4656SOL    HW214868   1.084   0.450   3.870
 4657SOL     OW14869   5.308   5.972   1.424
 4657SOL    HW114870   5.298   6.021   1.510
 4657SOL    HW214871   5.344   5.880   1.443
 4658SOL     OW14872   3.804   0.633   2.633
 4658SOL    HW114873   3.898   0.662   2.651
 4658SOL    HW214874   3.743   0.671   2.703
 4659SOL     OW14875   3.063   4.337   5.307
 4659SOL    HW114876   3.016   4.412   5.260
 4659SOL    HW214877   3.001   4.259   5.315
 4660SOL     OW14878   1.015   4.535   5.532
 4660SOL    HW114879   0.955   4.560   5.608
 4660SOL    HW214880   1.103   4.503   5.568
 4661SOL     OW14881   3.717   3.772   5.570
 4661SOL    HW114882   3.811   3.744   5.551
 4661SOL    HW214883   3.716   3.862   5.612
 4662SOL     OW14884   3.849   6.783   5.019
 4662SOL    HW114885   3.794   6.720   4.964
 4662SOL    HW214886   3.899   6.845   4.958
 4663SOL     OW14887   0.684   1.411   2.538
 4663SOL    HW114888   0.687   1.417   2.438
 4663SOL    HW214889   0.614   1.473   2.574
 4664SOL     OW14890   1.205   1.409   0.743
 4664SOL    HW114891   1.204   1.505   0.714
 4664SOL    HW214892   1.296   1.371   0.732
 4665SOL     OW14893   3.776   6.969   0.204
 4665SOL    HW114894   3.774   6.924   0.294
 4665SOL    HW214895   3.689   7.014   0.187
 4666SOL     OW14896   1.522   1.991   1.039
 4666SOL    HW114897   1.571   1.910   1.007
 4666SOL    HW214898   1.549   2.070   0.983
 4667SOL     OW14899   6.005   3.779   2.010
 4667SOL    HW114900   5.973   3.857   2.065
 4667SOL    HW214901   5.926   3.726   1.979
 4668SOL     OW14902   5.007   1.841   2.880
 4668SOL    HW114903   5.049   1.799   2.799
 4668SOL    HW214904   4.916   1.874   2.857
 4669SOL     OW14905   4.531   6.217   6.849
 4669SOL    HW114906   4.606   6.283   6.841
 4669SOL    HW214907   4.444   6.265   6.836
 4670SOL     OW14908   2.994   2.165   5.195
 4670SOL    HW114909   3.071   2.194   5.139
 4670SOL    HW214910   2.977   2.233   5.266
 4671SOL     OW14911   6.787   3.062   2.366
 4671SOL    HW114912   6.866   3.050   2.305
 4671SOL    HW214913   6.799   3.006   2.448
 4672SOL     OW14914   2.818   4.642   6.354
 4672SOL    HW114915   2.815   4.682   6.446
 4672SOL    HW214916   2.878   4.697   6.295
 4673SOL     OW14917   5.072   6.778   1.651
 4673SOL    HW114918   4.995   6.821   1.604
 4673SOL    HW214919   5.038   6.704   1.710
 4674SOL     OW14920   4.976   0.075   6.338
 4674SOL    HW114921   4.962   0.121   6.251
 4674SOL    HW214922   4.902   0.010   6.354
 4675SOL     OW14923   0.675   1.014   6.457
 4675SOL    HW114924   0.580   1.045   6.444
 4675SOL    HW214925   0.678   0.947   6.531
 4676SOL     OW14926   6.880   6.201   3.497
 4676SOL    HW114927   6.871   6.153   3.585
 4676SOL    HW214928   6.808   6.269   3.489
 4677SOL     OW14929   2.885   1.009   0.123
 4677SOL    HW114930   2.972   1.013   0.075
 4677SOL    HW214931   2.816   1.061   0.072
 4678SOL     OW14932   2.099   4.782   3.266
 4678SOL    HW114933   2.104   4.686   3.292
 4678SOL    HW214934   2.127   4.792   3.170
 4679SOL     OW14935   3.378   0.601   0.715
 4679SOL    HW114936   3.459   0.601   0.658
 4679SOL    HW214937   3.387   0.532   0.787
 4680SOL     OW14938   3.086   1.675   6.808
 4680SOL    HW114939   3.009   1.664   6.745
 4680SOL    HW214940   3.147   1.746   6.774
 4681SOL     OW14941   5.040   5.360   6.855
 4681SOL    HW114942   4.951   5.359   6.899
 4681SOL    HW214943   5.068   5.266   6.833
 4682SOL     OW14944   4.902   4.653   5.217
 4682SOL    HW114945   4.829   4.620   5.157
 4682SOL    HW214946   4.925   4.747   5.193
 4683SOL     OW14947   4.965   5.088   2.196
 4683SOL    HW114948   4.975   4.998   2.239
 4683SOL    HW214949   5.035   5.099   2.125
 4684SOL     OW14950   5.802   0.676   5.189
 4684SOL    HW114951   5.796   0.728   5.104
 4684SOL    HW214952   5.886   0.700   5.237
 4685SOL     OW14953   1.328   5.040   5.565
 4685SOL    HW114954   1.243   5.058   5.516
 4685SOL    HW214955   1.353   5.120   5.619
 4686SOL     OW14956   4.422   4.978   0.160
 4686SOL    HW114957   4.506   5.005   0.111
 4686SOL    HW214958   4.446   4.918   0.236
 4687SOL     OW14959   5.320   3.414   4.393
 4687SOL    HW114960   5.254   3.454   4.456
 4687SOL    HW214961   5.294   3.437   4.299
 4688SOL     OW14962   5.860   4.007   5.281
 4688SOL    HW114963   5.918   3.925   5.281
 4688SOL    HW214964   5.772   3.985   5.322
 4689SOL     OW14965   4.842   0.601   0.336
 4689SOL    HW114966   4.760   0.646   0.303
 4689SOL    HW214967   4.909   0.670   0.366
 4690SOL     OW14968   1.110   0.158   7.000
 4690SOL    HW114969   1.111   0.187   6.904
 4690SOL    HW214970   1.191   0.104   7.020
 4691SOL     OW14971   2.853   4.690   1.045
 4691SOL    HW114972   2.921   4.729   1.108
 4691SOL    HW214973   2.896   4.618   0.991
 4692SOL     OW14974   5.465   5.219   2.026
 4692SOL    HW114975   5.371   5.214   1.993
 4692SOL    HW214976   5.491   5.315   2.037
 4693SOL     OW14977   1.553   2.135   3.501
 4693SOL    HW114978   1.502   2.221   3.501
 4693SOL    HW214979   1.559   2.100   3.594
 4694SOL     OW14980   1.760   0.994   0.405
 4694SOL    HW114981   1.854   1.011   0.373
 4694SOL    HW214982   1.695   1.025   0.335
 4695SOL     OW14983   0.894   4.282   2.406
 4695SOL    HW114984   0.852   4.304   2.318
 4695SOL    HW214985   0.993   4.274   2.394
 4696SOL     OW14986   0.211   4.020   0.310
 4696SOL    HW114987   0.166   3.986   0.392
 4696SOL    HW214988   0.146   4.022   0.234
 4697SOL     OW14989   1.520   3.448   1.083
 4697SOL    HW114990   1.500   3.480   0.991
 4697SOL    HW214991   1.618   3.450   1.098
 4698SOL     OW14992   4.349   5.921   2.532
 4698SOL    HW114993   4.351   5.871   2.446
 4698SOL    HW214994   4.255   5.947   2.553
 4699SOL     OW14995   1.221   6.696   2.196
 4699SOL    HW114996   1.309   6.740   2.213
 4699SOL    HW214997   1.187   6.724   2.106
 4700SOL     OW14998   6.995   1.053   2.803
 4700SOL    HW114999   6.902   1.049   2.838
 4700SOL    HW215000   0.023   0.973   2.834
 4701SOL     OW15001   2.431   1.905   0.375
 4701SOL    HW115002   2.496   1.839   0.411
 4701SOL    HW215003   2.467   1.998   0.389
 4702SOL     OW15004   5.136   4.939   0.127
 4702SOL    HW115005   5.215   4.878   0.129
 4702SOL    HW215006   5.069   4.905   0.061
 4703SOL     OW15007   0.068   1.736   2.509
 4703SOL    HW115008   0.139   1.780   2.563
 4703SOL    HW215009   7.002   1.771   2.538
 4704SOL     OW15010   6.548   6.277   6.502
 4704SOL    HW115011   6.578   6.372   6.496
 4704SOL    HW215012   6.510   6.248   6.414
 4705SOL     OW15013   3.978   2.932   1.451
 4705SOL    HW115014   3.997   2.859   1.517
 4705SOL    HW215015   4.035   3.011   1.471
 4706SOL     OW15016   2.551   0.119   0.821
 4706SOL    HW115017   2.533   0.094   0.916
 4706SOL    HW215018   2.648   0.141   0.811
 4707SOL     OW15019   1.120   6.645   0.351
 4707SOL    HW115020   1.206   6.598   0.367
 4707SOL    HW215021   1.125   6.697   0.266
 4708SOL     OW15022   1.385   2.057   6.124
 4708SOL    HW115023   1.431   2.042   6.211
 4708SOL    HW215024   1.451   2.051   6.049
 4709SOL     OW15025   4.475   5.692   5.304
 4709SOL    HW115026   4.461   5.602   5.263
 4709SOL    HW215027   4.400   5.712   5.367
 4710SOL     OW15028   4.610   0.222   6.132
 4710SOL    HW115029   4.514   0.238   6.105
 4710SOL    HW215030   4.632   0.125   6.120
 4711SOL     OW15031   5.863   1.268   1.560
 4711SOL    HW115032   5.961   1.246   1.556
 4711SOL    HW215033   5.848   1.358   1.520
 4712SOL     OW15034   3.307   4.629   6.696
 4712SOL    HW115035   3.377   4.588   6.637
 4712SOL    HW215036   3.240   4.677   6.641
 4713SOL     OW15037   3.371   3.787   0.559
 4713SOL    HW115038   3.396   3.882   0.542
 4713SOL    HW215039   3.454   3.732   0.569
 4714SOL     OW15040   0.856   1.911   6.397
 4714SOL    HW115041   0.910   1.893   6.315
 4714SOL    HW215042   0.759   1.898   6.376
 4715SOL     OW15043   6.147   3.366   2.065
 4715SOL    HW115044   6.155   3.270   2.092
 4715SOL    HW215045   6.060   3.403   2.098
 4716SOL     OW15046   4.261   6.600   6.073
 4716SOL    HW115047   4.189   6.669   6.077
 4716SOL    HW215048   4.315   6.604   6.158
 4717SOL     OW15049   0.400   6.033   3.851
 4717SOL    HW115050   0.351   6.077   3.926
 4717SOL    HW215051   0.336   5.976   3.799
 4718SOL     OW15052   6.117   2.376   1.302
 4718SOL    HW115053   6.214   2.371   1.277
 4718SOL    HW215054   6.061   2.335   1.230
 4719SOL     OW15055   4.857   3.104   1.682
 4719SOL    HW115056   4.766   3.083   1.718
 4719SOL    HW215057   4.879   3.200   1.701
 4720SOL     OW15058   2.243   5.075   6.318
 4720SOL    HW115059   2.169   5.018   6.284
 4720SOL    HW215060   2.254   5.061   6.417
 4721SOL     OW15061   6.011   1.726   2.465
 4721SOL    HW115062   5.991   1.631   2.489
 4721SOL    HW215063   6.030   1.732   2.367
 4722SOL     OW15064   1.320   6.277   6.566
 4722SOL    HW115065   1.407   6.261   6.519
 4722SOL    HW215066   1.305   6.206   6.635
 4723SOL     OW15067   2.881   3.107   5.938
 4723SOL    HW115068   2.916   3.034   5.998
 4723SOL    HW215069   2.852   3.068   5.851
 4724SOL     OW15070   6.078   0.046   3.512
 4724SOL    HW115071   6.098   6.988   3.567
 4724SOL    HW215072   6.123   0.038   3.423
 4725SOL     OW15073   6.781   4.975   0.948
 4725SOL    HW115074   6.860   5.021   0.990
 4725SOL    HW215075   6.790   4.977   0.848
 4726SOL     OW15076   0.895   3.099   6.324
 4726SOL    HW115077   0.871   3.061   6.234
 4726SOL    HW215078   0.820   3.083   6.388
 4727SOL     OW15079   1.329   6.399   1.362
 4727SOL    HW115080   1.393   6.475   1.348
 4727SOL    HW215081   1.243   6.418   1.316
 4728SOL     OW15082   5.773   1.516   1.448
 4728SOL    HW115083   5.793   1.607   1.412
 4728SOL    HW215084   5.694   1.521   1.509
 4729SOL     OW15085   4.036   1.765   0.493
 4729SOL    HW115086   4.088   1.846   0.519
 4729SOL    HW215087   3.947   1.792   0.456
 4730SOL     OW15088   3.705   5.774   5.817
 4730SOL    HW115089   3.734   5.681   5.798
 4730SOL    HW215090   3.611   5.773   5.852
 4731SOL     OW15091   3.262   0.355   6.994
 4731SOL    HW115092   3.190   0.418   6.966
 4731SOL    HW215093   3.351   0.400   6.987
 4732SOL     OW15094   1.801   4.357   5.381
 4732SOL    HW115095   1.708   4.324   5.365
 4732SOL    HW215096   1.867   4.295   5.337
 4733SOL     OW15097   1.550   4.438   3.792
 4733SOL    HW115098   1.614   4.493   3.738
 4733SOL    HW215099   1.457   4.470   3.775
 4734SOL     OW15100   4.283   3.609   6.972
 4734SOL    HW115101   4.223   3.650   0.018
 4734SOL    HW215102   4.337   3.681   6.928
 4735SOL     OW15103   0.342   5.379   4.442
 4735SOL    HW115104   0.288   5.393   4.525
 4735SOL    HW215105   0.439   5.391   4.463
 4736SOL     OW15106   6.103   1.596   5.708
 4736SOL    HW115107   6.042   1.671   5.684
 4736SOL    HW215108   6.152   1.566   5.627
 4737SOL     OW15109   2.735   4.354   1.631
 4737SOL    HW115110   2.784   4.410   1.698
 4737SOL    HW215111   2.665   4.410   1.587
 4738SOL     OW15112   1.659   6.120   3.305
 4738SOL    HW115113   1.595   6.185   3.346
 4738SOL    HW215114   1.719   6.168   3.241
 4739SOL     OW15115   4.600   1.683   2.790
 4739SOL    HW115116   4.607   1.586   2.810
 4739SOL    HW215117   4.647   1.704   2.705
 4740SOL     OW15118   0.389   1.907   0.842
 4740SOL    HW115119   0.306   1.940   0.797
 4740SOL    HW215120   0.365   1.845   0.916
 4741SOL     OW15121   5.762   3.658   0.678
 4741SOL    HW115122   5.754   3.616   0.588
 4741SOL    HW215123   5.856   3.689   0.693
 4742SOL     OW15124   3.297   6.880   6.775
 4742SOL    HW115125   3.323   6.815   6.703
 4742SOL    HW215126   3.269   6.830   6.856
 4743SOL     OW15127   1.916   3.575   5.022
 4743SOL    HW115128   1.958   3.529   4.944
 4743SOL    HW215129   1.906   3.509   5.097
 4744SOL     OW15130   2.419   4.212   6.145
 4744SOL    HW115131   2.362   4.282   6.102
 4744SOL    HW215132   2.516   4.234   6.129
 4745SOL     OW15133   3.427   5.286   5.805
 4745SOL    HW115134   3.443   5.219   5.877
 4745SOL    HW215135   3.431   5.240   5.716
 4746SOL     OW15136   5.673   6.182   2.438
 4746SOL    HW115137   5.771   6.200   2.442
 4746SOL    HW215138   5.645   6.130   2.519
 4747SOL     OW15139   1.941   4.009   6.253
 4747SOL    HW115140   1.889   3.924   6.243
 4747SOL    HW215141   2.018   4.009   6.189
 4748SOL     OW15142   0.766   4.832   0.738
 4748SOL    HW115143   0.760   4.931   0.724
 4748SOL    HW215144   0.839   4.813   0.804
 4749SOL     OW15145   2.997   6.312   5.288
 4749SOL    HW115146   3.018   6.279   5.380
 4749SOL    HW215147   2.959   6.405   5.294
 4750SOL     OW15148   0.589   4.096   3.590
 4750SOL    HW115149   0.541   4.010   3.574
 4750SOL    HW215150   0.584   4.120   3.687
 4751SOL     OW15151   3.567   1.888   1.339
 4751SOL    HW115152   3.579   1.930   1.249
 4751SOL    HW215153   3.587   1.955   1.410
 4752SOL     OW15154   3.601   1.045   6.351
 4752SOL    HW115155   3.676   1.028   6.414
 4752SOL    HW215156   3.573   1.141   6.356
 4753SOL     OW15157   5.200   7.020   4.010
 4753SOL    HW115158   5.179   6.958   3.935
 4753SOL    HW215159   5.295   0.026   4.003
 4754SOL     OW15160   5.780   7.011   4.895
 4754SOL    HW115161   5.713   0.020   4.963
 4754SOL    HW215162   5.872   0.001   4.931
 4755SOL     OW15163   2.235   0.569   0.840
 4755SOL    HW115164   2.303   0.496   0.834
 4755SOL    HW215165   2.230   0.602   0.934
 4756SOL     OW15166   5.920   3.185   1.000
 4756SOL    HW115167   5.998   3.208   0.942
 4756SOL    HW215168   5.952   3.157   1.091
 4757SOL     OW15169   2.186   1.924   0.917
 4757SOL    HW115170   2.232   1.914   0.829
 4757SOL    HW215171   2.253   1.917   0.991
 4758SOL     OW15172   2.577   0.063   4.253
 4758SOL    HW115173   2.586   7.015   4.323
 4758SOL    HW215174   2.480   0.078   4.233
 4759SOL     OW15175   5.952   5.060   4.902
 4759SOL    HW115176   5.907   5.135   4.950
 4759SOL    HW215177   5.990   5.094   4.816
 4760SOL     OW15178   2.327   1.876   0.689
 4760SOL    HW115179   2.283   1.877   0.599
 4760SOL    HW215180   2.394   1.949   0.694
 4761SOL     OW15181   0.400   6.290   7.007
 4761SOL    HW115182   0.382   6.244   6.920
 4761SOL    HW215183   0.314   6.305   0.032
 4762SOL     OW15184   1.090   5.919   2.321
 4762SOL    HW115185   1.114   5.822   2.333
 4762SOL    HW215186   1.131   5.972   2.395
 4763SOL     OW15187   6.331   6.480   3.567
 4763SOL    HW115188   6.319   6.383   3.545
 4763SOL    HW215189   6.298   6.535   3.491
 4764SOL     OW15190   4.916   3.750   4.691
 4764SOL    HW115191   5.011   3.744   4.723
 4764SOL    HW215192   4.878   3.839   4.716
 4765SOL     OW15193   4.563   0.693   3.826
 4765SOL    HW115194   4.658   0.719   3.839
 4765SOL    HW215195   4.533   0.720   3.734
 4766SOL     OW15196   5.456   5.487   4.083
 4766SOL    HW115197   5.400   5.509   4.003
 4766SOL    HW215198   5.484   5.572   4.129
 4767SOL     OW15199   3.607   5.219   5.581
 4767SOL    HW115200   3.609   5.296   5.517
 4767SOL    HW215201   3.549   5.147   5.545
 4768SOL     OW15202   4.479   1.699   5.872
 4768SOL    HW115203   4.450   1.795   5.874
 4768SOL    HW215204   4.478   1.662   5.965
 4769SOL     OW15205   5.148   3.893   0.121
 4769SOL    HW115206   5.158   3.950   0.039
 4769SOL    HW215207   5.168   3.798   0.099
 4770SOL     OW15208   1.078   0.622   4.388
 4770SOL    HW115209   1.156   0.560   4.398
 4770SOL    HW215210   1.006   0.597   4.453
 4771SOL     OW15211   3.597   5.793   5.031
 4771SOL    HW115212   3.674   5.733   5.010
 4771SOL    HW215213   3.603   5.823   5.126
 4772SOL     OW15214   3.397   4.541   1.264
 4772SOL    HW115215   3.367   4.473   1.197
 4772SOL    HW215216   3.407   4.630   1.219
 4773SOL     OW15217   6.758   5.433   4.023
 4773SOL    HW115218   6.815   5.370   3.970
 4773SOL    HW215219   6.670   5.446   3.977
 4774SOL     OW15220   1.209   3.304   2.252
 4774SOL    HW115221   1.209   3.404   2.262
 4774SOL    HW215222   1.120   3.269   2.280
 4775SOL     OW15223   4.783   6.274   2.460
 4775SOL    HW115224   4.704   6.219   2.486
 4775SOL    HW215225   4.851   6.216   2.414
 4776SOL     OW15226   1.130   6.545   5.373
 4776SOL    HW115227   1.064   6.562   5.447
 4776SOL    HW215228   1.080   6.518   5.291
 4777SOL     OW15229   2.210   5.016   0.911
 4777SOL    HW115230   2.136   4.971   0.962
 4777SOL    HW215231   2.232   4.962   0.830
 4778SOL     OW15232   6.544   2.322   3.353
 4778SOL    HW115233   6.462   2.380   3.360
 4778SOL    HW215234   6.516   2.226   3.348
 4779SOL     OW15235   6.280   6.366   2.869
 4779SOL    HW115236   6.360   6.367   2.809
 4779SOL    HW215237   6.234   6.454   2.865
 4780SOL     OW15238   5.264   1.012   6.918
 4780SOL    HW115239   5.184   0.978   6.968
 4780SOL    HW215240   5.347   0.992   6.970
 4781SOL     OW15241   2.752   5.467   1.992
 4781SOL    HW115242   2.824   5.462   1.922
 4781SOL    HW215243   2.665   5.487   1.948
 4782SOL     OW15244   4.363   5.653   0.388
 4782SOL    HW115245   4.288   5.638   0.323
 4782SOL    HW215246   4.450   5.652   0.338
 4783SOL     OW15247   4.557   4.243   0.303
 4783SOL    HW115248   4.639   4.232   0.246
 4783SOL    HW215249   4.525   4.153   0.333
 4784SOL     OW15250   6.194   4.153   6.810
 4784SOL    HW115251   6.131   4.224   6.779
 4784SOL    HW215252   6.142   4.080   6.854
 4785SOL     OW15253   0.778   6.716   2.042
 4785SOL    HW115254   0.790   6.721   1.943
 4785SOL    HW215255   0.769   6.808   2.080
 4786SOL     OW15256   2.417   1.412   0.339
 4786SOL    HW115257   2.340   1.450   0.391
 4786SOL    HW215258   2.478   1.362   0.401
 4787SOL     OW15259   4.004   1.290   2.261
 4787SOL    HW115260   4.068   1.220   2.230
 4787SOL    HW215261   3.917   1.248   2.285
 4788SOL     OW15262   0.471   5.709   5.124
 4788SOL    HW115263   0.495   5.662   5.209
 4788SOL    HW215264   0.453   5.641   5.052
 4789SOL     OW15265   5.133   1.461   0.855
 4789SOL    HW115266   5.090   1.525   0.790
 4789SOL    HW215267   5.208   1.413   0.809
 4790SOL     OW15268   6.094   2.202   5.303
 4790SOL    HW115269   5.994   2.206   5.306
 4790SOL    HW215270   6.131   2.290   5.334
 4791SOL     OW15271   6.922   2.904   1.856
 4791SOL    HW115272   6.857   2.879   1.784
 4791SOL    HW215273   6.904   2.998   1.885
 4792SOL     OW15274   1.748   4.086   3.215
 4792SOL    HW115275   1.684   4.124   3.282
 4792SOL    HW215276   1.782   4.158   3.156
 4793SOL     OW15277   2.010   2.961   5.737
 4793SOL    HW115278   1.950   2.882   5.749
 4793SOL    HW215279   2.104   2.929   5.727
 4794SOL     OW15280   4.670   0.516   3.215
 4794SOL    HW115281   4.600   0.570   3.168
 4794SOL    HW215282   4.634   0.487   3.304
 4795SOL     OW15283   5.652   2.691   3.888
 4795SOL    HW115284   5.606   2.779   3.879
 4795SOL    HW215285   5.594   2.628   3.939
 4796SOL     OW15286   4.951   1.809   5.005
 4796SOL    HW115287   5.009   1.824   4.925
 4796SOL    HW215288   4.934   1.711   5.016
 4797SOL     OW15289   1.366   5.964   5.441
 4797SOL    HW115290   1.302   5.934   5.370
 4797SOL    HW215291   1.342   6.057   5.470
 4798SOL     OW15292   0.185   3.626   4.744
 4798SOL    HW115293   0.097   3.620   4.791
 4798SOL    HW215294   0.170   3.657   4.650
 4799SOL     OW15295   5.029   2.020   6.890
 4799SOL    HW115296   5.100   2.075   6.844
 4799SOL    HW215297   4.942   2.070   6.888
 4800SOL     OW15298   3.554   2.790   6.321
 4800SOL    HW115299   3.569   2.845   6.403
 4800SOL    HW215300   3.537   2.695   6.347
 4801SOL     OW15301   2.882   2.427   6.514
 4801SOL    HW115302   2.817   2.366   6.470
 4801SOL    HW215303   2.833   2.507   6.550
 4802SOL     OW15304   1.130   6.733   1.887
 4802SOL    HW115305   1.143   6.634   1.889
 4802SOL    HW215306   1.202   6.775   1.831
 4803SOL     OW15307   0.626   5.317   0.779
 4803SOL    HW115308   0.705   5.374   0.757
 4803SOL    HW215309   0.627   5.296   0.877
 4804SOL     OW15310   5.319   5.586   0.565
 4804SOL    HW115311   5.266   5.512   0.523
 4804SOL    HW215312   5.303   5.671   0.516
 4805SOL     OW15313   5.473   1.850   2.445
 4805SOL    HW115314   5.456   1.811   2.535
 4805SOL    HW215315   5.572   1.862   2.432
 4806SOL     OW15316   1.525   4.713   2.843
 4806SOL    HW115317   1.436   4.710   2.799
 4806SOL    HW215318   1.524   4.784   2.914
 4807SOL     OW15319   0.694   5.179   0.414
 4807SOL    HW115320   0.686   5.086   0.380
 4807SOL    HW215321   0.608   5.206   0.458
 4808SOL     OW15322   5.676   4.263   0.244
 4808SOL    HW115323   5.653   4.253   0.147
 4808SOL    HW215324   5.641   4.351   0.277
 4809SOL     OW15325   3.857   4.151   0.092
 4809SOL    HW115326   3.798   4.090   0.145
 4809SOL    HW215327   3.941   4.168   0.143
 4810SOL     OW15328   1.563   4.814   2.344
 4810SOL    HW115329   1.644   4.873   2.349
 4810SOL    HW215330   1.482   4.870   2.326
 4811SOL     OW15331   2.532   3.915   1.634
 4811SOL    HW115332   2.446   3.868   1.614
 4811SOL    HW215333   2.609   3.861   1.599
 4812SOL     OW15334   6.722   5.314   3.282
 4812SOL    HW115335   6.750   5.295   3.188
 4812SOL    HW215336   6.799   5.357   3.331
 4813SOL     OW15337   5.246   2.694   1.381
 4813SOL    HW115338   5.270   2.679   1.476
 4813SOL    HW215339   5.329   2.708   1.327
 4814SOL     OW15340   6.754   3.638   0.828
 4814SOL    HW115341   6.844   3.678   0.845
 4814SOL    HW215342   6.683   3.707   0.847
 4815SOL     OW15343   5.493   4.278   2.811
 4815SOL    HW115344   5.409   4.237   2.847
 4815SOL    HW215345   5.572   4.239   2.859
 4816SOL     OW15346   2.216   4.886   0.645
 4816SOL    HW115347   2.157   4.832   0.585
 4816SOL    HW215348   2.214   4.982   0.615
 4817SOL     OW15349   0.481   2.062   6.088
 4817SOL    HW115350   0.562   2.077   6.031
 4817SOL    HW215351   0.407   2.025   6.031
 4818SOL     OW15352   1.393   6.270   3.972
 4818SOL    HW115353   1.403   6.242   3.877
 4818SOL    HW215354   1.301   6.247   4.004
 4819SOL     OW15355   1.698   1.790   0.513
 4819SOL    HW115356   1.647   1.813   0.431
 4819SOL    HW215357   1.796   1.794   0.493
 4820SOL     OW15358   6.045   2.143   2.232
 4820SOL    HW115359   6.077   2.221   2.285
 4820SOL    HW215360   5.994   2.081   2.292
 4821SOL     OW15361   1.160   6.589   2.451
 4821SOL    HW115362   1.197   6.618   2.363
 4821SOL    HW215363   1.070   6.630   2.465
 4822SOL     OW15364   2.022   2.526   4.959
 4822SOL    HW115365   2.115   2.487   4.962
 4822SOL    HW215366   1.967   2.486   5.032
 4823SOL     OW15367   1.607   0.931   4.573
 4823SOL    HW115368   1.557   0.857   4.529
 4823SOL    HW215369   1.596   1.015   4.520
 4824SOL     OW15370   4.912   2.336   4.673
 4824SOL    HW115371   4.926   2.260   4.737
 4824SOL    HW215372   4.820   2.332   4.636
 4825SOL     OW15373   1.835   3.272   4.966
 4825SOL    HW115374   1.774   3.253   4.889
 4825SOL    HW215375   1.878   3.187   4.997
 4826SOL     OW15376   5.519   1.470   6.943
 4826SOL    HW115377   5.424   1.497   6.953
 4826SOL    HW215378   5.537   1.389   6.999
 4827SOL     OW15379   6.124   1.620   0.908
 4827SOL    HW115380   6.063   1.662   0.841
 4827SOL    HW215381   6.145   1.526   0.880
 4828SOL     OW15382   5.185   2.701   1.047
 4828SOL    HW115383   5.197   2.762   0.969
 4828SOL    HW215384   5.202   2.752   1.132
 4829SOL     OW15385   3.776   6.184   5.844
 4829SOL    HW115386   3.842   6.251   5.879
 4829SOL    HW215387   3.739   6.216   5.757
 4830SOL     OW15388   4.133   6.655   4.471
 4830SOL    HW115389   4.107   6.628   4.378
 4830SOL    HW215390   4.212   6.601   4.500
 4831SOL     OW15391   0.927   4.362   6.314
 4831SOL    HW115392   0.907   4.275   6.360
 4831SOL    HW215393   0.931   4.348   6.215
 4832SOL     OW15394   3.804   3.096   3.952
 4832SOL    HW115395   3.897   3.094   3.987
 4832SOL    HW215396   3.751   3.023   3.994
 4833SOL     OW15397   4.633   2.262   2.850
 4833SOL    HW115398   4.627   2.312   2.763
 4833SOL    HW215399   4.608   2.166   2.835
 4834SOL     OW15400   3.437   6.528   0.586
 4834SOL    HW115401   3.384   6.612   0.602
 4834SOL    HW215402   3.389   6.450   0.626
 4835SOL     OW15403   5.590   1.806   0.134
 4835SOL    HW115404   5.653   1.861   0.079
 4835SOL    HW215405   5.559   1.727   0.082
 4836SOL     OW15406   4.953   2.597   5.018
 4836SOL    HW115407   5.017   2.609   5.095
 4836SOL    HW215408   5.004   2.578   4.935
 4837SOL     OW15409   6.935   3.736   3.116
 4837SOL    HW115410   6.854   3.767   3.166
 4837SOL    HW215411   6.916   3.647   3.074
 4838SOL     OW15412   1.175   5.389   0.380
 4838SOL    HW115413   1.172   5.482   0.417
 4838SOL    HW215414   1.081   5.358   0.362
 4839SOL     OW15415   1.763   3.388   0.230
 4839SOL    HW115416   1.678   3.342   0.258
 4839SOL    HW215417   1.742   3.480   0.197
 4840SOL     OW15418   6.291   4.490   6.826
 4840SOL    HW115419   6.333   4.574   6.857
 4840SOL    HW215420   6.325   4.413   6.880
 4841SOL     OW15421   2.351   5.270   2.126
 4841SOL    HW115422   2.365   5.257   2.224
 4841SOL    HW215423   2.435   5.248   2.077
 4842SOL     OW15424   3.418   5.446   1.908
 4842SOL    HW115425   3.423   5.419   1.812
 4842SOL    HW215426   3.507   5.483   1.937
 4843SOL     OW15427   6.808   3.383   1.762
 4843SOL    HW115428   6.819   3.302   1.820
 4843SOL    HW215429   6.898   3.420   1.738
 4844SOL     OW15430   0.761   3.466   6.705
 4844SOL    HW115431   0.716   3.540   6.756
 4844SOL    HW215432   0.798   3.502   6.620
 4845SOL     OW15433   5.088   5.615   6.721
 4845SOL    HW115434   5.123   5.584   6.632
 4845SOL    HW215435   5.048   5.537   6.770
 4846SOL     OW15436   6.283   2.655   3.753
 4846SOL    HW115437   6.356   2.670   3.688
 4846SOL    HW215438   6.206   2.716   3.732
 4847SOL     OW15439   2.415   0.142   6.691
 4847SOL    HW115440   2.449   0.048   6.687
 4847SOL    HW215441   2.315   0.140   6.681
 4848SOL     OW15442   1.241   1.325   4.410
 4848SOL    HW115443   1.253   1.262   4.488
 4848SOL    HW215444   1.311   1.396   4.415
 4849SOL     OW15445   0.661   6.176   6.558
 4849SOL    HW115446   0.703   6.243   6.619
 4849SOL    HW215447   0.610   6.109   6.612
 4850SOL     OW15448   4.106   0.961   1.781
 4850SOL    HW115449   4.205   0.968   1.794
 4850SOL    HW215450   4.085   0.958   1.684
 4851SOL     OW15451   3.562   6.724   5.875
 4851SOL    HW115452   3.539   6.804   5.820
 4851SOL    HW215453   3.487   6.658   5.871
 4852SOL     OW15454   2.152   5.822   4.999
 4852SOL    HW115455   2.148   5.746   5.064
 4852SOL    HW215456   2.127   5.789   4.908
 4853SOL     OW15457   3.380   1.110   3.225
 4853SOL    HW115458   3.475   1.099   3.254
 4853SOL    HW215459   3.325   1.034   3.260
 4854SOL     OW15460   4.655   6.194   1.389
 4854SOL    HW115461   4.588   6.248   1.439
 4854SOL    HW215462   4.618   6.103   1.372
 4855SOL     OW15463   6.011   2.452   4.000
 4855SOL    HW115464   5.958   2.447   4.085
 4855SOL    HW215465   5.950   2.474   3.924
 4856SOL     OW15466   1.416   3.402   3.524
 4856SOL    HW115467   1.402   3.485   3.471
 4856SOL    HW215468   1.371   3.325   3.480
 4857SOL     OW15469   3.329   2.102   3.971
 4857SOL    HW115470   3.261   2.153   4.024
 4857SOL    HW215471   3.407   2.080   4.030
 4858SOL     OW15472   0.286   0.530   4.929
 4858SOL    HW115473   0.212   0.531   4.862
 4858SOL    HW215474   0.280   0.445   4.983
 4859SOL     OW15475   0.999   5.961   3.207
 4859SOL    HW115476   1.070   6.023   3.172
 4859SOL    HW215477   1.016   5.941   3.303
 4860SOL     OW15478   4.455   4.527   0.916
 4860SOL    HW115479   4.356   4.520   0.927
 4860SOL    HW215480   4.476   4.540   0.819
 4861SOL     OW15481   5.658   5.246   7.002
 4861SOL    HW115482   5.578   5.221   0.035
 4861SOL    HW215483   5.632   5.318   6.938
 4862SOL     OW15484   2.083   4.343   5.122
 4862SOL    HW115485   2.177   4.332   5.152
 4862SOL    HW215486   2.032   4.259   5.141
 4863SOL     OW15487   5.148   3.855   1.530
 4863SOL    HW115488   5.140   3.919   1.607
 4863SOL    HW215489   5.107   3.767   1.556
 4864SOL     OW15490   3.512   1.857   2.127
 4864SOL    HW115491   3.551   1.928   2.185
 4864SOL    HW215492   3.543   1.870   2.033
 4865SOL     OW15493   2.381   0.019   4.691
 4865SOL    HW115494   2.437   0.097   4.719
 4865SOL    HW215495   2.433   6.958   4.706
 4866SOL     OW15496   6.555   4.420   0.961
 4866SOL    HW115497   6.469   4.415   0.909
 4866SOL    HW215498   6.615   4.488   0.919
 4867SOL     OW15499   4.842   5.509   2.463
 4867SOL    HW115500   4.830   5.512   2.562
 4867SOL    HW215501   4.777   5.571   2.419
 4868SOL     OW15502   0.290   4.903   2.285
 4868SOL    HW115503   0.293   4.848   2.369
 4868SOL    HW215504   0.367   4.878   2.227
 4869SOL     OW15505   0.232   1.885   1.960
 4869SOL    HW115506   0.186   1.956   2.013
 4869SOL    HW215507   0.200   1.795   1.990
 4870SOL     OW15508   0.090   6.044   1.261
 4870SOL    HW115509   0.063   6.028   1.356
 4870SOL    HW215510   0.136   6.133   1.254
 4871SOL     OW15511   0.622   1.792   4.649
 4871SOL    HW115512   0.698   1.791   4.584
 4871SOL    HW215513   0.536   1.776   4.600
 4872SOL     OW15514   6.801   5.832   4.290
 4872SOL    HW115515   6.834   5.926   4.295
 4872SOL    HW215516   6.862   5.778   4.232
 4873SOL     OW15517   6.733   4.791   3.775
 4873SOL    HW115518   6.657   4.852   3.753
 4873SOL    HW215519   6.820   4.839   3.763
 4874SOL     OW15520   5.906   3.394   3.297
 4874SOL    HW115521   5.925   3.435   3.208
 4874SOL    HW215522   5.893   3.467   3.365
 4875SOL     OW15523   5.678   3.349   1.879
 4875SOL    HW115524   5.710   3.405   1.803
 4875SOL    HW215525   5.680   3.253   1.853
 4876SOL     OW15526   5.718   1.171   4.157
 4876SOL    HW115527   5.683   1.088   4.200
 4876SOL    HW215528   5.656   1.247   4.178
 4877SOL     OW15529   0.267   1.889   0.507
 4877SOL    HW115530   0.218   1.901   0.594
 4877SOL    HW215531   0.338   1.819   0.519
 4878SOL     OW15532   5.981   0.763   3.205
 4878SOL    HW115533   5.978   0.801   3.297
 4878SOL    HW215534   5.988   0.837   3.138
 4879SOL     OW15535   4.409   5.830   3.416
 4879SOL    HW115536   4.341   5.767   3.453
 4879SOL    HW215537   4.459   5.873   3.492
 4880SOL     OW15538   6.049   2.925   6.621
 4880SOL    HW115539   5.997   2.874   6.690
 4880SOL    HW215540   5.995   3.004   6.591
 4881SOL     OW15541   1.790   6.988   0.025
 4881SOL    HW115542   1.728   6.933   6.992
 4881SOL    HW215543   1.869   6.933   0.050
 4882SOL     OW15544   5.422   1.169   4.259
 4882SOL    HW115545   5.443   1.097   4.325
 4882SOL    HW215546   5.357   1.234   4.300
 4883SOL     OW15547   4.651   5.067   2.585
 4883SOL    HW115548   4.598   5.116   2.655
 4883SOL    HW215549   4.745   5.102   2.585
 4884SOL     OW15550   3.823   0.285   0.861
 4884SOL    HW115551   3.846   0.335   0.778
 4884SOL    HW215552   3.793   0.193   0.837
 4885SOL     OW15553   1.926   6.085   2.146
 4885SOL    HW115554   1.941   6.163   2.085
 4885SOL    HW215555   2.013   6.058   2.187
 4886SOL     OW15556   6.956   6.308   0.586
 4886SOL    HW115557   0.008   6.373   0.599
 4886SOL    HW215558   6.941   6.295   0.488
 4887SOL     OW15559   0.247   0.469   3.349
 4887SOL    HW115560   0.346   0.472   3.336
 4887SOL    HW215561   0.202   0.456   3.261
 4888SOL     OW15562   2.109   6.768   4.629
 4888SOL    HW115563   2.202   6.733   4.643
 4888SOL    HW215564   2.110   6.836   4.556
 4889SOL     OW15565   6.171   0.802   6.973
 4889SOL    HW115566   6.156   0.705   6.955
 4889SOL    HW215567   6.240   0.812   0.022
 4890SOL     OW15568   0.588   1.498   5.822
 4890SOL    HW115569   0.508   1.503   5.882
 4890SOL    HW215570   0.653   1.432   5.860
 4891SOL     OW15571   1.830   5.618   0.708
 4891SOL    HW115572   1.746   5.618   0.654
 4891SOL    HW215573   1.832   5.537   0.766
 4892SOL     OW15574   2.831   5.944   1.270
 4892SOL    HW115575   2.877   5.909   1.352
 4892SOL    HW215576   2.896   5.947   1.194
 4893SOL     OW15577   0.195   4.166   1.413
 4893SOL    HW115578   0.155   4.251   1.378
 4893SOL    HW215579   0.150   4.141   1.499
 4894SOL     OW15580   2.486   2.028   2.411
 4894SOL    HW115581   2.579   2.051   2.440
 4894SOL    HW215582   2.426   2.107   2.428
 4895SOL     OW15583   0.822   5.596   2.746
 4895SOL    HW115584   0.833   5.664   2.818
 4895SOL    HW215585   0.842   5.505   2.782
 4896SOL     OW15586   2.255   5.093   1.912
 4896SOL    HW115587   2.300   5.169   1.959
 4896SOL    HW215588   2.174   5.066   1.964
 4897SOL     OW15589   2.099   4.682   5.714
 4897SOL    HW115590   2.151   4.611   5.762
 4897SOL    HW215591   2.031   4.639   5.655
 4898SOL     OW15592   4.178   1.480   4.130
 4898SOL    HW115593   4.182   1.512   4.225
 4898SOL    HW215594   4.086   1.496   4.093
 4899SOL     OW15595   6.065   5.194   3.151
 4899SOL    HW115596   6.028   5.105   3.122
 4899SOL    HW215597   6.139   5.179   3.216
 4900SOL     OW15598   2.278   5.553   5.074
 4900SOL    HW115599   2.246   5.496   5.150
 4900SOL    HW215600   2.355   5.508   5.030
 4901SOL     OW15601   3.333   6.679   5.387
 4901SOL    HW115602   3.265   6.727   5.332
 4901SOL    HW215603   3.424   6.714   5.366
 4902SOL     OW15604   2.375   2.782   4.688
 4902SOL    HW115605   2.312   2.704   4.686
 4902SOL    HW215606   2.424   2.782   4.775
 4903SOL     OW15607   3.023   6.088   6.988
 4903SOL    HW115608   2.956   6.064   0.034
 4903SOL    HW215609   3.046   6.185   6.996
 4904SOL     OW15610   1.430   0.544   4.158
 4904SOL    HW115611   1.490   0.550   4.238
 4904SOL    HW215612   1.476   0.495   4.085
 4905SOL     OW15613   4.252   1.165   1.995
 4905SOL    HW115614   4.169   1.133   2.042
 4905SOL    HW215615   4.226   1.212   1.911
 4906SOL     OW15616   4.321   1.663   6.669
 4906SOL    HW115617   4.239   1.650   6.614
 4906SOL    HW215618   4.295   1.704   6.757
 4907SOL     OW15619   4.739   5.881   1.136
 4907SOL    HW115620   4.808   5.920   1.074
 4907SOL    HW215621   4.649   5.917   1.112
 4908SOL     OW15622   5.007   4.815   6.339
 4908SOL    HW115623   5.066   4.741   6.307
 4908SOL    HW215624   4.994   4.807   6.438
 4909SOL     OW15625   0.045   0.158   4.862
 4909SOL    HW115626   0.145   0.156   4.873
 4909SOL    HW215627   0.007   0.071   4.895
 4910SOL     OW15628   5.261   6.361   4.339
 4910SOL    HW115629   5.224   6.429   4.401
 4910SOL    HW215630   5.235   6.269   4.371
 4911SOL     OW15631   0.284   3.206   5.099
 4911SOL    HW115632   0.300   3.108   5.098
 4911SOL    HW215633   0.305   3.242   5.190
 4912SOL     OW15634   5.485   2.727   1.268
 4912SOL    HW115635   5.536   2.798   1.317
 4912SOL    HW215636   5.547   2.677   1.208
 4913SOL     OW15637   3.554   3.611   3.910
 4913SOL    HW115638   3.548   3.558   3.825
 4913SOL    HW215639   3.571   3.550   3.987
 4914SOL     OW15640   3.407   6.985   4.967
 4914SOL    HW115641   3.464   6.904   4.958
 4914SOL    HW215642   3.371   7.011   4.877
 4915SOL     OW15643   4.384   0.604   4.289
 4915SOL    HW115644   4.298   0.649   4.263
 4915SOL    HW215645   4.400   0.617   4.387
 4916SOL     OW15646   2.290   1.566   4.127
 4916SOL    HW115647   2.351   1.645   4.125
 4916SOL    HW215648   2.228   1.573   4.205
 4917SOL     OW15649   1.828   4.906   0.414
 4917SOL    HW115650   1.812   4.993   0.368
 4917SOL    HW215651   1.745   4.880   0.465
 4918SOL     OW15652   3.256   6.692   2.238
 4918SOL    HW115653   3.327   6.741   2.288
 4918SOL    HW215654   3.274   6.698   2.140
 4919SOL     OW15655   2.140   2.098   6.891
 4919SOL    HW115656   2.125   2.000   6.901
 4919SOL    HW215657   2.193   2.115   6.808
 4920SOL     OW15658   4.843   0.789   5.758
 4920SOL    HW115659   4.833   0.721   5.685
 4920SOL    HW215660   4.839   0.881   5.720
 4921SOL     OW15661   2.204   4.231   0.516
 4921SOL    HW115662   2.129   4.209   0.454
 4921SOL    HW215663   2.270   4.155   0.518
 4922SOL     OW15664   1.677   3.256   4.708
 4922SOL    HW115665   1.704   3.278   4.615
 4922SOL    HW215666   1.597   3.310   4.734
 4923SOL     OW15667   3.683   1.452   0.504
 4923SOL    HW115668   3.642   1.513   0.571
 4923SOL    HW215669   3.622   1.444   0.425
 4924SOL     OW15670   1.935   2.429   5.861
 4924SOL    HW115671   1.954   2.385   5.949
 4924SOL    HW215672   2.007   2.494   5.839
 4925SOL     OW15673   5.683   0.033   1.959
 4925SOL    HW115674   5.717   0.120   1.994
 4925SOL    HW215675   5.623   0.050   1.881
 4926SOL     OW15676   5.517   2.485   0.025
 4926SOL    HW115677   5.495   2.406   6.991
 4926SOL    HW215678   5.485   2.468   0.118
 4927SOL     OW15679   3.669   3.721   4.357
 4927SOL    HW115680   3.662   3.806   4.410
 4927SOL    HW215681   3.765   3.705   4.332
 4928SOL     OW15682   6.970   0.461   6.506
 4928SOL    HW115683   6.901   0.492   6.572
 4928SOL    HW215684   6.925   0.436   6.421
 4929SOL     OW15685   1.439   4.652   5.044
 4929SOL    HW115686   1.350   4.649   5.090
 4929SOL    HW215687   1.509   4.681   5.110
 4930SOL     OW15688   4.824   1.047   2.058
 4930SOL    HW115689   4.893   1.118   2.048
 4930SOL    HW215690   4.808   1.004   1.969
 4931SOL     OW15691   6.309   0.070   1.476
 4931SOL    HW115692   6.360   0.022   1.547
 4931SOL    HW215693   6.269   0.153   1.514
 4932SOL     OW15694   2.183   2.845   1.776
 4932SOL    HW115695   2.273   2.801   1.779
 4932SOL    HW215696   2.183   2.924   1.837
 4933SOL     OW15697   2.105   0.264   3.662
 4933SOL    HW115698   2.108   0.205   3.582
 4933SOL    HW215699   2.122   0.209   3.745
 4934SOL     OW15700   1.614   4.715   3.202
 4934SOL    HW115701   1.558   4.794   3.179
 4934SOL    HW215702   1.691   4.709   3.139
 4935SOL     OW15703   1.398   1.421   6.439
 4935SOL    HW115704   1.374   1.475   6.521
 4935SOL    HW215705   1.480   1.368   6.457
 4936SOL     OW15706   1.894   4.870   1.301
 4936SOL    HW115707   1.873   4.952   1.353
 4936SOL    HW215708   1.910   4.895   1.205
 4937SOL     OW15709   6.812   3.119   6.043
 4937SOL    HW115710   6.770   3.154   6.126
 4937SOL    HW215711   6.758   3.042   6.008
 4938SOL     OW15712   2.238   5.641   6.686
 4938SOL    HW115713   2.251   5.597   6.774
 4938SOL    HW215714   2.306   5.607   6.621
 4939SOL     OW15715   0.596   1.752   3.873
 4939SOL    HW115716   0.604   1.718   3.967
 4939SOL    HW215717   0.586   1.675   3.810
 4940SOL     OW15718   0.449   1.488   5.575
 4940SOL    HW115719   0.491   1.471   5.664
 4940SOL    HW215720   0.446   1.402   5.523
 4941SOL     OW15721   4.534   2.581   5.103
 4941SOL    HW115722   4.600   2.599   5.029
 4941SOL    HW215723   4.535   2.658   5.167
 4942SOL     OW15724   5.143   2.933   5.744
 4942SOL    HW115725   5.136   3.021   5.697
 4942SOL    HW215726   5.085   2.933   5.825
 4943SOL     OW15727   5.141   4.086   6.021
 4943SOL    HW115728   5.150   4.125   6.112
 4943SOL    HW215729   5.232   4.072   5.981
 4944SOL     OW15730   2.533   4.179   1.702
 4944SOL    HW115731   2.616   4.235   1.704
 4944SOL    HW215732   2.557   4.083   1.688
 4945SOL     OW15733   1.415   6.612   4.478
 4945SOL    HW115734   1.413   6.640   4.574
 4945SOL    HW215735   1.491   6.659   4.431
 4946SOL     OW15736   0.870   5.261   6.841
 4946SOL    HW115737   0.944   5.326   6.855
 4946SOL    HW215738   0.882   5.214   6.753
 4947SOL     OW15739   2.200   0.223   0.700
 4947SOL    HW115740   2.211   0.267   0.611
 4947SOL    HW215741   2.123   0.265   0.749
 4948SOL     OW15742   2.122   2.697   3.218
 4948SOL    HW115743   2.074   2.744   3.144
 4948SOL    HW215744   2.113   2.598   3.206
 4949SOL     OW15745   6.519   4.977   5.437
 4949SOL    HW115746   6.422   4.969   5.461
 4949SOL    HW215747   6.574   4.930   5.505
 4950SOL     OW15748   2.113   4.907   4.633
 4950SOL    HW115749   2.161   4.858   4.705
 4950SOL    HW215750   2.014   4.892   4.642
 4951SOL     OW15751   6.080   1.353   4.226
 4951SOL    HW115752   6.062   1.378   4.321
 4951SOL    HW215753   5.999   1.309   4.187
 4952SOL     OW15754   6.833   0.149   6.556
 4952SOL    HW115755   6.821   0.241   6.593
 4952SOL    HW215756   6.856   0.086   6.631
 4953SOL     OW15757   1.785   6.932   3.348
 4953SOL    HW115758   1.689   6.920   3.375
 4953SOL    HW215759   1.810   6.861   3.283
 4954SOL     OW15760   2.842   3.338   0.001
 4954SOL    HW115761   2.838   3.332   6.925
 4954SOL    HW215762   2.791   3.418   0.032
 4955SOL     OW15763   3.501   6.407   0.102
 4955SOL    HW115764   3.430   6.432   0.167
 4955SOL    HW215765   3.585   6.456   0.124
 4956SOL     OW15766   2.493   0.029   5.772
 4956SOL    HW115767   2.514   0.113   5.721
 4956SOL    HW215768   2.409   7.012   5.737
 4957SOL     OW15769   5.912   2.248   2.025
 4957SOL    HW115770   5.934   2.345   2.026
 4957SOL    HW215771   5.960   2.202   2.098
 4958SOL     OW15772   0.906   5.231   5.494
 4958SOL    HW115773   0.851   5.181   5.562
 4958SOL    HW215774   0.996   5.188   5.487
 4959SOL     OW15775   6.103   2.162   1.020
 4959SOL    HW115776   6.188   2.212   1.033
 4959SOL    HW215777   6.090   2.098   1.096
 4960SOL     OW15778   3.709   4.926   3.763
 4960SOL    HW115779   3.797   4.915   3.717
 4960SOL    HW215780   3.639   4.873   3.715
 4961SOL     OW15781   4.070   0.915   5.421
 4961SOL    HW115782   4.161   0.945   5.392
 4961SOL    HW215783   4.016   0.994   5.451
 4962SOL     OW15784   5.690   2.773   0.243
 4962SOL    HW115785   5.740   2.847   0.288
 4962SOL    HW215786   5.739   2.687   0.256
 4963SOL     OW15787   0.466   6.705   0.442
 4963SOL    HW115788   0.406   6.649   0.385
 4963SOL    HW215789   0.528   6.647   0.494
 4964SOL     OW15790   2.886   6.835   4.570
 4964SOL    HW115791   2.936   6.785   4.641
 4964SOL    HW215792   2.938   6.830   4.484
 4965SOL     OW15793   0.596   0.595   1.946
 4965SOL    HW115794   0.576   0.507   1.902
 4965SOL    HW215795   0.525   0.617   2.013
 4966SOL     OW15796   2.862   6.642   5.279
 4966SOL    HW115797   2.813   6.615   5.196
 4966SOL    HW215798   2.797   6.678   5.346
 4967SOL     OW15799   3.989   4.838   5.382
 4967SOL    HW115800   3.962   4.835   5.478
 4967SOL    HW215801   3.957   4.923   5.340
 4968SOL     OW15802   0.571   1.247   3.330
 4968SOL    HW115803   0.505   1.248   3.405
 4968SOL    HW215804   0.530   1.202   3.251
 4969SOL     OW15805   1.961   5.396   2.925
 4969SOL    HW115806   1.958   5.381   3.024
 4969SOL    HW215807   2.056   5.398   2.894
 4970SOL     OW15808   2.505   2.277   2.092
 4970SOL    HW115809   2.486   2.180   2.111
 4970SOL    HW215810   2.578   2.309   2.152
 4971SOL     OW15811   5.685   5.512   3.152
 4971SOL    HW115812   5.640   5.540   3.237
 4971SOL    HW215813   5.771   5.465   3.174
 4972SOL     OW15814   0.908   3.422   1.032
 4972SOL    HW115815   0.823   3.466   1.063
 4972SOL    HW215816   0.972   3.493   1.001
 4973SOL     OW15817   1.016   6.950   1.954
 4973SOL    HW115818   1.053   6.863   1.919
 4973SOL    HW215819   1.090   7.001   1.998
 4974SOL     OW15820   0.028   4.451   1.427
 4974SOL    HW115821   7.014   4.470   1.336
 4974SOL    HW215822   6.977   4.423   1.488
 4975SOL     OW15823   5.910   4.299   5.941
 4975SOL    HW115824   5.938   4.321   6.034
 4975SOL    HW215825   5.833   4.358   5.914
 4976SOL     OW15826   2.366   2.029   4.165
 4976SOL    HW115827   2.384   1.963   4.238
 4976SOL    HW215828   2.396   1.991   4.077
 4977SOL     OW15829   4.354   4.148   0.038
 4977SOL    HW115830   4.375   4.241   0.067
 4977SOL    HW215831   4.424   4.086   0.072
 4978SOL     OW15832   6.637   4.475   5.063
 4978SOL    HW115833   6.582   4.556   5.043
 4978SOL    HW215834   6.625   4.408   4.989
 4979SOL     OW15835   6.578   6.847   6.095
 4979SOL    HW115836   6.629   6.931   6.075
 4979SOL    HW215837   6.481   6.868   6.107
 4980SOL     OW15838   5.085   6.109   3.155
 4980SOL    HW115839   5.027   6.100   3.073
 4980SOL    HW215840   5.181   6.100   3.128
 4981SOL     OW15841   4.093   4.897   0.920
 4981SOL    HW115842   4.048   4.946   0.846
 4981SOL    HW215843   4.030   4.889   0.998
 4982SOL     OW15844   2.951   0.875   5.384
 4982SOL    HW115845   3.041   0.910   5.360
 4982SOL    HW215846   2.926   0.801   5.322
 4983SOL     OW15847   5.974   3.901   5.732
 4983SOL    HW115848   6.019   3.986   5.703
 4983SOL    HW215849   5.951   3.846   5.652
 4984SOL     OW15850   5.284   4.535   2.848
 4984SOL    HW115851   5.211   4.476   2.812
 4984SOL    HW215852   5.369   4.516   2.800
 4985SOL     OW15853   5.283   0.483   3.514
 4985SOL    HW115854   5.379   0.505   3.529
 4985SOL    HW215855   5.275   0.390   3.478
 4986SOL     OW15856   0.041   4.692   1.498
 4986SOL    HW115857   0.035   4.596   1.470
 4986SOL    HW215858   0.135   4.714   1.525
 4987SOL     OW15859   1.009   0.151   2.548
 4987SOL    HW115860   1.007   0.251   2.544
 4987SOL    HW215861   0.918   0.118   2.574
 4988SOL     OW15862   5.608   0.782   2.218
 4988SOL    HW115863   5.538   0.828   2.163
 4988SOL    HW215864   5.577   0.689   2.238
 4989SOL     OW15865   5.445   6.670   2.125
 4989SOL    HW115866   5.363   6.708   2.082
 4989SOL    HW215867   5.424   6.579   2.161
 4990SOL     OW15868   2.579   2.382   5.476
 4990SOL    HW115869   2.543   2.441   5.548
 4990SOL    HW215870   2.615   2.437   5.401
 4991SOL     OW15871   6.418   5.714   3.644
 4991SOL    HW115872   6.397   5.761   3.558
 4991SOL    HW215873   6.352   5.743   3.714
 4992SOL     OW15874   4.985   1.107   2.348
 4992SOL    HW115875   4.888   1.096   2.326
 4992SOL    HW215876   5.012   1.203   2.335
 4993SOL     OW15877   3.335   5.887   4.602
 4993SOL    HW115878   3.335   5.800   4.554
 4993SOL    HW215879   3.412   5.890   4.667
 4994SOL     OW15880   2.001   0.481   3.996
 4994SOL    HW115881   1.911   0.507   4.032
 4994SOL    HW215882   1.989   0.413   3.923
 4995SOL     OW15883   0.476   2.529   5.416
 4995SOL    HW115884   0.424   2.445   5.431
 4995SOL    HW215885   0.452   2.567   5.327
 4996SOL     OW15886   0.388   0.886   2.854
 4996SOL    HW115887   0.314   0.822   2.873
 4996SOL    HW215888   0.378   0.922   2.761
 4997SOL     OW15889   4.959   2.467   2.584
 4997SOL    HW115890   4.932   2.372   2.597
 4997SOL    HW215891   5.017   2.496   2.660
 4998SOL     OW15892   2.239   4.292   4.876
 4998SOL    HW115893   2.140   4.304   4.863
 4998SOL    HW215894   2.255   4.207   4.927
 4999SOL     OW15895   6.526   4.152   0.026
 4999SOL    HW115896   6.607   4.189   0.072
 4999SOL    HW215897   6.516   4.196   6.959
 5000SOL     OW15898   3.520   6.523   3.322
 5000SOL    HW115899   3.568   6.566   3.245
 5000SOL    HW215900   3.581   6.520   3.401
 5001SOL     OW15901   0.391   4.366   1.706
 5001SOL    HW115902   0.429   4.282   1.743
 5001SOL    HW215903   0.316   4.397   1.765
 5002SOL     OW15904   0.214   3.106   2.049
 5002SOL    HW115905   0.256   3.022   2.014
 5002SOL    HW215906   0.260   3.185   2.010
 5003SOL     OW15907   2.907   5.514   2.617
 5003SOL    HW115908   2.921   5.584   2.687
 5003SOL    HW215909   2.882   5.428   2.661
 5004SOL     OW15910   2.443   4.825   5.777
 5004SOL    HW115911   2.345   4.842   5.777
 5004SOL    HW215912   2.482   4.860   5.863
 5005SOL     OW15913   3.189   2.957   0.992
 5005SOL    HW115914   3.093   2.933   0.980
 5005SOL    HW215915   3.204   3.052   0.962
 5006SOL     OW15916   5.101   0.468   0.878
 5006SOL    HW115917   5.142   0.495   0.791
 5006SOL    HW215918   5.001   0.477   0.873
 5007SOL     OW15919   0.828   6.817   0.311
 5007SOL    HW115920   0.870   6.885   0.251
 5007SOL    HW215921   0.872   6.820   0.401
 5008SOL     OW15922   5.593   6.646   1.860
 5008SOL    HW115923   5.562   6.658   1.955
 5008SOL    HW215924   5.673   6.587   1.859
 5009SOL     OW15925   0.691   0.492   1.027
 5009SOL    HW115926   0.702   0.394   1.013
 5009SOL    HW215927   0.744   0.542   0.958
 5010SOL     OW15928   3.963   3.032   2.291
 5010SOL    HW115929   3.952   3.090   2.371
 5010SOL    HW215930   4.054   2.990   2.292
 5011SOL     OW15931   1.636   4.082   2.491
 5011SOL    HW115932   1.651   4.068   2.589
 5011SOL    HW215933   1.716   4.125   2.451
 5012SOL     OW15934   6.005   4.546   6.501
 5012SOL    HW115935   5.933   4.477   6.508
 5012SOL    HW215936   6.083   4.508   6.451
 5013SOL     OW15937   4.961   1.093   0.284
 5013SOL    HW115938   4.956   1.093   0.184
 5013SOL    HW215939   4.870   1.072   0.322
 5014SOL     OW15940   6.708   4.633   0.896
 5014SOL    HW115941   6.750   4.670   0.814
 5014SOL    HW215942   6.707   4.702   0.968
 5015SOL     OW15943   4.700   1.872   4.383
 5015SOL    HW115944   4.645   1.831   4.310
 5015SOL    HW215945   4.670   1.966   4.398
 5016SOL     OW15946   1.531   2.942   0.279
 5016SOL    HW115947   1.512   2.885   0.199
 5016SOL    HW215948   1.534   2.884   0.361
 5017SOL     OW15949   1.755   2.883   0.940
 5017SOL    HW115950   1.745   2.813   1.012
 5017SOL    HW215951   1.756   2.974   0.982
 5018SOL     OW15952   0.645   3.975   2.001
 5018SOL    HW115953   0.682   4.033   2.072
 5018SOL    HW215954   0.695   3.888   1.999
 5019SOL     OW15955   1.285   4.955   6.121
 5019SOL    HW115956   1.373   4.996   6.096
 5019SOL    HW215957   1.235   5.019   6.180
 5020SOL     OW15958   5.400   0.444   6.513
 5020SOL    HW115959   5.307   0.413   6.531
 5020SOL    HW215960   5.440   0.479   6.598
 5021SOL     OW15961   0.918   1.510   0.116
 5021SOL    HW115962   0.915   1.410   0.103
 5021SOL    HW215963   0.902   1.555   0.028
 5022SOL     OW15964   1.123   1.236   0.267
 5022SOL    HW115965   1.164   1.152   0.304
 5022SOL    HW215966   1.116   1.304   0.339
 5023SOL     OW15967   6.806   2.863   1.341
 5023SOL    HW115968   6.857   2.918   1.274
 5023SOL    HW215969   6.870   2.823   1.406
 5024SOL     OW15970   6.259   5.381   1.562
 5024SOL    HW115971   6.237   5.326   1.481
 5024SOL    HW215972   6.286   5.320   1.637
 5025SOL     OW15973   3.196   1.824   2.122
 5025SOL    HW115974   3.176   1.871   2.035
 5025SOL    HW215975   3.114   1.775   2.152
 5026SOL     OW15976   6.295   6.045   5.508
 5026SOL    HW115977   6.225   6.042   5.436
 5026SOL    HW215978   6.296   6.135   5.550
 5027SOL     OW15979   6.759   6.686   1.784
 5027SOL    HW115980   6.804   6.609   1.830
 5027SOL    HW215981   6.779   6.770   1.833
 5028SOL     OW15982   0.160   2.088   2.618
 5028SOL    HW115983   0.190   2.176   2.580
 5028SOL    HW215984   0.068   2.098   2.656
 5029SOL     OW15985   6.636   2.500   1.887
 5029SOL    HW115986   6.720   2.450   1.909
 5029SOL    HW215987   6.565   2.434   1.860
 5030SOL     OW15988   0.229   6.763   0.670
 5030SOL    HW115989   0.191   6.815   0.746
 5030SOL    HW215990   0.322   6.734   0.692
 5031SOL     OW15991   5.743   0.072   5.478
 5031SOL    HW115992   5.681   0.146   5.504
 5031SOL    HW215993   5.836   0.095   5.506
 5032SOL     OW15994   1.885   2.195   0.598
 5032SOL    HW115995   1.945   2.180   0.677
 5032SOL    HW215996   1.803   2.244   0.628
 5033SOL     OW15997   1.791   0.258   5.628
 5033SOL    HW115998   1.836   0.318   5.562
 5033SOL    HW215999   1.861   0.213   5.684
 5034SOL     OW16000   5.934   0.708   3.731
 5034SOL    HW116001   5.870   0.688   3.657
 5034SOL    HW216002   5.902   0.663   3.815
 5035SOL     OW16003   1.178   4.059   0.330
 5035SOL    HW116004   1.136   4.138   0.375
 5035SOL    HW216005   1.107   4.003   0.288
 5036SOL     OW16006   0.652   4.652   6.730
 5036SOL    HW116007   0.633   4.709   6.650
 5036SOL    HW216008   0.738   4.603   6.716
 5037SOL     OW16009   4.898   4.212   2.416
 5037SOL    HW116010   4.900   4.138   2.483
 5037SOL    HW216011   4.982   4.265   2.422
 5038SOL     OW16012   3.023   4.110   5.964
 5038SOL    HW116013   2.975   4.129   5.878
 5038SOL    HW216014   3.031   4.194   6.017
 5039SOL     OW16015   3.061   4.421   5.612
 5039SOL    HW116016   3.055   4.386   5.519
 5039SOL    HW216017   3.157   4.427   5.639
 5040SOL     OW16018   1.789   5.632   5.840
 5040SOL    HW116019   1.702   5.627   5.790
 5040SOL    HW216020   1.861   5.587   5.787
 5041SOL     OW16021   1.899   1.357   2.666
 5041SOL    HW116022   1.935   1.443   2.702
 5041SOL    HW216023   1.844   1.375   2.584
 5042SOL     OW16024   6.900   2.817   0.160
 5042SOL    HW116025   6.939   2.806   0.252
 5042SOL    HW216026   6.882   2.913   0.143
 5043SOL     OW16027   3.591   0.447   5.941
 5043SOL    HW116028   3.531   0.443   5.861
 5043SOL    HW216029   3.566   0.375   6.005
 5044SOL     OW16030   0.631   6.370   0.101
 5044SOL    HW116031   0.718   6.346   0.058
 5044SOL    HW216032   0.556   6.328   0.049
 5045SOL     OW16033   5.195   0.619   6.781
 5045SOL    HW116034   5.146   0.558   6.718
 5045SOL    HW216035   5.290   0.588   6.790
 5046SOL     OW16036   3.349   3.985   2.909
 5046SOL    HW116037   3.422   4.051   2.892
 5046SOL    HW216038   3.302   3.963   2.824
 5047SOL     OW16039   0.572   4.068   2.350
 5047SOL    HW116040   0.659   4.118   2.348
 5047SOL    HW216041   0.525   4.078   2.262
 5048SOL     OW16042   0.493   1.280   2.103
 5048SOL    HW116043   0.449   1.319   2.022
 5048SOL    HW216044   0.452   1.319   2.185
 5049SOL     OW16045   5.817   2.291   6.000
 5049SOL    HW116046   5.776   2.258   5.915
 5049SOL    HW216047   5.911   2.322   5.982
 5050SOL     OW16048   1.419   1.340   1.258
 5050SOL    HW116049   1.459   1.325   1.348
 5050SOL    HW216050   1.364   1.260   1.232
 5051SOL     OW16051   4.995   5.007   0.991
 5051SOL    HW116052   5.039   5.087   1.031
 5051SOL    HW216053   4.897   5.009   1.013
 5052SOL     OW16054   2.618   0.681   6.486
 5052SOL    HW116055   2.591   0.765   6.533
 5052SOL    HW216056   2.548   0.657   6.419
 5053SOL     OW16057   2.409   4.376   3.022
 5053SOL    HW116058   2.388   4.301   3.083
 5053SOL    HW216059   2.383   4.351   2.928
 5054SOL     OW16060   3.603   5.396   5.376
 5054SOL    HW116061   3.596   5.494   5.394
 5054SOL    HW216062   3.555   5.375   5.290
 5055SOL     OW16063   1.498   1.790   5.544
 5055SOL    HW116064   1.578   1.850   5.545
 5055SOL    HW216065   1.506   1.726   5.468
 5056SOL     OW16066   6.495   4.241   6.808
 5056SOL    HW116067   6.474   4.150   6.772
 5056SOL    HW216068   6.581   4.273   6.770
 5057SOL     OW16069   0.264   6.141   4.091
 5057SOL    HW116070   0.226   6.232   4.109
 5057SOL    HW216071   0.211   6.072   4.141
 5058SOL     OW16072   2.950   3.223   5.573
 5058SOL    HW116073   2.973   3.222   5.476
 5058SOL    HW216074   2.928   3.316   5.601
 5059SOL     OW16075   6.027   1.804   3.901
 5059SOL    HW116076   6.075   1.724   3.937
 5059SOL    HW216077   6.092   1.877   3.883
 5060SOL     OW16078   0.614   1.751   5.705
 5060SOL    HW116079   0.529   1.774   5.656
 5060SOL    HW216080   0.612   1.654   5.731
 5061SOL     OW16081   4.208   3.165   1.857
 5061SOL    HW116082   4.188   3.198   1.949
 5061SOL    HW216083   4.159   3.079   1.840
 5062SOL     OW16084   5.018   0.991   2.956
 5062SOL    HW116085   5.020   1.080   2.911
 5062SOL    HW216086   5.066   0.924   2.900
 5063SOL     OW16087   1.216   6.900   2.478
 5063SOL    HW116088   1.190   6.894   2.574
 5063SOL    HW216089   1.134   6.913   2.422
 5064SOL     OW16090   5.270   4.056   1.835
 5064SOL    HW116091   5.308   3.975   1.880
 5064SOL    HW216092   5.345   4.115   1.806
 5065SOL     OW16093   1.864   1.425   3.781
 5065SOL    HW116094   1.962   1.417   3.761
 5065SOL    HW216095   1.811   1.417   3.697
 5066SOL     OW16096   4.516   4.763   1.840
 5066SOL    HW116097   4.480   4.678   1.878
 5066SOL    HW216098   4.488   4.771   1.744
 5067SOL     OW16099   4.839   0.958   1.768
 5067SOL    HW116100   4.891   0.966   1.683
 5067SOL    HW216101   4.741   0.968   1.748
 5068SOL     OW16102   2.743   4.730   6.828
 5068SOL    HW116103   2.737   4.732   6.728
 5068SOL    HW216104   2.799   4.806   6.859
 5069SOL     OW16105   2.561   3.200   5.641
 5069SOL    HW116106   2.521   3.279   5.689
 5069SOL    HW216107   2.529   3.200   5.546
 5070SOL     OW16108   4.485   4.861   3.569
 5070SOL    HW116109   4.460   4.858   3.472
 5070SOL    HW216110   4.553   4.932   3.584
 5071SOL     OW16111   3.963   2.071   2.964
 5071SOL    HW116112   3.892   2.116   3.018
 5071SOL    HW216113   3.954   2.098   2.868
 5072SOL     OW16114   1.304   0.071   1.663
 5072SOL    HW116115   1.257   0.105   1.745
 5072SOL    HW216116   1.366   0.141   1.628
 5073SOL     OW16117   0.312   5.813   1.335
 5073SOL    HW116118   0.387   5.782   1.277
 5073SOL    HW216119   0.225   5.789   1.292
 5074SOL     OW16120   3.488   2.948   1.351
 5074SOL    HW116121   3.580   2.986   1.346
 5074SOL    HW216122   3.482   2.886   1.430
 5075SOL     OW16123   1.255   2.011   6.559
 5075SOL    HW116124   1.157   2.010   6.540
 5075SOL    HW216125   1.304   1.965   6.485
 5076SOL     OW16126   4.535   0.453   0.472
 5076SOL    HW116127   4.580   0.524   0.526
 5076SOL    HW216128   4.523   0.486   0.378
 5077SOL     OW16129   1.950   4.455   5.585
 5077SOL    HW116130   2.045   4.467   5.558
 5077SOL    HW216131   1.896   4.424   5.507
 5078SOL     OW16132   0.687   1.048   3.786
 5078SOL    HW116133   0.753   1.059   3.861
 5078SOL    HW216134   0.695   0.955   3.749
 5079SOL     OW16135   2.025   3.190   5.549
 5079SOL    HW116136   2.002   3.108   5.602
 5079SOL    HW216137   2.080   3.165   5.470
 5080SOL     OW16138   5.744   6.894   6.387
 5080SOL    HW116139   5.840   6.870   6.403
 5080SOL    HW216140   5.705   6.935   6.470
 5081SOL     OW16141   3.036   3.104   4.562
 5081SOL    HW116142   2.963   3.122   4.497
 5081SOL    HW216143   3.003   3.123   4.655
 5082SOL     OW16144   4.771   5.434   0.474
 5082SOL    HW116145   4.783   5.526   0.512
 5082SOL    HW216146   4.834   5.421   0.398
 5083SOL     OW16147   2.410   6.120   2.247
 5083SOL    HW116148   2.430   6.207   2.293
 5083SOL    HW216149   2.495   6.070   2.231
 5084SOL     OW16150   0.363   4.370   3.909
 5084SOL    HW116151   0.310   4.320   3.842
 5084SOL    HW216152   0.316   4.455   3.934
 5085SOL     OW16153   5.515   2.971   6.751
 5085SOL    HW116154   5.575   2.891   6.757
 5085SOL    HW216155   5.450   2.969   6.828
 5086SOL     OW16156   1.144   5.686   3.001
 5086SOL    HW116157   1.095   5.626   2.938
 5086SOL    HW216158   1.218   5.732   2.953
 5087SOL     OW16159   1.940   5.152   2.500
 5087SOL    HW116160   1.990   5.235   2.474
 5087SOL    HW216161   1.988   5.106   2.575
 5088SOL     OW16162   6.023   1.166   4.737
 5088SOL    HW116163   6.053   1.092   4.676
 5088SOL    HW216164   6.004   1.248   4.683
 5089SOL     OW16165   5.074   4.437   4.224
 5089SOL    HW116166   5.146   4.371   4.247
 5089SOL    HW216167   5.002   4.391   4.173
 5090SOL     OW16168   2.242   4.074   2.689
 5090SOL    HW116169   2.215   4.018   2.610
 5090SOL    HW216170   2.218   4.026   2.773
 5091SOL     OW16171   0.624   0.780   2.261
 5091SOL    HW116172   0.655   0.840   2.335
 5091SOL    HW216173   0.557   0.715   2.296
 5092SOL     OW16174   3.169   3.602   1.791
 5092SOL    HW116175   3.137   3.518   1.835
 5092SOL    HW216176   3.267   3.614   1.808
 5093SOL     OW16177   2.741   1.276   1.287
 5093SOL    HW116178   2.654   1.323   1.304
 5093SOL    HW216179   2.743   1.242   1.193
 5094SOL     OW16180   2.381   5.456   6.222
 5094SOL    HW116181   2.409   5.421   6.133
 5094SOL    HW216182   2.460   5.498   6.268
 5095SOL     OW16183   5.834   2.450   4.203
 5095SOL    HW116184   5.870   2.454   4.296
 5095SOL    HW216185   5.747   2.401   4.204
 5096SOL     OW16186   3.787   4.644   0.592
 5096SOL    HW116187   3.874   4.673   0.552
 5096SOL    HW216188   3.800   4.626   0.690
 5097SOL     OW16189   1.538   0.783   6.439
 5097SOL    HW116190   1.442   0.757   6.430
 5097SOL    HW216191   1.572   0.754   6.528
 5098SOL     OW16192   2.101   0.321   1.943
 5098SOL    HW116193   2.118   0.387   1.870
 5098SOL    HW216194   2.181   0.262   1.954
 5099SOL     OW16195   0.653   6.464   6.413
 5099SOL    HW116196   0.695   6.483   6.502
 5099SOL    HW216197   0.578   6.398   6.425
 5100SOL     OW16198   3.630   5.094   5.162
 5100SOL    HW116199   3.701   5.112   5.229
 5100SOL    HW216200   3.616   5.175   5.105
 5101SOL     OW16201   5.312   6.658   0.008
 5101SOL    HW116202   5.240   6.696   0.066
 5101SOL    HW216203   5.309   6.702   6.941
 5102SOL     OW16204   5.154   0.065   4.385
 5102SOL    HW116205   5.230   0.010   4.352
 5102SOL    HW216206   5.086   0.075   4.313
 5103SOL     OW16207   6.930   1.506   4.215
 5103SOL    HW116208   6.842   1.497   4.262
 5103SOL    HW216209   6.998   1.446   4.258
 5104SOL     OW16210   1.926   6.762   2.891
 5104SOL    HW116211   2.013   6.725   2.926
 5104SOL    HW216212   1.851   6.730   2.948
 5105SOL     OW16213   3.547   2.767   0.485
 5105SOL    HW116214   3.566   2.672   0.507
 5105SOL    HW216215   3.551   2.780   0.386
 5106SOL     OW16216   4.103   1.281   0.371
 5106SOL    HW116217   4.127   1.200   0.426
 5106SOL    HW216218   4.074   1.355   0.432
 5107SOL     OW16219   3.029   0.767   0.322
 5107SOL    HW116220   2.965   0.701   0.284
 5107SOL    HW216221   3.094   0.720   0.382
 5108SOL     OW16222   2.994   3.142   4.857
 5108SOL    HW116223   2.988   3.193   4.943
 5108SOL    HW216224   2.992   3.044   4.876
 5109SOL     OW16225   1.100   0.411   0.497
 5109SOL    HW116226   1.176   0.361   0.538
 5109SOL    HW216227   1.067   0.480   0.562
 5110SOL     OW16228   0.085   0.167   6.366
 5110SOL    HW116229   7.013   0.170   6.337
 5110SOL    HW216230   0.114   0.071   6.374
 5111SOL     OW16231   1.894   0.892   5.234
 5111SOL    HW116232   1.982   0.920   5.196
 5111SOL    HW216233   1.827   0.965   5.220
 5112SOL     OW16234   1.330   0.249   2.942
 5112SOL    HW116235   1.309   0.321   2.876
 5112SOL    HW216236   1.355   0.291   3.030
 5113SOL     OW16237   2.293   6.851   0.982
 5113SOL    HW116238   2.251   6.862   0.892
 5113SOL    HW216239   2.243   6.782   1.033
 5114SOL     OW16240   2.821   1.086   0.396
 5114SOL    HW116241   2.892   1.132   0.449
 5114SOL    HW216242   2.859   1.051   0.311
 5115SOL     OW16243   2.322   5.032   4.489
 5115SOL    HW116244   2.234   4.994   4.517
 5115SOL    HW216245   2.393   5.001   4.552
 5116SOL     OW16246   6.435   0.189   6.338
 5116SOL    HW116247   6.367   0.257   6.312
 5116SOL    HW216248   6.482   0.155   6.256
 5117SOL     OW16249   2.662   4.632   4.607
 5117SOL    HW116250   2.668   4.552   4.666
 5117SOL    HW216251   2.651   4.603   4.512
 5118SOL     OW16252   4.883   0.481   0.093
 5118SOL    HW116253   4.946   0.547   0.053
 5118SOL    HW216254   4.864   0.505   0.188
 5119SOL     OW16255   5.252   0.844   1.786
 5119SOL    HW116256   5.265   0.909   1.860
 5119SOL    HW216257   5.203   0.889   1.711
 5120SOL     OW16258   4.141   1.112   3.876
 5120SOL    HW116259   4.193   1.068   3.803
 5120SOL    HW216260   4.199   1.124   3.957
 5121SOL     OW16261   2.941   2.080   6.915
 5121SOL    HW116262   2.993   2.114   6.994
 5121SOL    HW216263   3.004   2.042   6.848
 5122SOL     OW16264   3.105   6.761   2.494
 5122SOL    HW116265   3.194   6.764   2.450
 5122SOL    HW216266   3.110   6.803   2.584
 5123SOL     OW16267   4.523   1.907   5.100
 5123SOL    HW116268   4.437   1.936   5.141
 5123SOL    HW216269   4.558   1.981   5.042
 5124SOL     OW16270   3.304   5.227   5.287
 5124SOL    HW116271   3.273   5.148   5.234
 5124SOL    HW216272   3.230   5.259   5.345
 5125SOL     OW16273   6.253   3.096   4.259
 5125SOL    HW116274   6.187   3.056   4.322
 5125SOL    HW216275   6.252   3.047   4.172
 5126SOL     OW16276   6.560   5.260   5.344
 5126SOL    HW116277   6.585   5.318   5.267
 5126SOL    HW216278   6.511   5.180   5.310
 5127SOL     OW16279   0.752   3.702   0.052
 5127SOL    HW116280   0.750   3.603   0.039
 5127SOL    HW216281   0.710   3.725   0.140
 5128SOL     OW16282   6.654   0.634   6.392
 5128SOL    HW116283   6.628   0.608   6.485
 5128SOL    HW216284   6.604   0.716   6.365
 5129SOL     OW16285   5.149   0.694   2.898
 5129SOL    HW116286   5.152   0.680   2.799
 5129SOL    HW216287   5.057   0.676   2.932
 5130SOL     OW16288   1.840   5.356   3.804
 5130SOL    HW116289   1.749   5.327   3.773
 5130SOL    HW216290   1.891   5.277   3.837
 5131SOL     OW16291   2.609   5.581   3.750
 5131SOL    HW116292   2.672   5.506   3.730
 5131SOL    HW216293   2.554   5.559   3.831
 5132SOL     OW16294   3.089   2.141   5.897
 5132SOL    HW116295   3.045   2.106   5.814
 5132SOL    HW216296   3.124   2.065   5.951
 5133SOL     OW16297   1.641   5.520   6.937
 5133SOL    HW116298   1.696   5.443   6.903
 5133SOL    HW216299   1.549   5.513   6.899
 5134SOL     OW16300   6.508   1.070   2.041
 5134SOL    HW116301   6.587   1.131   2.037
 5134SOL    HW216302   6.498   1.034   2.134
 5135SOL     OW16303   5.142   3.550   4.523
 5135SOL    HW116304   5.043   3.547   4.510
 5135SOL    HW216305   5.163   3.596   4.609
 5136SOL     OW16306   5.444   0.500   6.814
 5136SOL    HW116307   5.474   0.460   6.901
 5136SOL    HW216308   5.508   0.571   6.786
 5137SOL     OW16309   4.499   3.610   5.724
 5137SOL    HW116310   4.537   3.593   5.634
 5137SOL    HW216311   4.523   3.703   5.753
 5138SOL     OW16312   3.605   2.878   4.734
 5138SOL    HW116313   3.529   2.937   4.760
 5138SOL    HW216314   3.601   2.793   4.786
 5139SOL     OW16315   0.850   0.256   3.914
 5139SOL    HW116316   0.897   0.168   3.909
 5139SOL    HW216317   0.799   0.261   4.000
 5140SOL     OW16318   3.960   2.210   5.361
 5140SOL    HW116319   3.932   2.117   5.334
 5140SOL    HW216320   3.883   2.273   5.348
 5141SOL     OW16321   6.568   3.829   0.704
 5141SOL    HW116322   6.588   3.911   0.757
 5141SOL    HW216323   6.480   3.791   0.731
 5142SOL     OW16324   5.375   6.201   3.581
 5142SOL    HW116325   5.423   6.288   3.579
 5142SOL    HW216326   5.439   6.127   3.559
 5143SOL     OW16327   6.871   4.496   4.206
 5143SOL    HW116328   6.858   4.577   4.262
 5143SOL    HW216329   6.807   4.499   4.129
 5144SOL     OW16330   1.395   4.853   5.374
 5144SOL    HW116331   1.484   4.807   5.377
 5144SOL    HW216332   1.401   4.940   5.421
 5145SOL     OW16333   3.693   5.906   6.433
 5145SOL    HW116334   3.734   5.861   6.354
 5145SOL    HW216335   3.721   5.859   6.517
 5146SOL     OW16336   3.335   3.408   4.987
 5146SOL    HW116337   3.415   3.459   4.954
 5146SOL    HW216338   3.363   3.345   5.058
 5147SOL     OW16339   6.544   5.674   3.370
 5147SOL    HW116340   6.559   5.592   3.426
 5147SOL    HW216341   6.595   5.750   3.408
 5148SOL     OW16342   0.293   1.180   1.753
 5148SOL    HW116343   0.355   1.140   1.686
 5148SOL    HW216344   0.244   1.256   1.711
 5149SOL     OW16345   6.497   5.455   3.764
 5149SOL    HW116346   6.550   5.499   3.691
 5149SOL    HW216347   6.452   5.525   3.820
 5150SOL     OW16348   2.504   5.474   3.296
 5150SOL    HW116349   2.493   5.560   3.246
 5150SOL    HW216350   2.444   5.474   3.376
 5151SOL     OW16351   0.028   4.045   2.444
 5151SOL    HW116352   0.126   4.044   2.422
 5151SOL    HW216353   7.021   3.951   2.463
 5152SOL     OW16354   1.422   5.473   0.330
 5152SOL    HW116355   1.456   5.424   0.249
 5152SOL    HW216356   1.329   5.444   0.351
 5153SOL     OW16357   0.828   2.233   0.195
 5153SOL    HW116358   0.729   2.233   0.183
 5153SOL    HW216359   0.853   2.164   0.263
 5154SOL     OW16360   0.782   2.820   6.387
 5154SOL    HW116361   0.879   2.825   6.363
 5154SOL    HW216362   0.756   2.901   6.439
 5155SOL     OW16363   4.012   6.455   2.270
 5155SOL    HW116364   4.088   6.439   2.333
 5155SOL    HW216365   3.993   6.553   2.265
 5156SOL     OW16366   5.606   4.955   6.025
 5156SOL    HW116367   5.538   4.949   6.099
 5156SOL    HW216368   5.591   5.039   5.973
 5157SOL     OW16369   3.140   1.677   3.398
 5157SOL    HW116370   3.053   1.689   3.350
 5157SOL    HW216371   3.208   1.739   3.360
 5158SOL     OW16372   3.767   1.906   1.016
 5158SOL    HW116373   3.776   1.988   1.071
 5158SOL    HW216374   3.682   1.858   1.040
 5159SOL     OW16375   5.644   3.622   5.996
 5159SOL    HW116376   5.681   3.556   5.931
 5159SOL    HW216377   5.547   3.603   6.012
 5160SOL     OW16378   0.457   5.163   3.107
 5160SOL    HW116379   0.459   5.124   3.199
 5160SOL    HW216380   0.369   5.142   3.063
 5161SOL     OW16381   1.606   3.586   0.124
 5161SOL    HW116382   1.643   3.678   0.130
 5161SOL    HW216383   1.508   3.588   0.141
 5162SOL     OW16384   1.227   5.895   2.813
 5162SOL    HW116385   1.178   5.874   2.728
 5162SOL    HW216386   1.203   5.987   2.844
 5163SOL     OW16387   2.842   6.779   0.766
 5163SOL    HW116388   2.770   6.712   0.784
 5163SOL    HW216389   2.887   6.804   0.851
 5164SOL     OW16390   3.733   2.246   0.107
 5164SOL    HW116391   3.718   2.320   0.172
 5164SOL    HW216392   3.772   2.167   0.154
 5165SOL     OW16393   0.507   3.938   5.939
 5165SOL    HW116394   0.516   3.839   5.941
 5165SOL    HW216395   0.480   3.967   5.847
 5166SOL     OW16396   1.502   5.826   2.554
 5166SOL    HW116397   1.579   5.764   2.572
 5166SOL    HW216398   1.469   5.812   2.461
 5167SOL     OW16399   6.574   5.060   5.789
 5167SOL    HW116400   6.511   5.124   5.746
 5167SOL    HW216401   6.663   5.065   5.743
 5168SOL     OW16402   5.339   3.517   1.705
 5168SOL    HW116403   5.288   3.534   1.789
 5168SOL    HW216404   5.277   3.478   1.637
 5169SOL     OW16405   4.090   1.907   4.057
 5169SOL    HW116406   4.130   1.864   4.139
 5169SOL    HW216407   4.133   1.996   4.042
 5170SOL     OW16408   1.234   3.807   4.809
 5170SOL    HW116409   1.334   3.806   4.806
 5170SOL    HW216410   1.203   3.892   4.851
 5171SOL     OW16411   0.690   3.977   5.622
 5171SOL    HW116412   0.762   4.046   5.636
 5171SOL    HW216413   0.694   3.945   5.527
 5172SOL     OW16414   1.532   3.403   2.358
 5172SOL    HW116415   1.503   3.335   2.426
 5172SOL    HW216416   1.529   3.363   2.267
 5173SOL     OW16417   5.087   5.347   4.696
 5173SOL    HW116418   5.078   5.303   4.606
 5173SOL    HW216419   5.108   5.278   4.765
 5174SOL     OW16420   2.363   4.790   3.639
 5174SOL    HW116421   2.297   4.794   3.714
 5174SOL    HW216422   2.318   4.811   3.553
 5175SOL     OW16423   3.094   4.062   6.555
 5175SOL    HW116424   3.021   4.107   6.607
 5175SOL    HW216425   3.160   4.130   6.524
 5176SOL     OW16426   5.777   3.403   6.868
 5176SOL    HW116427   5.831   3.327   6.905
 5176SOL    HW216428   5.702   3.366   6.813
 5177SOL     OW16429   5.648   6.783   0.855
 5177SOL    HW116430   5.627   6.850   0.926
 5177SOL    HW216431   5.649   6.691   0.895
 5178SOL     OW16432   0.578   3.522   3.038
 5178SOL    HW116433   0.484   3.542   3.065
 5178SOL    HW216434   0.600   3.573   2.954
 5179SOL     OW16435   4.828   4.680   4.299
 5179SOL    HW116436   4.927   4.668   4.289
 5179SOL    HW216437   4.786   4.692   4.209
 5180SOL     OW16438   2.597   1.480   0.947
 5180SOL    HW116439   2.542   1.517   0.872
 5180SOL    HW216440   2.675   1.540   0.964
 5181SOL     OW16441   5.222   0.963   2.409
 5181SOL    HW116442   5.147   1.006   2.360
 5181SOL    HW216443   5.243   0.874   2.368
 5182SOL     OW16444   4.136   4.759   1.813
 5182SOL    HW116445   4.140   4.697   1.736
 5182SOL    HW216446   4.044   4.760   1.852
 5183SOL     OW16447   3.645   1.990   2.580
 5183SOL    HW116448   3.718   2.025   2.638
 5183SOL    HW216449   3.661   1.893   2.561
 5184SOL     OW16450   0.516   2.198   3.689
 5184SOL    HW116451   0.531   2.295   3.708
 5184SOL    HW216452   0.582   2.143   3.740
 5185SOL     OW16453   5.489   0.803   2.654
 5185SOL    HW116454   5.420   0.875   2.654
 5185SOL    HW216455   5.533   0.798   2.743
 5186SOL     OW16456   6.166   1.971   0.282
 5186SOL    HW116457   6.174   2.028   0.201
 5186SOL    HW216458   6.112   1.889   0.260
 5187SOL     OW16459   1.372   5.925   4.460
 5187SOL    HW116460   1.424   5.935   4.546
 5187SOL    HW216461   1.356   5.828   4.443
 5188SOL     OW16462   6.914   6.061   1.549
 5188SOL    HW116463   6.872   5.980   1.509
 5188SOL    HW216464   7.007   6.039   1.577
 5189SOL     OW16465   4.251   5.073   0.772
 5189SOL    HW116466   4.325   5.022   0.729
 5189SOL    HW216467   4.208   5.016   0.843
 5190SOL     OW16468   0.368   2.701   4.463
 5190SOL    HW116469   0.335   2.664   4.550
 5190SOL    HW216470   0.461   2.735   4.474
 5191SOL     OW16471   3.878   6.918   2.036
 5191SOL    HW116472   3.821   6.847   2.077
 5191SOL    HW216473   3.831   6.958   1.958
 5192SOL     OW16474   1.804   5.387   1.223
 5192SOL    HW116475   1.903   5.372   1.225
 5192SOL    HW216476   1.784   5.481   1.252
 5193SOL     OW16477   5.530   5.581   5.137
 5193SOL    HW116478   5.470   5.573   5.058
 5193SOL    HW216479   5.493   5.527   5.213
 5194SOL     OW16480   4.023   2.043   0.309
 5194SOL    HW116481   4.038   1.982   0.231
 5194SOL    HW216482   4.091   2.116   0.309
 5195SOL     OW16483   6.879   0.195   3.947
 5195SOL    HW116484   6.880   0.197   3.847
 5195SOL    HW216485   6.844   0.107   3.978
 5196SOL     OW16486   4.069   6.455   1.565
 5196SOL    HW116487   4.047   6.509   1.647
 5196SOL    HW216488   4.031   6.362   1.576
 5197SOL     OW16489   2.433   4.018   5.925
 5197SOL    HW116490   2.519   4.018   5.874
 5197SOL    HW216491   2.441   4.082   6.002
 5198SOL     OW16492   4.800   5.901   3.078
 5198SOL    HW116493   4.716   5.849   3.097
 5198SOL    HW216494   4.863   5.891   3.155
 5199SOL     OW16495   1.282   6.234   0.449
 5199SOL    HW116496   1.211   6.210   0.516
 5199SOL    HW216497   1.292   6.333   0.446
 5200SOL     OW16498   0.315   3.973   5.450
 5200SOL    HW116499   0.309   3.926   5.362
 5200SOL    HW216500   0.377   4.052   5.442
 5201SOL     OW16501   0.097   0.275   3.094
 5201SOL    HW116502   0.067   0.182   3.074
 5201SOL    HW216503   0.073   0.298   3.189
 5202SOL     OW16504   5.651   2.900   6.171
 5202SOL    HW116505   5.749   2.913   6.155
 5202SOL    HW216506   5.604   2.987   6.161
 5203SOL     OW16507   2.258   2.526   6.721
 5203SOL    HW116508   2.220   2.558   6.808
 5203SOL    HW216509   2.227   2.432   6.705
 5204SOL     OW16510   3.793   5.159   6.433
 5204SOL    HW116511   3.708   5.188   6.479
 5204SOL    HW216512   3.862   5.138   6.502
 5205SOL     OW16513   0.702   6.052   0.529
 5205SOL    HW116514   0.609   6.016   0.520
 5205SOL    HW216515   0.705   6.145   0.491
 5206SOL     OW16516   0.605   4.211   5.925
 5206SOL    HW116517   0.595   4.111   5.930
 5206SOL    HW216518   0.533   4.254   5.979
 5207SOL     OW16519   1.375   5.663   3.718
 5207SOL    HW116520   1.308   5.619   3.659
 5207SOL    HW216521   1.331   5.691   3.803
 5208SOL     OW16522   4.158   2.559   6.162
 5208SOL    HW116523   4.070   2.536   6.204
 5208SOL    HW216524   4.217   2.479   6.162
 5209SOL     OW16525   5.592   5.643   3.378
 5209SOL    HW116526   5.675   5.669   3.426
 5209SOL    HW216527   5.522   5.615   3.444
 5210SOL     OW16528   4.359   2.687   6.012
 5210SOL    HW116529   4.341   2.747   5.934
 5210SOL    HW216530   4.275   2.673   6.064
 5211SOL     OW16531   3.160   3.028   5.281
 5211SOL    HW116532   3.245   3.080   5.275
 5211SOL    HW216533   3.090   3.072   5.225
 5212SOL     OW16534   6.971   2.337   0.980
 5212SOL    HW116535   6.956   2.362   0.884
 5212SOL    HW216536   0.010   2.258   0.985
 5213SOL     OW16537   4.689   3.671   6.848
 5213SOL    HW116538   4.677   3.696   6.752
 5213SOL    HW216539   4.784   3.643   6.863
 5214SOL     OW16540   4.698   1.990   5.673
 5214SOL    HW116541   4.773   1.967   5.735
 5214SOL    HW216542   4.611   1.982   5.722
 5215SOL     OW16543   6.404   4.924   3.488
 5215SOL    HW116544   6.477   4.990   3.472
 5215SOL    HW216545   6.316   4.971   3.486
 5216SOL     OW16546   5.118   5.080   1.964
 5216SOL    HW116547   5.148   4.987   1.982
 5216SOL    HW216548   5.047   5.079   1.894
 5217SOL     OW16549   3.903   5.557   4.735
 5217SOL    HW116550   3.979   5.492   4.743
 5217SOL    HW216551   3.872   5.561   4.640
 5218SOL     OW16552   0.567   0.694   3.675
 5218SOL    HW116553   0.662   0.670   3.697
 5218SOL    HW216554   0.566   0.771   3.612
 5219SOL     OW16555   4.015   1.111   5.762
 5219SOL    HW116556   4.071   1.029   5.748
 5219SOL    HW216557   4.072   1.184   5.800
 5220SOL     OW16558   1.681   5.812   2.955
 5220SOL    HW116559   1.685   5.717   2.924
 5220SOL    HW216560   1.600   5.856   2.915
 5221SOL     OW16561   5.759   2.323   3.778
 5221SOL    HW116562   5.823   2.292   3.849
 5221SOL    HW216563   5.755   2.255   3.705
 5222SOL     OW16564   3.345   5.986   3.328
 5222SOL    HW116565   3.355   5.927   3.407
 5222SOL    HW216566   3.326   6.080   3.358
 5223SOL     OW16567   6.654   2.616   0.998
 5223SOL    HW116568   6.707   2.675   0.938
 5223SOL    HW216569   6.631   2.665   1.082
 5224SOL     OW16570   0.127   2.420   4.108
 5224SOL    HW116571   0.103   2.453   4.016
 5224SOL    HW216572   0.047   2.381   4.152
 5225SOL     OW16573   0.506   0.169   3.432
 5225SOL    HW116574   0.409   0.169   3.454
 5225SOL    HW216575   0.534   0.077   3.403
 5226SOL     OW16576   0.419   6.195   4.488
 5226SOL    HW116577   0.497   6.186   4.426
 5226SOL    HW216578   0.358   6.116   4.476
 5227SOL     OW16579   1.185   3.168   4.309
 5227SOL    HW116580   1.169   3.082   4.359
 5227SOL    HW216581   1.247   3.226   4.362
 5228SOL     OW16582   6.437   2.854   1.497
 5228SOL    HW116583   6.376   2.792   1.446
 5228SOL    HW216584   6.453   2.936   1.443
 5229SOL     OW16585   1.747   5.800   6.935
 5229SOL    HW116586   1.691   5.719   6.952
 5229SOL    HW216587   1.844   5.776   6.942
 5230SOL     OW16588   0.708   6.397   0.832
 5230SOL    HW116589   0.752   6.308   0.819
 5230SOL    HW216590   0.654   6.396   0.917
 5231SOL     OW16591   4.157   3.239   5.783
 5231SOL    HW116592   4.076   3.293   5.803
 5231SOL    HW216593   4.131   3.155   5.735
 5232SOL     OW16594   3.618   2.207   5.937
 5232SOL    HW116595   3.591   2.140   6.006
 5232SOL    HW216596   3.624   2.162   5.848
 5233SOL     OW16597   5.121   0.905   2.671
 5233SOL    HW116598   5.150   0.924   2.577
 5233SOL    HW216599   5.027   0.871   2.670
 5234SOL     OW16600   2.517   0.913   6.938
 5234SOL    HW116601   2.450   0.851   6.977
 5234SOL    HW216602   2.510   0.911   6.838
 5235SOL     OW16603   1.277   2.626   1.297
 5235SOL    HW116604   1.273   2.560   1.372
 5235SOL    HW216605   1.202   2.608   1.233
 5236SOL     OW16606   5.586   3.925   2.635
 5236SOL    HW116607   5.558   3.855   2.701
 5236SOL    HW216608   5.509   3.947   2.575
 5237SOL     OW16609   1.701   1.133   5.235
 5237SOL    HW116610   1.684   1.199   5.307
 5237SOL    HW216611   1.615   1.109   5.190
 5238SOL     OW16612   1.199   4.255   0.815
 5238SOL    HW116613   1.230   4.340   0.774
 5238SOL    HW216614   1.104   4.264   0.843
 5239SOL     OW16615   3.325   3.258   3.825
 5239SOL    HW116616   3.242   3.202   3.828
 5239SOL    HW216617   3.391   3.223   3.892
 5240SOL     OW16618   2.963   1.517   6.160
 5240SOL    HW116619   2.948   1.536   6.064
 5240SOL    HW216620   3.006   1.427   6.170
 5241SOL     OW16621   1.295   5.136   5.178
 5241SOL    HW116622   1.251   5.165   5.093
 5241SOL    HW216623   1.369   5.199   5.201
 5242SOL     OW16624   0.260   6.034   6.205
 5242SOL    HW116625   0.294   5.958   6.150
 5242SOL    HW216626   0.225   6.106   6.145
 5243SOL     OW16627   1.088   5.617   2.026
 5243SOL    HW116628   1.035   5.554   2.082
 5243SOL    HW216629   1.152   5.668   2.084
 5244SOL     OW16630   3.671   4.832   6.459
 5244SOL    HW116631   3.714   4.901   6.400
 5244SOL    HW216632   3.611   4.877   6.524
 5245SOL     OW16633   4.101   4.255   0.652
 5245SOL    HW116634   4.147   4.253   0.740
 5245SOL    HW216635   4.167   4.238   0.579
 5246SOL     OW16636   5.802   4.063   2.524
 5246SOL    HW116637   5.858   4.107   2.594
 5246SOL    HW216638   5.720   4.025   2.566
 5247SOL     OW16639   1.043   0.404   0.069
 5247SOL    HW116640   0.995   0.418   0.155
 5247SOL    HW216641   1.056   0.306   0.053
 5248SOL     OW16642   5.836   0.494   4.455
 5248SOL    HW116643   5.778   0.443   4.391
 5248SOL    HW216644   5.862   0.582   4.414
 5249SOL     OW16645   6.901   4.518   5.120
 5249SOL    HW116646   6.804   4.520   5.093
 5249SOL    HW216647   6.937   4.426   5.106
 5250SOL     OW16648   1.489   0.091   5.221
 5250SOL    HW116649   1.404   0.042   5.235
 5250SOL    HW216650   1.540   0.095   5.307
 5251SOL     OW16651   0.466   3.340   0.493
 5251SOL    HW116652   0.535   3.267   0.491
 5251SOL    HW216653   0.401   3.323   0.568
 5252SOL     OW16654   2.051   5.783   0.404
 5252SOL    HW116655   2.087   5.700   0.360
 5252SOL    HW216656   2.085   5.788   0.497
 5253SOL     OW16657   5.510   3.885   4.373
 5253SOL    HW116658   5.487   3.788   4.380
 5253SOL    HW216659   5.552   3.915   4.459
 5254SOL     OW16660   4.416   1.351   2.818
 5254SOL    HW116661   4.372   1.352   2.729
 5254SOL    HW216662   4.514   1.368   2.807
 5255SOL     OW16663   4.868   0.860   6.260
 5255SOL    HW116664   4.860   0.796   6.183
 5255SOL    HW216665   4.822   0.821   6.340
 5256SOL     OW16666   4.729   0.852   3.124
 5256SOL    HW116667   4.762   0.834   3.216
 5256SOL    HW216668   4.697   0.947   3.118
 5257SOL     OW16669   5.032   6.236   2.282
 5257SOL    HW116670   5.089   6.215   2.202
 5257SOL    HW216671   5.052   6.328   2.314
 5258SOL     OW16672   5.785   3.670   1.922
 5258SOL    HW116673   5.761   3.712   1.835
 5258SOL    HW216674   5.724   3.704   1.994
 5259SOL     OW16675   5.176   6.369   0.444
 5259SOL    HW116676   5.114   6.364   0.366
 5259SOL    HW216677   5.123   6.382   0.528
 5260SOL     OW16678   5.817   3.858   1.118
 5260SOL    HW116679   5.873   3.895   1.193
 5260SOL    HW216680   5.774   3.773   1.147
 5261SOL     OW16681   1.263   3.507   6.868
 5261SOL    HW116682   1.248   3.445   6.945
 5261SOL    HW216683   1.341   3.566   6.888
 5262SOL     OW16684   3.066   0.499   2.794
 5262SOL    HW116685   2.998   0.535   2.730
 5262SOL    HW216686   3.132   0.443   2.744
 5263SOL     OW16687   2.063   1.365   5.284
 5263SOL    HW116688   2.001   1.332   5.213
 5263SOL    HW216689   2.145   1.403   5.240
 5264SOL     OW16690   5.741   1.846   2.423
 5264SOL    HW116691   5.780   1.755   2.437
 5264SOL    HW216692   5.752   1.873   2.327
 5265SOL     OW16693   5.483   3.910   4.098
 5265SOL    HW116694   5.537   3.988   4.065
 5265SOL    HW216695   5.494   3.901   4.197
 5266SOL     OW16696   2.604   6.164   1.774
 5266SOL    HW116697   2.604   6.256   1.813
 5266SOL    HW216698   2.629   6.097   1.844
 5267SOL     OW16699   4.822   4.181   4.968
 5267SOL    HW116700   4.735   4.152   5.006
 5267SOL    HW216701   4.885   4.204   5.042
 5268SOL     OW16702   6.113   0.615   6.324
 5268SOL    HW116703   6.091   0.654   6.413
 5268SOL    HW216704   6.046   0.647   6.256
 5269SOL     OW16705   1.931   0.184   3.934
 5269SOL    HW116706   1.893   0.201   3.844
 5269SOL    HW216707   2.025   0.152   3.926
 5270SOL     OW16708   5.056   1.665   1.455
 5270SOL    HW116709   5.031   1.714   1.372
 5270SOL    HW216710   5.136   1.608   1.438
 5271SOL     OW16711   5.682   5.921   4.822
 5271SOL    HW116712   5.648   5.827   4.818
 5271SOL    HW216713   5.686   5.958   4.729
 5272SOL     OW16714   2.395   5.613   1.971
 5272SOL    HW116715   2.301   5.580   1.963
 5272SOL    HW216716   2.396   5.713   1.972
 5273SOL     OW16717   6.706   3.035   3.406
 5273SOL    HW116718   6.670   3.079   3.323
 5273SOL    HW216719   6.657   3.070   3.486
 5274SOL     OW16720   6.555   6.386   1.901
 5274SOL    HW116721   6.624   6.407   1.831
 5274SOL    HW216722   6.589   6.414   1.991
 5275SOL     OW16723   3.673   1.780   6.773
 5275SOL    HW116724   3.663   1.708   6.842
 5275SOL    HW216725   3.611   1.761   6.696
 5276SOL     OW16726   0.961   0.105   0.498
 5276SOL    HW116727   0.868   0.080   0.523
 5276SOL    HW216728   0.970   0.204   0.498
 5277SOL     OW16729   2.250   2.405   3.190
 5277SOL    HW116730   2.237   2.378   3.286
 5277SOL    HW216731   2.285   2.328   3.138
 5278SOL     OW16732   4.856   0.588   4.434
 5278SOL    HW116733   4.938   0.570   4.380
 5278SOL    HW216734   4.781   0.612   4.373
 5279SOL     OW16735   1.377   5.237   6.628
 5279SOL    HW116736   1.391   5.308   6.558
 5279SOL    HW216737   1.382   5.147   6.585
 5280SOL     OW16738   3.298   6.273   5.249
 5280SOL    HW116739   3.199   6.285   5.261
 5280SOL    HW216740   3.339   6.244   5.335
 5281SOL     OW16741   0.538   1.595   2.659
 5281SOL    HW116742   0.440   1.578   2.651
 5281SOL    HW216743   0.554   1.693   2.667
 5282SOL     OW16744   2.221   1.751   3.166
 5282SOL    HW116745   2.133   1.725   3.205
 5282SOL    HW216746   2.208   1.785   3.073
 5283SOL     OW16747   3.979   6.573   1.796
 5283SOL    HW116748   4.020   6.520   1.869
 5283SOL    HW216749   4.021   6.664   1.793
 5284SOL     OW16750   5.148   3.859   3.284
 5284SOL    HW116751   5.175   3.771   3.247
 5284SOL    HW216752   5.049   3.869   3.279
 5285SOL     OW16753   2.110   4.148   4.071
 5285SOL    HW116754   2.081   4.190   4.157
 5285SOL    HW216755   2.048   4.073   4.048
 5286SOL     OW16756   0.613   3.710   1.579
 5286SOL    HW116757   0.695   3.768   1.582
 5286SOL    HW216758   0.638   3.617   1.606
 5287SOL     OW16759   1.680   5.998   1.768
 5287SOL    HW116760   1.770   5.975   1.802
 5287SOL    HW216761   1.671   5.966   1.673
 5288SOL     OW16762   4.048   0.323   1.901
 5288SOL    HW116763   3.968   0.343   1.844
 5288SOL    HW216764   4.041   0.374   1.987
 5289SOL     OW16765   1.795   5.566   6.139
 5289SOL    HW116766   1.851   5.483   6.137
 5289SOL    HW216767   1.816   5.622   6.059
 5290SOL     OW16768   1.590   4.744   5.724
 5290SOL    HW116769   1.546   4.703   5.644
 5290SOL    HW216770   1.659   4.810   5.694
 5291SOL     OW16771   2.918   5.106   5.274
 5291SOL    HW116772   2.995   5.080   5.216
 5291SOL    HW216773   2.902   5.035   5.343
 5292SOL     OW16774   6.607   4.521   0.188
 5292SOL    HW116775   6.658   4.592   0.235
 5292SOL    HW216776   6.600   4.544   0.091
 5293SOL     OW16777   0.896   0.609   4.094
 5293SOL    HW116778   0.987   0.588   4.058
 5293SOL    HW216779   0.898   0.605   4.194
 5294SOL     OW16780   4.835   3.293   5.184
 5294SOL    HW116781   4.859   3.387   5.160
 5294SOL    HW216782   4.752   3.293   5.239
 5295SOL     OW16783   4.342   0.273   2.356
 5295SOL    HW116784   4.408   0.333   2.312
 5295SOL    HW216785   4.269   0.249   2.291
 5296SOL     OW16786   1.810   5.239   0.375
 5296SOL    HW116787   1.883   5.270   0.436
 5296SOL    HW216788   1.789   5.311   0.309
 5297SOL     OW16789   2.935   1.872   1.260
 5297SOL    HW116790   2.847   1.903   1.296
 5297SOL    HW216791   2.942   1.897   1.164
 5298SOL     OW16792   1.717   5.973   6.342
 5298SOL    HW116793   1.640   5.927   6.298
 5298SOL    HW216794   1.799   5.917   6.331
 5299SOL     OW16795   2.907   2.679   0.944
 5299SOL    HW116796   2.992   2.658   0.992
 5299SOL    HW216797   2.852   2.741   1.000
 5300SOL     OW16798   0.280   6.267   1.471
 5300SOL    HW116799   0.338   6.306   1.399
 5300SOL    HW216800   0.318   6.179   1.500
 5301SOL     OW16801   4.410   2.720   6.870
 5301SOL    HW116802   4.480   2.778   6.828
 5301SOL    HW216803   4.452   2.658   6.935
 5302SOL     OW16804   5.963   4.848   3.385
 5302SOL    HW116805   6.013   4.847   3.471
 5302SOL    HW216806   5.880   4.904   3.395
 5303SOL     OW16807   0.063   5.917   2.623
 5303SOL    HW116808   0.128   5.857   2.671
 5303SOL    HW216809   0.051   6.001   2.675
 5304SOL     OW16810   5.944   1.397   7.008
 5304SOL    HW116811   5.903   1.377   6.919
 5304SOL    HW216812   5.930   1.494   0.007
 5305SOL     OW16813   1.649   5.382   4.227
 5305SOL    HW116814   1.667   5.385   4.129
 5305SOL    HW216815   1.557   5.415   4.245
 5306SOL     OW16816   0.454   5.195   4.751
 5306SOL    HW116817   0.464   5.109   4.800
 5306SOL    HW216818   0.357   5.215   4.738
 5307SOL     OW16819   4.005   7.013   0.493
 5307SOL    HW116820   3.964   0.056   0.431
 5307SOL    HW216821   4.079   0.033   0.544
 5308SOL     OW16822   1.337   6.196   3.725
 5308SOL    HW116823   1.243   6.165   3.713
 5308SOL    HW216824   1.400   6.128   3.687
 5309SOL     OW16825   3.930   4.446   1.641
 5309SOL    HW116826   3.861   4.494   1.586
 5309SOL    HW216827   4.018   4.493   1.631
 5310SOL     OW16828   6.064   3.393   1.814
 5310SOL    HW116829   6.042   3.486   1.787
 5310SOL    HW216830   6.095   3.391   1.909
 5311SOL     OW16831   0.311   6.275   0.503
 5311SOL    HW116832   0.260   6.353   0.538
 5311SOL    HW216833   0.370   6.304   0.428
 5312SOL     OW16834   0.713   4.524   1.912
 5312SOL    HW116835   0.627   4.499   1.956
 5312SOL    HW216836   0.743   4.450   1.852
 5313SOL     OW16837   1.308   4.517   6.672
 5313SOL    HW116838   1.315   4.472   6.583
 5313SOL    HW216839   1.353   4.607   6.668
 5314SOL     OW16840   3.730   6.603   0.051
 5314SOL    HW116841   3.826   6.601   0.023
 5314SOL    HW216842   3.725   6.619   0.150
 5315SOL     OW16843   4.699   3.743   1.559
 5315SOL    HW116844   4.713   3.749   1.460
 5315SOL    HW216845   4.629   3.808   1.587
 5316SOL     OW16846   6.804   4.757   4.575
 5316SOL    HW116847   6.841   4.667   4.598
 5316SOL    HW216848   6.870   4.806   4.519
 5317SOL     OW16849   6.837   6.964   4.621
 5317SOL    HW116850   6.804   0.017   4.676
 5317SOL    HW216851   6.775   6.886   4.632
 5318SOL     OW16852   6.855   1.953   6.098
 5318SOL    HW116853   6.879   1.857   6.085
 5318SOL    HW216854   6.926   1.998   6.153
 5319SOL     OW16855   4.439   6.755   6.631
 5319SOL    HW116856   4.474   6.846   6.609
 5319SOL    HW216857   4.509   6.686   6.611
 5320SOL     OW16858   5.766   5.016   0.294
 5320SOL    HW116859   5.691   5.001   0.229
 5320SOL    HW216860   5.805   5.107   0.280
 5321SOL     OW16861   1.170   3.937   3.123
 5321SOL    HW116862   1.137   3.915   3.215
 5321SOL    HW216863   1.125   4.020   3.091
 5322SOL     OW16864   3.732   6.069   6.070
 5322SOL    HW116865   3.796   6.130   6.116
 5322SOL    HW216866   3.722   6.096   5.974
 5323SOL     OW16867   3.785   3.243   6.900
 5323SOL    HW116868   3.806   3.339   6.920
 5323SOL    HW216869   3.837   3.184   6.961
 5324SOL     OW16870   4.111   2.786   1.672
 5324SOL    HW116871   4.052   2.705   1.674
 5324SOL    HW216872   4.206   2.758   1.686
 5325SOL     OW16873   5.123   0.393   4.074
 5325SOL    HW116874   5.181   0.313   4.090
 5325SOL    HW216875   5.079   0.385   3.985
 5326SOL     OW16876   0.238   5.360   3.270
 5326SOL    HW116877   0.286   5.428   3.215
 5326SOL    HW216878   0.302   5.290   3.301
 5327SOL     OW16879   5.889   4.161   5.057
 5327SOL    HW116880   5.846   4.248   5.032
 5327SOL    HW216881   5.855   4.132   5.147
 5328SOL     OW16882   4.132   2.986   5.665
 5328SOL    HW116883   4.074   2.906   5.680
 5328SOL    HW216884   4.173   2.982   5.574
 5329SOL     OW16885   6.793   4.071   0.646
 5329SOL    HW116886   6.709   4.023   0.669
 5329SOL    HW216887   6.870   4.006   0.649
 5330SOL     OW16888   3.835   3.684   5.941
 5330SOL    HW116889   3.792   3.637   5.864
 5330SOL    HW216890   3.807   3.640   6.026
 5331SOL     OW16891   5.587   0.764   1.578
 5331SOL    HW116892   5.544   0.852   1.557
 5331SOL    HW216893   5.552   0.729   1.665
 5332SOL     OW16894   0.243   3.555   0.525
 5332SOL    HW116895   0.185   3.583   0.601
 5332SOL    HW216896   0.206   3.592   0.439
 5333SOL     OW16897   0.864   0.345   3.497
 5333SOL    HW116898   0.907   0.431   3.525
 5333SOL    HW216899   0.795   0.319   3.565
 5334SOL     OW16900   4.032   6.494   5.077
 5334SOL    HW116901   4.056   6.399   5.055
 5334SOL    HW216902   3.937   6.512   5.051
 5335SOL     OW16903   6.963   5.256   2.754
 5335SOL    HW116904   7.020   5.308   2.818
 5335SOL    HW216905   6.894   5.317   2.714
 5336SOL     OW16906   2.395   1.737   3.539
 5336SOL    HW116907   2.459   1.660   3.535
 5336SOL    HW216908   2.403   1.792   3.456
 5337SOL     OW16909   5.206   4.847   2.085
 5337SOL    HW116910   5.280   4.805   2.033
 5337SOL    HW216911   5.135   4.779   2.104
 5338SOL     OW16912   5.855   0.630   5.921
 5338SOL    HW116913   5.804   0.716   5.911
 5338SOL    HW216914   5.858   0.583   5.833
 5339SOL     OW16915   5.820   1.814   3.473
 5339SOL    HW116916   5.832   1.714   3.476
 5339SOL    HW216917   5.765   1.843   3.550
 5340SOL     OW16918   5.927   3.857   1.444
 5340SOL    HW116919   6.017   3.891   1.473
 5340SOL    HW216920   5.867   3.849   1.524
 5341SOL     OW16921   3.579   5.718   5.477
 5341SOL    HW116922   3.675   5.739   5.497
 5341SOL    HW216923   3.545   5.782   5.408
 5342SOL     OW16924   4.639   0.460   4.832
 5342SOL    HW116925   4.692   0.427   4.910
 5342SOL    HW216926   4.697   0.463   4.750
 5343SOL     OW16927   4.150   3.677   5.109
 5343SOL    HW116928   4.071   3.734   5.085
 5343SOL    HW216929   4.222   3.691   5.041
 5344SOL     OW16930   1.511   2.199   1.283
 5344SOL    HW116931   1.497   2.116   1.229
 5344SOL    HW216932   1.477   2.278   1.232
 5345SOL     OW16933   4.830   6.474   0.280
 5345SOL    HW116934   4.879   6.391   0.252
 5345SOL    HW216935   4.781   6.512   0.202
 5346SOL     OW16936   2.464   5.498   3.976
 5346SOL    HW116937   2.458   5.400   3.958
 5346SOL    HW216938   2.497   5.512   4.070
 5347SOL     OW16939   0.510   2.931   2.523
 5347SOL    HW116940   0.420   2.936   2.567
 5347SOL    HW216941   0.581   2.919   2.592
 5348SOL     OW16942   6.856   1.419   0.567
 5348SOL    HW116943   6.776   1.382   0.520
 5348SOL    HW216944   6.937   1.407   0.509
 5349SOL     OW16945   2.179   3.425   0.065
 5349SOL    HW116946   2.266   3.469   0.088
 5349SOL    HW216947   2.170   3.340   0.116
 5350SOL     OW16948   1.572   0.108   4.549
 5350SOL    HW116949   1.533   0.097   4.458
 5350SOL    HW216950   1.671   0.123   4.541
 5351SOL     OW16951   6.527   5.295   1.788
 5351SOL    HW116952   6.498   5.356   1.714
 5351SOL    HW216953   6.586   5.346   1.851
 5352SOL     OW16954   2.295   4.930   3.061
 5352SOL    HW116955   2.279   5.028   3.075
 5352SOL    HW216956   2.367   4.899   3.124
 5353SOL     OW16957   3.577   5.446   4.580
 5353SOL    HW116958   3.594   5.399   4.494
 5353SOL    HW216959   3.586   5.382   4.656
 5354SOL     OW16960   2.448   4.402   0.765
 5354SOL    HW116961   2.375   4.466   0.738
 5354SOL    HW216962   2.536   4.438   0.735
 5355SOL     OW16963   5.649   4.753   4.695
 5355SOL    HW116964   5.686   4.836   4.734
 5355SOL    HW216965   5.713   4.715   4.628
 5356SOL     OW16966   6.183   3.681   2.229
 5356SOL    HW116967   6.237   3.600   2.208
 5356SOL    HW216968   6.134   3.711   2.147
 5357SOL     OW16969   2.899   5.401   0.453
 5357SOL    HW116970   2.971   5.420   0.519
 5357SOL    HW216971   2.934   5.416   0.360
 5358SOL     OW16972   4.308   1.651   0.538
 5358SOL    HW116973   4.218   1.688   0.518
 5358SOL    HW216974   4.305   1.551   0.531
 5359SOL     OW16975   2.438   1.277   6.012
 5359SOL    HW116976   2.515   1.236   6.061
 5359SOL    HW216977   2.405   1.356   6.064
 5360SOL     OW16978   3.283   6.315   3.119
 5360SOL    HW116979   3.268   6.220   3.091
 5360SOL    HW216980   3.317   6.316   3.213
 5361SOL     OW16981   2.461   0.491   4.875
 5361SOL    HW116982   2.487   0.568   4.817
 5361SOL    HW216983   2.495   0.406   4.835
 5362SOL     OW16984   6.341   6.688   2.729
 5362SOL    HW116985   6.369   6.740   2.648
 5362SOL    HW216986   6.244   6.666   2.723
 5363SOL     OW16987   6.174   6.283   5.556
 5363SOL    HW116988   6.152   6.304   5.461
 5363SOL    HW216989   6.196   6.368   5.605
 5364SOL     OW16990   6.266   0.160   2.148
 5364SOL    HW116991   6.211   0.077   2.147
 5364SOL    HW216992   6.343   0.150   2.085
 5365SOL     OW16993   3.763   3.193   1.693
 5365SOL    HW116994   3.842   3.153   1.740
 5365SOL    HW216995   3.794   3.265   1.632
 5366SOL     OW16996   5.975   6.372   1.209
 5366SOL    HW116997   5.922   6.324   1.279
 5366SOL    HW216998   5.924   6.373   1.123
 5367SOL     OW16999   0.121   0.202   1.572
 5367SOL    HW117000   0.126   0.111   1.530
 5367SOL    HW217001   0.188   0.207   1.646
 5368SOL     OW17002   5.629   0.284   2.537
 5368SOL    HW117003   5.711   0.227   2.539
 5368SOL    HW217004   5.564   0.246   2.471
 5369SOL     OW17005   2.617   6.643   0.842
 5369SOL    HW117006   2.615   6.683   0.934
 5369SOL    HW217007   2.524   6.641   0.805
 5370SOL     OW17008   4.889   3.123   0.799
 5370SOL    HW117009   4.951   3.172   0.738
 5370SOL    HW217010   4.915   3.141   0.894
 5371SOL     OW17011   0.704   4.306   5.661
 5371SOL    HW117012   0.667   4.283   5.752
 5371SOL    HW217013   0.789   4.254   5.646
 5372SOL     OW17014   1.491   5.980   2.803
 5372SOL    HW117015   1.531   5.935   2.722
 5372SOL    HW217016   1.397   5.948   2.815
 5373SOL     OW17017   3.904   6.665   5.258
 5373SOL    HW117018   3.967   6.622   5.193
 5373SOL    HW217019   3.846   6.731   5.210
 5374SOL     OW17020   2.340   3.991   0.569
 5374SOL    HW117021   2.362   3.926   0.496
 5374SOL    HW217022   2.422   4.012   0.621
 5375SOL     OW17023   0.378   6.247   4.758
 5375SOL    HW117024   0.355   6.344   4.760
 5375SOL    HW217025   0.382   6.215   4.664
 5376SOL     OW17026   1.276   2.008   1.168
 5376SOL    HW117027   1.353   1.968   1.118
 5376SOL    HW217028   1.222   1.935   1.211
 5377SOL     OW17029   0.638   0.154   2.124
 5377SOL    HW117030   0.590   0.122   2.206
 5377SOL    HW217031   0.574   0.202   2.064
 5378SOL     OW17032   6.654   0.029   2.580
 5378SOL    HW117033   6.581   0.079   2.533
 5378SOL    HW217034   6.727   0.008   2.515
 5379SOL     OW17035   0.743   3.933   4.918
 5379SOL    HW117036   0.802   3.916   4.839
 5379SOL    HW217037   0.664   3.872   4.914
 5380SOL     OW17038   3.390   0.165   2.311
 5380SOL    HW117039   3.397   0.174   2.411
 5380SOL    HW217040   3.345   0.247   2.274
 5381SOL     OW17041   6.536   5.405   2.120
 5381SOL    HW117042   6.599   5.440   2.051
 5381SOL    HW217043   6.474   5.478   2.149
 5382SOL     OW17044   2.738   1.619   2.136
 5382SOL    HW117045   2.655   1.643   2.085
 5382SOL    HW217046   2.796   1.560   2.080
 5383SOL     OW17047   1.665   2.637   4.943
 5383SOL    HW117048   1.639   2.732   4.924
 5383SOL    HW217049   1.583   2.583   4.959
 5384SOL     OW17050   5.492   0.451   5.172
 5384SOL    HW117051   5.511   0.520   5.242
 5384SOL    HW217052   5.527   0.484   5.084
 5385SOL     OW17053   3.685   3.515   5.089
 5385SOL    HW117054   3.775   3.504   5.130
 5385SOL    HW217055   3.693   3.513   4.989
 5386SOL     OW17056   4.523   1.323   4.147
 5386SOL    HW117057   4.444   1.284   4.099
 5386SOL    HW217058   4.607   1.281   4.113
 5387SOL     OW17059   2.150   6.763   3.421
 5387SOL    HW117060   2.070   6.762   3.481
 5387SOL    HW217061   2.144   6.841   3.358
 5388SOL     OW17062   1.103   0.977   2.923
 5388SOL    HW117063   1.057   0.890   2.943
 5388SOL    HW217064   1.035   1.043   2.890
 5389SOL     OW17065   3.663   1.444   3.239
 5389SOL    HW117066   3.742   1.468   3.295
 5389SOL    HW217067   3.666   1.496   3.154
 5390SOL     OW17068   5.062   4.003   3.910
 5390SOL    HW117069   5.051   4.003   4.009
 5390SOL    HW217070   5.159   4.013   3.888
 5391SOL     OW17071   2.430   1.616   0.692
 5391SOL    HW117072   2.398   1.711   0.701
 5391SOL    HW217073   2.355   1.559   0.661
 5392SOL     OW17074   6.124   3.477   1.120
 5392SOL    HW117075   6.059   3.517   1.184
 5392SOL    HW217076   6.089   3.485   1.027
 5393SOL     OW17077   5.111   0.629   5.425
 5393SOL    HW117078   5.083   0.540   5.387
 5393SOL    HW217079   5.132   0.618   5.521
 5394SOL     OW17080   0.444   5.527   0.927
 5394SOL    HW117081   0.440   5.487   0.835
 5394SOL    HW217082   0.397   5.615   0.927
 5395SOL     OW17083   4.845   0.836   1.092
 5395SOL    HW117084   4.771   0.870   1.149
 5395SOL    HW217085   4.844   0.884   1.004
 5396SOL     OW17086   5.751   4.829   1.159
 5396SOL    HW117087   5.814   4.756   1.131
 5396SOL    HW217088   5.685   4.793   1.225
 5397SOL     OW17089   0.007   2.501   1.449
 5397SOL    HW117090   6.971   2.441   1.504
 5397SOL    HW217091   7.013   2.484   1.352
 5398SOL     OW17092   2.919   2.264   3.780
 5398SOL    HW117093   2.898   2.279   3.876
 5398SOL    HW217094   2.971   2.179   3.771
 5399SOL     OW17095   2.608   6.372   0.131
 5399SOL    HW117096   2.696   6.408   0.162
 5399SOL    HW217097   2.609   6.272   0.136
 5400SOL     OW17098   3.170   3.386   6.653
 5400SOL    HW117099   3.094   3.444   6.684
 5400SOL    HW217100   3.180   3.308   6.715
 5401SOL     OW17101   6.296   4.460   2.683
 5401SOL    HW117102   6.325   4.384   2.740
 5401SOL    HW217103   6.269   4.426   2.593
 5402SOL     OW17104   2.142   6.014   1.462
 5402SOL    HW117105   2.119   5.918   1.473
 5402SOL    HW217106   2.157   6.055   1.552
 5403SOL     OW17107   5.115   3.727   5.834
 5403SOL    HW117108   5.203   3.702   5.794
 5403SOL    HW217109   5.048   3.655   5.815
 5404SOL     OW17110   0.782   0.496   2.334
 5404SOL    HW117111   0.684   0.495   2.316
 5404SOL    HW217112   0.815   0.591   2.337
 5405SOL     OW17113   5.355   5.575   0.141
 5405SOL    HW117114   5.304   5.627   0.209
 5405SOL    HW217115   5.296   5.505   0.101
 5406SOL     OW17116   1.730   0.282   5.165
 5406SOL    HW117117   1.662   0.326   5.224
 5406SOL    HW217118   1.744   0.187   5.195
 5407SOL     OW17119   3.019   1.913   1.004
 5407SOL    HW117120   2.990   2.008   0.991
 5407SOL    HW217121   3.029   1.869   0.915
 5408SOL     OW17122   4.162   0.209   5.554
 5408SOL    HW117123   4.151   0.122   5.505
 5408SOL    HW217124   4.075   0.257   5.557
 5409SOL     OW17125   6.642   1.784   3.082
 5409SOL    HW117126   6.698   1.796   3.000
 5409SOL    HW217127   6.621   1.687   3.094
 5410SOL     OW17128   0.943   2.487   6.239
 5410SOL    HW117129   0.917   2.473   6.334
 5410SOL    HW217130   1.013   2.419   6.214
 5411SOL     OW17131   6.119   5.499   5.827
 5411SOL    HW117132   6.135   5.403   5.847
 5411SOL    HW217133   6.192   5.534   5.768
 5412SOL     OW17134   3.712   1.383   0.040
 5412SOL    HW117135   3.656   1.331   6.999
 5412SOL    HW217136   3.767   1.321   0.096
 5413SOL     OW17137   6.970   0.753   0.522
 5413SOL    HW117138   0.043   0.724   0.514
 5413SOL    HW217139   6.959   0.845   0.484
 5414SOL     OW17140   6.218   4.383   4.828
 5414SOL    HW117141   6.163   4.318   4.881
 5414SOL    HW217142   6.176   4.397   4.738
 5415SOL     OW17143   1.686   6.432   2.125
 5415SOL    HW117144   1.771   6.389   2.093
 5415SOL    HW217145   1.631   6.458   2.046
 5416SOL     OW17146   3.364   5.084   5.590
 5416SOL    HW117147   3.364   4.992   5.550
 5416SOL    HW217148   3.271   5.106   5.620
 5417SOL     OW17149   4.405   6.618   4.843
 5417SOL    HW117150   4.446   6.587   4.928
 5417SOL    HW217151   4.307   6.627   4.854
 5418SOL     OW17152   5.142   0.395   4.710
 5418SOL    HW117153   5.204   0.389   4.632
 5418SOL    HW217154   5.047   0.394   4.677
 5419SOL     OW17155   3.290   5.200   0.335
 5419SOL    HW117156   3.362   5.265   0.358
 5419SOL    HW217157   3.229   5.188   0.413
 5420SOL     OW17158   2.055   2.453   1.428
 5420SOL    HW117159   2.136   2.504   1.400
 5420SOL    HW217160   2.062   2.429   1.525
 5421SOL     OW17161   3.038   5.113   3.217
 5421SOL    HW117162   2.951   5.152   3.248
 5421SOL    HW217163   3.108   5.185   3.216
 5422SOL     OW17164   0.524   5.584   4.104
 5422SOL    HW117165   0.607   5.539   4.137
 5422SOL    HW217166   0.548   5.648   4.031
 5423SOL     OW17167   6.025   4.266   0.594
 5423SOL    HW117168   6.002   4.354   0.553
 5423SOL    HW217169   6.081   4.214   0.531
 5424SOL     OW17170   5.657   3.654   4.506
 5424SOL    HW117171   5.724   3.690   4.440
 5424SOL    HW217172   5.624   3.729   4.564
 5425SOL     OW17173   5.102   2.402   4.480
 5425SOL    HW117174   5.020   2.392   4.537
 5425SOL    HW217175   5.116   2.319   4.426
 5426SOL     OW17176   6.001   6.108   3.133
 5426SOL    HW117177   6.015   6.030   3.193
 5426SOL    HW217178   6.078   6.114   3.068
 5427SOL     OW17179   5.616   3.915   0.636
 5427SOL    HW117180   5.662   3.867   0.562
 5427SOL    HW217181   5.542   3.858   0.672
 5428SOL     OW17182   5.931   6.843   2.551
 5428SOL    HW117183   5.977   6.791   2.623
 5428SOL    HW217184   5.966   6.815   2.462
 5429SOL     OW17185   2.274   0.960   6.266
 5429SOL    HW117186   2.322   0.888   6.316
 5429SOL    HW217187   2.300   1.049   6.303
 5430SOL     OW17188   2.493   2.452   6.115
 5430SOL    HW117189   2.500   2.521   6.043
 5430SOL    HW217190   2.431   2.483   6.186
 5431SOL     OW17191   3.499   4.120   6.247
 5431SOL    HW117192   3.547   4.035   6.269
 5431SOL    HW217193   3.404   4.100   6.223
 5432SOL     OW17194   3.417   5.402   6.723
 5432SOL    HW117195   3.405   5.483   6.666
 5432SOL    HW217196   3.334   5.387   6.777
 5433SOL     OW17197   0.542   0.579   2.906
 5433SOL    HW117198   0.463   0.576   2.845
 5433SOL    HW217199   0.620   0.619   2.858
 5434SOL     OW17200   3.993   0.748   4.547
 5434SOL    HW117201   4.031   0.655   4.551
 5434SOL    HW217202   4.064   0.814   4.572
 5435SOL     OW17203   5.888   2.316   1.126
 5435SOL    HW117204   5.949   2.261   1.068
 5435SOL    HW217205   5.803   2.266   1.140
 5436SOL     OW17206   6.078   4.564   4.270
 5436SOL    HW117207   6.124   4.600   4.189
 5436SOL    HW217208   6.015   4.491   4.242
 5437SOL     OW17209   2.983   5.523   5.689
 5437SOL    HW117210   2.935   5.607   5.715
 5437SOL    HW217211   3.079   5.528   5.718
 5438SOL     OW17212   6.270   3.056   1.818
 5438SOL    HW117213   6.300   3.151   1.819
 5438SOL    HW217214   6.228   3.035   1.730
 5439SOL     OW17215   0.282   2.416   0.257
 5439SOL    HW117216   0.305   2.503   0.211
 5439SOL    HW217217   0.267   2.345   0.188
 5440SOL     OW17218   6.672   6.741   3.552
 5440SOL    HW117219   6.756   6.793   3.536
 5440SOL    HW217220   6.612   6.749   3.473
 5441SOL     OW17221   4.765   2.671   3.342
 5441SOL    HW117222   4.841   2.663   3.406
 5441SOL    HW217223   4.681   2.643   3.388
 5442SOL     OW17224   3.717   6.783   2.637
 5442SOL    HW117225   3.644   6.731   2.592
 5442SOL    HW217226   3.686   6.812   2.727
 5443SOL     OW17227   3.662   5.492   3.632
 5443SOL    HW117228   3.762   5.497   3.633
 5443SOL    HW217229   3.624   5.584   3.632
 5444SOL     OW17230   0.154   0.486   3.595
 5444SOL    HW117231   0.173   0.464   3.500
 5444SOL    HW217232   0.183   0.579   3.615
 5445SOL     OW17233   6.181   3.767   4.228
 5445SOL    HW117234   6.276   3.743   4.210
 5445SOL    HW217235   6.175   3.864   4.253
 5446SOL     OW17236   5.841   5.297   5.006
 5446SOL    HW117237   5.868   5.349   5.087
 5446SOL    HW217238   5.751   5.255   5.022
 5447SOL     OW17239   1.176   1.676   0.675
 5447SOL    HW117240   1.242   1.750   0.687
 5447SOL    HW217241   1.084   1.709   0.696
 5448SOL     OW17242   5.519   4.910   4.378
 5448SOL    HW117243   5.534   4.992   4.324
 5448SOL    HW217244   5.493   4.935   4.471
 5449SOL     OW17245   1.755   1.345   1.177
 5449SOL    HW117246   1.824   1.396   1.125
 5449SOL    HW217247   1.686   1.408   1.212
 5450SOL     OW17248   3.104   0.189   1.013
 5450SOL    HW117249   3.116   0.167   1.110
 5450SOL    HW217250   3.058   0.277   1.005
 5451SOL     OW17251   2.378   6.572   3.739
 5451SOL    HW117252   2.337   6.567   3.649
 5451SOL    HW217253   2.464   6.623   3.734
 5452SOL     OW17254   2.565   4.099   6.594
 5452SOL    HW117255   2.584   4.154   6.512
 5452SOL    HW217256   2.472   4.063   6.589
 5453SOL     OW17257   5.121   4.316   2.486
 5453SOL    HW117258   5.189   4.377   2.446
 5453SOL    HW217259   5.155   4.284   2.575
 5454SOL     OW17260   4.802   5.901   0.073
 5454SOL    HW117261   4.875   5.917   0.006
 5454SOL    HW217262   4.721   5.952   0.045
 5455SOL     OW17263   0.453   2.748   2.853
 5455SOL    HW117264   0.520   2.819   2.832
 5455SOL    HW217265   0.459   2.724   2.950
 5456SOL     OW17266   3.183   0.267   0.215
 5456SOL    HW117267   3.085   0.281   0.202
 5456SOL    HW217268   3.232   0.298   0.133
 5457SOL     OW17269   6.306   1.739   1.492
 5457SOL    HW117270   6.300   1.831   1.532
 5457SOL    HW217271   6.353   1.744   1.404
 5458SOL     OW17272   0.351   5.144   0.262
 5458SOL    HW117273   0.305   5.056   0.249
 5458SOL    HW217274   0.310   5.191   0.340
 5459SOL     OW17275   3.316   3.843   5.732
 5459SOL    HW117276   3.380   3.834   5.808
 5459SOL    HW217277   3.349   3.914   5.669
 5460SOL     OW17278   3.319   6.686   3.038
 5460SOL    HW117279   3.368   6.604   3.011
 5460SOL    HW217280   3.234   6.660   3.084
 5461SOL     OW17281   0.511   0.682   4.946
 5461SOL    HW117282   0.545   0.695   4.853
 5461SOL    HW217283   0.436   0.615   4.945
 5462SOL     OW17284   5.581   6.456   6.933
 5462SOL    HW117285   5.644   6.382   6.957
 5462SOL    HW217286   5.630   6.543   6.935
 5463SOL     OW17287   0.463   1.517   0.034
 5463SOL    HW117288   0.536   1.468   0.081
 5463SOL    HW217289   0.499   1.602   7.018
 5464SOL     OW17290   6.301   0.336   4.961
 5464SOL    HW117291   6.248   0.317   4.878
 5464SOL    HW217292   6.373   0.268   4.971
 5465SOL     OW17293   5.055   1.229   4.477
 5465SOL    HW117294   5.119   1.239   4.552
 5465SOL    HW217295   5.088   1.160   4.413
 5466SOL     OW17296   5.151   3.136   5.565
 5466SOL    HW117297   5.083   3.206   5.545
 5466SOL    HW217298   5.202   3.114   5.482
 5467SOL     OW17299   5.469   3.692   3.609
 5467SOL    HW117300   5.525   3.610   3.609
 5467SOL    HW217301   5.374   3.669   3.585
 5468SOL     OW17302   6.644   2.078   4.511
 5468SOL    HW117303   6.688   2.091   4.599
 5468SOL    HW217304   6.620   2.167   4.472
 5469SOL     OW17305   2.970   6.279   5.650
 5469SOL    HW117306   2.959   6.378   5.638
 5469SOL    HW217307   3.020   6.261   5.735
 5470SOL     OW17308   3.697   5.746   3.402
 5470SOL    HW117309   3.619   5.689   3.378
 5470SOL    HW217310   3.664   5.838   3.427
 5471SOL     OW17311   6.445   0.482   3.633
 5471SOL    HW117312   6.392   0.401   3.608
 5471SOL    HW217313   6.386   0.546   3.683
 5472SOL     OW17314   3.233   3.569   5.941
 5472SOL    HW117315   3.203   3.664   5.935
 5472SOL    HW217316   3.218   3.535   6.034
 5473SOL     OW17317   1.387   3.523   1.831
 5473SOL    HW117318   1.357   3.578   1.909
 5473SOL    HW217319   1.323   3.536   1.755
 5474SOL     OW17320   0.893   4.138   4.222
 5474SOL    HW117321   0.925   4.043   4.227
 5474SOL    HW217322   0.955   4.197   4.273
 5475SOL     OW17323   2.111   2.338   0.984
 5475SOL    HW117324   2.198   2.320   0.938
 5475SOL    HW217325   2.124   2.412   1.050
 5476SOL     OW17326   2.100   4.720   5.350
 5476SOL    HW117327   2.031   4.702   5.280
 5476SOL    HW217328   2.117   4.638   5.403
 5477SOL     OW17329   2.310   4.136   2.161
 5477SOL    HW117330   2.268   4.047   2.144
 5477SOL    HW217331   2.410   4.127   2.160
 5478SOL     OW17332   3.205   6.758   5.012
 5478SOL    HW117333   3.302   6.742   4.997
 5478SOL    HW217334   3.164   6.793   4.928
 5479SOL     OW17335   5.924   1.794   5.650
 5479SOL    HW117336   5.894   1.853   5.725
 5479SOL    HW217337   5.948   1.850   5.571
 5480SOL     OW17338   5.591   5.986   3.965
 5480SOL    HW117339   5.636   6.063   3.921
 5480SOL    HW217340   5.500   5.972   3.925
 5481SOL     OW17341   4.630   0.825   4.510
 5481SOL    HW117342   4.658   0.775   4.429
 5481SOL    HW217343   4.644   0.923   4.495
 5482SOL     OW17344   3.539   4.220   1.396
 5482SOL    HW117345   3.578   4.215   1.304
 5482SOL    HW217346   3.490   4.135   1.416
 5483SOL     OW17347   6.915   2.617   5.435
 5483SOL    HW117348   6.894   2.706   5.395
 5483SOL    HW217349   6.986   2.572   5.379
 5484SOL     OW17350   4.481   0.830   3.595
 5484SOL    HW117351   4.548   0.861   3.527
 5484SOL    HW217352   4.464   0.732   3.582
 5485SOL     OW17353   4.067   0.078   4.667
 5485SOL    HW117354   3.997   0.123   4.612
 5485SOL    HW217355   4.120   0.016   4.610
 5486SOL     OW17356   2.152   6.028   5.174
 5486SOL    HW117357   2.054   6.046   5.168
 5486SOL    HW217358   2.177   5.957   5.108
 5487SOL     OW17359   5.592   3.245   6.750
 5487SOL    HW117360   5.578   3.146   6.750
 5487SOL    HW217361   5.558   3.283   6.664
 5488SOL     OW17362   5.949   0.677   0.666
 5488SOL    HW117363   5.937   0.773   0.640
 5488SOL    HW217364   5.881   0.652   0.734
 5489SOL     OW17365   0.806   3.899   1.607
 5489SOL    HW117366   0.904   3.901   1.584
 5489SOL    HW217367   0.765   3.987   1.585
 5490SOL     OW17368   3.005   6.810   1.003
 5490SOL    HW117369   3.089   6.855   1.033
 5490SOL    HW217370   2.927   6.855   1.046
 5491SOL     OW17371   1.821   4.030   1.030
 5491SOL    HW117372   1.889   4.044   1.102
 5491SOL    HW217373   1.823   4.108   0.967
 5492SOL     OW17374   0.054   3.058   6.012
 5492SOL    HW117375   0.041   2.968   5.971
 5492SOL    HW217376   6.990   3.107   6.014
 5493SOL     OW17377   3.958   3.908   4.102
 5493SOL    HW117378   3.896   3.967   4.154
 5493SOL    HW217379   3.936   3.914   4.005
 5494SOL     OW17380   6.282   3.068   6.130
 5494SOL    HW117381   6.283   3.043   6.227
 5494SOL    HW217382   6.262   3.165   6.121
 5495SOL     OW17383   3.065   1.819   0.714
 5495SOL    HW117384   2.976   1.853   0.684
 5495SOL    HW217385   3.137   1.881   0.685
 5496SOL     OW17386   3.791   0.569   3.519
 5496SOL    HW117387   3.815   0.531   3.430
 5496SOL    HW217388   3.786   0.496   3.586
 5497SOL     OW17389   0.332   2.211   4.163
 5497SOL    HW117390   0.287   2.123   4.174
 5497SOL    HW217391   0.266   2.284   4.176
 5498SOL     OW17392   6.228   6.313   1.266
 5498SOL    HW117393   6.273   6.393   1.226
 5498SOL    HW217394   6.129   6.325   1.262
 5499SOL     OW17395   0.580   0.413   4.741
 5499SOL    HW117396   0.627   0.499   4.720
 5499SOL    HW217397   0.597   0.389   4.837
 5500SOL     OW17398   0.912   0.504   0.328
 5500SOL    HW117399   0.928   0.601   0.308
 5500SOL    HW217400   0.992   0.466   0.374
 5501SOL     OW17401   3.518   0.470   0.372
 5501SOL    HW117402   3.561   0.448   0.285
 5501SOL    HW217403   3.435   0.414   0.384
 5502SOL     OW17404   5.435   3.288   0.374
 5502SOL    HW117405   5.413   3.383   0.350
 5502SOL    HW217406   5.354   3.231   0.362
 5503SOL     OW17407   0.717   5.194   1.991
 5503SOL    HW117408   0.692   5.273   2.047
 5503SOL    HW217409   0.816   5.180   1.995
 5504SOL     OW17410   3.765   1.004   4.951
 5504SOL    HW117411   3.863   0.981   4.952
 5504SOL    HW217412   3.755   1.103   4.945
 5505SOL     OW17413   2.003   5.052   4.370
 5505SOL    HW117414   2.061   5.114   4.423
 5505SOL    HW217415   2.058   5.007   4.300
 5506SOL     OW17416   1.340   2.245   6.434
 5506SOL    HW117417   1.435   2.219   6.419
 5506SOL    HW217418   1.298   2.183   6.500
 5507SOL     OW17419   3.797   1.045   4.209
 5507SOL    HW117420   3.841   1.053   4.120
 5507SOL    HW217421   3.698   1.039   4.198
 5508SOL     OW17422   1.907   1.054   6.428
 5508SOL    HW117423   1.828   1.112   6.408
 5508SOL    HW217424   1.883   0.959   6.412
 5509SOL     OW17425   6.939   6.585   6.837
 5509SOL    HW117426   6.872   6.531   6.889
 5509SOL    HW217427   6.890   6.642   6.770
 5510SOL     OW17428   4.706   5.192   6.803
 5510SOL    HW117429   4.688   5.290   6.800
 5510SOL    HW217430   4.775   5.169   6.735
 5511SOL     OW17431   2.118   1.624   4.348
 5511SOL    HW117432   2.020   1.606   4.363
 5511SOL    HW217433   2.166   1.618   4.436
 5512SOL     OW17434   5.772   2.337   1.580
 5512SOL    HW117435   5.730   2.276   1.513
 5512SOL    HW217436   5.772   2.294   1.669
 5513SOL     OW17437   4.383   4.620   6.692
 5513SOL    HW117438   4.359   4.601   6.597
 5513SOL    HW217439   4.367   4.717   6.712
 5514SOL     OW17440   4.074   6.589   4.219
 5514SOL    HW117441   4.111   6.497   4.212
 5514SOL    HW217442   4.085   6.636   4.131
 5515SOL     OW17443   0.769   5.939   1.845
 5515SOL    HW117444   0.796   6.034   1.860
 5515SOL    HW217445   0.804   5.882   1.919
 5516SOL     OW17446   1.923   4.063   6.523
 5516SOL    HW117447   1.921   4.043   6.425
 5516SOL    HW217448   1.959   4.155   6.538
 5517SOL     OW17449   2.228   3.114   1.826
 5517SOL    HW117450   2.235   3.200   1.877
 5517SOL    HW217451   2.285   3.119   1.744
 5518SOL     OW17452   5.864   6.449   6.657
 5518SOL    HW117453   5.868   6.391   6.576
 5518SOL    HW217454   5.808   6.405   6.728
 5519SOL     OW17455   5.669   3.441   3.584
 5519SOL    HW117456   5.738   3.495   3.534
 5519SOL    HW217457   5.673   3.464   3.681
 5520SOL     OW17458   5.959   6.306   2.434
 5520SOL    HW117459   5.996   6.290   2.525
 5520SOL    HW217460   5.979   6.228   2.375
 5521SOL     OW17461   5.395   6.100   1.815
 5521SOL    HW117462   5.376   6.059   1.904
 5521SOL    HW217463   5.451   6.037   1.761
 5522SOL     OW17464   6.821   5.212   0.471
 5522SOL    HW117465   6.912   5.179   0.498
 5522SOL    HW217466   6.798   5.292   0.527
 5523SOL     OW17467   3.980   0.691   1.855
 5523SOL    HW117468   3.986   0.636   1.772
 5523SOL    HW217469   3.997   0.787   1.833
 5524SOL     OW17470   5.651   0.192   5.089
 5524SOL    HW117471   5.689   0.284   5.079
 5524SOL    HW217472   5.578   0.194   5.158
 5525SOL     OW17473   6.974   1.721   1.097
 5525SOL    HW117474   0.035   1.706   1.047
 5525SOL    HW217475   6.900   1.668   1.056
 5526SOL     OW17476   4.783   5.468   3.562
 5526SOL    HW117477   4.751   5.434   3.473
 5526SOL    HW217478   4.737   5.555   3.582
 5527SOL     OW17479   4.913   3.435   4.022
 5527SOL    HW117480   5.000   3.396   3.994
 5527SOL    HW217481   4.870   3.376   4.090
 5528SOL     OW17482   1.579   1.261   6.733
 5528SOL    HW117483   1.554   1.344   6.784
 5528SOL    HW217484   1.581   1.282   6.635
 5529SOL     OW17485   3.126   0.259   3.384
 5529SOL    HW117486   3.063   0.264   3.307
 5529SOL    HW217487   3.216   0.293   3.356
 5530SOL     OW17488   5.720   2.150   1.824
 5530SOL    HW117489   5.634   2.104   1.848
 5530SOL    HW217490   5.776   2.161   1.905
 5531SOL     OW17491   3.186   3.384   1.970
 5531SOL    HW117492   3.147   3.295   1.997
 5531SOL    HW217493   3.258   3.409   2.034
 5532SOL     OW17494   1.885   3.131   0.667
 5532SOL    HW117495   1.916   3.049   0.620
 5532SOL    HW217496   1.867   3.203   0.599
 5533SOL     OW17497   3.737   1.594   2.991
 5533SOL    HW117498   3.688   1.587   2.904
 5533SOL    HW217499   3.733   1.689   3.024
 5534SOL     OW17500   0.404   1.098   6.391
 5534SOL    HW117501   0.341   1.176   6.398
 5534SOL    HW217502   0.387   1.034   6.466
 5535SOL     OW17503   7.012   2.831   3.437
 5535SOL    HW117504   6.913   2.814   3.443
 5535SOL    HW217505   0.021   2.867   3.525
 5536SOL     OW17506   3.136   1.270   4.212
 5536SOL    HW117507   3.180   1.289   4.299
 5536SOL    HW217508   3.175   1.329   4.141
 5537SOL     OW17509   2.897   0.648   2.546
 5537SOL    HW117510   2.925   0.743   2.533
 5537SOL    HW217511   2.800   0.644   2.568
 5538SOL     OW17512   2.542   6.256   6.016
 5538SOL    HW117513   2.496   6.198   5.949
 5538SOL    HW217514   2.617   6.304   5.972
 5539SOL     OW17515   1.363   3.090   1.328
 5539SOL    HW117516   1.293   3.018   1.326
 5539SOL    HW217517   1.392   3.105   1.422
 5540SOL     OW17518   4.982   4.438   3.761
 5540SOL    HW117519   5.027   4.421   3.849
 5540SOL    HW217520   4.934   4.355   3.732
 5541SOL     OW17521   5.975   0.283   6.116
 5541SOL    HW117522   6.066   0.312   6.087
 5541SOL    HW217523   5.979   0.187   6.147
 5542SOL     OW17524   5.362   3.863   6.198
 5542SOL    HW117525   5.374   3.767   6.223
 5542SOL    HW217526   5.266   3.879   6.172
 5543SOL     OW17527   3.815   5.036   5.551
 5543SOL    HW117528   3.751   5.112   5.567
 5543SOL    HW217529   3.875   5.027   5.630
 5544SOL     OW17530   4.802   5.857   6.317
 5544SOL    HW117531   4.854   5.879   6.399
 5544SOL    HW217532   4.726   5.922   6.307
 5545SOL     OW17533   3.670   1.039   1.572
 5545SOL    HW117534   3.708   0.990   1.494
 5545SOL    HW217535   3.734   1.032   1.649
 5546SOL     OW17536   0.878   5.064   4.677
 5546SOL    HW117537   0.929   5.095   4.757
 5546SOL    HW217538   0.906   4.971   4.654
 5547SOL     OW17539   1.997   0.210   5.309
 5547SOL    HW117540   2.021   0.298   5.268
 5547SOL    HW217541   2.033   0.206   5.402
 5548SOL     OW17542   5.621   3.136   4.893
 5548SOL    HW117543   5.712   3.155   4.856
 5548SOL    HW217544   5.552   3.166   4.827
 5549SOL     OW17545   4.661   3.747   6.581
 5549SOL    HW117546   4.636   3.685   6.506
 5549SOL    HW217547   4.689   3.836   6.542
 5550SOL     OW17548   2.373   4.869   1.807
 5550SOL    HW117549   2.438   4.884   1.732
 5550SOL    HW217550   2.333   4.957   1.833
 5551SOL     OW17551   2.509   0.901   3.701
 5551SOL    HW117552   2.471   0.809   3.687
 5551SOL    HW217553   2.435   0.964   3.726
 5552SOL     OW17554   6.936   0.572   0.136
 5552SOL    HW117555   6.906   0.505   0.204
 5552SOL    HW217556   0.011   0.588   0.147
 5553SOL     OW17557   4.693   6.605   0.073
 5553SOL    HW117558   4.664   6.699   0.088
 5553SOL    HW217559   4.660   6.574   7.007
 5554SOL     OW17560   3.884   1.375   5.403
 5554SOL    HW117561   3.788   1.394   5.384
 5554SOL    HW217562   3.940   1.399   5.324
 5555SOL     OW17563   1.254   4.576   4.479
 5555SOL    HW117564   1.194   4.580   4.399
 5555SOL    HW217565   1.329   4.512   4.461
 5556SOL     OW17566   6.836   2.077   3.754
 5556SOL    HW117567   6.872   2.121   3.671
 5556SOL    HW217568   6.808   2.148   3.819
 5557SOL     OW17569   3.443   6.437   2.935
 5557SOL    HW117570   3.386   6.388   3.001
 5557SOL    HW217571   3.437   6.392   2.846
 5558SOL     OW17572   5.386   3.396   6.530
 5558SOL    HW117573   5.470   3.417   6.481
 5558SOL    HW217574   5.384   3.446   6.617
 5559SOL     OW17575   3.047   6.882   1.793
 5559SOL    HW117576   2.960   6.851   1.756
 5559SOL    HW217577   3.033   6.918   1.885
 5560SOL     OW17578   0.937   6.649   3.421
 5560SOL    HW117579   0.905   6.638   3.327
 5560SOL    HW217580   1.028   6.689   3.421
 5561SOL     OW17581   2.039   2.939   4.340
 5561SOL    HW117582   1.983   2.876   4.287
 5561SOL    HW217583   2.122   2.962   4.288
 5562SOL     OW17584   2.989   2.607   6.852
 5562SOL    HW117585   2.987   2.548   6.932
 5562SOL    HW217586   3.084   2.618   6.821
 5563SOL     OW17587   4.582   6.355   2.728
 5563SOL    HW117588   4.646   6.420   2.687
 5563SOL    HW217589   4.569   6.278   2.666
 5564SOL     OW17590   4.435   1.426   1.713
 5564SOL    HW117591   4.418   1.520   1.745
 5564SOL    HW217592   4.533   1.406   1.720
 5565SOL     OW17593   5.004   1.764   6.833
 5565SOL    HW117594   4.909   1.739   6.812
 5565SOL    HW217595   5.007   1.859   6.864
 5566SOL     OW17596   1.549   5.385   0.610
 5566SOL    HW117597   1.550   5.480   0.641
 5566SOL    HW217598   1.503   5.379   0.521
 5567SOL     OW17599   0.500   4.491   2.069
 5567SOL    HW117600   0.489   4.589   2.055
 5567SOL    HW217601   0.416   4.443   2.043
 5568SOL     OW17602   4.496   2.564   2.855
 5568SOL    HW117603   4.549   2.512   2.922
 5568SOL    HW217604   4.528   2.659   2.853
 5569SOL     OW17605   2.743   1.105   1.679
 5569SOL    HW117606   2.768   1.017   1.719
 5569SOL    HW217607   2.820   1.142   1.627
 5570SOL     OW17608   5.628   5.133   5.057
 5570SOL    HW117609   5.554   5.185   5.100
 5570SOL    HW217610   5.612   5.035   5.072
 5571SOL     OW17611   0.457   6.407   0.314
 5571SOL    HW117612   0.387   6.478   0.309
 5571SOL    HW217613   0.520   6.418   0.237
 5572SOL     OW17614   1.600   3.066   5.198
 5572SOL    HW117615   1.568   3.000   5.130
 5572SOL    HW217616   1.694   3.092   5.178
 5573SOL     OW17617   1.934   3.048   6.959
 5573SOL    HW117618   1.840   3.046   6.995
 5573SOL    HW217619   1.957   3.142   6.934
 5574SOL     OW17620   6.191   1.591   3.962
 5574SOL    HW117621   6.236   1.621   3.878
 5574SOL    HW217622   6.259   1.563   4.029
 5575SOL     OW17623   0.404   1.390   1.868
 5575SOL    HW117624   0.364   1.309   1.825
 5575SOL    HW217625   0.381   1.471   1.814
 5576SOL     OW17626   0.576   6.365   1.839
 5576SOL    HW117627   0.613   6.345   1.930
 5576SOL    HW217628   0.509   6.296   1.815
 5577SOL     OW17629   3.006   2.326   6.263
 5577SOL    HW117630   2.970   2.371   6.344
 5577SOL    HW217631   2.935   2.320   6.193
 5578SOL     OW17632   4.331   3.710   0.408
 5578SOL    HW117633   4.367   3.636   0.464
 5578SOL    HW217634   4.364   3.700   0.314
 5579SOL     OW17635   6.464   3.900   6.370
 5579SOL    HW117636   6.473   3.999   6.365
 5579SOL    HW217637   6.419   3.866   6.287
 5580SOL     OW17638   4.994   1.942   6.041
 5580SOL    HW117639   4.973   2.035   6.010
 5580SOL    HW217640   4.931   1.877   5.998
 5581SOL     OW17641   2.255   6.649   1.423
 5581SOL    HW117642   2.215   6.724   1.476
 5581SOL    HW217643   2.314   6.686   1.352
 5582SOL     OW17644   3.777   3.143   3.372
 5582SOL    HW117645   3.743   3.063   3.422
 5582SOL    HW217646   3.874   3.155   3.389
 5583SOL     OW17647   4.309   0.105   2.589
 5583SOL    HW117648   4.344   0.160   2.514
 5583SOL    HW217649   4.210   0.094   2.581
 5584SOL     OW17650   5.440   3.755   4.807
 5584SOL    HW117651   5.497   3.752   4.726
 5584SOL    HW217652   5.496   3.780   4.886
 5585SOL     OW17653   4.545   0.145   4.096
 5585SOL    HW117654   4.518   0.090   4.017
 5585SOL    HW217655   4.478   0.217   4.111
 5586SOL     OW17656   1.103   2.393   6.479
 5586SOL    HW117657   1.193   2.367   6.445
 5586SOL    HW217658   1.112   2.471   6.541
 5587SOL     OW17659   4.859   6.545   2.290
 5587SOL    HW117660   4.869   6.500   2.201
 5587SOL    HW217661   4.762   6.562   2.308
 5588SOL     OW17662   1.309   6.805   3.693
 5588SOL    HW117663   1.402   6.796   3.728
 5588SOL    HW217664   1.305   6.881   3.628
 5589SOL     OW17665   5.800   3.078   6.491
 5589SOL    HW117666   5.736   3.008   6.521
 5589SOL    HW217667   5.787   3.095   6.393
 5590SOL     OW17668   0.274   5.549   2.976
 5590SOL    HW117669   0.260   5.616   3.049
 5590SOL    HW217670   0.361   5.567   2.930
 5591SOL     OW17671   5.878   0.925   6.662
 5591SOL    HW117672   5.832   0.953   6.578
 5591SOL    HW217673   5.820   0.946   6.740
 5592SOL     OW17674   2.145   4.553   2.891
 5592SOL    HW117675   2.228   4.563   2.836
 5592SOL    HW217676   2.117   4.643   2.924
 5593SOL     OW17677   6.582   2.056   6.136
 5593SOL    HW117678   6.642   1.976   6.131
 5593SOL    HW217679   6.509   2.039   6.202
 5594SOL     OW17680   2.697   1.469   6.810
 5594SOL    HW117681   2.639   1.390   6.831
 5594SOL    HW217682   2.681   1.497   6.715
 5595SOL     OW17683   6.493   1.175   5.261
 5595SOL    HW117684   6.590   1.182   5.239
 5595SOL    HW217685   6.439   1.214   5.187
 5596SOL     OW17686   4.929   0.475   2.259
 5596SOL    HW117687   4.920   0.524   2.172
 5596SOL    HW217688   4.845   0.488   2.312
 5597SOL     OW17689   5.411   2.067   4.916
 5597SOL    HW117690   5.510   2.076   4.907
 5597SOL    HW217691   5.381   1.982   4.871
 5598SOL     OW17692   4.841   2.442   3.683
 5598SOL    HW117693   4.825   2.496   3.766
 5598SOL    HW217694   4.767   2.375   3.672
 5599SOL     OW17695   6.536   3.572   2.138
 5599SOL    HW117696   6.562   3.517   2.058
 5599SOL    HW217697   6.491   3.656   2.107
 5600SOL     OW17698   1.780   0.156   2.703
 5600SOL    HW117699   1.785   0.216   2.783
 5600SOL    HW217700   1.714   0.193   2.637
 5601SOL     OW17701   4.657   2.133   6.300
 5601SOL    HW117702   4.606   2.089   6.374
 5601SOL    HW217703   4.637   2.231   6.299
 5602SOL     OW17704   0.311   0.646   2.744
 5602SOL    HW117705   0.303   0.737   2.703
 5602SOL    HW217706   0.248   0.583   2.698
 5603SOL     OW17707   5.119   2.514   5.318
 5603SOL    HW117708   5.032   2.469   5.339
 5603SOL    HW217709   5.181   2.448   5.275
 5604SOL     OW17710   0.692   2.104   4.666
 5604SOL    HW117711   0.647   2.054   4.740
 5604SOL    HW217712   0.700   2.045   4.585
 5605SOL     OW17713   1.616   6.865   5.002
 5605SOL    HW117714   1.714   6.856   4.988
 5605SOL    HW217715   1.596   6.956   5.039
 5606SOL     OW17716   4.204   0.834   0.383
 5606SOL    HW117717   4.130   0.837   0.315
 5606SOL    HW217718   4.243   0.742   0.385
 5607SOL     OW17719   5.299   2.190   3.847
 5607SOL    HW117720   5.285   2.223   3.754
 5607SOL    HW217721   5.391   2.215   3.877
 5608SOL     OW17722   5.914   1.522   3.369
 5608SOL    HW117723   5.933   1.523   3.468
 5608SOL    HW217724   6.000   1.517   3.319
 5609SOL     OW17725   4.968   5.556   0.301
 5609SOL    HW117726   4.933   5.560   0.207
 5609SOL    HW217727   4.998   5.647   0.330
 5610SOL     OW17728   6.349   3.825   1.435
 5610SOL    HW117729   6.294   3.784   1.361
 5610SOL    HW217730   6.360   3.923   1.417
 5611SOL     OW17731   0.875   5.504   2.180
 5611SOL    HW117732   0.824   5.560   2.246
 5611SOL    HW217733   0.848   5.409   2.190
 5612SOL     OW17734   3.299   2.830   0.573
 5612SOL    HW117735   3.274   2.781   0.657
 5612SOL    HW217736   3.395   2.811   0.551
 5613SOL     OW17737   6.668   4.805   5.281
 5613SOL    HW117738   6.632   4.870   5.348
 5613SOL    HW217739   6.761   4.779   5.306
 5614SOL     OW17740   5.712   2.779   4.858
 5614SOL    HW117741   5.778   2.723   4.909
 5614SOL    HW217742   5.659   2.834   4.923
 5615SOL     OW17743   0.268   1.417   3.275
 5615SOL    HW117744   0.187   1.471   3.251
 5615SOL    HW217745   0.347   1.452   3.225
 5616SOL     OW17746   2.213   2.804   5.118
 5616SOL    HW117747   2.289   2.739   5.124
 5616SOL    HW217748   2.244   2.887   5.072
 5617SOL     OW17749   1.745   3.724   4.836
 5617SOL    HW117750   1.807   3.702   4.911
 5617SOL    HW217751   1.791   3.782   4.769
 5618SOL     OW17752   6.907   4.986   3.422
 5618SOL    HW117753   6.900   4.977   3.322
 5618SOL    HW217754   6.816   4.993   3.462
 5619SOL     OW17755   3.551   3.497   3.289
 5619SOL    HW117756   3.640   3.524   3.325
 5619SOL    HW217757   3.535   3.400   3.307
 5620SOL     OW17758   5.016   3.691   6.474
 5620SOL    HW117759   5.038   3.624   6.545
 5620SOL    HW217760   4.977   3.644   6.395
 5621SOL     OW17761   1.220   3.154   6.062
 5621SOL    HW117762   1.177   3.217   5.997
 5621SOL    HW217763   1.296   3.200   6.108
 5622SOL     OW17764   4.863   6.697   5.769
 5622SOL    HW117765   4.958   6.667   5.766
 5622SOL    HW217766   4.832   6.719   5.676
 5623SOL     OW17767   4.645   6.167   5.144
 5623SOL    HW117768   4.714   6.105   5.181
 5623SOL    HW217769   4.685   6.221   5.070
 5624SOL     OW17770   0.881   5.414   3.830
 5624SOL    HW117771   0.958   5.350   3.827
 5624SOL    HW217772   0.892   5.476   3.908
 5625SOL     OW17773   0.331   4.893   5.381
 5625SOL    HW117774   0.314   4.882   5.283
 5625SOL    HW217775   0.256   4.853   5.434
 5626SOL     OW17776   2.656   5.963   4.286
 5626SOL    HW117777   2.605   6.033   4.236
 5626SOL    HW217778   2.607   5.876   4.281
 5627SOL     OW17779   6.943   5.506   6.008
 5627SOL    HW117780   6.906   5.596   5.983
 5627SOL    HW217781   6.978   5.460   5.927
 5628SOL     OW17782   2.531   2.558   1.297
 5628SOL    HW117783   2.595   2.544   1.373
 5628SOL    HW217784   2.441   2.584   1.333
 5629SOL     OW17785   4.840   2.571   1.474
 5629SOL    HW117786   4.891   2.624   1.541
 5629SOL    HW217787   4.856   2.607   1.382
 5630SOL     OW17788   1.736   3.719   6.499
 5630SOL    HW117789   1.825   3.759   6.522
 5630SOL    HW217790   1.749   3.643   6.436
 5631SOL     OW17791   5.540   1.261   0.998
 5631SOL    HW117792   5.496   1.340   1.042
 5631SOL    HW217793   5.608   1.222   1.059
 5632SOL     OW17794   5.025   2.094   5.301
 5632SOL    HW117795   4.988   2.055   5.385
 5632SOL    HW217796   5.010   2.193   5.301
 5633SOL     OW17797   6.689   5.137   4.527
 5633SOL    HW117798   6.689   5.145   4.427
 5633SOL    HW217799   6.652   5.047   4.552
 5634SOL     OW17800   2.387   4.803   4.004
 5634SOL    HW117801   2.431   4.733   3.947
 5634SOL    HW217802   2.454   4.872   4.031
 5635SOL     OW17803   2.402   6.038   6.683
 5635SOL    HW117804   2.356   5.950   6.682
 5635SOL    HW217805   2.347   6.104   6.734
 5636SOL     OW17806   6.023   0.735   5.329
 5636SOL    HW117807   6.102   0.677   5.313
 5636SOL    HW217808   6.009   0.748   5.427
 5637SOL     OW17809   4.279   0.061   3.471
 5637SOL    HW117810   4.330   6.999   3.478
 5637SOL    HW217811   4.203   0.060   3.537
 5638SOL     OW17812   6.462   5.289   0.953
 5638SOL    HW117813   6.474   5.346   0.872
 5638SOL    HW217814   6.551   5.277   0.999
 5639SOL     OW17815   2.444   0.671   1.410
 5639SOL    HW117816   2.523   0.720   1.446
 5639SOL    HW217817   2.423   0.705   1.318
 5640SOL     OW17818   3.005   0.023   2.047
 5640SOL    HW117819   2.930   0.074   2.004
 5640SOL    HW217820   2.968   6.991   2.123
 5641SOL     OW17821   6.937   4.766   5.957
 5641SOL    HW117822   6.922   4.776   6.056
 5641SOL    HW217823   6.886   4.687   5.923
 5642SOL     OW17824   1.138   5.110   5.396
 5642SOL    HW117825   1.072   5.038   5.376
 5642SOL    HW217826   1.206   5.116   5.322
 5643SOL     OW17827   3.807   0.952   4.486
 5643SOL    HW117828   3.797   0.988   4.394
 5643SOL    HW217829   3.860   0.867   4.483
 5644SOL     OW17830   3.862   0.408   3.731
 5644SOL    HW117831   3.808   0.443   3.808
 5644SOL    HW217832   3.951   0.452   3.730
 5645SOL     OW17833   6.142   4.204   2.998
 5645SOL    HW117834   6.140   4.105   2.993
 5645SOL    HW217835   6.157   4.232   3.093
 5646SOL     OW17836   2.234   5.792   3.476
 5646SOL    HW117837   2.239   5.731   3.556
 5646SOL    HW217838   2.242   5.887   3.507
 5647SOL     OW17839   6.291   6.562   0.359
 5647SOL    HW117840   6.373   6.614   0.336
 5647SOL    HW217841   6.269   6.577   0.456
 5648SOL     OW17842   2.083   1.134   2.748
 5648SOL    HW117843   2.161   1.196   2.751
 5648SOL    HW217844   1.999   1.185   2.730
 5649SOL     OW17845   0.289   6.657   5.648
 5649SOL    HW117846   0.348   6.579   5.630
 5649SOL    HW217847   0.274   6.707   5.563
 5650SOL     OW17848   0.627   5.925   0.915
 5650SOL    HW117849   0.652   6.012   0.958
 5650SOL    HW217850   0.701   5.894   0.856
 5651SOL     OW17851   0.685   1.398   1.570
 5651SOL    HW117852   0.699   1.303   1.596
 5651SOL    HW217853   0.698   1.457   1.650
 5652SOL     OW17854   5.856   6.539   2.523
 5652SOL    HW117855   5.824   6.606   2.455
 5652SOL    HW217856   5.884   6.455   2.476
 5653SOL     OW17857   0.306   6.062   6.474
 5653SOL    HW117858   0.329   5.982   6.530
 5653SOL    HW217859   0.310   6.037   6.377
 5654SOL     OW17860   6.387   6.651   5.487
 5654SOL    HW117861   6.445   6.731   5.502
 5654SOL    HW217862   6.445   6.571   5.473
 5655SOL     OW17863   0.994   3.211   4.814
 5655SOL    HW117864   0.984   3.310   4.802
 5655SOL    HW217865   0.927   3.163   4.758
 5656SOL     OW17866   1.217   3.025   0.272
 5656SOL    HW117867   1.264   3.085   0.207
 5656SOL    HW217868   1.253   3.041   0.364
 5657SOL     OW17869   5.571   0.519   0.729
 5657SOL    HW117870   5.520   0.520   0.644
 5657SOL    HW217871   5.518   0.470   0.799
 5658SOL     OW17872   3.247   5.499   5.822
 5658SOL    HW117873   3.290   5.410   5.838
 5658SOL    HW217874   3.274   5.533   5.732
 5659SOL     OW17875   4.061   3.845   3.573
 5659SOL    HW117876   4.135   3.881   3.629
 5659SOL    HW217877   3.983   3.908   3.577
 5660SOL     OW17878   5.529   0.249   5.579
 5660SOL    HW117879   5.537   0.243   5.678
 5660SOL    HW217880   5.451   0.195   5.548
 5661SOL     OW17881   0.480   4.204   5.488
 5661SOL    HW117882   0.516   4.226   5.397
 5661SOL    HW217883   0.537   4.247   5.558
 5662SOL     OW17884   2.715   5.701   3.279
 5662SOL    HW117885   2.648   5.741   3.342
 5662SOL    HW217886   2.695   5.604   3.267
 5663SOL     OW17887   2.044   3.048   6.692
 5663SOL    HW117888   2.023   3.015   6.784
 5663SOL    HW217889   2.057   2.970   6.631
 5664SOL     OW17890   6.905   4.522   4.768
 5664SOL    HW117891   6.861   4.489   4.684
 5664SOL    HW217892   6.924   4.444   4.828
 5665SOL     OW17893   1.354   1.802   6.738
 5665SOL    HW117894   1.273   1.852   6.705
 5665SOL    HW217895   1.432   1.824   6.680
 5666SOL     OW17896   6.063   5.755   1.168
 5666SOL    HW117897   6.146   5.722   1.124
 5666SOL    HW217898   6.001   5.794   1.099
 5667SOL     OW17899   1.285   4.517   3.699
 5667SOL    HW117900   1.273   4.616   3.692
 5667SOL    HW217901   1.201   4.471   3.670
 5668SOL     OW17902   4.741   1.984   4.885
 5668SOL    HW117903   4.790   1.908   4.928
 5668SOL    HW217904   4.801   2.065   4.884
 5669SOL     OW17905   1.007   2.845   6.737
 5669SOL    HW117906   0.978   2.770   6.797
 5669SOL    HW217907   0.949   2.925   6.754
 5670SOL     OW17908   0.125   2.549   3.836
 5670SOL    HW117909   0.193   2.622   3.836
 5670SOL    HW217910   0.165   2.466   3.797
 5671SOL     OW17911   0.562   6.156   6.190
 5671SOL    HW117912   0.471   6.195   6.204
 5671SOL    HW217913   0.585   6.098   6.268
 5672SOL     OW17914   4.170   4.471   6.726
 5672SOL    HW117915   4.266   4.482   6.700
 5672SOL    HW217916   4.141   4.551   6.779
 5673SOL     OW17917   0.962   6.359   1.516
 5673SOL    HW117918   0.983   6.265   1.543
 5673SOL    HW217919   0.901   6.400   1.583
 5674SOL     OW17920   6.615   4.715   4.127
 5674SOL    HW117921   6.525   4.758   4.136
 5674SOL    HW217922   6.686   4.786   4.132
 5675SOL     OW17923   4.747   2.414   5.688
 5675SOL    HW117924   4.731   2.378   5.780
 5675SOL    HW217925   4.789   2.344   5.631
 5676SOL     OW17926   1.772   2.448   2.365
 5676SOL    HW117927   1.868   2.424   2.383
 5676SOL    HW217928   1.759   2.546   2.380
 5677SOL     OW17929   0.769   2.166   3.083
 5677SOL    HW117930   0.845   2.120   3.037
 5677SOL    HW217931   0.735   2.108   3.157
 5678SOL     OW17932   3.396   6.322   2.679
 5678SOL    HW117933   3.331   6.251   2.707
 5678SOL    HW217934   3.346   6.401   2.645
 5679SOL     OW17935   1.237   0.851   3.697
 5679SOL    HW117936   1.169   0.846   3.770
 5679SOL    HW217937   1.222   0.776   3.633
 5680SOL     OW17938   1.500   5.638   0.700
 5680SOL    HW117939   1.417   5.599   0.659
 5680SOL    HW217940   1.520   5.726   0.657
 5681SOL     OW17941   0.326   3.623   6.887
 5681SOL    HW117942   0.348   3.677   6.968
 5681SOL    HW217943   0.283   3.537   6.916
 5682SOL     OW17944   2.274   4.476   5.825
 5682SOL    HW117945   2.210   4.420   5.877
 5682SOL    HW217946   2.352   4.499   5.883
 5683SOL     OW17947   3.404   0.982   0.391
 5683SOL    HW117948   3.425   1.080   0.397
 5683SOL    HW217949   3.320   0.969   0.339
 5684SOL     OW17950   3.371   2.998   4.842
 5684SOL    HW117951   3.373   2.938   4.922
 5684SOL    HW217952   3.412   3.086   4.865
 5685SOL     OW17953   1.899   3.066   2.509
 5685SOL    HW117954   1.956   2.984   2.503
 5685SOL    HW217955   1.853   3.081   2.421
 5686SOL     OW17956   2.698   6.828   6.403
 5686SOL    HW117957   2.644   6.899   6.359
 5686SOL    HW217958   2.652   6.740   6.393
 5687SOL     OW17959   0.977   4.520   5.958
 5687SOL    HW117960   1.069   4.501   5.922
 5687SOL    HW217961   0.921   4.561   5.886
 5688SOL     OW17962   6.849   1.723   0.124
 5688SOL    HW117963   6.937   1.754   0.158
 5688SOL    HW217964   6.857   1.697   0.028
 5689SOL     OW17965   4.216   0.551   0.435
 5689SOL    HW117966   4.224   0.503   0.522
 5689SOL    HW217967   4.306   0.560   0.393
 5690SOL     OW17968   2.449   5.830   0.707
 5690SOL    HW117969   2.411   5.903   0.651
 5690SOL    HW217970   2.449   5.859   0.803
 5691SOL     OW17971   2.923   5.776   1.895
 5691SOL    HW117972   2.863   5.811   1.967
 5691SOL    HW217973   2.875   5.777   1.808
 5692SOL     OW17974   6.874   3.446   6.185
 5692SOL    HW117975   6.919   3.534   6.205
 5692SOL    HW217976   6.932   3.371   6.217
 5693SOL     OW17977   5.886   2.544   2.308
 5693SOL    HW117978   5.786   2.544   2.320
 5693SOL    HW217979   5.927   2.471   2.362
 5694SOL     OW17980   1.268   2.298   3.904
 5694SOL    HW117981   1.173   2.296   3.933
 5694SOL    HW217982   1.301   2.392   3.902
 5695SOL     OW17983   1.477   2.706   3.447
 5695SOL    HW117984   1.553   2.745   3.396
 5695SOL    HW217985   1.466   2.754   3.534
 5696SOL     OW17986   1.745   0.417   3.465
 5696SOL    HW117987   1.740   0.357   3.386
 5696SOL    HW217988   1.751   0.512   3.434
 5697SOL     OW17989   6.063   2.802   1.524
 5697SOL    HW117990   6.060   2.845   1.434
 5697SOL    HW217991   6.069   2.702   1.513
 5698SOL     OW17992   0.720   3.276   2.839
 5698SOL    HW117993   0.647   3.265   2.906
 5698SOL    HW217994   0.770   3.361   2.858
 5699SOL     OW17995   6.455   2.510   2.496
 5699SOL    HW117996   6.395   2.494   2.417
 5699SOL    HW217997   6.518   2.585   2.475
 5700SOL     OW17998   6.919   6.651   3.967
 5700SOL    HW117999   6.981   6.696   3.902
 5700SOL    HW218000   6.963   6.643   4.056
 5701SOL     OW18001   1.335   6.554   3.214
 5701SOL    HW118002   1.403   6.504   3.160
 5701SOL    HW218003   1.262   6.586   3.153
 5702SOL     OW18004   1.933   6.897   5.860
 5702SOL    HW118005   1.919   6.833   5.784
 5702SOL    HW218006   1.997   6.857   5.926
 5703SOL     OW18007   5.823   4.888   1.714
 5703SOL    HW118008   5.893   4.834   1.667
 5703SOL    HW218009   5.779   4.950   1.648
 5704SOL     OW18010   4.227   5.645   1.975
 5704SOL    HW118011   4.158   5.718   1.982
 5704SOL    HW218012   4.245   5.608   2.066
 5705SOL     OW18013   4.960   0.720   1.546
 5705SOL    HW118014   4.871   0.704   1.588
 5705SOL    HW218015   5.002   0.801   1.587
 5706SOL     OW18016   0.475   2.586   0.108
 5706SOL    HW118017   0.553   2.592   0.171
 5706SOL    HW218018   0.466   2.673   0.059
 5707SOL     OW18019   7.021   0.036   0.357
 5707SOL    HW118020   0.042   6.979   0.395
 5707SOL    HW218021   0.063   0.087   0.301
 5708SOL     OW18022   5.326   6.254   1.284
 5708SOL    HW118023   5.353   6.163   1.317
 5708SOL    HW218024   5.249   6.287   1.339
 5709SOL     OW18025   1.825   0.285   3.681
 5709SOL    HW118026   1.793   0.310   3.589
 5709SOL    HW218027   1.924   0.270   3.678
 5710SOL     OW18028   2.373   2.993   6.395
 5710SOL    HW118029   2.348   3.089   6.380
 5710SOL    HW218030   2.309   2.934   6.346
 5711SOL     OW18031   4.997   1.246   2.823
 5711SOL    HW118032   4.966   1.189   2.747
 5711SOL    HW218033   5.066   1.311   2.789
 5712SOL     OW18034   1.056   5.526   5.762
 5712SOL    HW118035   1.096   5.499   5.849
 5712SOL    HW218036   1.042   5.446   5.705
 5713SOL     OW18037   2.044   2.294   1.703
 5713SOL    HW118038   2.041   2.267   1.799
 5713SOL    HW218039   2.120   2.248   1.657
 5714SOL     OW18040   0.627   5.841   6.088
 5714SOL    HW118041   0.710   5.791   6.063
 5714SOL    HW218042   0.632   5.870   6.183
 5715SOL     OW18043   1.288   6.407   2.935
 5715SOL    HW118044   1.377   6.387   2.974
 5715SOL    HW218045   1.300   6.450   2.845
 5716SOL     OW18046   1.389   4.583   0.155
 5716SOL    HW118047   1.332   4.635   0.090
 5716SOL    HW218048   1.471   4.551   0.108
 5717SOL     OW18049   1.797   5.874   0.738
 5717SOL    HW118050   1.819   5.779   0.719
 5717SOL    HW218051   1.776   5.885   0.835
 5718SOL     OW18052   1.188   3.780   6.142
 5718SOL    HW118053   1.192   3.692   6.095
 5718SOL    HW218054   1.146   3.848   6.082
 5719SOL     OW18055   2.565   1.340   6.328
 5719SOL    HW118056   2.609   1.282   6.259
 5719SOL    HW218057   2.589   1.435   6.310
 5720SOL     OW18058   1.233   5.038   4.559
 5720SOL    HW118059   1.330   5.011   4.556
 5720SOL    HW218060   1.191   5.022   4.470
 5721SOL     OW18061   0.479   3.500   0.870
 5721SOL    HW118062   0.548   3.429   0.859
 5721SOL    HW218063   0.521   3.590   0.855
 5722SOL     OW18064   6.418   1.691   5.330
 5722SOL    HW118065   6.450   1.770   5.277
 5722SOL    HW218066   6.328   1.711   5.369
 5723SOL     OW18067   4.610   3.413   6.704
 5723SOL    HW118068   4.610   3.494   6.763
 5723SOL    HW218069   4.519   3.372   6.705
 5724SOL     OW18070   4.274   2.708   5.362
 5724SOL    HW118071   4.216   2.669   5.434
 5724SOL    HW218072   4.264   2.654   5.279
 5725SOL     OW18073   6.216   5.873   4.081
 5725SOL    HW118074   6.146   5.944   4.088
 5725SOL    HW218075   6.240   5.841   4.173
 5726SOL     OW18076   6.862   4.231   4.343
 5726SOL    HW118077   6.831   4.173   4.268
 5726SOL    HW218078   6.902   4.315   4.306
 5727SOL     OW18079   0.942   2.650   3.906
 5727SOL    HW118080   0.959   2.572   3.846
 5727SOL    HW218081   1.015   2.657   3.974
 5728SOL     OW18082   4.247   1.615   6.966
 5728SOL    HW118083   4.171   1.551   6.964
 5728SOL    HW218084   4.245   1.667   0.028
 5729SOL     OW18085   1.078   1.423   0.512
 5729SOL    HW118086   1.128   1.415   0.598
 5729SOL    HW218087   1.106   1.507   0.465
 5730SOL     OW18088   4.333   5.350   5.650
 5730SOL    HW118089   4.282   5.434   5.629
 5730SOL    HW218090   4.380   5.318   5.568
 5731SOL     OW18091   1.748   6.458   3.917
 5731SOL    HW118092   1.717   6.424   3.828
 5731SOL    HW218093   1.678   6.518   3.956
 5732SOL     OW18094   6.843   5.169   5.341
 5732SOL    HW118095   6.878   5.120   5.261
 5732SOL    HW218096   6.743   5.174   5.336
 5733SOL     OW18097   3.758   0.347   5.738
 5733SOL    HW118098   3.830   0.406   5.701
 5733SOL    HW218099   3.721   0.388   5.821
 5734SOL     OW18100   1.506   5.623   5.758
 5734SOL    HW118101   1.471   5.584   5.844
 5734SOL    HW218102   1.453   5.704   5.734
 5735SOL     OW18103   3.799   1.542   2.478
 5735SOL    HW118104   3.774   1.614   2.414
 5735SOL    HW218105   3.735   1.542   2.555
 5736SOL     OW18106   6.887   4.467   1.185
 5736SOL    HW118107   6.871   4.536   1.114
 5736SOL    HW218108   6.837   4.492   1.268
 5737SOL     OW18109   4.630   5.437   6.755
 5737SOL    HW118110   4.545   5.398   6.721
 5737SOL    HW218111   4.671   5.494   6.683
 5738SOL     OW18112   3.161   2.178   6.473
 5738SOL    HW118113   3.234   2.246   6.487
 5738SOL    HW218114   3.084   2.221   6.427
 5739SOL     OW18115   0.784   6.852   5.374
 5739SOL    HW118116   0.853   6.917   5.405
 5739SOL    HW218117   0.808   6.760   5.405
 5740SOL     OW18118   3.908   3.695   0.957
 5740SOL    HW118119   3.936   3.750   0.879
 5740SOL    HW218120   3.817   3.724   0.986
 5741SOL     OW18121   6.457   4.078   4.625
 5741SOL    HW118122   6.439   3.999   4.566
 5741SOL    HW218123   6.478   4.046   4.718
 5742SOL     OW18124   4.601   6.594   2.269
 5742SOL    HW118125   4.554   6.601   2.357
 5742SOL    HW218126   4.596   6.682   2.222
 5743SOL     OW18127   2.353   5.500   5.410
 5743SOL    HW118128   2.381   5.428   5.346
 5743SOL    HW218129   2.426   5.517   5.475
 5744SOL     OW18130   4.663   1.395   0.791
 5744SOL    HW118131   4.735   1.401   0.722
 5744SOL    HW218132   4.577   1.369   0.748
 5745SOL     OW18133   2.153   1.495   3.899
 5745SOL    HW118134   2.229   1.507   3.962
 5745SOL    HW218135   2.067   1.504   3.949
 5746SOL     OW18136   5.265   6.805   1.930
 5746SOL    HW118137   5.296   6.831   1.839
 5746SOL    HW218138   5.262   6.885   1.989
 5747SOL     OW18139   0.883   4.893   2.184
 5747SOL    HW118140   0.847   4.818   2.129
 5747SOL    HW218141   0.917   4.966   2.125
 5748SOL     OW18142   1.191   0.395   0.940
 5748SOL    HW118143   1.123   0.424   1.007
 5748SOL    HW218144   1.217   0.300   0.957
 5749SOL     OW18145   1.308   6.189   4.728
 5749SOL    HW118146   1.360   6.224   4.650
 5749SOL    HW218147   1.228   6.140   4.696
 5750SOL     OW18148   6.570   6.521   4.930
 5750SOL    HW118149   6.571   6.561   5.022
 5750SOL    HW218150   6.632   6.442   4.928
 5751SOL     OW18151   2.182   3.146   4.839
 5751SOL    HW118152   2.247   3.100   4.899
 5751SOL    HW218153   2.161   3.087   4.761
 5752SOL     OW18154   6.355   0.203   0.481
 5752SOL    HW118155   6.445   0.179   0.517
 5752SOL    HW218156   6.363   0.285   0.424
 5753SOL     OW18157   3.981   3.410   4.322
 5753SOL    HW118158   3.922   3.443   4.248
 5753SOL    HW218159   4.045   3.482   4.349
 5754SOL     OW18160   0.077   5.364   1.652
 5754SOL    HW118161   0.124   5.411   1.727
 5754SOL    HW218162   0.022   5.429   1.601
 5755SOL     OW18163   2.543   2.272   6.632
 5755SOL    HW118164   2.635   2.242   6.656
 5755SOL    HW218165   2.476   2.205   6.666
 5756SOL     OW18166   6.264   0.371   3.462
 5756SOL    HW118167   6.180   0.415   3.494
 5756SOL    HW218168   6.241   0.303   3.392
 5757SOL     OW18169   0.350   6.188   3.061
 5757SOL    HW118170   0.332   6.096   3.026
 5757SOL    HW218171   0.263   6.232   3.085
 5758SOL     OW18172   2.423   1.072   4.623
 5758SOL    HW118173   2.488   1.106   4.555
 5758SOL    HW218174   2.458   0.987   4.662
 5759SOL     OW18175   4.880   0.993   6.789
 5759SOL    HW118176   4.968   0.966   6.749
 5759SOL    HW218177   4.834   1.056   6.726
 5760SOL     OW18178   6.645   3.255   0.733
 5760SOL    HW118179   6.573   3.318   0.762
 5760SOL    HW218180   6.604   3.168   0.705
 5761SOL     OW18181   5.992   5.615   6.311
 5761SOL    HW118182   6.050   5.630   6.231
 5761SOL    HW218183   5.985   5.516   6.329
 5762SOL     OW18184   5.108   4.203   0.705
 5762SOL    HW118185   5.177   4.255   0.653
 5762SOL    HW218186   5.052   4.149   0.642
 5763SOL     OW18187   6.364   6.393   0.618
 5763SOL    HW118188   6.319   6.479   0.595
 5763SOL    HW218189   6.379   6.389   0.717
 5764SOL     OW18190   5.299   5.052   5.377
 5764SOL    HW118191   5.372   4.989   5.403
 5764SOL    HW218192   5.233   5.060   5.452
 5765SOL     OW18193   6.556   2.590   0.562
 5765SOL    HW118194   6.638   2.647   0.563
 5765SOL    HW218195   6.492   2.624   0.494
 5766SOL     OW18196   1.936   1.723   6.603
 5766SOL    HW118197   1.888   1.807   6.628
 5766SOL    HW218198   1.968   1.730   6.509
 5767SOL     OW18199   1.420   0.996   0.547
 5767SOL    HW118200   1.511   1.001   0.588
 5767SOL    HW218201   1.378   0.908   0.569
 5768SOL     OW18202   1.248   5.807   3.928
 5768SOL    HW118203   1.156   5.845   3.913
 5768SOL    HW218204   1.308   5.879   3.964
 5769SOL     OW18205   2.578   6.157   4.615
 5769SOL    HW118206   2.598   6.139   4.712
 5769SOL    HW218207   2.649   6.115   4.558
 5770SOL     OW18208   6.270   6.006   0.142
 5770SOL    HW118209   6.253   6.104   0.132
 5770SOL    HW218210   6.286   5.965   0.053
 5771SOL     OW18211   1.523   0.215   4.267
 5771SOL    HW118212   1.429   0.234   4.240
 5771SOL    HW218213   1.577   0.188   4.187
 5772SOL     OW18214   5.037   1.926   1.574
 5772SOL    HW118215   5.030   1.836   1.532
 5772SOL    HW218216   4.969   1.987   1.534
 5773SOL     OW18217   3.975   0.617   2.923
 5773SOL    HW118218   3.891   0.566   2.941
 5773SOL    HW218219   3.982   0.694   2.987
 5774SOL     OW18220   2.601   6.266   3.592
 5774SOL    HW118221   2.677   6.293   3.533
 5774SOL    HW218222   2.516   6.270   3.540
 5775SOL     OW18223   1.760   0.512   2.359
 5775SOL    HW118224   1.800   0.512   2.451
 5775SOL    HW218225   1.663   0.536   2.365
 5776SOL     OW18226   0.091   0.690   4.564
 5776SOL    HW118227   0.041   0.760   4.615
 5776SOL    HW218228   0.045   0.675   4.476
 5777SOL     OW18229   6.716   0.306   5.106
 5777SOL    HW118230   6.721   0.206   5.107
 5777SOL    HW218231   6.759   0.341   5.023
 5778SOL     OW18232   1.744   1.040   1.550
 5778SOL    HW118233   1.801   0.959   1.563
 5778SOL    HW218234   1.743   1.065   1.453
 5779SOL     OW18235   4.645   3.257   1.005
 5779SOL    HW118236   4.582   3.285   0.933
 5779SOL    HW218237   4.593   3.236   1.088
 5780SOL     OW18238   5.934   5.885   3.793
 5780SOL    HW118239   5.938   5.790   3.824
 5780SOL    HW218240   5.951   5.946   3.871
 5781SOL     OW18241   6.791   4.439   4.533
 5781SOL    HW118242   6.788   4.356   4.477
 5781SOL    HW218243   6.704   4.488   4.523
 5782SOL     OW18244   1.109   1.643   0.343
 5782SOL    HW118245   1.029   1.624   0.287
 5782SOL    HW218246   1.151   1.729   0.314
 5783SOL     OW18247   2.282   0.513   1.585
 5783SOL    HW118248   2.262   0.569   1.665
 5783SOL    HW218249   2.351   0.558   1.528
 5784SOL     OW18250   6.819   5.726   6.997
 5784SOL    HW118251   6.826   5.761   6.903
 5784SOL    HW218252   6.738   5.764   0.017
 5785SOL     OW18253   2.023   1.683   0.725
 5785SOL    HW118254   2.063   1.701   0.815
 5785SOL    HW218255   2.093   1.692   0.655
 5786SOL     OW18256   0.591   3.580   0.472
 5786SOL    HW118257   0.668   3.599   0.532
 5786SOL    HW218258   0.547   3.495   0.501
 5787SOL     OW18259   4.005   1.506   5.094
 5787SOL    HW118260   4.000   1.441   5.018
 5787SOL    HW218261   3.915   1.515   5.136
 5788SOL     OW18262   3.022   1.739   1.672
 5788SOL    HW118263   3.091   1.740   1.745
 5788SOL    HW218264   3.034   1.820   1.615
 5789SOL     OW18265   2.792   4.258   0.196
 5789SOL    HW118266   2.858   4.318   0.150
 5789SOL    HW218267   2.745   4.202   0.127
 5790SOL     OW18268   0.394   4.354   4.920
 5790SOL    HW118269   0.410   4.405   5.005
 5790SOL    HW218270   0.324   4.399   4.866
 5791SOL     OW18271   3.019   1.661   2.555
 5791SOL    HW118272   3.065   1.691   2.638
 5791SOL    HW218273   2.928   1.701   2.550
 5792SOL     OW18274   5.985   3.012   2.601
 5792SOL    HW118275   5.908   3.069   2.573
 5792SOL    HW218276   5.973   2.920   2.564
 5793SOL     OW18277   5.356   0.812   3.649
 5793SOL    HW118278   5.303   0.871   3.710
 5793SOL    HW218279   5.297   0.779   3.575
 5794SOL     OW18280   2.092   0.980   0.147
 5794SOL    HW118281   2.129   1.023   0.230
 5794SOL    HW218282   2.032   0.905   0.173
 5795SOL     OW18283   6.468   0.224   6.630
 5795SOL    HW118284   6.480   0.214   6.531
 5795SOL    HW218285   6.379   0.186   6.657
 5796SOL     OW18286   4.958   1.292   6.129
 5796SOL    HW118287   5.003   1.237   6.200
 5796SOL    HW218288   4.872   1.248   6.103
 5797SOL     OW18289   4.750   2.158   0.336
 5797SOL    HW118290   4.792   2.220   0.403
 5797SOL    HW218291   4.655   2.143   0.362
 5798SOL     OW18292   0.828   5.499   4.401
 5798SOL    HW118293   0.779   5.497   4.488
 5798SOL    HW218294   0.774   5.451   4.332
 5799SOL     OW18295   0.612   0.875   3.476
 5799SOL    HW118296   0.687   0.935   3.448
 5799SOL    HW218297   0.529   0.929   3.489
 5800SOL     OW18298   6.265   6.315   1.780
 5800SOL    HW118299   6.300   6.231   1.821
 5800SOL    HW218300   6.178   6.339   1.823
 5801SOL     OW18301   1.690   2.823   3.299
 5801SOL    HW118302   1.719   2.749   3.239
 5801SOL    HW218303   1.671   2.905   3.244
 5802SOL     OW18304   0.336   3.544   2.775
 5802SOL    HW118305   0.282   3.628   2.764
 5802SOL    HW218306   0.433   3.566   2.771
 5803SOL     OW18307   2.212   5.245   1.558
 5803SOL    HW118308   2.168   5.284   1.477
 5803SOL    HW218309   2.178   5.153   1.574
 5804SOL     OW18310   0.349   5.135   3.382
 5804SOL    HW118311   0.300   5.070   3.323
 5804SOL    HW218312   0.299   5.146   3.468
 5805SOL     OW18313   2.318   3.267   0.427
 5805SOL    HW118314   2.303   3.317   0.512
 5805SOL    HW218315   2.414   3.271   0.402
 5806SOL     OW18316   6.866   5.072   4.870
 5806SOL    HW118317   6.793   5.140   4.863
 5806SOL    HW218318   6.840   4.990   4.820
 5807SOL     OW18319   0.849   4.001   0.547
 5807SOL    HW118320   0.853   3.929   0.477
 5807SOL    HW218321   0.937   4.047   0.552
 5808SOL     OW18322   6.252   5.190   4.048
 5808SOL    HW118323   6.295   5.171   4.137
 5808SOL    HW218324   6.261   5.288   4.028
 5809SOL     OW18325   6.687   2.397   4.712
 5809SOL    HW118326   6.700   2.300   4.735
 5809SOL    HW218327   6.616   2.435   4.771
 5810SOL     OW18328   4.255   1.591   5.171
 5810SOL    HW118329   4.311   1.542   5.238
 5810SOL    HW218330   4.165   1.549   5.166
 5811SOL     OW18331   3.382   0.719   5.136
 5811SOL    HW118332   3.301   0.661   5.124
 5811SOL    HW218333   3.369   0.805   5.085
 5812SOL     OW18334   6.005   2.948   4.868
 5812SOL    HW118335   5.907   2.960   4.856
 5812SOL    HW218336   6.040   2.884   4.800
 5813SOL     OW18337   1.709   1.484   1.542
 5813SOL    HW118338   1.751   1.531   1.619
 5813SOL    HW218339   1.735   1.529   1.457
 5814SOL     OW18340   6.044   4.016   2.153
 5814SOL    HW118341   6.137   3.987   2.178
 5814SOL    HW218342   6.048   4.105   2.108
 5815SOL     OW18343   4.370   1.283   4.493
 5815SOL    HW118344   4.286   1.320   4.454
 5815SOL    HW218345   4.446   1.345   4.472
 5816SOL     OW18346   4.893   4.466   0.680
 5816SOL    HW118347   4.962   4.491   0.612
 5816SOL    HW218348   4.811   4.434   0.635
 5817SOL     OW18349   5.718   4.467   5.869
 5817SOL    HW118350   5.800   4.506   5.827
 5817SOL    HW218351   5.655   4.541   5.894
 5818SOL     OW18352   6.819   5.605   5.195
 5818SOL    HW118353   6.801   5.666   5.273
 5818SOL    HW218354   6.918   5.590   5.187
 5819SOL     OW18355   3.505   0.050   6.603
 5819SOL    HW118356   3.485   0.053   6.701
 5819SOL    HW218357   3.512   6.978   6.573
 5820SOL     OW18358   4.717   4.668   3.499
 5820SOL    HW118359   4.634   4.643   3.449
 5820SOL    HW218360   4.692   4.707   3.587
 5821SOL     OW18361   0.163   0.227   2.011
 5821SOL    HW118362   0.108   0.301   1.974
 5821SOL    HW218363   0.106   0.169   2.070
 5822SOL     OW18364   1.217   2.495   1.531
 5822SOL    HW118365   1.167   2.412   1.555
 5822SOL    HW218366   1.168   2.575   1.567
 5823SOL     OW18367   2.959   0.224   4.894
 5823SOL    HW118368   2.976   0.194   4.988
 5823SOL    HW218369   2.901   0.158   4.847
 5824SOL     OW18370   6.934   5.711   2.385
 5824SOL    HW118371   6.986   5.674   2.462
 5824SOL    HW218372   6.837   5.715   2.408
 5825SOL     OW18373   0.026   0.978   5.301
 5825SOL    HW118374   6.968   0.920   5.303
 5825SOL    HW218375   0.061   0.982   5.207
 5826SOL     OW18376   0.395   5.101   5.707
 5826SOL    HW118377   0.362   5.145   5.623
 5826SOL    HW218378   0.412   5.171   5.777
 5827SOL     OW18379   1.984   4.321   4.780
 5827SOL    HW118380   1.965   4.258   4.705
 5827SOL    HW218381   1.909   4.317   4.846
 5828SOL     OW18382   5.837   1.772   1.671
 5828SOL    HW118383   5.915   1.715   1.646
 5828SOL    HW218384   5.858   1.868   1.649
 5829SOL     OW18385   1.064   0.552   3.583
 5829SOL    HW118386   1.045   0.523   3.677
 5829SOL    HW218387   1.006   0.631   3.561
 5830SOL     OW18388   4.925   6.284   6.148
 5830SOL    HW118389   4.921   6.358   6.081
 5830SOL    HW218390   4.869   6.207   6.116
 5831SOL     OW18391   1.385   1.302   5.312
 5831SOL    HW118392   1.461   1.256   5.358
 5831SOL    HW218393   1.300   1.254   5.332
 5832SOL     OW18394   2.980   4.876   6.824
 5832SOL    HW118395   2.946   4.970   6.820
 5832SOL    HW218396   3.074   4.873   6.791
 5833SOL     OW18397   3.556   4.166   4.981
 5833SOL    HW118398   3.540   4.259   4.947
 5833SOL    HW218399   3.626   4.168   5.052
 5834SOL     OW18400   0.025   2.413   0.375
 5834SOL    HW118401   0.089   2.383   0.303
 5834SOL    HW218402   6.956   2.384   0.352
 5835SOL     OW18403   5.520   3.238   3.239
 5835SOL    HW118404   5.600   3.257   3.183
 5835SOL    HW218405   5.538   3.266   3.334
 5836SOL     OW18406   2.605   6.935   1.775
 5836SOL    HW118407   2.547   6.973   1.702
 5836SOL    HW218408   2.560   6.855   1.814
 5837SOL     OW18409   3.493   4.080   0.004
 5837SOL    HW118410   3.440   4.152   0.049
 5837SOL    HW218411   3.562   4.121   6.967
 5838SOL     OW18412   2.687   1.827   0.864
 5838SOL    HW118413   2.645   1.902   0.813
 5838SOL    HW218414   2.662   1.835   0.961
 5839SOL     OW18415   0.786   1.804   2.447
 5839SOL    HW118416   0.738   1.888   2.474
 5839SOL    HW218417   0.726   1.749   2.389
 5840SOL     OW18418   0.825   4.800   6.886
 5840SOL    HW118419   0.755   4.752   6.834
 5840SOL    HW218420   0.885   4.734   6.930
 5841SOL     OW18421   5.064   1.801   2.241
 5841SOL    HW118422   5.117   1.792   2.325
 5841SOL    HW218423   5.104   1.871   2.183
 5842SOL     OW18424   5.173   3.373   1.516
 5842SOL    HW118425   5.138   3.279   1.522
 5842SOL    HW218426   5.213   3.387   1.425
 5843SOL     OW18427   1.468   3.849   2.762
 5843SOL    HW118428   1.388   3.907   2.752
 5843SOL    HW218429   1.510   3.834   2.672
 5844SOL     OW18430   1.911   6.108   5.899
 5844SOL    HW118431   1.886   6.167   5.823
 5844SOL    HW218432   1.902   6.158   5.985
 5845SOL     OW18433   0.374   0.196   2.416
 5845SOL    HW118434   0.412   0.106   2.438
 5845SOL    HW218435   0.367   0.250   2.500
 5846SOL     OW18436   5.888   2.970   5.393
 5846SOL    HW118437   5.848   2.883   5.424
 5846SOL    HW218438   5.861   2.985   5.298
 5847SOL     OW18439   2.919   2.323   1.689
 5847SOL    HW118440   2.905   2.225   1.706
 5847SOL    HW218441   2.898   2.375   1.772
 5848SOL     OW18442   1.267   5.253   2.699
 5848SOL    HW118443   1.293   5.165   2.660
 5848SOL    HW218444   1.347   5.312   2.704
 5849SOL     OW18445   1.079   0.753   5.542
 5849SOL    HW118446   1.037   0.741   5.631
 5849SOL    HW218447   1.112   0.848   5.533
 5850SOL     OW18448   6.601   3.993   1.908
 5850SOL    HW118449   6.695   3.983   1.940
 5850SOL    HW218450   6.543   3.928   1.957
 5851SOL     OW18451   5.197   3.383   2.941
 5851SOL    HW118452   5.241   3.294   2.954
 5851SOL    HW218453   5.206   3.411   2.845
 5852SOL     OW18454   5.533   6.584   3.379
 5852SOL    HW118455   5.598   6.613   3.449
 5852SOL    HW218456   5.504   6.664   3.327
 5853SOL     OW18457   3.415   5.664   4.472
 5853SOL    HW118458   3.458   5.646   4.561
 5853SOL    HW218459   3.369   5.581   4.439
 5854SOL     OW18460   4.582   4.467   6.087
 5854SOL    HW118461   4.498   4.440   6.134
 5854SOL    HW218462   4.655   4.478   6.154
 5855SOL     OW18463   0.692   1.645   4.867
 5855SOL    HW118464   0.763   1.588   4.824
 5855SOL    HW218465   0.654   1.707   4.799
 5856SOL     OW18466   1.972   5.763   4.021
 5856SOL    HW118467   1.872   5.756   4.017
 5856SOL    HW218468   1.997   5.852   4.058
 5857SOL     OW18469   6.140   2.534   6.128
 5857SOL    HW118470   6.112   2.456   6.073
 5857SOL    HW218471   6.062   2.596   6.140
 5858SOL     OW18472   2.775   2.129   3.180
 5858SOL    HW118473   2.768   2.123   3.280
 5858SOL    HW218474   2.755   2.040   3.140
 5859SOL     OW18475   6.047   6.387   1.933
 5859SOL    HW118476   6.074   6.412   2.026
 5859SOL    HW218477   5.951   6.411   1.919
 5860SOL     OW18478   0.551   3.360   2.174
 5860SOL    HW118479   0.502   3.291   2.226
 5860SOL    HW218480   0.487   3.433   2.147
 5861SOL     OW18481   4.589   1.481   4.370
 5861SOL    HW118482   4.570   1.434   4.284
 5861SOL    HW218483   4.684   1.512   4.371
 5862SOL     OW18484   6.275   5.608   1.024
 5862SOL    HW118485   6.329   5.685   0.989
 5862SOL    HW218486   6.325   5.561   1.096
 5863SOL     OW18487   3.363   1.868   5.130
 5863SOL    HW118488   3.379   1.967   5.136
 5863SOL    HW218489   3.404   1.834   5.045
 5864SOL     OW18490   3.957   3.924   2.289
 5864SOL    HW118491   3.900   3.993   2.334
 5864SOL    HW218492   4.012   3.877   2.358
 5865SOL     OW18493   6.128   0.079   5.089
 5865SOL    HW118494   6.063   0.051   5.160
 5865SOL    HW218495   6.134   0.179   5.086
 5866SOL     OW18496   4.058   4.463   0.315
 5866SOL    HW118497   4.101   4.392   0.372
 5866SOL    HW218498   3.977   4.426   0.270
 5867SOL     OW18499   2.353   3.087   1.181
 5867SOL    HW118500   2.254   3.072   1.188
 5867SOL    HW218501   2.402   3.013   1.227
 5868SOL     OW18502   0.707   1.723   5.364
 5868SOL    HW118503   0.765   1.804   5.375
 5868SOL    HW218504   0.734   1.653   5.429
 5869SOL     OW18505   2.008   6.464   3.642
 5869SOL    HW118506   1.934   6.529   3.656
 5869SOL    HW218507   2.088   6.512   3.606
 5870SOL     OW18508   4.366   6.541   4.561
 5870SOL    HW118509   4.364   6.442   4.553
 5870SOL    HW218510   4.380   6.567   4.657
 5871SOL     OW18511   3.391   3.478   1.350
 5871SOL    HW118512   3.401   3.381   1.372
 5871SOL    HW218513   3.400   3.532   1.434
 5872SOL     OW18514   4.392   5.683   1.311
 5872SOL    HW118515   4.445   5.637   1.239
 5872SOL    HW218516   4.309   5.722   1.272
 5873SOL     OW18517   3.342   1.647   1.925
 5873SOL    HW118518   3.321   1.712   1.998
 5873SOL    HW218519   3.262   1.589   1.908
 5874SOL     OW18520   3.497   4.382   6.294
 5874SOL    HW118521   3.444   4.413   6.215
 5874SOL    HW218522   3.539   4.294   6.275
 5875SOL     OW18523   4.423   1.053   6.859
 5875SOL    HW118524   4.369   1.037   6.942
 5875SOL    HW218525   4.370   1.110   6.796
 5876SOL     OW18526   3.739   3.103   0.234
 5876SOL    HW118527   3.732   3.199   0.261
 5876SOL    HW218528   3.647   3.063   0.230
 5877SOL     OW18529   0.729   0.614   1.255
 5877SOL    HW118530   0.703   0.529   1.209
 5877SOL    HW218531   0.647   0.669   1.271
 5878SOL     OW18532   5.851   5.286   3.834
 5878SOL    HW118533   5.854   5.321   3.928
 5878SOL    HW218534   5.760   5.300   3.796
 5879SOL     OW18535   1.660   4.261   6.880
 5879SOL    HW118536   1.673   4.203   6.799
 5879SOL    HW218537   1.564   4.288   6.885
 5880SOL     OW18538   4.861   4.584   6.192
 5880SOL    HW118539   4.845   4.661   6.255
 5880SOL    HW218540   4.847   4.615   6.098
 5881SOL     OW18541   0.726   0.141   2.512
 5881SOL    HW118542   0.749   0.147   2.415
 5881SOL    HW218543   0.639   0.092   2.523
 5882SOL     OW18544   0.319   5.795   0.246
 5882SOL    HW118545   0.341   5.709   0.200
 5882SOL    HW218546   0.256   5.848   0.190
 5883SOL     OW18547   0.655   1.477   6.482
 5883SOL    HW118548   0.675   1.476   6.384
 5883SOL    HW218549   0.715   1.413   6.529
 5884SOL     OW18550   4.494   1.070   4.385
 5884SOL    HW118551   4.447   1.144   4.433
 5884SOL    HW218552   4.429   1.019   4.329
 5885SOL     OW18553   0.479   6.619   2.180
 5885SOL    HW118554   0.577   6.640   2.176
 5885SOL    HW218555   0.442   6.651   2.268
 5886SOL     OW18556   0.125   2.035   3.790
 5886SOL    HW118557   0.051   2.021   3.724
 5886SOL    HW218558   0.191   1.961   3.782
 5887SOL     OW18559   2.817   2.089   1.932
 5887SOL    HW118560   2.843   2.174   1.978
 5887SOL    HW218561   2.899   2.032   1.919
 5888SOL     OW18562   2.310   0.514   1.184
 5888SOL    HW118563   2.382   0.445   1.190
 5888SOL    HW218564   2.260   0.518   1.270
 5889SOL     OW18565   0.450   0.485   0.395
 5889SOL    HW118566   0.460   0.390   0.425
 5889SOL    HW218567   0.515   0.542   0.446
 5890SOL     OW18568   2.372   1.215   3.126
 5890SOL    HW118569   2.385   1.178   3.218
 5890SOL    HW218570   2.313   1.296   3.130
 5891SOL     OW18571   3.191   3.225   6.951
 5891SOL    HW118572   3.165   3.319   6.974
 5891SOL    HW218573   3.257   3.192   7.018
 5892SOL     OW18574   0.848   4.974   2.531
 5892SOL    HW118575   0.776   4.924   2.482
 5892SOL    HW218576   0.926   4.913   2.545
 5893SOL     OW18577   1.950   4.115   3.817
 5893SOL    HW118578   1.991   4.188   3.870
 5893SOL    HW218579   1.882   4.066   3.873
 5894SOL     OW18580   0.112   5.916   4.186
 5894SOL    HW118581   0.019   5.940   4.158
 5894SOL    HW218582   0.131   5.821   4.160
 5895SOL     OW18583   5.276   3.005   3.908
 5895SOL    HW118584   5.207   2.934   3.894
 5895SOL    HW218585   5.361   2.979   3.863
 5896SOL     OW18586   3.535   1.019   1.179
 5896SOL    HW118587   3.553   1.043   1.083
 5896SOL    HW218588   3.458   0.956   1.183
 5897SOL     OW18589   4.271   6.675   1.707
 5897SOL    HW118590   4.362   6.649   1.739
 5897SOL    HW218591   4.265   6.660   1.608
 5898SOL     OW18592   2.921   0.376   4.143
 5898SOL    HW118593   2.848   0.324   4.187
 5898SOL    HW218594   2.984   0.313   4.098
 5899SOL     OW18595   6.406   5.198   0.147
 5899SOL    HW118596   6.501   5.217   0.124
 5899SOL    HW218597   6.399   5.168   0.242
 5900SOL     OW18598   6.195   5.141   3.524
 5900SOL    HW118599   6.228   5.210   3.459
 5900SOL    HW218600   6.242   5.153   3.611
 5901SOL     OW18601   2.178   1.092   0.397
 5901SOL    HW118602   2.154   1.032   0.473
 5901SOL    HW218603   2.232   1.169   0.431
 5902SOL     OW18604   5.672   2.121   5.100
 5902SOL    HW118605   5.720   2.057   5.160
 5902SOL    HW218606   5.721   2.130   5.014
 5903SOL     OW18607   4.970   3.628   6.885
 5903SOL    HW118608   5.015   3.568   6.818
 5903SOL    HW218609   5.029   3.638   6.965
 5904SOL     OW18610   1.866   4.548   1.001
 5904SOL    HW118611   1.840   4.587   1.089
 5904SOL    HW218612   1.931   4.472   1.015
 5905SOL     OW18613   6.189   0.030   4.006
 5905SOL    HW118614   6.174   6.967   4.055
 5905SOL    HW218615   6.270   0.022   3.949
 5906SOL     OW18616   3.736   1.735   3.366
 5906SOL    HW118617   3.638   1.724   3.385
 5906SOL    HW218618   3.766   1.825   3.397
 5907SOL     OW18619   1.000   5.753   0.176
 5907SOL    HW118620   1.088   5.785   0.210
 5907SOL    HW218621   0.946   5.715   0.251
 5908SOL     OW18622   0.119   3.035   0.196
 5908SOL    HW118623   0.068   3.121   0.206
 5908SOL    HW218624   0.207   3.044   0.242
 5909SOL     OW18625   6.778   4.931   0.675
 5909SOL    HW118626   6.869   4.896   0.652
 5909SOL    HW218627   6.764   5.019   0.630
 5910SOL     OW18628   0.851   4.264   3.310
 5910SOL    HW118629   0.923   4.220   3.364
 5910SOL    HW218630   0.779   4.198   3.290
 5911SOL     OW18631   6.839   5.145   6.215
 5911SOL    HW118632   6.858   5.127   6.311
 5911SOL    HW218633   6.908   5.097   6.159
 5912SOL     OW18634   6.089   2.413   6.598
 5912SOL    HW118635   6.049   2.378   6.513
 5912SOL    HW218636   6.119   2.507   6.584
 5913SOL     OW18637   5.179   3.118   6.349
 5913SOL    HW118638   5.240   3.095   6.273
 5913SOL    HW218639   5.232   3.125   6.433
 5914SOL     OW18640   1.628   5.043   6.693
 5914SOL    HW118641   1.549   5.088   6.734
 5914SOL    HW218642   1.606   5.016   6.599
 5915SOL     OW18643   5.158   5.382   1.308
 5915SOL    HW118644   5.211   5.458   1.271
 5915SOL    HW218645   5.064   5.387   1.274
 5916SOL     OW18646   4.169   5.705   4.532
 5916SOL    HW118647   4.145   5.731   4.625
 5916SOL    HW218648   4.147   5.608   4.518
 5917SOL     OW18649   3.142   3.403   4.071
 5917SOL    HW118650   3.222   3.369   4.121
 5917SOL    HW218651   3.080   3.327   4.054
 5918SOL     OW18652   1.684   3.694   5.961
 5918SOL    HW118653   1.611   3.636   5.925
 5918SOL    HW218654   1.702   3.768   5.896
 5919SOL     OW18655   3.819   3.407   1.908
 5919SOL    HW118656   3.861   3.362   1.829
 5919SOL    HW218657   3.733   3.361   1.931
 5920SOL     OW18658   4.126   0.631   6.827
 5920SOL    HW118659   4.087   0.648   6.737
 5920SOL    HW218660   4.122   0.715   6.882
 5921SOL     OW18661   3.850   5.355   6.027
 5921SOL    HW118662   3.789   5.403   6.091
 5921SOL    HW218663   3.888   5.274   6.072
 5922SOL     OW18664   6.676   5.157   2.610
 5922SOL    HW118665   6.753   5.218   2.590
 5922SOL    HW218666   6.641   5.120   2.524
 5923SOL     OW18667   5.470   1.016   1.607
 5923SOL    HW118668   5.430   0.987   1.520
 5923SOL    HW218669   5.436   1.107   1.630
 5924SOL     OW18670   0.035   1.276   3.585
 5924SOL    HW118671   0.134   1.291   3.573
 5924SOL    HW218672   7.009   1.324   3.513
 5925SOL     OW18673   3.799   5.328   1.310
 5925SOL    HW118674   3.752   5.350   1.395
 5925SOL    HW218675   3.862   5.401   1.286
 5926SOL     OW18676   4.187   5.522   1.389
 5926SOL    HW118677   4.140   5.560   1.469
 5926SOL    HW218678   4.269   5.575   1.370
 5927SOL     OW18679   1.245   4.025   2.738
 5927SOL    HW118680   1.162   3.969   2.735
 5927SOL    HW218681   1.224   4.112   2.785
 5928SOL     OW18682   3.174   0.079   0.768
 5928SOL    HW118683   3.164   0.098   0.866
 5928SOL    HW218684   3.149   0.161   0.716
 5929SOL     OW18685   0.520   6.814   6.695
 5929SOL    HW118686   0.583   6.775   6.629
 5929SOL    HW218687   0.497   6.746   6.765
 5930SOL     OW18688   6.539   3.141   3.606
 5930SOL    HW118689   6.448   3.130   3.647
 5930SOL    HW218690   6.574   3.232   3.627
 5931SOL     OW18691   6.971   5.854   3.131
 5931SOL    HW118692   6.879   5.867   3.094
 5931SOL    HW218693   6.974   5.769   3.183
 5932SOL     OW18694   2.256   6.976   0.691
 5932SOL    HW118695   2.232   0.044   0.725
 5932SOL    HW218696   2.352   6.974   0.662
 5933SOL     OW18697   0.169   6.056   3.506
 5933SOL    HW118698   0.101   5.986   3.484
 5933SOL    HW218699   0.135   6.112   3.582
 5934SOL     OW18700   3.711   2.892   4.133
 5934SOL    HW118701   3.714   2.943   4.219
 5934SOL    HW218702   3.766   2.810   4.140
 5935SOL     OW18703   4.655   4.405   6.435
 5935SOL    HW118704   4.677   4.405   6.532
 5935SOL    HW218705   4.724   4.353   6.384
 5936SOL     OW18706   3.632   2.931   0.980
 5936SOL    HW118707   3.548   2.899   1.024
 5936SOL    HW218708   3.618   2.932   0.881
 5937SOL     OW18709   0.910   4.445   2.815
 5937SOL    HW118710   0.853   4.376   2.861
 5937SOL    HW218711   0.952   4.504   2.884
 5938SOL     OW18712   0.870   5.103   3.613
 5938SOL    HW118713   0.775   5.132   3.608
 5938SOL    HW218714   0.886   5.029   3.548
 5939SOL     OW18715   2.594   6.429   3.242
 5939SOL    HW118716   2.552   6.503   3.189
 5939SOL    HW218717   2.635   6.467   3.326
 5940SOL     OW18718   4.485   5.631   0.875
 5940SOL    HW118719   4.436   5.565   0.819
 5940SOL    HW218720   4.440   5.720   0.870
 5941SOL     OW18721   5.888   3.420   2.161
 5941SOL    HW118722   5.871   3.322   2.154
 5941SOL    HW218723   5.822   3.469   2.103
 5942SOL     OW18724   5.190   3.159   0.383
 5942SOL    HW118725   5.167   3.129   0.475
 5942SOL    HW218726   5.108   3.194   0.337
 5943SOL     OW18727   3.869   5.013   0.341
 5943SOL    HW118728   3.778   4.998   0.378
 5943SOL    HW218729   3.932   5.036   0.415
 5944SOL     OW18730   6.467   3.093   1.369
 5944SOL    HW118731   6.434   3.140   1.287
 5944SOL    HW218732   6.553   3.134   1.398
 5945SOL     OW18733   6.108   5.236   5.499
 5945SOL    HW118734   6.176   5.180   5.547
 5945SOL    HW218735   6.089   5.195   5.410
 5946SOL     OW18736   3.786   3.068   6.541
 5946SOL    HW118737   3.845   3.083   6.462
 5946SOL    HW218738   3.842   3.046   6.621
 5947SOL     OW18739   4.015   3.603   1.983
 5947SOL    HW118740   3.955   3.528   1.955
 5947SOL    HW218741   4.100   3.599   1.931
 5948SOL     OW18742   4.721   5.000   3.682
 5948SOL    HW118743   4.816   4.991   3.655
 5948SOL    HW218744   4.696   5.097   3.684
 5949SOL     OW18745   5.015   4.122   1.714
 5949SOL    HW118746   5.084   4.091   1.779
 5949SOL    HW218747   4.924   4.109   1.753
 5950SOL     OW18748   4.664   2.027   6.025
 5950SOL    HW118749   4.713   2.099   5.975
 5950SOL    HW218750   4.644   2.059   6.117
 5951SOL     OW18751   0.791   5.768   3.862
 5951SOL    HW118752   0.771   5.846   3.923
 5951SOL    HW218753   0.855   5.706   3.908
 5952SOL     OW18754   5.784   4.778   3.855
 5952SOL    HW118755   5.760   4.682   3.840
 5952SOL    HW218756   5.820   4.789   3.948
 5953SOL     OW18757   6.310   3.190   5.415
 5953SOL    HW118758   6.380   3.246   5.371
 5953SOL    HW218759   6.226   3.194   5.360
 5954SOL     OW18760   0.370   4.313   6.044
 5954SOL    HW118761   0.411   4.402   6.025
 5954SOL    HW218762   0.304   4.290   5.972
 5955SOL     OW18763   5.255   6.067   2.728
 5955SOL    HW118764   5.277   5.985   2.782
 5955SOL    HW218765   5.176   6.113   2.769
 5956SOL     OW18766   4.710   1.176   6.048
 5956SOL    HW118767   4.684   1.128   6.132
 5956SOL    HW218768   4.632   1.180   5.987
 5957SOL     OW18769   4.151   0.621   5.106
 5957SOL    HW118770   4.242   0.647   5.138
 5957SOL    HW218771   4.123   0.682   5.032
 5958SOL     OW18772   5.634   6.911   3.129
 5958SOL    HW118773   5.675   6.964   3.055
 5958SOL    HW218774   5.706   6.880   3.192
 5959SOL     OW18775   4.122   2.498   5.411
 5959SOL    HW118776   4.031   2.505   5.450
 5959SOL    HW218777   4.116   2.509   5.311
 5960SOL     OW18778   3.483   5.197   4.798
 5960SOL    HW118779   3.546   5.132   4.756
 5960SOL    HW218780   3.530   5.249   4.869
 5961SOL     OW18781   5.419   1.469   2.892
 5961SOL    HW118782   5.408   1.412   2.810
 5961SOL    HW218783   5.372   1.426   2.969
 5962SOL     OW18784   5.570   6.590   0.564
 5962SOL    HW118785   5.543   6.546   0.650
 5962SOL    HW218786   5.663   6.625   0.573
 5963SOL     OW18787   3.695   3.470   5.431
 5963SOL    HW118788   3.634   3.548   5.447
 5963SOL    HW218789   3.769   3.497   5.371
 5964SOL     OW18790   0.637   5.447   5.102
 5964SOL    HW118791   0.603   5.496   5.021
 5964SOL    HW218792   0.602   5.354   5.102
 5965SOL     OW18793   1.412   2.102   6.785
 5965SOL    HW118794   1.336   2.096   6.849
 5965SOL    HW218795   1.379   2.127   6.694
 5966SOL     OW18796   3.250   6.030   5.461
 5966SOL    HW118797   3.317   6.095   5.497
 5966SOL    HW218798   3.240   5.954   5.524
 5967SOL     OW18799   4.158   6.786   6.502
 5967SOL    HW118800   4.179   6.740   6.588
 5967SOL    HW218801   4.062   6.774   6.480
 5968SOL     OW18802   4.537   1.687   1.162
 5968SOL    HW118803   4.549   1.697   1.261
 5968SOL    HW218804   4.439   1.677   1.141
 5969SOL     OW18805   0.407   6.311   6.425
 5969SOL    HW118806   0.321   6.349   6.390
 5969SOL    HW218807   0.396   6.213   6.441
 5970SOL     OW18808   0.274   4.388   2.308
 5970SOL    HW118809   0.256   4.441   2.225
 5970SOL    HW218810   0.366   4.409   2.341
 5971SOL     OW18811   1.453   0.743   2.458
 5971SOL    HW118812   1.392   0.762   2.535
 5971SOL    HW218813   1.480   0.647   2.459
 5972SOL     OW18814   5.414   5.221   0.081
 5972SOL    HW118815   5.350   5.183   0.149
 5972SOL    HW218816   5.363   5.274   0.013
 5973SOL     OW18817   1.986   3.573   2.672
 5973SOL    HW118818   2.010   3.565   2.575
 5973SOL    HW218819   1.887   3.564   2.683
 5974SOL     OW18820   5.646   5.295   6.511
 5974SOL    HW118821   5.676   5.268   6.419
 5974SOL    HW218822   5.664   5.221   6.575
 5975SOL     OW18823   3.603   1.177   0.449
 5975SOL    HW118824   3.625   1.268   0.485
 5975SOL    HW218825   3.687   1.133   0.415
 5976SOL     OW18826   3.327   3.347   5.744
 5976SOL    HW118827   3.259   3.420   5.741
 5976SOL    HW218828   3.324   3.302   5.833
 5977SOL     OW18829   2.712   5.501   6.644
 5977SOL    HW118830   2.623   5.464   6.671
 5977SOL    HW218831   2.769   5.427   6.607
 5978SOL     OW18832   4.979   5.671   3.146
 5978SOL    HW118833   4.956   5.764   3.117
 5978SOL    HW218834   4.975   5.610   3.067
 5979SOL     OW18835   5.721   0.735   3.013
 5979SOL    HW118836   5.671   0.721   3.098
 5979SOL    HW218837   5.720   0.832   2.989
 5980SOL     OW18838   3.634   3.876   0.840
 5980SOL    HW118839   3.663   3.891   0.745
 5980SOL    HW218840   3.539   3.847   0.841
 5981SOL     OW18841   5.545   2.267   1.391
 5981SOL    HW118842   5.558   2.300   1.297
 5981SOL    HW218843   5.495   2.181   1.389
 5982SOL     OW18844   6.995   3.268   2.153
 5982SOL    HW118845   0.052   3.209   2.142
 5982SOL    HW218846   7.006   3.323   2.236
 5983SOL     OW18847   0.935   1.969   3.915
 5983SOL    HW118848   0.957   1.888   3.862
 5983SOL    HW218849   0.995   1.974   3.995
 5984SOL     OW18850   6.423   5.637   3.962
 5984SOL    HW118851   6.392   5.727   3.933
 5984SOL    HW218852   6.478   5.646   4.045
 5985SOL     OW18853   6.886   3.068   4.490
 5985SOL    HW118854   6.805   3.067   4.549
 5985SOL    HW218855   6.873   3.135   4.417
 5986SOL     OW18856   3.160   3.726   4.838
 5986SOL    HW118857   3.252   3.693   4.859
 5986SOL    HW218858   3.142   3.712   4.740
 5987SOL     OW18859   4.861   0.415   4.626
 5987SOL    HW118860   4.864   0.318   4.602
 5987SOL    HW218861   4.867   0.470   4.543
 5988SOL     OW18862   4.840   6.883   5.538
 5988SOL    HW118863   4.852   6.979   5.516
 5988SOL    HW218864   4.776   6.841   5.474
 5989SOL     OW18865   2.530   6.644   6.725
 5989SOL    HW118866   2.566   6.578   6.791
 5989SOL    HW218867   2.472   6.597   6.658
 5990SOL     OW18868   3.552   4.470   0.236
 5990SOL    HW118869   3.464   4.429   0.212
 5990SOL    HW218870   3.605   4.486   0.153
 5991SOL     OW18871   3.339   4.853   6.936
 5991SOL    HW118872   3.368   4.804   7.019
 5991SOL    HW218873   3.345   4.792   6.858
 5992SOL     OW18874   3.803   0.017   2.499
 5992SOL    HW118875   3.783   0.038   2.404
 5992SOL    HW218876   3.762   6.952   2.523
 5993SOL     OW18877   3.090   5.960   6.758
 5993SOL    HW118878   3.044   5.976   6.845
 5993SOL    HW218879   3.137   6.044   6.729
 5994SOL     OW18880   5.611   2.555   2.260
 5994SOL    HW118881   5.639   2.488   2.191
 5994SOL    HW218882   5.515   2.580   2.245
 5995SOL     OW18883   5.221   4.485   3.120
 5995SOL    HW118884   5.127   4.502   3.151
 5995SOL    HW218885   5.228   4.503   3.022
 5996SOL     OW18886   1.201   6.403   0.747
 5996SOL    HW118887   1.147   6.427   0.667
 5996SOL    HW218888   1.203   6.481   0.810
 5997SOL     OW18889   0.813   5.573   2.462
 5997SOL    HW118890   0.753   5.493   2.456
 5997SOL    HW218891   0.827   5.597   2.558
 5998SOL     OW18892   5.665   1.491   3.229
 5998SOL    HW118893   5.758   1.493   3.267
 5998SOL    HW218894   5.669   1.516   3.132
 5999SOL     OW18895   1.616   1.569   2.663
 5999SOL    HW118896   1.676   1.504   2.614
 5999SOL    HW218897   1.569   1.627   2.597
 6000SOL     OW18898   4.491   6.850   0.757
 6000SOL    HW118899   4.572   6.843   0.815
 6000SOL    HW218900   4.409   6.829   0.811
 6001SOL     OW18901   1.100   3.878   6.842
 6001SOL    HW118902   1.143   3.850   6.756
 6001SOL    HW218903   1.012   3.831   6.852
 6002SOL     OW18904   6.351   6.957   1.038
 6002SOL    HW118905   6.309   0.004   1.096
 6002SOL    HW218906   6.411   7.000   0.970
 6003SOL     OW18907   6.352   2.426   4.231
 6003SOL    HW118908   6.299   2.469   4.158
 6003SOL    HW218909   6.291   2.401   4.306
 6004SOL     OW18910   0.303   3.561   3.052
 6004SOL    HW118911   0.212   3.530   3.080
 6004SOL    HW218912   0.316   3.541   2.955
 6005SOL     OW18913   5.218   5.624   4.403
 6005SOL    HW118914   5.232   5.613   4.501
 6005SOL    HW218915   5.306   5.641   4.359
 6006SOL     OW18916   2.764   1.016   5.824
 6006SOL    HW118917   2.680   0.967   5.799
 6006SOL    HW218918   2.816   0.961   5.889
 6007SOL     OW18919   4.851   3.553   5.381
 6007SOL    HW118920   4.790   3.569   5.304
 6007SOL    HW218921   4.799   3.521   5.460
 6008SOL     OW18922   1.977   4.514   6.029
 6008SOL    HW118923   1.910   4.474   6.091
 6008SOL    HW218924   1.931   4.544   5.945
 6009SOL     OW18925   3.647   0.271   3.583
 6009SOL    HW118926   3.742   0.291   3.608
 6009SOL    HW218927   3.630   0.303   3.489
 6010SOL     OW18928   1.518   4.522   4.161
 6010SOL    HW118929   1.600   4.474   4.129
 6010SOL    HW218930   1.545   4.604   4.211
 6011SOL     OW18931   4.872   3.349   2.441
 6011SOL    HW118932   4.854   3.302   2.355
 6011SOL    HW218933   4.830   3.440   2.439
 6012SOL     OW18934   5.049   1.369   0.098
 6012SOL    HW118935   5.073   1.340   0.005
 6012SOL    HW218936   4.971   1.316   0.131
 6013SOL     OW18937   4.675   2.069   3.146
 6013SOL    HW118938   4.611   2.018   3.204
 6013SOL    HW218939   4.769   2.043   3.169
 6014SOL     OW18940   3.884   3.626   1.404
 6014SOL    HW118941   3.840   3.655   1.319
 6014SOL    HW218942   3.982   3.614   1.388
 6015SOL     OW18943   5.389   2.920   4.138
 6015SOL    HW118944   5.335   2.881   4.063
 6015SOL    HW218945   5.380   3.020   4.136
 6016SOL     OW18946   6.459   2.158   5.923
 6016SOL    HW118947   6.506   2.126   6.005
 6016SOL    HW218948   6.374   2.107   5.911
 6017SOL     OW18949   6.677   4.116   2.962
 6017SOL    HW118950   6.707   4.099   3.056
 6017SOL    HW218951   6.623   4.038   2.930
 6018SOL     OW18952   3.201   0.559   6.396
 6018SOL    HW118953   3.195   0.503   6.479
 6018SOL    HW218954   3.124   0.538   6.336
 6019SOL     OW18955   6.933   2.045   4.231
 6019SOL    HW118956   6.940   2.027   4.329
 6019SOL    HW218957   7.015   2.009   4.185
 6020SOL     OW18958   1.202   4.602   0.962
 6020SOL    HW118959   1.180   4.633   0.870
 6020SOL    HW218960   1.300   4.583   0.968
 6021SOL     OW18961   4.688   0.509   2.407
 6021SOL    HW118962   4.666   0.606   2.421
 6021SOL    HW218963   4.653   0.455   2.483
 6022SOL     OW18964   4.165   2.228   4.004
 6022SOL    HW118965   4.214   2.230   4.091
 6022SOL    HW218966   4.220   2.274   3.934
 6023SOL     OW18967   6.382   0.126   2.445
 6023SOL    HW118968   6.358   0.208   2.496
 6023SOL    HW218969   6.325   0.119   2.363
 6024SOL     OW18970   1.233   5.155   3.384
 6024SOL    HW118971   1.290   5.126   3.460
 6024SOL    HW218972   1.218   5.079   3.322
 6025SOL     OW18973   3.561   1.660   2.790
 6025SOL    HW118974   3.478   1.698   2.750
 6025SOL    HW218975   3.622   1.734   2.819
 6026SOL     OW18976   0.065   4.276   5.138
 6026SOL    HW118977   0.134   4.323   5.192
 6026SOL    HW218978   0.030   4.198   5.189
 6027SOL     OW18979   1.368   4.285   6.851
 6027SOL    HW118980   1.347   4.371   6.805
 6027SOL    HW218981   1.364   4.210   6.785
 6028SOL     OW18982   0.390   4.860   6.559
 6028SOL    HW118983   0.479   4.814   6.554
 6028SOL    HW218984   0.404   4.958   6.576
 6029SOL     OW18985   2.541   6.310   5.352
 6029SOL    HW118986   2.629   6.318   5.399
 6029SOL    HW218987   2.513   6.214   5.350
 6030SOL     OW18988   3.383   5.945   3.022
 6030SOL    HW118989   3.429   5.971   3.107
 6030SOL    HW218990   3.373   5.846   3.018
 6031SOL     OW18991   3.146   5.532   3.355
 6031SOL    HW118992   3.114   5.483   3.435
 6031SOL    HW218993   3.089   5.612   3.339
 6032SOL     OW18994   2.560   4.609   3.049
 6032SOL    HW118995   2.501   4.529   3.061
 6032SOL    HW218996   2.626   4.613   3.124
 6033SOL     OW18997   3.067   1.748   3.052
 6033SOL    HW118998   3.148   1.806   3.059
 6033SOL    HW218999   3.095   1.653   3.036
 6034SOL     OW19000   0.646   4.916   5.080
 6034SOL    HW119001   0.663   5.011   5.104
 6034SOL    HW219002   0.549   4.896   5.086
 6035SOL     OW19003   7.007   0.759   2.542
 6035SOL    HW119004   6.963   0.843   2.510
 6035SOL    HW219005   6.937   0.690   2.561
 6036SOL     OW19006   6.177   5.481   3.631
 6036SOL    HW119007   6.231   5.438   3.703
 6036SOL    HW219008   6.200   5.578   3.626
 6037SOL     OW19009   4.314   4.876   6.532
 6037SOL    HW119010   4.255   4.949   6.566
 6037SOL    HW219011   4.407   4.889   6.565
 6038SOL     OW19012   1.523   2.457   5.741
 6038SOL    HW119013   1.569   2.370   5.762
 6038SOL    HW219014   1.588   2.518   5.694
 6039SOL     OW19015   3.053   3.751   2.483
 6039SOL    HW119016   3.009   3.772   2.570
 6039SOL    HW219017   3.111   3.669   2.493
 6040SOL     OW19018   0.719   2.181   6.521
 6040SOL    HW119019   0.660   2.116   6.567
 6040SOL    HW219020   0.703   2.177   6.422
 6041SOL     OW19021   2.231   0.161   5.480
 6041SOL    HW119022   2.281   0.080   5.510
 6041SOL    HW219023   2.281   0.243   5.508
 6042SOL     OW19024   5.349   5.602   1.873
 6042SOL    HW119025   5.338   5.503   1.871
 6042SOL    HW219026   5.293   5.643   1.801
 6043SOL     OW19027   0.831   4.613   5.749
 6043SOL    HW119028   0.752   4.553   5.736
 6043SOL    HW219029   0.802   4.697   5.794
 6044SOL     OW19030   1.064   1.703   2.120
 6044SOL    HW119031   1.098   1.615   2.087
 6044SOL    HW219032   1.141   1.756   2.155
 6045SOL     OW19033   6.450   4.759   2.382
 6045SOL    HW119034   6.486   4.848   2.355
 6045SOL    HW219035   6.517   4.687   2.359
 6046SOL     OW19036   3.999   2.067   0.778
 6046SOL    HW119037   4.037   2.011   0.704
 6046SOL    HW219038   3.987   2.161   0.745
 6047SOL     OW19039   5.225   2.281   1.747
 6047SOL    HW119040   5.301   2.319   1.693
 6047SOL    HW219041   5.224   2.324   1.837
 6048SOL     OW19042   4.554   5.639   4.776
 6048SOL    HW119043   4.637   5.677   4.734
 6048SOL    HW219044   4.481   5.707   4.773
 6049SOL     OW19045   5.867   4.037   6.139
 6049SOL    HW119046   5.918   4.118   6.109
 6049SOL    HW219047   5.931   3.964   6.162
 6050SOL     OW19048   3.483   6.137   4.301
 6050SOL    HW119049   3.415   6.161   4.231
 6050SOL    HW219050   3.492   6.037   4.305
 6051SOL     OW19051   3.040   0.743   4.203
 6051SOL    HW119052   2.957   0.696   4.171
 6051SOL    HW219053   3.038   0.838   4.173
 6052SOL     OW19054   6.357   0.467   0.866
 6052SOL    HW119055   6.309   0.392   0.911
 6052SOL    HW219056   6.309   0.493   0.783
 6053SOL     OW19057   4.680   1.743   6.323
 6053SOL    HW119058   4.597   1.768   6.373
 6053SOL    HW219059   4.755   1.729   6.387
 6054SOL     OW19060   2.859   3.300   0.606
 6054SOL    HW119061   2.849   3.200   0.609
 6054SOL    HW219062   2.769   3.343   0.597
 6055SOL     OW19063   4.875   1.035   5.346
 6055SOL    HW119064   4.792   1.050   5.292
 6055SOL    HW219065   4.921   0.953   5.314
 6056SOL     OW19066   4.697   2.781   4.654
 6056SOL    HW119067   4.771   2.827   4.605
 6056SOL    HW219068   4.682   2.826   4.742
 6057SOL     OW19069   5.241   2.692   3.511
 6057SOL    HW119070   5.299   2.674   3.590
 6057SOL    HW219071   5.151   2.651   3.527
 6058SOL     OW19072   4.920   3.254   1.075
 6058SOL    HW119073   4.928   3.265   1.174
 6058SOL    HW219074   4.825   3.237   1.050
 6059SOL     OW19075   5.098   5.412   5.085
 6059SOL    HW119076   5.008   5.416   5.040
 6059SOL    HW219077   5.095   5.466   5.168
 6060SOL     OW19078   2.653   4.300   6.380
 6060SOL    HW119079   2.739   4.263   6.345
 6060SOL    HW219080   2.577   4.261   6.328
 6061SOL     OW19081   3.365   2.266   1.315
 6061SOL    HW119082   3.458   2.229   1.314
 6061SOL    HW219083   3.366   2.360   1.348
 6062SOL     OW19084   2.308   1.802   4.905
 6062SOL    HW119085   2.399   1.781   4.867
 6062SOL    HW219086   2.250   1.721   4.897
 6063SOL     OW19087   3.225   1.938   6.031
 6063SOL    HW119088   3.209   1.939   6.129
 6063SOL    HW219089   3.323   1.930   6.013
 6064SOL     OW19090   1.769   5.962   1.055
 6064SOL    HW119091   1.854   5.910   1.051
 6064SOL    HW219092   1.695   5.902   1.087
 6065SOL     OW19093   6.482   0.194   1.952
 6065SOL    HW119094   6.570   0.224   1.915
 6065SOL    HW219095   6.409   0.248   1.912
 6066SOL     OW19096   5.235   1.708   6.116
 6066SOL    HW119097   5.171   1.671   6.049
 6066SOL    HW219098   5.201   1.796   6.151
 6067SOL     OW19099   5.526   1.788   5.700
 6067SOL    HW119100   5.485   1.752   5.784
 6067SOL    HW219101   5.509   1.887   5.695
 6068SOL     OW19102   5.633   2.860   4.626
 6068SOL    HW119103   5.610   2.956   4.637
 6068SOL    HW219104   5.672   2.825   4.712
 6069SOL     OW19105   6.779   3.234   4.688
 6069SOL    HW119106   6.848   3.163   4.703
 6069SOL    HW219107   6.823   3.318   4.655
 6070SOL     OW19108   2.208   2.864   0.503
 6070SOL    HW119109   2.185   2.776   0.463
 6070SOL    HW219110   2.291   2.855   0.558
 6071SOL     OW19111   6.257   5.330   4.468
 6071SOL    HW119112   6.220   5.364   4.382
 6071SOL    HW219113   6.189   5.272   4.513
 6072SOL     OW19114   0.858   0.361   1.790
 6072SOL    HW119115   0.818   0.272   1.812
 6072SOL    HW219116   0.854   0.419   1.871
 6073SOL     OW19117   6.348   4.178   0.306
 6073SOL    HW119118   6.444   4.169   0.329
 6073SOL    HW219119   6.311   4.088   0.282
 6074SOL     OW19120   1.381   6.346   4.276
 6074SOL    HW119121   1.309   6.299   4.224
 6074SOL    HW219122   1.444   6.278   4.314
 6075SOL     OW19123   6.567   1.470   6.699
 6075SOL    HW119124   6.515   1.384   6.691
 6075SOL    HW219125   6.505   1.547   6.686
 6076SOL     OW19126   2.166   5.623   4.541
 6076SOL    HW119127   2.124   5.643   4.453
 6076SOL    HW219128   2.247   5.566   4.528
 6077SOL     OW19129   5.725   5.736   1.770
 6077SOL    HW119130   5.821   5.748   1.744
 6077SOL    HW219131   5.698   5.641   1.756
 6078SOL     OW19132   3.937   5.031   0.755
 6078SOL    HW119133   3.861   5.086   0.789
 6078SOL    HW219134   3.956   5.056   0.660
 6079SOL     OW19135   4.127   3.045   6.574
 6079SOL    HW119136   4.064   3.059   6.650
 6079SOL    HW219137   4.078   3.060   6.488
 6080SOL     OW19138   6.749   1.244   1.656
 6080SOL    HW119139   6.711   1.334   1.633
 6080SOL    HW219140   6.735   1.225   1.753
 6081SOL     OW19141   6.091   3.244   5.558
 6081SOL    HW119142   6.186   3.214   5.551
 6081SOL    HW219143   6.073   3.316   5.492
 6082SOL     OW19144   2.082   2.102   3.643
 6082SOL    HW119145   2.160   2.046   3.669
 6082SOL    HW219146   2.023   2.050   3.581
 6083SOL     OW19147   0.169   4.609   6.818
 6083SOL    HW119148   0.075   4.631   6.843
 6083SOL    HW219149   0.179   4.617   6.718
 6084SOL     OW19150   0.521   6.497   3.421
 6084SOL    HW119151   0.551   6.471   3.330
 6084SOL    HW219152   0.493   6.415   3.472
 6085SOL     OW19153   0.909   4.441   0.440
 6085SOL    HW119154   0.981   4.426   0.372
 6085SOL    HW219155   0.949   4.483   0.521
 6086SOL     OW19156   3.698   1.440   5.995
 6086SOL    HW119157   3.609   1.483   6.005
 6086SOL    HW219158   3.687   1.349   5.955
 6087SOL     OW19159   4.079   5.501   0.908
 6087SOL    HW119160   4.092   5.595   0.877
 6087SOL    HW219161   4.123   5.438   0.844
 6088SOL     OW19162   6.072   5.529   4.199
 6088SOL    HW119163   6.063   5.616   4.249
 6088SOL    HW219164   6.036   5.455   4.255
 6089SOL     OW19165   6.453   3.441   0.385
 6089SOL    HW119166   6.427   3.383   0.462
 6089SOL    HW219167   6.371   3.468   0.334
 6090SOL     OW19168   2.161   6.084   5.756
 6090SOL    HW119169   2.193   6.175   5.728
 6090SOL    HW219170   2.075   6.093   5.805
 6091SOL     OW19171   1.472   1.340   1.553
 6091SOL    HW119172   1.421   1.390   1.624
 6091SOL    HW219173   1.562   1.382   1.541
 6092SOL     OW19174   3.707   6.654   3.121
 6092SOL    HW119175   3.802   6.674   3.097
 6092SOL    HW219176   3.646   6.705   3.060
 6093SOL     OW19177   1.939   3.269   2.996
 6093SOL    HW119178   1.843   3.282   2.974
 6093SOL    HW219179   1.949   3.194   3.062
 6094SOL     OW19180   3.758   0.687   1.664
 6094SOL    HW119181   3.709   0.693   1.577
 6094SOL    HW219182   3.750   0.594   1.701
 6095SOL     OW19183   4.650   3.410   0.285
 6095SOL    HW119184   4.557   3.390   0.316
 6095SOL    HW219185   4.715   3.386   0.357
 6096SOL     OW19186   6.668   0.662   3.667
 6096SOL    HW119187   6.696   0.723   3.593
 6096SOL    HW219188   6.636   0.575   3.629
 6097SOL     OW19189   2.272   6.905   1.761
 6097SOL    HW119190   2.346   6.839   1.763
 6097SOL    HW219191   2.224   6.905   1.849
 6098SOL     OW19192   1.311   2.371   5.878
 6098SOL    HW119193   1.312   2.273   5.856
 6098SOL    HW219194   1.376   2.419   5.819
 6099SOL     OW19195   6.587   6.156   0.637
 6099SOL    HW119196   6.614   6.246   0.670
 6099SOL    HW219197   6.499   6.163   0.590
 6100SOL     OW19198   4.509   3.783   0.211
 6100SOL    HW119199   4.574   3.707   0.202
 6100SOL    HW219200   4.546   3.864   0.165
 6101SOL     OW19201   6.346   2.035   4.539
 6101SOL    HW119202   6.445   2.019   4.528
 6101SOL    HW219203   6.307   2.063   4.451
 6102SOL     OW19204   3.070   6.411   3.331
 6102SOL    HW119205   3.139   6.470   3.373
 6102SOL    HW219206   3.101   6.316   3.335
 6103SOL     OW19207   6.843   2.950   2.596
 6103SOL    HW119208   6.925   3.001   2.620
 6103SOL    HW219209   6.781   2.948   2.674
 6104SOL     OW19210   6.220   1.246   5.232
 6104SOL    HW119211   6.184   1.212   5.319
 6104SOL    HW219212   6.169   1.205   5.156
 6105SOL     OW19213   2.123   0.373   5.814
 6105SOL    HW119214   2.077   0.439   5.874
 6105SOL    HW219215   2.071   0.288   5.811
 6106SOL     OW19216   2.277   4.134   5.471
 6106SOL    HW119217   2.288   4.183   5.385
 6106SOL    HW219218   2.194   4.079   5.468
 6107SOL     OW19219   2.401   4.672   4.874
 6107SOL    HW119220   2.414   4.607   4.799
 6107SOL    HW219221   2.459   4.647   4.951
 6108SOL     OW19222   0.370   2.309   2.310
 6108SOL    HW119223   0.287   2.350   2.347
 6108SOL    HW219224   0.381   2.217   2.347
 6109SOL     OW19225   5.255   2.710   5.633
 6109SOL    HW119226   5.227   2.780   5.699
 6109SOL    HW219227   5.194   2.714   5.553
 6110SOL     OW19228   4.215   3.362   0.425
 6110SOL    HW119229   4.304   3.359   0.470
 6110SOL    HW219230   4.225   3.338   0.329
 6111SOL     OW19231   2.011   4.169   2.136
 6111SOL    HW119232   2.056   4.079   2.137
 6111SOL    HW219233   2.007   4.203   2.042
 6112SOL     OW19234   4.060   0.062   2.468
 6112SOL    HW119235   4.083   0.090   2.375
 6112SOL    HW219236   3.968   0.022   2.469
 6113SOL     OW19237   1.865   1.448   6.535
 6113SOL    HW119238   1.872   1.544   6.560
 6113SOL    HW219239   1.940   1.397   6.577
 6114SOL     OW19240   5.276   5.590   1.164
 6114SOL    HW119241   5.240   5.560   1.076
 6114SOL    HW219242   5.236   5.679   1.188
 6115SOL     OW19243   4.466   0.379   3.698
 6115SOL    HW119244   4.504   0.399   3.788
 6115SOL    HW219245   4.495   0.288   3.669
 6116SOL     OW19246   2.757   7.010   0.296
 6116SOL    HW119247   2.847   6.992   0.254
 6116SOL    HW219248   2.694   6.936   0.271
 6117SOL     OW19249   0.555   0.903   5.352
 6117SOL    HW119250   0.511   0.905   5.442
 6117SOL    HW219251   0.647   0.863   5.360
 6118SOL     OW19252   6.615   0.407   2.455
 6118SOL    HW119253   6.616   0.331   2.390
 6118SOL    HW219254   6.537   0.397   2.517
 6119SOL     OW19255   1.449   3.398   5.911
 6119SOL    HW119256   1.385   3.357   5.846
 6119SOL    HW219257   1.542   3.383   5.879
 6120SOL     OW19258   3.806   6.852   4.566
 6120SOL    HW119259   3.831   6.806   4.481
 6120SOL    HW219260   3.889   6.877   4.616
 6121SOL     OW19261   0.721   2.921   5.489
 6121SOL    HW119262   0.763   2.985   5.425
 6121SOL    HW219263   0.626   2.948   5.506
 6122SOL     OW19264   4.169   6.557   1.131
 6122SOL    HW119265   4.118   6.640   1.155
 6122SOL    HW219266   4.136   6.522   1.043
 6123SOL     OW19267   6.172   0.331   6.668
 6123SOL    HW119268   6.193   0.420   6.709
 6123SOL    HW219269   6.168   0.341   6.568
 6124SOL     OW19270   1.966   0.698   6.404
 6124SOL    HW119271   2.020   0.776   6.376
 6124SOL    HW219272   1.944   0.706   6.502
 6125SOL     OW19273   1.167   5.910   0.312
 6125SOL    HW119274   1.158   5.960   0.398
 6125SOL    HW219275   1.243   5.948   0.259
 6126SOL     OW19276   0.360   6.944   3.900
 6126SOL    HW119277   0.408   6.919   3.984
 6126SOL    HW219278   0.307   0.004   3.914
 6127SOL     OW19279   3.779   0.266   1.542
 6127SOL    HW119280   3.879   0.264   1.539
 6127SOL    HW219281   3.744   0.288   1.451
 6128SOL     OW19282   6.864   2.946   6.777
 6128SOL    HW119283   6.865   2.856   6.822
 6128SOL    HW219284   6.903   3.014   6.839
 6129SOL     OW19285   6.224   3.767   3.340
 6129SOL    HW119286   6.131   3.804   3.336
 6129SOL    HW219287   6.234   3.696   3.271
 6130SOL     OW19288   6.060   2.428   3.512
 6130SOL    HW119289   6.138   2.417   3.450
 6130SOL    HW219290   5.988   2.364   3.487
 6131SOL     OW19291   6.652   0.933   4.967
 6131SOL    HW119292   6.616   0.898   5.053
 6131SOL    HW219293   6.727   0.874   4.935
 6132SOL     OW19294   4.622   1.421   0.496
 6132SOL    HW119295   4.612   1.510   0.541
 6132SOL    HW219296   4.531   1.383   0.477
 6133SOL     OW19297   1.390   2.470   2.720
 6133SOL    HW119298   1.363   2.488   2.815
 6133SOL    HW219299   1.336   2.528   2.659
 6134SOL     OW19300   3.990   4.404   6.191
 6134SOL    HW119301   3.949   4.342   6.258
 6134SOL    HW219302   3.924   4.422   6.118
 6135SOL     OW19303   0.857   0.314   2.117
 6135SOL    HW119304   0.771   0.265   2.105
 6135SOL    HW219305   0.849   0.376   2.196
 6136SOL     OW19306   0.982   2.331   2.845
 6136SOL    HW119307   0.929   2.415   2.837
 6136SOL    HW219308   1.005   2.297   2.754
 6137SOL     OW19309   6.056   2.785   3.657
 6137SOL    HW119310   6.085   2.739   3.573
 6137SOL    HW219311   5.963   2.756   3.680
 6138SOL     OW19312   4.558   6.192   2.981
 6138SOL    HW119313   4.578   6.232   3.071
 6138SOL    HW219314   4.540   6.265   2.916
 6139SOL     OW19315   1.288   1.647   5.875
 6139SOL    HW119316   1.314   1.739   5.847
 6139SOL    HW219317   1.230   1.652   5.956
 6140SOL     OW19318   0.470   6.409   1.339
 6140SOL    HW119319   0.490   6.492   1.391
 6140SOL    HW219320   0.552   6.380   1.289
 6141SOL     OW19321   6.450   5.442   5.873
 6141SOL    HW119322   6.430   5.540   5.862
 6141SOL    HW219323   6.549   5.430   5.882
 6142SOL     OW19324   1.000   5.658   0.966
 6142SOL    HW119325   0.908   5.619   0.968
 6142SOL    HW219326   1.028   5.683   1.059
 6143SOL     OW19327   6.760   4.209   1.160
 6143SOL    HW119328   6.758   4.303   1.128
 6143SOL    HW219329   6.692   4.196   1.232
 6144SOL     OW19330   6.159   4.185   3.309
 6144SOL    HW119331   6.160   4.165   3.407
 6144SOL    HW219332   6.064   4.199   3.279
 6145SOL     OW19333   4.244   5.441   3.448
 6145SOL    HW119334   4.222   5.523   3.396
 6145SOL    HW219335   4.258   5.466   3.544
 6146SOL     OW19336   2.960   6.641   4.023
 6146SOL    HW119337   2.921   6.563   3.975
 6146SOL    HW219338   2.890   6.711   4.036
 6147SOL     OW19339   1.303   3.536   4.627
 6147SOL    HW119340   1.209   3.565   4.645
 6147SOL    HW219341   1.360   3.616   4.609
 6148SOL     OW19342   6.796   0.393   4.093
 6148SOL    HW119343   6.734   0.446   4.035
 6148SOL    HW219344   6.820   0.308   4.047
 6149SOL     OW19345   3.209   5.274   1.015
 6149SOL    HW119346   3.109   5.276   1.023
 6149SOL    HW219347   3.234   5.260   0.919
 6150SOL     OW19348   4.520   5.013   6.659
 6150SOL    HW119349   4.543   5.079   6.731
 6150SOL    HW219350   4.598   5.001   6.598
 6151SOL     OW19351   5.762   4.881   5.624
 6151SOL    HW119352   5.750   4.815   5.550
 6151SOL    HW219353   5.858   4.909   5.628
 6152SOL     OW19354   6.782   5.746   4.964
 6152SOL    HW119355   6.813   5.704   5.050
 6152SOL    HW219356   6.842   5.718   4.890
 6153SOL     OW19357   5.750   3.780   1.672
 6153SOL    HW119358   5.801   3.860   1.703
 6153SOL    HW219359   5.662   3.810   1.633
 6154SOL     OW19360   6.053   2.349   2.437
 6154SOL    HW119361   5.966   2.299   2.440
 6154SOL    HW219362   6.082   2.371   2.530
 6155SOL     OW19363   2.110   2.040   4.469
 6155SOL    HW119364   2.125   2.078   4.377
 6155SOL    HW219365   2.017   2.062   4.499
 6156SOL     OW19366   4.167   4.582   1.624
 6156SOL    HW119367   4.243   4.529   1.661
 6156SOL    HW219368   4.190   4.613   1.532
 6157SOL     OW19369   1.090   0.831   3.931
 6157SOL    HW119370   1.132   0.769   3.996
 6157SOL    HW219371   1.078   0.921   3.973
 6158SOL     OW19372   4.650   1.061   6.259
 6158SOL    HW119373   4.723   1.010   6.304
 6158SOL    HW219374   4.564   1.009   6.267
 6159SOL     OW19375   5.035   2.579   1.267
 6159SOL    HW119376   5.116   2.628   1.299
 6159SOL    HW219377   5.007   2.615   1.177
 6160SOL     OW19378   5.123   0.488   6.365
 6160SOL    HW119379   5.180   0.430   6.308
 6160SOL    HW219380   5.114   0.446   6.456
 6161SOL     OW19381   5.124   1.658   4.617
 6161SOL    HW119382   5.101   1.736   4.675
 6161SOL    HW219383   5.092   1.675   4.524
 6162SOL     OW19384   1.508   6.625   3.525
 6162SOL    HW119385   1.478   6.546   3.579
 6162SOL    HW219386   1.565   6.684   3.582
 6163SOL     OW19387   6.381   6.140   1.128
 6163SOL    HW119388   6.323   6.204   1.178
 6163SOL    HW219389   6.438   6.089   1.192
 6164SOL     OW19390   3.251   2.655   1.712
 6164SOL    HW119391   3.233   2.710   1.630
 6164SOL    HW219392   3.318   2.702   1.770
 6165SOL     OW19393   4.489   0.960   6.575
 6165SOL    HW119394   4.543   0.877   6.572
 6165SOL    HW219395   4.495   1.002   6.666
 6166SOL     OW19396   4.748   1.428   6.489
 6166SOL    HW119397   4.717   1.517   6.522
 6166SOL    HW219398   4.832   1.440   6.435
 6167SOL     OW19399   0.925   4.245   3.830
 6167SOL    HW119400   0.914   4.345   3.825
 6167SOL    HW219401   1.021   4.224   3.850
 6168SOL     OW19402   0.898   3.425   0.728
 6168SOL    HW119403   0.916   3.424   0.826
 6168SOL    HW219404   0.870   3.516   0.700
 6169SOL     OW19405   1.513   2.714   1.156
 6169SOL    HW119406   1.544   2.809   1.153
 6169SOL    HW219407   1.422   2.711   1.197
 6170SOL     OW19408   1.023   3.883   5.345
 6170SOL    HW119409   0.924   3.888   5.357
 6170SOL    HW219410   1.049   3.930   5.261
 6171SOL     OW19411   0.990   2.738   0.499
 6171SOL    HW119412   1.012   2.817   0.556
 6171SOL    HW219413   0.997   2.655   0.554
 6172SOL     OW19414   2.150   2.728   2.178
 6172SOL    HW119415   2.156   2.811   2.122
 6172SOL    HW219416   2.209   2.657   2.139
 6173SOL     OW19417   0.052   5.699   2.155
 6173SOL    HW119418   7.016   5.693   2.235
 6173SOL    HW219419   0.129   5.760   2.174
 6174SOL     OW19420   4.638   5.672   3.676
 6174SOL    HW119421   4.580   5.750   3.651
 6174SOL    HW219422   4.714   5.704   3.732
 6175SOL     OW19423   3.799   0.031   2.964
 6175SOL    HW119424   3.841   0.112   3.004
 6175SOL    HW219425   3.869   6.997   2.922
 6176SOL     OW19426   5.101   4.593   5.557
 6176SOL    HW119427   5.180   4.641   5.519
 6176SOL    HW219428   5.064   4.645   5.634
 6177SOL     OW19429   5.419   1.278   1.640
 6177SOL    HW119430   5.451   1.348   1.704
 6177SOL    HW219431   5.319   1.270   1.647
 6178SOL     OW19432   5.016   4.600   2.129
 6178SOL    HW119433   5.087   4.530   2.116
 6178SOL    HW219434   4.959   4.605   2.047
 6179SOL     OW19435   6.718   4.506   3.978
 6179SOL    HW119436   6.782   4.557   3.921
 6179SOL    HW219437   6.659   4.569   4.028
 6180SOL     OW19438   2.591   4.221   0.359
 6180SOL    HW119439   2.568   4.132   0.399
 6180SOL    HW219440   2.684   4.218   0.323
 6181SOL     OW19441   4.622   6.724   6.188
 6181SOL    HW119442   4.717   6.696   6.176
 6181SOL    HW219443   4.570   6.704   6.105
 6182SOL     OW19444   4.973   3.009   4.905
 6182SOL    HW119445   4.884   2.965   4.916
 6182SOL    HW219446   5.029   2.955   4.841
 6183SOL     OW19447   1.611   2.491   3.519
 6183SOL    HW119448   1.563   2.572   3.486
 6183SOL    HW219449   1.647   2.509   3.611
 6184SOL     OW19450   2.651   6.108   0.174
 6184SOL    HW119451   2.626   6.036   0.109
 6184SOL    HW219452   2.748   6.102   0.196
 6185SOL     OW19453   0.249   4.049   6.526
 6185SOL    HW119454   0.182   4.108   6.481
 6185SOL    HW219455   0.332   4.044   6.471
 6186SOL     OW19456   6.699   1.239   0.425
 6186SOL    HW119457   6.610   1.225   0.469
 6186SOL    HW219458   6.686   1.274   0.333
 6187SOL     OW19459   5.210   4.284   3.942
 6187SOL    HW119460   5.267   4.296   4.024
 6187SOL    HW219461   5.137   4.218   3.962
 6188SOL     OW19462   1.582   1.957   6.635
 6188SOL    HW119463   1.545   2.014   6.709
 6188SOL    HW219464   1.678   1.982   6.619
 6189SOL     OW19465   4.386   4.707   2.367
 6189SOL    HW119466   4.325   4.628   2.368
 6189SOL    HW219467   4.472   4.682   2.323
 6190SOL     OW19468   0.428   3.961   5.684
 6190SOL    HW119469   0.369   3.953   5.604
 6190SOL    HW219470   0.521   3.985   5.654
 6191SOL     OW19471   2.932   2.828   6.700
 6191SOL    HW119472   2.861   2.771   6.658
 6191SOL    HW219473   2.981   2.773   6.768
 6192SOL     OW19474   2.737   2.108   5.794
 6192SOL    HW119475   2.750   2.134   5.698
 6192SOL    HW219476   2.811   2.046   5.822
 6193SOL     OW19477   4.735   6.016   1.737
 6193SOL    HW119478   4.790   5.980   1.662
 6193SOL    HW219479   4.787   6.009   1.823
 6194SOL     OW19480   0.072   0.904   6.675
 6194SOL    HW119481   0.079   0.891   6.576
 6194SOL    HW219482   0.066   0.815   6.720
 6195SOL     OW19483   4.534   5.737   4.049
 6195SOL    HW119484   4.520   5.811   3.982
 6195SOL    HW219485   4.625   5.697   4.036
 6196SOL     OW19486   6.172   3.867   1.641
 6196SOL    HW119487   6.257   3.852   1.591
 6196SOL    HW219488   6.143   3.962   1.629
 6197SOL     OW19489   3.557   5.440   0.722
 6197SOL    HW119490   3.623   5.515   0.716
 6197SOL    HW219491   3.601   5.361   0.763
 6198SOL     OW19492   4.011   6.877   0.934
 6198SOL    HW119493   3.967   6.817   1.000
 6198SOL    HW219494   4.106   6.891   0.959
 6199SOL     OW19495   0.917   0.785   0.285
 6199SOL    HW119496   0.961   0.808   0.372
 6199SOL    HW219497   0.819   0.807   0.290
 6200SOL     OW19498   1.252   1.255   5.723
 6200SOL    HW119499   1.295   1.309   5.796
 6200SOL    HW219500   1.305   1.266   5.638
 6201SOL     OW19501   1.018   4.074   6.040
 6201SOL    HW119502   0.952   4.149   6.038
 6201SOL    HW219503   1.104   4.106   6.080
 6202SOL     OW19504   4.856   1.239   1.152
 6202SOL    HW119505   4.858   1.180   1.072
 6202SOL    HW219506   4.914   1.320   1.136
 6203SOL     OW19507   6.384   5.596   2.241
 6203SOL    HW119508   6.414   5.690   2.258
 6203SOL    HW219509   6.292   5.584   2.279
 6204SOL     OW19510   0.236   6.011   4.423
 6204SOL    HW119511   0.257   5.922   4.463
 6204SOL    HW219512   0.170   5.999   4.349
 6205SOL     OW19513   6.548   5.667   1.721
 6205SOL    HW119514   6.493   5.701   1.798
 6205SOL    HW219515   6.585   5.745   1.670
 6206SOL     OW19516   6.044   1.963   2.883
 6206SOL    HW119517   6.011   1.920   2.967
 6206SOL    HW219518   5.987   1.934   2.806
 6207SOL     OW19519   1.870   5.394   5.150
 6207SOL    HW119520   1.874   5.307   5.199
 6207SOL    HW219521   1.775   5.424   5.142
 6208SOL     OW19522   3.823   2.530   5.455
 6208SOL    HW119523   3.730   2.533   5.419
 6208SOL    HW219524   3.821   2.502   5.551
 6209SOL     OW19525   3.367   5.726   7.014
 6209SOL    HW119526   3.313   5.791   0.043
 6209SOL    HW219527   3.464   5.749   7.022
 6210SOL     OW19528   4.883   3.846   3.302
 6210SOL    HW119529   4.853   3.755   3.274
 6210SOL    HW219530   4.844   3.914   3.239
 6211SOL     OW19531   2.703   6.385   6.232
 6211SOL    HW119532   2.799   6.361   6.223
 6211SOL    HW219533   2.648   6.321   6.177
 6212SOL     OW19534   2.776   4.789   4.878
 6212SOL    HW119535   2.796   4.733   4.959
 6212SOL    HW219536   2.723   4.735   4.813
 6213SOL     OW19537   5.218   0.425   0.187
 6213SOL    HW119538   5.208   0.367   0.106
 6213SOL    HW219539   5.251   0.370   0.264
 6214SOL     OW19540   5.487   5.831   5.192
 6214SOL    HW119541   5.393   5.849   5.163
 6214SOL    HW219542   5.509   5.735   5.175
 6215SOL     OW19543   3.554   2.195   6.882
 6215SOL    HW119544   3.458   2.192   6.912
 6215SOL    HW219545   3.613   2.207   6.961
 6216SOL     OW19546   6.068   2.227   2.976
 6216SOL    HW119547   6.019   2.286   3.041
 6216SOL    HW219548   6.025   2.137   2.975
 6217SOL     OW19549   0.970   3.391   2.086
 6217SOL    HW119550   1.026   3.470   2.060
 6217SOL    HW219551   1.028   3.312   2.102
 6218SOL     OW19552   3.598   6.727   6.859
 6218SOL    HW119553   3.597   6.636   6.818
 6218SOL    HW219554   3.626   6.719   6.955
 6219SOL     OW19555   0.594   1.980   4.871
 6219SOL    HW119556   0.575   1.963   4.968
 6219SOL    HW219557   0.592   1.893   4.821
 6220SOL     OW19558   2.738   1.569   5.398
 6220SOL    HW119559   2.837   1.565   5.407
 6220SOL    HW219560   2.713   1.644   5.337
 6221SOL     OW19561   5.539   6.856   0.193
 6221SOL    HW119562   5.548   6.919   0.116
 6221SOL    HW219563   5.569   6.765   0.165
 6222SOL     OW19564   1.545   6.893   1.928
 6222SOL    HW119565   1.455   6.867   1.892
 6222SOL    HW219566   1.609   6.817   1.914
 6223SOL     OW19567   2.109   5.286   3.280
 6223SOL    HW119568   2.024   5.337   3.268
 6223SOL    HW219569   2.126   5.274   3.378
 6224SOL     OW19570   3.864   1.644   6.082
 6224SOL    HW119571   3.817   1.705   6.018
 6224SOL    HW219572   3.837   1.550   6.064
 6225SOL     OW19573   3.896   2.491   6.244
 6225SOL    HW119574   3.818   2.429   6.248
 6225SOL    HW219575   3.916   2.525   6.336
 6226SOL     OW19576   0.772   1.527   4.433
 6226SOL    HW119577   0.778   1.510   4.532
 6226SOL    HW219578   0.825   1.459   4.384
 6227SOL     OW19579   3.377   4.849   5.461
 6227SOL    HW119580   3.421   4.843   5.371
 6227SOL    HW219581   3.318   4.770   5.474
 6228SOL     OW19582   0.410   2.765   2.321
 6228SOL    HW119583   0.424   2.797   2.228
 6228SOL    HW219584   0.469   2.817   2.383
 6229SOL     OW19585   0.542   2.256   5.035
 6229SOL    HW119586   0.622   2.268   5.094
 6229SOL    HW219587   0.558   2.301   4.947
 6230SOL     OW19588   0.584   2.250   4.033
 6230SOL    HW119589   0.637   2.181   3.983
 6230SOL    HW219590   0.493   2.215   4.054
 6231SOL     OW19591   6.208   5.790   0.293
 6231SOL    HW119592   6.218   5.870   0.233
 6231SOL    HW219593   6.207   5.707   0.238
 6232SOL     OW19594   6.692   1.142   0.788
 6232SOL    HW119595   6.708   1.152   0.886
 6232SOL    HW219596   6.616   1.201   0.761
 6233SOL     OW19597   6.720   3.049   1.561
 6233SOL    HW119598   6.744   2.964   1.514
 6233SOL    HW219599   6.670   3.028   1.645
 6234SOL     OW19600   6.870   6.747   5.601
 6234SOL    HW119601   6.840   6.663   5.556
 6234SOL    HW219602   6.949   6.727   5.659
 6235SOL     OW19603   0.141   0.350   1.360
 6235SOL    HW119604   0.043   0.340   1.342
 6235SOL    HW219605   0.163   0.311   1.449
 6236SOL     OW19606   0.432   4.160   0.595
 6236SOL    HW119607   0.433   4.220   0.676
 6236SOL    HW219608   0.490   4.199   0.524
 6237SOL     OW19609   3.437   0.047   6.917
 6237SOL    HW119610   3.401   0.032   7.009
 6237SOL    HW219611   3.391   7.010   6.852
 6238SOL     OW19612   5.122   5.747   2.714
 6238SOL    HW119613   5.033   5.703   2.717
 6238SOL    HW219614   5.145   5.783   2.805
 6239SOL     OW19615   3.537   1.543   1.210
 6239SOL    HW119616   3.462   1.569   1.272
 6239SOL    HW219617   3.570   1.452   1.236
 6240SOL     OW19618   2.930   3.597   4.935
 6240SOL    HW119619   3.001   3.626   4.871
 6240SOL    HW219620   2.854   3.555   4.885
 6241SOL     OW19621   3.526   0.768   2.201
 6241SOL    HW119622   3.438   0.778   2.247
 6241SOL    HW219623   3.600   0.768   2.269
 6242SOL     OW19624   3.944   6.693   3.014
 6242SOL    HW119625   3.985   6.773   2.971
 6242SOL    HW219626   4.007   6.616   3.009
 6243SOL     OW19627   0.285   6.696   5.384
 6243SOL    HW119628   0.255   6.622   5.323
 6243SOL    HW219629   0.371   6.734   5.351
 6244SOL     OW19630   4.949   3.330   3.636
 6244SOL    HW119631   5.042   3.324   3.672
 6244SOL    HW219632   4.906   3.414   3.669
 6245SOL     OW19633   1.427   3.974   1.793
 6245SOL    HW119634   1.390   4.058   1.753
 6245SOL    HW219635   1.519   3.992   1.829
 6246SOL     OW19636   1.020   1.568   4.941
 6246SOL    HW119637   1.005   1.488   4.999
 6246SOL    HW219638   0.967   1.645   4.976
 6247SOL     OW19639   1.238   5.939   3.433
 6247SOL    HW119640   1.288   5.937   3.520
 6247SOL    HW219641   1.141   5.923   3.451
 6248SOL     OW19642   3.694   3.712   7.022
 6248SOL    HW119643   3.776   3.655   7.021
 6248SOL    HW219644   3.719   3.807   7.001
 6249SOL     OW19645   6.961   3.316   0.458
 6249SOL    HW119646   6.913   3.364   0.532
 6249SOL    HW219647   0.016   3.267   0.496
 6250SOL     OW19648   6.351   6.540   1.159
 6250SOL    HW119649   6.432   6.579   1.202
 6250SOL    HW219650   6.275   6.605   1.166
 6251SOL     OW19651   4.240   5.607   5.496
 6251SOL    HW119652   4.164   5.672   5.492
 6251SOL    HW219653   4.241   5.552   5.413
 6252SOL     OW19654   2.812   5.003   6.118
 6252SOL    HW119655   2.884   4.934   6.113
 6252SOL    HW219656   2.854   5.093   6.129
 6253SOL     OW19657   2.743   4.965   4.303
 6253SOL    HW119658   2.781   4.914   4.226
 6253SOL    HW219659   2.789   4.936   4.387
 6254SOL     OW19660   6.010   0.731   1.243
 6254SOL    HW119661   5.942   0.740   1.171
 6254SOL    HW219662   5.972   0.676   1.318
 6255SOL     OW19663   2.268   1.770   1.400
 6255SOL    HW119664   2.188   1.811   1.443
 6255SOL    HW219665   2.333   1.741   1.470
 6256SOL     OW19666   3.870   5.410   1.935
 6256SOL    HW119667   3.786   5.463   1.949
 6256SOL    HW219668   3.847   5.317   1.907
 6257SOL     OW19669   4.379   2.818   0.147
 6257SOL    HW119670   4.431   2.863   0.074
 6257SOL    HW219671   4.409   2.853   0.235
 6258SOL     OW19672   3.377   6.657   4.252
 6258SOL    HW119673   3.315   6.680   4.177
 6258SOL    HW219674   3.325   6.623   4.330
 6259SOL     OW19675   2.311   0.591   6.653
 6259SOL    HW119676   2.245   0.526   6.692
 6259SOL    HW219677   2.404   0.559   6.673
 6260SOL     OW19678   3.684   6.218   0.036
 6260SOL    HW119679   3.719   6.183   0.123
 6260SOL    HW219680   3.616   6.289   0.053
 6261SOL     OW19681   5.530   0.355   0.022
 6261SOL    HW119682   5.578   0.433   0.063
 6261SOL    HW219683   5.566   0.270   0.059
 6262SOL     OW19684   1.862   5.868   1.958
 6262SOL    HW119685   1.918   5.808   2.016
 6262SOL    HW219686   1.842   5.952   2.007
 6263SOL     OW19687   1.001   6.519   4.857
 6263SOL    HW119688   1.091   6.487   4.886
 6263SOL    HW219689   1.010   6.573   4.774
 6264SOL     OW19690   2.175   0.024   2.265
 6264SOL    HW119691   2.153   0.111   2.222
 6264SOL    HW219692   2.103   7.022   2.330
 6265SOL     OW19693   3.955   3.437   0.402
 6265SOL    HW119694   3.910   3.469   0.486
 6265SOL    HW219695   4.054   3.437   0.416
 6266SOL     OW19696   4.694   0.088   3.359
 6266SOL    HW119697   4.753   0.022   3.406
 6266SOL    HW219698   4.648   0.042   3.283
 6267SOL     OW19699   2.127   6.894   5.118
 6267SOL    HW119700   2.113   6.877   5.215
 6267SOL    HW219701   2.207   6.954   5.106
 6268SOL     OW19702   2.713   0.648   1.867
 6268SOL    HW119703   2.628   0.616   1.824
 6268SOL    HW219704   2.698   0.660   1.965
 6269SOL     OW19705   6.793   0.037   2.312
 6269SOL    HW119706   6.759   0.131   2.306
 6269SOL    HW219707   6.889   0.034   2.283
 6270SOL     OW19708   0.409   0.037   6.862
 6270SOL    HW119709   0.319   0.072   6.889
 6270SOL    HW219710   0.421   0.047   6.763
 6271SOL     OW19711   5.756   2.495   5.741
 6271SOL    HW119712   5.693   2.536   5.807
 6271SOL    HW219713   5.850   2.511   5.771
 6272SOL     OW19714   0.545   2.271   0.803
 6272SOL    HW119715   0.561   2.219   0.887
 6272SOL    HW219716   0.583   2.221   0.725
 6273SOL     OW19717   0.546   6.418   2.382
 6273SOL    HW119718   0.533   6.515   2.404
 6273SOL    HW219719   0.641   6.402   2.355
 6274SOL     OW19720   3.401   6.974   4.325
 6274SOL    HW119721   3.411   6.933   4.415
 6274SOL    HW219722   3.409   6.904   4.255
 6275SOL     OW19723   1.923   6.218   0.354
 6275SOL    HW119724   1.899   6.260   0.266
 6275SOL    HW219725   1.859   6.145   0.375
 6276SOL     OW19726   2.409   5.740   3.222
 6276SOL    HW119727   2.408   5.805   3.147
 6276SOL    HW219728   2.322   5.744   3.272
 6277SOL     OW19729   4.570   3.523   0.856
 6277SOL    HW119730   4.578   3.600   0.918
 6277SOL    HW219731   4.477   3.488   0.857
 6278SOL     OW19732   4.375   6.948   4.933
 6278SOL    HW119733   4.377   0.023   4.953
 6278SOL    HW219734   4.389   6.934   4.835
 6279SOL     OW19735   3.333   6.433   0.348
 6279SOL    HW119736   3.376   6.469   0.430
 6279SOL    HW219737   3.346   6.334   0.344
 6280SOL     OW19738   0.346   0.907   6.565
 6280SOL    HW119739   0.265   0.870   6.609
 6280SOL    HW219740   0.418   0.838   6.562
 6281SOL     OW19741   6.799   4.912   4.169
 6281SOL    HW119742   6.805   4.954   4.260
 6281SOL    HW219743   6.891   4.897   4.133
 6282SOL     OW19744   6.353   4.431   5.487
 6282SOL    HW119745   6.403   4.441   5.573
 6282SOL    HW219746   6.351   4.519   5.439
 6283SOL     OW19747   0.131   3.989   4.040
 6283SOL    HW119748   0.162   3.899   4.010
 6283SOL    HW219749   0.123   3.991   4.139
 6284SOL     OW19750   1.917   4.883   5.934
 6284SOL    HW119751   1.826   4.852   5.959
 6284SOL    HW219752   1.914   4.932   5.847
 6285SOL     OW19753   1.148   3.191   3.388
 6285SOL    HW119754   1.224   3.128   3.407
 6285SOL    HW219755   1.086   3.149   3.322
 6286SOL     OW19756   0.026   2.388   4.451
 6286SOL    HW119757   0.014   2.486   4.433
 6286SOL    HW219758   7.014   2.335   4.375
 6287SOL     OW19759   3.156   5.036   5.155
 6287SOL    HW119760   3.132   4.940   5.173
 6287SOL    HW219761   3.131   5.059   5.061
 6288SOL     OW19762   5.425   4.788   1.947
 6288SOL    HW119763   5.512   4.837   1.947
 6288SOL    HW219764   5.437   4.698   1.907
 6289SOL     OW19765   2.253   5.052   6.599
 6289SOL    HW119766   2.283   5.023   6.690
 6289SOL    HW219767   2.283   5.146   6.582
 6290SOL     OW19768   5.960   5.120   5.860
 6290SOL    HW119769   5.914   5.133   5.772
 6290SOL    HW219770   6.056   5.145   5.851
 6291SOL     OW19771   3.902   3.925   3.817
 6291SOL    HW119772   3.844   3.868   3.759
 6291SOL    HW219773   3.874   4.021   3.809
 6292SOL     OW19774   2.526   2.653   5.569
 6292SOL    HW119775   2.471   2.717   5.514
 6292SOL    HW219776   2.621   2.685   5.572
 6293SOL     OW19777   4.264   1.770   0.795
 6293SOL    HW119778   4.294   1.718   0.716
 6293SOL    HW219779   4.199   1.716   0.848
 6294SOL     OW19780   4.021   0.480   3.239
 6294SOL    HW119781   4.056   0.572   3.253
 6294SOL    HW219782   4.026   0.429   3.325
 6295SOL     OW19783   5.482   4.415   4.552
 6295SOL    HW119784   5.395   4.453   4.581
 6295SOL    HW219785   5.547   4.489   4.536
 6296SOL     OW19786   6.654   4.782   5.587
 6296SOL    HW119787   6.691   4.702   5.540
 6296SOL    HW219788   6.728   4.831   5.634
 6297SOL     OW19789   5.971   0.371   5.377
 6297SOL    HW119790   6.023   0.385   5.292
 6297SOL    HW219791   5.898   0.439   5.382
 6298SOL     OW19792   0.926   3.615   6.521
 6298SOL    HW119793   1.013   3.650   6.555
 6298SOL    HW219794   0.940   3.530   6.471
 6299SOL     OW19795   6.108   2.792   1.788
 6299SOL    HW119796   6.067   2.858   1.850
 6299SOL    HW219797   6.078   2.812   1.694
 6300SOL     OW19798   6.370   0.787   0.192
 6300SOL    HW119799   6.453   0.748   0.230
 6300SOL    HW219800   6.338   0.862   0.249
 6301SOL     OW19801   2.632   6.729   0.179
 6301SOL    HW119802   2.685   6.652   0.215
 6301SOL    HW219803   2.683   6.772   0.104
 6302SOL     OW19804   1.804   2.120   4.762
 6302SOL    HW119805   1.804   2.139   4.664
 6302SOL    HW219806   1.838   2.200   4.812
 6303SOL     OW19807   0.316   0.567   5.743
 6303SOL    HW119808   0.382   0.551   5.816
 6303SOL    HW219809   0.292   0.479   5.700
 6304SOL     OW19810   3.902   1.143   1.854
 6304SOL    HW119811   3.860   1.053   1.845
 6304SOL    HW219812   4.001   1.136   1.846
 6305SOL     OW19813   5.961   6.356   0.483
 6305SOL    HW119814   5.970   6.370   0.581
 6305SOL    HW219815   5.910   6.272   0.466
 6306SOL     OW19816   0.075   3.667   4.170
 6306SOL    HW119817   0.067   3.584   4.225
 6306SOL    HW219818   0.017   3.660   4.090
 6307SOL     OW19819   3.206   3.591   3.484
 6307SOL    HW119820   3.301   3.616   3.501
 6307SOL    HW219821   3.196   3.492   3.483
 6308SOL     OW19822   1.729   2.475   4.432
 6308SOL    HW119823   1.644   2.450   4.477
 6308SOL    HW219824   1.774   2.548   4.483
 6309SOL     OW19825   6.870   6.336   4.460
 6309SOL    HW119826   6.793   6.293   4.506
 6309SOL    HW219827   6.950   6.337   4.520
 6310SOL     OW19828   1.027   6.601   2.742
 6310SOL    HW119829   1.124   6.607   2.720
 6310SOL    HW219830   0.978   6.675   2.696
 6311SOL     OW19831   4.951   1.877   5.455
 6311SOL    HW119832   4.869   1.837   5.415
 6311SOL    HW219833   4.931   1.909   5.548
 6312SOL     OW19834   0.303   0.095   5.464
 6312SOL    HW119835   0.328   0.071   5.370
 6312SOL    HW219836   0.357   0.175   5.493
 6313SOL     OW19837   6.328   5.887   3.837
 6313SOL    HW119838   6.340   5.980   3.803
 6313SOL    HW219839   6.277   5.889   3.923
 6314SOL     OW19840   3.706   6.645   1.815
 6314SOL    HW119841   3.794   6.604   1.792
 6314SOL    HW219842   3.714   6.745   1.811
 6315SOL     OW19843   3.038   1.704   5.957
 6315SOL    HW119844   3.064   1.780   6.017
 6315SOL    HW219845   3.119   1.653   5.931
 6316SOL     OW19846   5.191   2.461   5.651
 6316SOL    HW119847   5.217   2.557   5.654
 6316SOL    HW219848   5.191   2.429   5.556
 6317SOL     OW19849   4.946   4.816   1.664
 6317SOL    HW119850   5.044   4.807   1.685
 6317SOL    HW219851   4.925   4.763   1.582
 6318SOL     OW19852   4.422   0.675   6.156
 6318SOL    HW119853   4.438   0.764   6.200
 6318SOL    HW219854   4.493   0.659   6.087
 6319SOL     OW19855   6.220   2.409   5.404
 6319SOL    HW119856   6.186   2.503   5.398
 6319SOL    HW219857   6.276   2.399   5.487
 6320SOL     OW19858   0.119   6.817   4.924
 6320SOL    HW119859   0.119   6.844   4.828
 6320SOL    HW219860   0.035   6.765   4.944
 6321SOL     OW19861   4.390   3.246   0.899
 6321SOL    HW119862   4.429   3.163   0.861
 6321SOL    HW219863   4.312   3.275   0.844
 6322SOL     OW19864   2.813   2.592   0.404
 6322SOL    HW119865   2.897   2.607   0.352
 6322SOL    HW219866   2.757   2.675   0.402
 6323SOL     OW19867   1.145   2.254   2.395
 6323SOL    HW119868   1.215   2.323   2.378
 6323SOL    HW219869   1.121   2.209   2.309
 6324SOL     OW19870   4.029   0.648   0.638
 6324SOL    HW119871   4.099   0.672   0.705
 6324SOL    HW219872   4.067   0.654   0.545
 6325SOL     OW19873   2.077   3.270   2.530
 6325SOL    HW119874   2.005   3.201   2.540
 6325SOL    HW219875   2.035   3.360   2.518
 6326SOL     OW19876   5.449   5.199   0.374
 6326SOL    HW119877   5.431   5.278   0.433
 6326SOL    HW219878   5.508   5.227   0.298
 6327SOL     OW19879   0.122   1.797   4.437
 6327SOL    HW119880   0.076   1.709   4.451
 6327SOL    HW219881   0.060   1.871   4.461
 6328SOL     OW19882   4.514   3.141   0.200
 6328SOL    HW119883   4.448   3.215   0.190
 6328SOL    HW219884   4.599   3.166   0.154
 6329SOL     OW19885   1.519   2.733   4.598
 6329SOL    HW119886   1.484   2.793   4.671
 6329SOL    HW219887   1.461   2.652   4.592
 6330SOL     OW19888   5.981   6.784   2.283
 6330SOL    HW119889   5.997   6.850   2.210
 6330SOL    HW219890   5.894   6.737   2.267
 6331SOL     OW19891   6.952   3.776   4.744
 6331SOL    HW119892   6.989   3.734   4.661
 6331SOL    HW219893   6.959   3.711   4.820
 6332SOL     OW19894   0.466   2.950   1.220
 6332SOL    HW119895   0.384   2.930   1.274
 6332SOL    HW219896   0.519   2.867   1.208
 6333SOL     OW19897   5.057   0.031   5.724
 6333SOL    HW119898   5.097   0.120   5.702
 6333SOL    HW219899   5.004   7.021   5.646
 6334SOL     OW19900   3.231   0.815   2.260
 6334SOL    HW119901   3.250   0.878   2.335
 6334SOL    HW219902   3.215   0.867   2.176
 6335SOL     OW19903   3.733   0.706   0.384
 6335SOL    HW119904   3.670   0.628   0.386
 6335SOL    HW219905   3.740   0.745   0.475
 6336SOL     OW19906   0.349   2.000   6.325
 6336SOL    HW119907   0.392   1.996   6.235
 6336SOL    HW219908   0.335   2.096   6.350
 6337SOL     OW19909   3.794   5.027   4.899
 6337SOL    HW119910   3.721   5.019   4.830
 6337SOL    HW219911   3.755   5.014   4.990
 6338SOL     OW19912   2.438   2.715   4.341
 6338SOL    HW119913   2.529   2.688   4.371
 6338SOL    HW219914   2.406   2.792   4.396
 6339SOL     OW19915   0.508   3.415   4.303
 6339SOL    HW119916   0.471   3.493   4.353
 6339SOL    HW219917   0.446   3.337   4.312
 6340SOL     OW19918   2.727   4.395   0.946
 6340SOL    HW119919   2.787   4.403   0.867
 6340SOL    HW219920   2.671   4.477   0.954
 6341SOL     OW19921   6.515   3.208   4.660
 6341SOL    HW119922   6.460   3.229   4.741
 6341SOL    HW219923   6.612   3.217   4.683
 6342SOL     OW19924   2.643   1.729   1.348
 6342SOL    HW119925   2.550   1.714   1.381
 6342SOL    HW219926   2.708   1.698   1.416
 6343SOL     OW19927   3.815   0.374   6.698
 6343SOL    HW119928   3.910   0.403   6.687
 6343SOL    HW219929   3.808   0.311   6.775
 6344SOL     OW19930   4.767   2.515   4.023
 6344SOL    HW119931   4.859   2.502   4.061
 6344SOL    HW219932   4.700   2.475   4.085
 6345SOL     OW19933   5.019   2.512   1.908
 6345SOL    HW119934   5.097   2.471   1.861
 6345SOL    HW219935   5.041   2.606   1.934
 6346SOL     OW19936   0.201   5.130   4.618
 6346SOL    HW119937   0.105   5.127   4.591
 6346SOL    HW219938   0.258   5.113   4.537
 6347SOL     OW19939   1.565   1.647   0.682
 6347SOL    HW119940   1.485   1.600   0.645
 6347SOL    HW219941   1.612   1.696   0.608
 6348SOL     OW19942   1.283   2.828   0.003
 6348SOL    HW119943   1.206   2.767   7.008
 6348SOL    HW219944   1.284   2.902   6.959
 6349SOL     OW19945   1.994   1.171   0.880
 6349SOL    HW119946   1.997   1.217   0.792
 6349SOL    HW219947   2.050   1.221   0.946
 6350SOL     OW19948   0.663   5.358   4.230
 6350SOL    HW119949   0.750   5.308   4.220
 6350SOL    HW219950   0.587   5.296   4.210
 6351SOL     OW19951   5.771   3.179   3.626
 6351SOL    HW119952   5.869   3.195   3.620
 6351SOL    HW219953   5.722   3.265   3.613
 6352SOL     OW19954   3.424   0.370   5.050
 6352SOL    HW119955   3.369   0.386   4.968
 6352SOL    HW219956   3.443   0.457   5.095
 6353SOL     OW19957   1.009   5.876   5.544
 6353SOL    HW119958   1.002   5.933   5.462
 6353SOL    HW219959   0.999   5.933   5.625
 6354SOL     OW19960   3.502   5.981   2.714
 6354SOL    HW119961   3.427   5.920   2.690
 6354SOL    HW219962   3.504   5.994   2.813
 6355SOL     OW19963   2.733   5.780   6.692
 6355SOL    HW119964   2.759   5.684   6.681
 6355SOL    HW219965   2.805   5.829   6.739
 6356SOL     OW19966   5.642   4.857   0.658
 6356SOL    HW119967   5.599   4.901   0.737
 6356SOL    HW219968   5.724   4.907   0.632
 6357SOL     OW19969   5.679   3.522   2.614
 6357SOL    HW119970   5.626   3.497   2.695
 6357SOL    HW219971   5.744   3.449   2.593
 6358SOL     OW19972   0.209   1.941   6.046
 6358SOL    HW119973   0.169   1.995   6.121
 6358SOL    HW219974   0.150   1.863   6.027
 6359SOL     OW19975   6.059   6.922   6.898
 6359SOL    HW119976   6.108   7.009   6.898
 6359SOL    HW219977   5.972   6.932   6.946
 6360SOL     OW19978   1.351   3.875   5.106
 6360SOL    HW119979   1.253   3.858   5.097
 6360SOL    HW219980   1.375   3.958   5.055
 6361SOL     OW19981   0.926   0.771   1.109
 6361SOL    HW119982   0.866   0.708   1.157
 6361SOL    HW219983   0.985   0.719   1.046
 6362SOL     OW19984   0.306   5.566   5.722
 6362SOL    HW119985   0.321   5.633   5.794
 6362SOL    HW219986   0.302   5.612   5.633
 6363SOL     OW19987   2.574   5.769   3.509
 6363SOL    HW119988   2.604   5.699   3.574
 6363SOL    HW219989   2.474   5.775   3.510
 6364SOL     OW19990   2.809   2.202   5.501
 6364SOL    HW119991   2.735   2.269   5.499
 6364SOL    HW219992   2.891   2.241   5.460
 6365SOL     OW19993   4.734   6.415   4.046
 6365SOL    HW119994   4.819   6.450   4.007
 6365SOL    HW219995   4.714   6.325   4.007
 6366SOL     OW19996   1.038   5.639   5.007
 6366SOL    HW119997   0.976   5.599   5.075
 6366SOL    HW219998   1.118   5.678   5.054
 6367SOL     OW19999   3.554   1.848   3.545
 6367SOL    HW120000   3.646   1.862   3.581
 6367SOL    HW220001   3.487   1.877   3.613
 6368SOL     OW20002   3.632   4.919   4.209
 6368SOL    HW120003   3.710   4.894   4.152
 6368SOL    HW220004   3.653   4.900   4.305
 6369SOL     OW20005   1.499   0.520   4.824
 6369SOL    HW120006   1.592   0.506   4.858
 6369SOL    HW220007   1.446   0.436   4.835
 6370SOL     OW20008   5.149   3.717   3.597
 6370SOL    HW120009   5.164   3.816   3.597
 6370SOL    HW220010   5.113   3.688   3.509
 6371SOL     OW20011   5.546   4.508   3.116
 6371SOL    HW120012   5.531   4.556   3.201
 6371SOL    HW220013   5.459   4.480   3.076
 6372SOL     OW20014   1.392   1.056   2.033
 6372SOL    HW120015   1.393   1.019   2.126
 6372SOL    HW220016   1.302   1.041   1.993
 6373SOL     OW20017   5.038   4.473   2.741
 6373SOL    HW120018   5.010   4.568   2.754
 6373SOL    HW220019   5.024   4.447   2.645
 6374SOL     OW20020   4.089   3.199   1.494
 6374SOL    HW120021   4.186   3.225   1.499
 6374SOL    HW220022   4.043   3.227   1.578
 6375SOL     OW20023   6.968   2.493   2.436
 6375SOL    HW120024   6.904   2.459   2.505
 6375SOL    HW220025   6.956   2.592   2.425
 6376SOL     OW20026   4.806   2.141   6.840
 6376SOL    HW120027   4.720   2.119   6.887
 6376SOL    HW220028   4.819   2.078   6.763
 6377SOL     OW20029   6.366   1.253   4.916
 6377SOL    HW120030   6.297   1.206   4.971
 6377SOL    HW220031   6.393   1.338   4.962
 6378SOL     OW20032   5.506   5.061   3.204
 6378SOL    HW120033   5.573   5.061   3.278
 6378SOL    HW220034   5.502   5.152   3.163
 6379SOL     OW20035   0.204   3.977   4.796
 6379SOL    HW120036   0.129   3.995   4.859
 6379SOL    HW220037   0.257   3.899   4.829
 6380SOL     OW20038   0.153   1.646   5.009
 6380SOL    HW120039   0.182   1.741   5.022
 6380SOL    HW220040   0.224   1.597   4.957
 6381SOL     OW20041   4.189   3.144   1.092
 6381SOL    HW120042   4.260   3.194   1.041
 6381SOL    HW220043   4.232   3.075   1.149
 6382SOL     OW20044   3.502   1.406   0.301
 6382SOL    HW120045   3.457   1.480   0.251
 6382SOL    HW220046   3.515   1.327   0.240
 6383SOL     OW20047   2.369   2.272   2.455
 6383SOL    HW120048   2.282   2.288   2.502
 6383SOL    HW220049   2.393   2.352   2.400
 6384SOL     OW20050   5.658   3.883   3.060
 6384SOL    HW120051   5.706   3.822   2.998
 6384SOL    HW220052   5.559   3.866   3.054
 6385SOL     OW20053   6.665   3.596   3.658
 6385SOL    HW120054   6.747   3.650   3.640
 6385SOL    HW220055   6.603   3.603   3.580
 6386SOL     OW20056   2.908   3.217   6.411
 6386SOL    HW120057   2.850   3.159   6.467
 6386SOL    HW220058   2.853   3.266   6.344
 6387SOL     OW20059   6.527   1.784   6.835
 6387SOL    HW120060   6.625   1.804   6.824
 6387SOL    HW220061   6.515   1.721   6.912
 6388SOL     OW20062   5.042   5.964   0.966
 6388SOL    HW120063   5.141   5.961   0.955
 6388SOL    HW220064   5.012   6.059   0.971
 6389SOL     OW20065   0.478   6.755   0.812
 6389SOL    HW120066   0.407   6.794   0.871
 6389SOL    HW220067   0.568   6.785   0.844
 6390SOL     OW20068   6.289   0.299   5.281
 6390SOL    HW120069   6.283   0.357   5.363
 6390SOL    HW220070   6.251   0.348   5.203
 6391SOL     OW20071   1.964   0.752   6.696
 6391SOL    HW120072   2.050   0.804   6.693
 6391SOL    HW220073   1.910   0.782   6.774
 6392SOL     OW20074   2.984   4.907   2.977
 6392SOL    HW120075   2.980   4.991   3.030
 6392SOL    HW220076   2.891   4.875   2.958
 6393SOL     OW20077   0.379   6.169   1.828
 6393SOL    HW120078   0.421   6.103   1.891
 6393SOL    HW220079   0.311   6.223   1.878
 6394SOL     OW20080   1.607   5.530   0.981
 6394SOL    HW120081   1.592   5.603   1.047
 6394SOL    HW220082   1.553   5.547   0.899
 6395SOL     OW20083   7.013   3.096   1.581
 6395SOL    HW120084   6.919   3.063   1.590
 6395SOL    HW220085   0.014   3.150   1.661
 6396SOL     OW20086   6.470   3.426   6.442
 6396SOL    HW120087   6.458   3.352   6.509
 6396SOL    HW220088   6.394   3.490   6.450
 6397SOL     OW20089   5.673   1.157   1.766
 6397SOL    HW120090   5.723   1.225   1.713
 6397SOL    HW220091   5.606   1.111   1.708
 6398SOL     OW20092   2.938   6.499   1.747
 6398SOL    HW120093   2.866   6.455   1.693
 6398SOL    HW220094   2.928   6.598   1.742
 6399SOL     OW20095   1.578   0.646   6.973
 6399SOL    HW120096   1.621   0.650   0.040
 6399SOL    HW220097   1.514   0.570   6.970
 6400SOL     OW20098   2.110   4.908   2.558
 6400SOL    HW120099   2.109   4.951   2.649
 6400SOL    HW220100   2.043   4.834   2.556
 6401SOL     OW20101   5.507   5.426   2.975
 6401SOL    HW120102   5.571   5.454   3.046
 6401SOL    HW220103   5.542   5.345   2.928
 6402SOL     OW20104   2.183   3.302   3.516
 6402SOL    HW120105   2.097   3.348   3.494
 6402SOL    HW220106   2.244   3.366   3.563
 6403SOL     OW20107   5.778   6.030   5.628
 6403SOL    HW120108   5.746   6.024   5.534
 6403SOL    HW220109   5.711   6.079   5.684
 6404SOL     OW20110   4.180   1.049   2.589
 6404SOL    HW120111   4.114   1.012   2.654
 6404SOL    HW220112   4.198   1.145   2.610
 6405SOL     OW20113   4.136   0.724   4.163
 6405SOL    HW120114   4.167   0.678   4.080
 6405SOL    HW220115   4.046   0.765   4.146
 6406SOL     OW20116   0.670   2.894   2.754
 6406SOL    HW120117   0.658   2.953   2.834
 6406SOL    HW220118   0.759   2.914   2.711
 6407SOL     OW20119   2.585   0.232   4.712
 6407SOL    HW120120   2.675   0.190   4.703
 6407SOL    HW220121   2.565   0.285   4.629
 6408SOL     OW20122   4.986   1.464   1.098
 6408SOL    HW120123   5.014   1.448   1.003
 6408SOL    HW220124   4.890   1.493   1.100
 6409SOL     OW20125   6.606   4.005   3.485
 6409SOL    HW120126   6.603   4.102   3.461
 6409SOL    HW220127   6.513   3.972   3.502
 6410SOL     OW20128   1.759   1.290   6.021
 6410SOL    HW120129   1.745   1.382   5.985
 6410SOL    HW220130   1.854   1.262   6.004
 6411SOL     OW20131   0.440   2.516   2.718
 6411SOL    HW120132   0.456   2.604   2.762
 6411SOL    HW220133   0.457   2.525   2.619
 6412SOL     OW20134   1.931   1.010   5.759
 6412SOL    HW120135   1.971   1.057   5.680
 6412SOL    HW220136   1.999   1.003   5.832
 6413SOL     OW20137   3.822   4.882   4.016
 6413SOL    HW120138   3.795   4.892   3.920
 6413SOL    HW220139   3.901   4.821   4.022
 6414SOL     OW20140   5.126   0.901   6.700
 6414SOL    HW120141   5.208   0.940   6.742
 6414SOL    HW220142   5.143   0.805   6.676
 6415SOL     OW20143   1.511   3.207   3.994
 6415SOL    HW120144   1.571   3.273   3.949
 6415SOL    HW220145   1.566   3.138   4.042
 6416SOL     OW20146   2.341   6.866   6.329
 6416SOL    HW120147   2.269   6.852   6.261
 6416SOL    HW220148   2.314   6.823   6.415
 6417SOL     OW20149   6.080   3.931   0.453
 6417SOL    HW120150   5.994   3.967   0.418
 6417SOL    HW220151   6.150   3.937   0.381
 6418SOL     OW20152   4.782   4.051   3.130
 6418SOL    HW120153   4.753   4.106   3.051
 6418SOL    HW220154   4.768   4.103   3.214
 6419SOL     OW20155   1.371   5.383   2.996
 6419SOL    HW120156   1.359   5.474   2.958
 6419SOL    HW220157   1.346   5.314   2.928
 6420SOL     OW20158   2.585   0.830   4.369
 6420SOL    HW120159   2.678   0.849   4.400
 6420SOL    HW220160   2.542   0.915   4.337
 6421SOL     OW20161   4.909   0.160   1.851
 6421SOL    HW120162   4.862   0.187   1.767
 6421SOL    HW220163   4.978   0.228   1.875
 6422SOL     OW20164   6.475   1.045   4.796
 6422SOL    HW120165   6.437   1.128   4.835
 6422SOL    HW220166   6.545   1.008   4.857
 6423SOL     OW20167   5.170   5.075   4.256
 6423SOL    HW120168   5.205   4.990   4.216
 6423SOL    HW220169   5.205   5.153   4.204
 6424SOL     OW20170   0.422   3.938   4.636
 6424SOL    HW120171   0.333   3.959   4.677
 6424SOL    HW220172   0.428   3.981   4.545
 6425SOL     OW20173   0.087   6.144   2.777
 6425SOL    HW120174   0.016   6.215   2.771
 6425SOL    HW220175   0.138   6.154   2.862
 6426SOL     OW20176   0.032   5.429   2.963
 6426SOL    HW120177   0.013   5.404   3.058
 6426SOL    HW220178   0.119   5.478   2.958
 6427SOL     OW20179   3.866   4.047   3.558
 6427SOL    HW120180   3.874   4.091   3.469
 6427SOL    HW220181   3.772   4.052   3.590
 6428SOL     OW20182   5.877   3.509   0.132
 6428SOL    HW120183   5.916   3.431   0.182
 6428SOL    HW220184   5.839   3.477   0.045
 6429SOL     OW20185   6.920   0.451   5.879
 6429SOL    HW120186   6.869   0.537   5.886
 6429SOL    HW220187   6.990   0.448   5.950
 6430SOL     OW20188   6.406   1.366   3.746
 6430SOL    HW120189   6.490   1.390   3.793
 6430SOL    HW220190   6.365   1.286   3.790
 6431SOL     OW20191   4.036   6.004   3.696
 6431SOL    HW120192   3.937   6.006   3.685
 6431SOL    HW220193   4.077   5.949   3.623
 6432SOL     OW20194   4.543   4.913   5.697
 6432SOL    HW120195   4.467   4.978   5.708
 6432SOL    HW220196   4.510   4.820   5.714
 6433SOL     OW20197   2.663   5.055   6.416
 6433SOL    HW120198   2.584   5.092   6.368
 6433SOL    HW220199   2.740   5.048   6.353
 6434SOL     OW20200   3.001   6.880   6.501
 6434SOL    HW120201   2.913   6.885   6.454
 6434SOL    HW220202   2.994   6.923   6.591
 6435SOL     OW20203   5.821   6.921   0.699
 6435SOL    HW120204   5.741   6.883   0.746
 6435SOL    HW220205   5.852   7.003   0.747
 6436SOL     OW20206   1.332   3.529   2.577
 6436SOL    HW120207   1.316   3.431   2.593
 6436SOL    HW220208   1.349   3.574   2.665
 6437SOL     OW20209   1.495   2.167   0.402
 6437SOL    HW120210   1.546   2.252   0.392
 6437SOL    HW220211   1.516   2.126   0.491
 6438SOL     OW20212   0.597   4.544   5.514
 6438SOL    HW120213   0.648   4.464   5.546
 6438SOL    HW220214   0.631   4.570   5.423
 6439SOL     OW20215   5.161   1.006   1.998
 6439SOL    HW120216   5.084   1.070   2.004
 6439SOL    HW220217   5.152   0.935   2.068
 6440SOL     OW20218   2.475   1.445   5.770
 6440SOL    HW120219   2.533   1.389   5.711
 6440SOL    HW220220   2.476   1.408   5.862
 6441SOL     OW20221   0.374   0.632   1.366
 6441SOL    HW120222   0.423   0.719   1.363
 6441SOL    HW220223   0.340   0.616   1.459
 6442SOL     OW20224   2.691   1.765   5.222
 6442SOL    HW120225   2.637   1.841   5.257
 6442SOL    HW220226   2.760   1.800   5.158
 6443SOL     OW20227   3.354   2.941   5.656
 6443SOL    HW120228   3.325   3.022   5.604
 6443SOL    HW220229   3.274   2.888   5.683
 6444SOL     OW20230   5.387   2.810   4.815
 6444SOL    HW120231   5.426   2.855   4.896
 6444SOL    HW220232   5.456   2.803   4.744
 6445SOL     OW20233   4.107   3.487   3.514
 6445SOL    HW120234   4.174   3.543   3.563
 6445SOL    HW220235   4.015   3.508   3.545
 6446SOL     OW20236   0.684   1.828   0.233
 6446SOL    HW120237   0.650   1.734   0.232
 6446SOL    HW220238   0.612   1.889   0.266
 6447SOL     OW20239   6.888   4.600   2.978
 6447SOL    HW120240   6.978   4.569   2.948
 6447SOL    HW220241   6.818   4.540   2.939
 6448SOL     OW20242   5.131   5.123   1.222
 6448SOL    HW120243   5.158   5.218   1.238
 6448SOL    HW220244   5.059   5.098   1.286
 6449SOL     OW20245   3.466   5.619   1.503
 6449SOL    HW120246   3.384   5.676   1.496
 6449SOL    HW220247   3.457   5.559   1.583
 6450SOL     OW20248   1.518   2.817   0.742
 6450SOL    HW120249   1.436   2.850   0.789
 6450SOL    HW220250   1.599   2.850   0.790
 6451SOL     OW20251   2.459   0.678   6.272
 6451SOL    HW120252   2.378   0.645   6.320
 6451SOL    HW220253   2.451   0.657   6.175
 6452SOL     OW20254   4.704   4.265   2.980
 6452SOL    HW120255   4.697   4.363   3.001
 6452SOL    HW220256   4.668   4.248   2.888
 6453SOL     OW20257   2.298   0.166   1.834
 6453SOL    HW120258   2.239   0.088   1.811
 6453SOL    HW220259   2.377   0.167   1.773
 6454SOL     OW20260   1.163   1.372   2.888
 6454SOL    HW120261   1.137   1.289   2.939
 6454SOL    HW220262   1.101   1.446   2.913
 6455SOL     OW20263   6.852   2.968   4.007
 6455SOL    HW120264   6.762   2.959   4.049
 6455SOL    HW220265   6.880   2.880   3.969
 6456SOL     OW20266   1.364   1.497   3.728
 6456SOL    HW120267   1.408   1.561   3.790
 6456SOL    HW220268   1.427   1.472   3.654
 6457SOL     OW20269   5.118   0.357   1.881
 6457SOL    HW120270   5.128   0.451   1.850
 6457SOL    HW220271   5.139   0.351   1.979
 6458SOL     OW20272   1.388   5.416   4.268
 6458SOL    HW120273   1.392   5.497   4.209
 6458SOL    HW220274   1.302   5.417   4.320
 6459SOL     OW20275   6.550   3.140   1.901
 6459SOL    HW120276   6.489   3.209   1.861
 6459SOL    HW220277   6.557   3.156   1.999
 6460SOL     OW20278   5.943   5.784   6.521
 6460SOL    HW120279   5.866   5.845   6.540
 6460SOL    HW220280   5.943   5.759   6.425
 6461SOL     OW20281   2.614   4.332   6.889
 6461SOL    HW120282   2.549   4.403   6.916
 6461SOL    HW220283   2.629   4.336   6.790
 6462SOL     OW20284   1.368   3.330   4.442
 6462SOL    HW120285   1.453   3.350   4.393
 6462SOL    HW220286   1.348   3.404   4.506
 6463SOL     OW20287   5.699   0.864   0.631
 6463SOL    HW120288   5.600   0.878   0.621
 6463SOL    HW220289   5.717   0.820   0.719
 6464SOL     OW20290   1.806   5.141   5.311
 6464SOL    HW120291   1.765   5.167   5.398
 6464SOL    HW220292   1.813   5.041   5.307
 6465SOL     OW20293   6.778   3.318   2.568
 6465SOL    HW120294   6.755   3.232   2.523
 6465SOL    HW220295   6.793   3.302   2.665
 6466SOL     OW20296   6.003   1.537   6.400
 6466SOL    HW120297   5.989   1.439   6.386
 6466SOL    HW220298   6.099   1.556   6.417
 6467SOL     OW20299   3.643   0.344   0.575
 6467SOL    HW120300   3.692   0.407   0.635
 6467SOL    HW220301   3.597   0.395   0.503
 6468SOL     OW20302   3.043   6.044   1.132
 6468SOL    HW120303   3.115   6.022   1.066
 6468SOL    HW220304   3.058   6.135   1.170
 6469SOL     OW20305   3.866   2.113   3.337
 6469SOL    HW120306   3.909   2.100   3.426
 6469SOL    HW220307   3.925   2.170   3.279
 6470SOL     OW20308   5.513   3.021   0.853
 6470SOL    HW120309   5.514   3.108   0.804
 6470SOL    HW220310   5.604   3.004   0.891
 6471SOL     OW20311   0.227   5.978   5.590
 6471SOL    HW120312   0.273   5.927   5.662
 6471SOL    HW220313   0.147   6.024   5.628
 6472SOL     OW20314   6.805   6.180   1.983
 6472SOL    HW120315   6.826   6.090   2.021
 6472SOL    HW220316   6.742   6.170   1.906
 6473SOL     OW20317   2.887   1.901   5.094
 6473SOL    HW120318   2.919   1.971   5.158
 6473SOL    HW220319   2.963   1.869   5.038
 6474SOL     OW20320   4.303   5.665   5.767
 6474SOL    HW120321   4.264   5.589   5.820
 6474SOL    HW220322   4.295   5.646   5.670
 6475SOL     OW20323   6.103   4.373   3.592
 6475SOL    HW120324   6.015   4.421   3.588
 6475SOL    HW220325   6.168   4.418   3.530
 6476SOL     OW20326   5.332   2.962   0.608
 6476SOL    HW120327   5.427   2.993   0.601
 6476SOL    HW220328   5.303   2.921   0.521
 6477SOL     OW20329   6.465   5.335   0.482
 6477SOL    HW120330   6.367   5.345   0.464
 6477SOL    HW220331   6.492   5.240   0.465
 6478SOL     OW20332   3.682   6.418   2.419
 6478SOL    HW120333   3.693   6.344   2.352
 6478SOL    HW220334   3.717   6.504   2.380
 6479SOL     OW20335   3.878   5.472   4.016
 6479SOL    HW120336   3.906   5.382   3.981
 6479SOL    HW220337   3.946   5.505   4.081
 6480SOL     OW20338   2.444   1.220   0.138
 6480SOL    HW120339   2.440   1.292   0.208
 6480SOL    HW220340   2.524   1.234   0.080
 6481SOL     OW20341   3.274   2.043   2.348
 6481SOL    HW120342   3.228   1.961   2.314
 6481SOL    HW220343   3.309   2.025   2.440
 6482SOL     OW20344   6.453   1.950   6.407
 6482SOL    HW120345   6.379   2.000   6.364
 6482SOL    HW220346   6.481   1.873   6.349
 6483SOL     OW20347   0.214   0.172   3.475
 6483SOL    HW120348   0.192   0.257   3.426
 6483SOL    HW220349   0.157   0.166   3.557
 6484SOL     OW20350   3.495   0.456   1.827
 6484SOL    HW120351   3.500   0.503   1.915
 6484SOL    HW220352   3.432   0.379   1.834
 6485SOL     OW20353   1.969   5.115   3.867
 6485SOL    HW120354   1.963   5.029   3.815
 6485SOL    HW220355   2.058   5.157   3.852
 6486SOL     OW20356   0.754   4.762   2.398
 6486SOL    HW120357   0.808   4.808   2.328
 6486SOL    HW220358   0.730   4.670   2.367
 6487SOL     OW20359   0.943   6.648   5.568
 6487SOL    HW120360   0.865   6.664   5.628
 6487SOL    HW220361   1.019   6.706   5.595
 6488SOL     OW20362   3.919   6.264   4.242
 6488SOL    HW120363   3.863   6.235   4.320
 6488SOL    HW220364   3.999   6.313   4.275
 6489SOL     OW20365   3.188   3.526   6.202
 6489SOL    HW120366   3.247   3.541   6.281
 6489SOL    HW220367   3.154   3.432   6.202
 6490SOL     OW20368   4.125   1.600   6.429
 6490SOL    HW120369   4.151   1.687   6.386
 6490SOL    HW220370   4.025   1.595   6.436
 6491SOL     OW20371   2.897   0.457   1.267
 6491SOL    HW120372   2.885   0.556   1.270
 6491SOL    HW220373   2.903   0.427   1.171
 6492SOL     OW20374   3.644   4.062   5.675
 6492SOL    HW120375   3.583   4.126   5.721
 6492SOL    HW220376   3.730   4.056   5.725
 6493SOL     OW20377   1.610   4.345   6.182
 6493SOL    HW120378   1.660   4.300   6.109
 6493SOL    HW220379   1.568   4.277   6.241
 6494SOL     OW20380   6.812   0.142   3.079
 6494SOL    HW120381   6.801   0.075   3.006
 6494SOL    HW220382   6.789   0.234   3.045
 6495SOL     OW20383   6.644   0.564   4.508
 6495SOL    HW120384   6.664   0.659   4.486
 6495SOL    HW220385   6.585   0.525   4.437
 6496SOL     OW20386   6.076   0.994   2.852
 6496SOL    HW120387   6.092   1.037   2.763
 6496SOL    HW220388   6.138   0.916   2.863
 6497SOL     OW20389   1.150   0.713   1.601
 6497SOL    HW120390   1.082   0.764   1.549
 6497SOL    HW220391   1.172   0.628   1.552
 6498SOL     OW20392   1.352   2.917   4.768
 6498SOL    HW120393   1.329   3.004   4.812
 6498SOL    HW220394   1.359   2.930   4.669
 6499SOL     OW20395   5.524   4.461   5.452
 6499SOL    HW120396   5.564   4.426   5.537
 6499SOL    HW220397   5.453   4.399   5.420
 6500SOL     OW20398   6.740   3.764   4.057
 6500SOL    HW120399   6.700   3.679   4.092
 6500SOL    HW220400   6.702   3.842   4.106
 6501SOL     OW20401   6.691   0.894   6.922
 6501SOL    HW120402   6.735   0.935   7.002
 6501SOL    HW220403   6.656   0.804   6.947
 6502SOL     OW20404   6.793   3.707   2.257
 6502SOL    HW120405   6.724   3.636   2.269
 6502SOL    HW220406   6.868   3.691   2.322
 6503SOL     OW20407   5.327   1.284   3.712
 6503SOL    HW120408   5.386   1.359   3.682
 6503SOL    HW220409   5.363   1.246   3.798
 6504SOL     OW20410   3.797   6.479   6.359
 6504SOL    HW120411   3.736   6.449   6.286
 6504SOL    HW220412   3.816   6.577   6.349
 6505SOL     OW20413   5.177   6.200   6.195
 6505SOL    HW120414   5.093   6.253   6.184
 6505SOL    HW220415   5.157   6.113   6.239
 6506SOL     OW20416   0.268   2.765   3.280
 6506SOL    HW120417   0.275   2.716   3.368
 6506SOL    HW220418   0.174   2.760   3.247
 6507SOL     OW20419   2.432   5.559   6.495
 6507SOL    HW120420   2.404   5.648   6.458
 6507SOL    HW220421   2.512   5.526   6.445
 6508SOL     OW20422   1.720   0.465   3.056
 6508SOL    HW120423   1.672   0.419   3.130
 6508SOL    HW220424   1.662   0.536   3.017
 6509SOL     OW20425   4.409   1.948   4.492
 6509SOL    HW120426   4.371   1.969   4.582
 6509SOL    HW220427   4.408   1.849   4.478
 6510SOL     OW20428   6.125   5.539   0.151
 6510SOL    HW120429   6.157   5.473   0.219
 6510SOL    HW220430   6.026   5.551   0.160
 6511SOL     OW20431   3.910   0.271   4.101
 6511SOL    HW120432   3.840   0.202   4.081
 6511SOL    HW220433   3.929   0.271   4.199
 6512SOL     OW20434   3.759   5.976   2.020
 6512SOL    HW120435   3.757   6.069   2.056
 6512SOL    HW220436   3.782   5.977   1.923
 6513SOL     OW20437   2.472   5.365   3.054
 6513SOL    HW120438   2.478   5.409   3.144
 6513SOL    HW220439   2.442   5.432   2.986
 6514SOL     OW20440   5.765   1.475   4.474
 6514SOL    HW120441   5.856   1.435   4.474
 6514SOL    HW220442   5.771   1.573   4.493
 6515SOL     OW20443   1.134   3.858   3.539
 6515SOL    HW120444   1.101   3.783   3.597
 6515SOL    HW220445   1.088   3.855   3.451
 6516SOL     OW20446   0.556   2.937   1.710
 6516SOL    HW120447   0.634   2.981   1.755
 6516SOL    HW220448   0.477   2.997   1.714
 6517SOL     OW20449   6.973   1.375   2.056
 6517SOL    HW120450   0.004   1.364   2.139
 6517SOL    HW220451   0.001   1.339   1.978
 6518SOL     OW20452   0.228   0.139   0.916
 6518SOL    HW120453   0.179   0.225   0.930
 6518SOL    HW220454   0.245   0.125   0.819
 6519SOL     OW20455   0.997   1.700   2.588
 6519SOL    HW120456   1.061   1.772   2.562
 6519SOL    HW220457   0.903   1.731   2.571
 6520SOL     OW20458   6.864   5.265   6.813
 6520SOL    HW120459   6.929   5.195   6.783
 6520SOL    HW220460   6.772   5.242   6.779
 6521SOL     OW20461   2.010   2.678   4.122
 6521SOL    HW120462   2.109   2.679   4.137
 6521SOL    HW220463   1.989   2.615   4.046
 6522SOL     OW20464   3.152   4.673   5.487
 6522SOL    HW120465   3.166   4.574   5.485
 6522SOL    HW220466   3.055   4.693   5.503
 6523SOL     OW20467   3.562   1.075   6.912
 6523SOL    HW120468   3.527   1.009   6.846
 6523SOL    HW220469   3.548   1.040   7.005
 6524SOL     OW20470   2.393   3.496   1.248
 6524SOL    HW120471   2.300   3.464   1.269
 6524SOL    HW220472   2.427   3.549   1.326
 6525SOL     OW20473   2.094   4.854   2.924
 6525SOL    HW120474   2.177   4.874   2.977
 6525SOL    HW220475   2.052   4.940   2.894
 6526SOL     OW20476   2.028   0.713   1.636
 6526SOL    HW120477   2.088   0.726   1.557
 6526SOL    HW220478   1.998   0.802   1.670
 6527SOL     OW20479   6.753   1.354   6.109
 6527SOL    HW120480   6.656   1.359   6.085
 6527SOL    HW220481   6.775   1.262   6.143
 6528SOL     OW20482   5.650   1.708   5.151
 6528SOL    HW120483   5.552   1.723   5.159
 6528SOL    HW220484   5.678   1.635   5.214
 6529SOL     OW20485   2.066   0.321   2.619
 6529SOL    HW120486   2.109   0.235   2.645
 6529SOL    HW220487   1.969   0.320   2.646
 6530SOL     OW20488   6.387   1.768   0.882
 6530SOL    HW120489   6.392   1.841   0.950
 6530SOL    HW220490   6.321   1.699   0.912
 6531SOL     OW20491   4.910   3.442   4.808
 6531SOL    HW120492   4.981   3.475   4.871
 6531SOL    HW220493   4.824   3.490   4.827
 6532SOL     OW20494   0.447   1.058   1.553
 6532SOL    HW120495   0.470   1.124   1.481
 6532SOL    HW220496   0.517   0.987   1.558
 6533SOL     OW20497   4.407   6.763   0.256
 6533SOL    HW120498   4.396   6.664   0.248
 6533SOL    HW220499   4.401   6.804   0.165
 6534SOL     OW20500   5.202   4.735   1.768
 6534SOL    HW120501   5.270   4.782   1.713
 6534SOL    HW220502   5.246   4.696   1.850
 6535SOL     OW20503   6.954   4.365   3.777
 6535SOL    HW120504   6.958   4.299   3.851
 6535SOL    HW220505   6.954   4.458   3.814
 6536SOL     OW20506   0.440   1.795   5.459
 6536SOL    HW120507   0.395   1.708   5.477
 6536SOL    HW220508   0.532   1.779   5.422
 6537SOL     OW20509   6.743   4.715   0.291
 6537SOL    HW120510   6.834   4.684   0.318
 6537SOL    HW220511   6.744   4.815   0.281
 6538SOL     OW20512   1.832   3.478   6.062
 6538SOL    HW120513   1.813   3.504   6.157
 6538SOL    HW220514   1.775   3.533   6.001
 6539SOL     OW20515   5.072   0.644   7.005
 6539SOL    HW120516   5.148   0.606   0.033
 6539SOL    HW220517   5.095   0.645   6.907
 6540SOL     OW20518   4.134   2.256   0.026
 6540SOL    HW120519   4.174   2.332   0.077
 6540SOL    HW220520   4.206   2.192   0.000
 6541SOL     OW20521   5.166   1.642   5.379
 6541SOL    HW120522   5.083   1.586   5.372
 6541SOL    HW220523   5.149   1.731   5.336
 6542SOL     OW20524   6.956   2.757   3.870
 6542SOL    HW120525   7.010   2.673   3.880
 6542SOL    HW220526   6.885   2.743   3.801
 6543SOL     OW20527   4.268   2.962   5.430
 6543SOL    HW120528   4.255   2.866   5.405
 6543SOL    HW220529   4.226   3.020   5.361
 6544SOL     OW20530   1.485   6.312   3.423
 6544SOL    HW120531   1.538   6.341   3.503
 6544SOL    HW220532   1.428   6.388   3.392
 6545SOL     OW20533   4.592   0.261   1.102
 6545SOL    HW120534   4.567   0.170   1.068
 6545SOL    HW220535   4.513   0.302   1.147
 6546SOL     OW20536   2.568   4.618   6.245
 6546SOL    HW120537   2.551   4.716   6.237
 6546SOL    HW220538   2.651   4.604   6.300
 6547SOL     OW20539   4.590   0.874   0.004
 6547SOL    HW120540   4.547   0.925   6.953
 6547SOL    HW220541   4.618   0.784   6.994
 6548SOL     OW20542   1.006   3.781   1.147
 6548SOL    HW120543   1.035   3.764   1.052
 6548SOL    HW220544   1.074   3.838   1.192
 6549SOL     OW20545   4.577   0.999   1.732
 6549SOL    HW120546   4.546   0.952   1.815
 6549SOL    HW220547   4.515   0.977   1.657
 6550SOL     OW20548   0.040   6.806   3.791
 6550SOL    HW120549   0.015   6.885   3.735
 6550SOL    HW220550   0.131   6.775   3.766
 6551SOL     OW20551   1.596   4.156   1.600
 6551SOL    HW120552   1.521   4.189   1.658
 6551SOL    HW220553   1.660   4.104   1.655
 6552SOL     OW20554   1.325   0.267   0.580
 6552SOL    HW120555   1.385   0.254   0.501
 6552SOL    HW220556   1.291   0.178   0.610
 6553SOL     OW20557   6.995   2.149   3.512
 6553SOL    HW120558   6.966   2.240   3.480
 6553SOL    HW220559   0.053   2.121   3.460
 6554SOL     OW20560   0.780   0.135   4.328
 6554SOL    HW120561   0.775   0.037   4.309
 6554SOL    HW220562   0.746   0.186   4.249
 6555SOL     OW20563   4.976   2.262   2.981
 6555SOL    HW120564   4.892   2.304   3.015
 6555SOL    HW220565   5.018   2.321   2.912
 6556SOL     OW20566   5.844   4.495   3.605
 6556SOL    HW120567   5.784   4.421   3.635
 6556SOL    HW220568   5.789   4.576   3.584
 6557SOL     OW20569   3.179   0.184   2.609
 6557SOL    HW120570   3.161   0.163   2.513
 6557SOL    HW220571   3.237   0.265   2.615
 6558SOL     OW20572   0.055   5.112   0.487
 6558SOL    HW120573   0.024   5.135   0.394
 6558SOL    HW220574   0.131   5.172   0.513
 6559SOL     OW20575   1.147   4.343   0.320
 6559SOL    HW120576   1.237   4.336   0.363
 6559SOL    HW220577   1.156   4.338   0.221
 6560SOL     OW20578   4.533   4.792   1.566
 6560SOL    HW120579   4.593   4.870   1.584
 6560SOL    HW220580   4.587   4.708   1.572
 6561SOL     OW20581   3.212   4.343   1.476
 6561SOL    HW120582   3.222   4.244   1.465
 6561SOL    HW220583   3.150   4.361   1.553
 6562SOL     OW20584   6.472   2.538   0.828
 6562SOL    HW120585   6.534   2.596   0.880
 6562SOL    HW220586   6.499   2.538   0.732
 6563SOL     OW20587   5.099   5.294   6.250
 6563SOL    HW120588   5.070   5.227   6.318
 6563SOL    HW220589   5.153   5.249   6.179
 6564SOL     OW20590   6.870   3.551   2.904
 6564SOL    HW120591   6.883   3.551   2.805
 6564SOL    HW220592   6.822   3.468   2.931
 6565SOL     OW20593   5.412   1.632   2.614
 6565SOL    HW120594   5.388   1.705   2.678
 6565SOL    HW220595   5.497   1.589   2.644
 6566SOL     OW20596   3.847   6.036   1.752
 6566SOL    HW120597   3.894   6.118   1.783
 6566SOL    HW220598   3.875   6.014   1.659
 6567SOL     OW20599   4.729   1.012   2.311
 6567SOL    HW120600   4.644   0.959   2.310
 6567SOL    HW220601   4.763   1.023   2.218
 6568SOL     OW20602   3.405   1.635   4.285
 6568SOL    HW120603   3.335   1.563   4.281
 6568SOL    HW220604   3.365   1.721   4.254
 6569SOL     OW20605   2.571   3.291   0.287
 6569SOL    HW120606   2.546   3.205   0.243
 6569SOL    HW220607   2.662   3.319   0.258
 6570SOL     OW20608   3.058   0.602   2.334
 6570SOL    HW120609   3.019   0.619   2.424
 6570SOL    HW220610   3.100   0.686   2.298
 6571SOL     OW20611   3.161   5.125   1.712
 6571SOL    HW120612   3.226   5.065   1.665
 6571SOL    HW220613   3.211   5.187   1.773
 6572SOL     OW20614   6.544   4.538   4.568
 6572SOL    HW120615   6.474   4.547   4.497
 6572SOL    HW220616   6.520   4.462   4.629
 6573SOL     OW20617   0.940   1.499   2.391
 6573SOL    HW120618   0.934   1.575   2.456
 6573SOL    HW220619   0.861   1.501   2.331
 6574SOL     OW20620   2.288   5.746   2.440
 6574SOL    HW120621   2.333   5.780   2.522
 6574SOL    HW220622   2.356   5.711   2.376
 6575SOL     OW20623   0.545   6.625   3.673
 6575SOL    HW120624   0.519   6.589   3.583
 6575SOL    HW220625   0.629   6.679   3.665
 6576SOL     OW20626   2.142   5.873   6.933
 6576SOL    HW120627   2.145   5.902   6.838
 6576SOL    HW220628   2.120   5.951   6.991
 6577SOL     OW20629   0.729   1.831   3.576
 6577SOL    HW120630   0.747   1.765   3.650
 6577SOL    HW220631   0.809   1.888   3.562
 6578SOL     OW20632   0.840   6.169   2.763
 6578SOL    HW120633   0.880   6.251   2.720
 6578SOL    HW220634   0.740   6.172   2.753
 6579SOL     OW20635   0.353   3.190   3.896
 6579SOL    HW120636   0.361   3.133   3.814
 6579SOL    HW220637   0.375   3.285   3.872
 6580SOL     OW20638   0.583   1.928   0.592
 6580SOL    HW120639   0.596   2.022   0.562
 6580SOL    HW220640   0.556   1.927   0.688
 6581SOL     OW20641   2.491   0.514   0.150
 6581SOL    HW120642   2.466   0.451   0.077
 6581SOL    HW220643   2.412   0.571   0.174
 6582SOL     OW20644   0.023   1.303   2.838
 6582SOL    HW120645   0.018   1.205   2.818
 6582SOL    HW220646   0.108   1.340   2.800
 6583SOL     OW20647   4.589   0.472   5.765
 6583SOL    HW120648   4.495   0.498   5.746
 6583SOL    HW220649   4.650   0.523   5.704
 6584SOL     OW20650   4.425   2.995   0.783
 6584SOL    HW120651   4.465   2.922   0.839
 6584SOL    HW220652   4.327   2.977   0.770
 6585SOL     OW20653   6.360   6.324   0.231
 6585SOL    HW120654   6.288   6.300   0.166
 6585SOL    HW220655   6.329   6.397   0.291
 6586SOL     OW20656   5.512   1.028   5.862
 6586SOL    HW120657   5.453   1.095   5.907
 6586SOL    HW220658   5.512   1.046   5.763
 6587SOL     OW20659   2.020   5.083   5.633
 6587SOL    HW120660   2.057   5.176   5.628
 6587SOL    HW220661   2.083   5.019   5.590
 6588SOL     OW20662   0.224   2.816   2.140
 6588SOL    HW120663   0.208   2.821   2.239
 6588SOL    HW220664   0.184   2.731   2.105
 6589SOL     OW20665   4.707   0.512   1.494
 6589SOL    HW120666   4.696   0.601   1.451
 6589SOL    HW220667   4.617   0.469   1.504
 6590SOL     OW20668   0.412   1.122   6.769
 6590SOL    HW120669   0.438   1.052   6.703
 6590SOL    HW220670   0.325   1.164   6.742
 6591SOL     OW20671   6.301   5.827   2.897
 6591SOL    HW120672   6.338   5.781   2.817
 6591SOL    HW220673   6.360   5.809   2.976
 6592SOL     OW20674   5.146   0.448   3.207
 6592SOL    HW120675   5.126   0.353   3.182
 6592SOL    HW220676   5.076   0.508   3.169
 6593SOL     OW20677   2.140   2.266   2.611
 6593SOL    HW120678   2.160   2.339   2.677
 6593SOL    HW220679   2.135   2.179   2.659
 6594SOL     OW20680   3.814   1.363   6.240
 6594SOL    HW120681   3.837   1.448   6.288
 6594SOL    HW220682   3.756   1.382   6.162
 6595SOL     OW20683   1.038   4.789   0.184
 6595SOL    HW120684   1.010   4.744   0.100
 6595SOL    HW220685   1.100   4.729   0.235
 6596SOL     OW20686   3.181   0.109   4.279
 6596SOL    HW120687   3.136   0.075   4.197
 6596SOL    HW220688   3.270   0.065   4.289
 6597SOL     OW20689   1.232   5.160   1.381
 6597SOL    HW120690   1.134   5.167   1.402
 6597SOL    HW220691   1.284   5.181   1.464
 6598SOL     OW20692   1.712   5.092   4.352
 6598SOL    HW120693   1.710   5.186   4.386
 6598SOL    HW220694   1.806   5.065   4.333
 6599SOL     OW20695   4.213   6.236   6.314
 6599SOL    HW120696   4.288   6.287   6.356
 6599SOL    HW220697   4.152   6.203   6.387
 6600SOL     OW20698   4.011   5.735   5.556
 6600SOL    HW120699   3.965   5.681   5.627
 6600SOL    HW220700   3.944   5.794   5.511
 6601SOL     OW20701   1.639   1.914   4.843
 6601SOL    HW120702   1.698   1.994   4.831
 6601SOL    HW220703   1.651   1.877   4.935
 6602SOL     OW20704   1.905   1.209   1.972
 6602SOL    HW120705   1.884   1.241   1.880
 6602SOL    HW220706   1.841   1.136   1.998
 6603SOL     OW20707   0.224   2.617   3.502
 6603SOL    HW120708   0.215   2.522   3.473
 6603SOL    HW220709   0.133   2.657   3.512
 6604SOL     OW20710   1.290   0.334   1.242
 6604SOL    HW120711   1.304   0.431   1.225
 6604SOL    HW220712   1.379   0.288   1.249
 6605SOL     OW20713   5.904   5.254   1.524
 6605SOL    HW120714   5.985   5.195   1.519
 6605SOL    HW220715   5.899   5.310   1.442
 6606SOL     OW20716   0.527   5.707   2.074
 6606SOL    HW120717   0.594   5.700   2.148
 6606SOL    HW220718   0.519   5.619   2.028
 6607SOL     OW20719   1.874   4.202   2.366
 6607SOL    HW120720   1.934   4.194   2.445
 6607SOL    HW220721   1.929   4.199   2.282
 6608SOL     OW20722   6.704   6.605   0.123
 6608SOL    HW120723   6.660   6.581   0.209
 6608SOL    HW220724   6.784   6.663   0.142
 6609SOL     OW20725   5.241   1.192   0.308
 6609SOL    HW120726   5.247   1.278   0.258
 6609SOL    HW220727   5.155   1.146   0.287
 6610SOL     OW20728   2.381   6.102   0.260
 6610SOL    HW120729   2.468   6.133   0.220
 6610SOL    HW220730   2.305   6.138   0.206
 6611SOL     OW20731   4.941   3.319   3.064
 6611SOL    HW120732   5.036   3.337   3.036
 6611SOL    HW220733   4.901   3.252   3.001
 6612SOL     OW20734   6.190   2.129   0.073
 6612SOL    HW120735   6.139   2.132   7.011
 6612SOL    HW220736   6.172   2.213   0.125
 6613SOL     OW20737   6.886   6.228   5.177
 6613SOL    HW120738   6.859   6.134   5.156
 6613SOL    HW220739   6.854   6.288   5.104
 6614SOL     OW20740   4.412   5.356   7.017
 6614SOL    HW120741   4.456   5.403   6.941
 6614SOL    HW220742   4.356   5.281   6.982
 6615SOL     OW20743   1.571   5.772   1.115
 6615SOL    HW120744   1.538   5.767   1.209
 6615SOL    HW220745   1.500   5.812   1.057
 6616SOL     OW20746   4.605   0.544   6.348
 6616SOL    HW120747   4.571   0.451   6.358
 6616SOL    HW220748   4.572   0.583   6.262
 6617SOL     OW20749   4.444   5.293   3.303
 6617SOL    HW120750   4.529   5.346   3.304
 6617SOL    HW220751   4.371   5.346   3.347
 6618SOL     OW20752   1.735   2.020   2.618
 6618SOL    HW120753   1.744   1.988   2.713
 6618SOL    HW220754   1.677   2.101   2.615
 6619SOL     OW20755   5.238   0.174   3.737
 6619SOL    HW120756   5.223   0.075   3.726
 6619SOL    HW220757   5.324   0.199   3.693
 6620SOL     OW20758   1.275   3.224   5.384
 6620SOL    HW120759   1.175   3.230   5.383
 6620SOL    HW220760   1.313   3.277   5.308
 6621SOL     OW20761   3.326   2.880   6.226
 6621SOL    HW120762   3.419   2.849   6.246
 6621SOL    HW220763   3.323   2.918   6.134
 6622SOL     OW20764   5.742   6.679   2.268
 6622SOL    HW120765   5.683   6.599   2.279
 6622SOL    HW220766   5.686   6.761   2.260
 6623SOL     OW20767   3.489   3.096   5.302
 6623SOL    HW120768   3.502   3.169   5.235
 6623SOL    HW220769   3.442   3.132   5.383
 6624SOL     OW20770   6.978   4.333   5.551
 6624SOL    HW120771   0.052   4.312   5.562
 6624SOL    HW220772   6.941   4.366   5.638
 6625SOL     OW20773   5.184   2.105   5.043
 6625SOL    HW120774   5.276   2.091   5.006
 6625SOL    HW220775   5.161   2.028   5.103
 6626SOL     OW20776   3.796   5.923   5.556
 6626SOL    HW120777   3.774   5.896   5.649
 6626SOL    HW220778   3.838   6.014   5.557
 6627SOL     OW20779   1.868   6.476   5.949
 6627SOL    HW120780   1.871   6.541   5.873
 6627SOL    HW220781   1.837   6.387   5.915
 6628SOL     OW20782   5.960   5.317   4.356
 6628SOL    HW120783   5.869   5.343   4.389
 6628SOL    HW220784   5.960   5.220   4.331
 6629SOL     OW20785   4.677   6.614   6.556
 6629SOL    HW120786   4.743   6.685   6.580
 6629SOL    HW220787   4.726   6.530   6.533
 6630SOL     OW20788   3.487   1.517   0.940
 6630SOL    HW120789   3.484   1.531   1.039
 6630SOL    HW220790   3.407   1.463   0.912
 6631SOL     OW20791   2.421   5.793   3.960
 6631SOL    HW120792   2.412   5.695   3.973
 6631SOL    HW220793   2.401   5.840   4.046
 6632SOL     OW20794   0.880   0.111   1.077
 6632SOL    HW120795   0.909   0.199   1.114
 6632SOL    HW220796   0.927   0.094   0.991
 6633SOL     OW20797   1.647   4.607   6.500
 6633SOL    HW120798   1.580   4.584   6.430
 6633SOL    HW220799   1.716   4.668   6.461
 6634SOL     OW20800   4.870   1.552   5.020
 6634SOL    HW120801   4.811   1.491   5.073
 6634SOL    HW220802   4.873   1.523   4.925
 6635SOL     OW20803   4.526   4.418   3.149
 6635SOL    HW120804   4.523   4.458   3.241
 6635SOL    HW220805   4.553   4.322   3.155
 6636SOL     OW20806   4.766   1.705   6.733
 6636SOL    HW120807   4.808   1.721   6.644
 6636SOL    HW220808   4.697   1.632   6.725
 6637SOL     OW20809   0.277   6.781   6.564
 6637SOL    HW120810   0.235   6.867   6.596
 6637SOL    HW220811   0.370   6.774   6.599
 6638SOL     OW20812   3.220   3.834   3.122
 6638SOL    HW120813   3.224   3.735   3.116
 6638SOL    HW220814   3.281   3.874   3.054
 6639SOL     OW20815   5.007   4.818   6.621
 6639SOL    HW120816   4.922   4.863   6.646
 6639SOL    HW220817   5.072   4.825   6.696
 6640SOL     OW20818   0.041   1.921   4.856
 6640SOL    HW120819   0.125   1.869   4.844
 6640SOL    HW220820   0.057   2.017   4.832
 6641SOL     OW20821   2.486   0.908   6.649
 6641SOL    HW120822   2.393   0.923   6.685
 6641SOL    HW220823   2.524   0.996   6.621
 6642SOL     OW20824   1.851   6.056   6.617
 6642SOL    HW120825   1.943   6.018   6.628
 6642SOL    HW220826   1.793   5.990   6.570
 6643SOL     OW20827   5.622   5.913   0.212
 6643SOL    HW120828   5.607   5.919   0.311
 6643SOL    HW220829   5.696   5.974   0.186
 6644SOL     OW20830   2.360   4.795   1.232
 6644SOL    HW120831   2.301   4.749   1.166
 6644SOL    HW220832   2.456   4.773   1.211
 6645SOL     OW20833   6.310   4.006   0.617
 6645SOL    HW120834   6.276   3.974   0.705
 6645SOL    HW220835   6.244   3.985   0.545
 6646SOL     OW20836   4.481   0.614   5.146
 6646SOL    HW120837   4.510   0.518   5.150
 6646SOL    HW220838   4.534   0.662   5.076
 6647SOL     OW20839   5.225   0.661   1.035
 6647SOL    HW120840   5.184   0.586   0.983
 6647SOL    HW220841   5.169   0.744   1.022
 6648SOL     OW20842   3.102   6.230   3.549
 6648SOL    HW120843   3.110   6.327   3.573
 6648SOL    HW220844   3.073   6.179   3.630
 6649SOL     OW20845   5.396   1.810   6.702
 6649SOL    HW120846   5.369   1.714   6.691
 6649SOL    HW220847   5.488   1.822   6.666
 6650SOL     OW20848   3.958   1.520   5.630
 6650SOL    HW120849   3.924   1.469   5.550
 6650SOL    HW220850   4.032   1.580   5.601
 6651SOL     OW20851   2.989   0.622   6.183
 6651SOL    HW120852   2.976   0.687   6.109
 6651SOL    HW220853   2.962   0.531   6.153
 6652SOL     OW20854   0.487   4.269   6.826
 6652SOL    HW120855   0.578   4.252   6.864
 6652SOL    HW220856   0.457   4.361   6.850
 6653SOL     OW20857   3.837   4.044   1.365
 6653SOL    HW120858   3.790   3.957   1.378
 6653SOL    HW220859   3.931   4.036   1.399
 6654SOL     OW20860   1.605   5.014   0.962
 6654SOL    HW120861   1.559   5.080   0.903
 6654SOL    HW220862   1.613   5.051   1.054
 6655SOL     OW20863   1.014   6.560   3.919
 6655SOL    HW120864   1.005   6.493   3.993
 6655SOL    HW220865   0.982   6.518   3.834
 6656SOL     OW20866   4.954   1.983   3.390
 6656SOL    HW120867   4.970   1.904   3.450
 6656SOL    HW220868   4.966   1.956   3.295
 6657SOL     OW20869   5.915   4.531   6.161
 6657SOL    HW120870   5.873   4.619   6.183
 6657SOL    HW220871   5.904   4.469   6.239
 6658SOL     OW20872   5.928   1.152   4.474
 6658SOL    HW120873   5.836   1.120   4.495
 6658SOL    HW220874   5.980   1.079   4.430
 6659SOL     OW20875   2.144   3.058   0.091
 6659SOL    HW120876   2.133   3.082   0.188
 6659SOL    HW220877   2.055   3.055   0.046
 6660SOL     OW20878   1.268   4.962   1.041
 6660SOL    HW120879   1.292   5.059   1.044
 6660SOL    HW220880   1.340   4.912   0.992
 6661SOL     OW20881   1.632   0.078   5.458
 6661SOL    HW120882   1.686   0.139   5.517
 6661SOL    HW220883   1.662   7.007   5.471
 6662SOL     OW20884   0.920   0.046   0.217
 6662SOL    HW120885   0.946   0.065   0.311
 6662SOL    HW220886   0.850   0.111   0.187
 6663SOL     OW20887   6.503   6.035   4.528
 6663SOL    HW120888   6.418   6.061   4.573
 6663SOL    HW220889   6.540   5.953   4.573
 6664SOL     OW20890   2.376   6.629   0.712
 6664SOL    HW120891   2.322   6.563   0.763
 6664SOL    HW220892   2.321   6.668   0.638
 6665SOL     OW20893   1.524   6.131   4.371
 6665SOL    HW120894   1.529   6.195   4.448
 6665SOL    HW220895   1.471   6.051   4.398
 6666SOL     OW20896   5.858   6.348   5.906
 6666SOL    HW120897   5.825   6.425   5.852
 6666SOL    HW220898   5.875   6.270   5.846
 6667SOL     OW20899   6.024   6.591   6.170
 6667SOL    HW120900   6.032   6.618   6.266
 6667SOL    HW220901   6.069   6.503   6.156
 6668SOL     OW20902   6.712   5.645   0.682
 6668SOL    HW120903   6.761   5.558   0.674
 6668SOL    HW220904   6.772   5.720   0.653
 6669SOL     OW20905   2.184   2.022   2.285
 6669SOL    HW120906   2.257   2.040   2.219
 6669SOL    HW220907   2.225   1.994   2.372
 6670SOL     OW20908   3.250   1.644   5.141
 6670SOL    HW120909   3.309   1.724   5.138
 6670SOL    HW220910   3.293   1.573   5.197
 6671SOL     OW20911   4.748   6.668   0.523
 6671SOL    HW120912   4.807   6.635   0.449
 6671SOL    HW220913   4.676   6.726   0.485
 6672SOL     OW20914   6.567   2.897   6.522
 6672SOL    HW120915   6.565   2.818   6.583
 6672SOL    HW220916   6.643   2.888   6.458
 6673SOL     OW20917   4.541   4.691   4.116
 6673SOL    HW120918   4.619   4.754   4.110
 6673SOL    HW220919   4.574   4.597   4.105
 6674SOL     OW20920   0.852   3.767   6.821
 6674SOL    HW120921   0.772   3.800   6.770
 6674SOL    HW220922   0.822   3.723   6.906
 6675SOL     OW20923   6.082   3.706   0.103
 6675SOL    HW120924   6.006   3.641   0.099
 6675SOL    HW220925   6.122   3.716   0.012
 6676SOL     OW20926   0.921   4.140   5.643
 6676SOL    HW120927   0.969   4.202   5.581
 6676SOL    HW220928   0.987   4.088   5.696
 6677SOL     OW20929   1.176   1.683   6.155
 6677SOL    HW120930   1.114   1.760   6.143
 6677SOL    HW220931   1.124   1.601   6.178
 6678SOL     OW20932   3.114   3.482   6.999
 6678SOL    HW120933   3.015   3.467   6.995
 6678SOL    HW220934   3.134   3.555   0.041
 6679SOL     OW20935   3.514   1.175   4.103
 6679SOL    HW120936   3.454   1.108   4.059
 6679SOL    HW220937   3.500   1.172   4.202
 6680SOL     OW20938   4.911   6.802   6.654
 6680SOL    HW120939   4.856   6.871   6.702
 6680SOL    HW220940   4.957   6.744   6.721
 6681SOL     OW20941   4.243   5.022   1.335
 6681SOL    HW120942   4.301   4.943   1.317
 6681SOL    HW220943   4.300   5.100   1.360
 6682SOL     OW20944   1.711   4.318   1.242
 6682SOL    HW120945   1.804   4.343   1.268
 6682SOL    HW220946   1.696   4.221   1.262
 6683SOL     OW20947   5.655   3.822   5.080
 6683SOL    HW120948   5.704   3.825   5.168
 6683SOL    HW220949   5.581   3.756   5.086
 6684SOL     OW20950   3.104   6.071   1.643
 6684SOL    HW120951   3.182   6.092   1.584
 6684SOL    HW220952   3.019   6.088   1.593
 6685SOL     OW20953   5.997   2.671   5.690
 6685SOL    HW120954   6.084   2.662   5.640
 6685SOL    HW220955   6.009   2.737   5.765
 6686SOL     OW20956   4.843   5.793   3.805
 6686SOL    HW120957   4.881   5.714   3.854
 6686SOL    HW220958   4.917   5.844   3.761
 6687SOL     OW20959   1.040   3.234   1.327
 6687SOL    HW120960   1.130   3.221   1.287
 6687SOL    HW220961   0.980   3.277   1.260
 6688SOL     OW20962   6.255   4.436   2.012
 6688SOL    HW120963   6.297   4.422   2.102
 6688SOL    HW220964   6.186   4.365   1.997
 6689SOL     OW20965   3.610   3.532   6.489
 6689SOL    HW120966   3.552   3.494   6.561
 6689SOL    HW220967   3.553   3.559   6.411
 6690SOL     OW20968   0.539   0.872   0.837
 6690SOL    HW120969   0.510   0.791   0.888
 6690SOL    HW220970   0.473   0.892   0.765
 6691SOL     OW20971   2.670   6.560   2.257
 6691SOL    HW120972   2.703   6.589   2.347
 6691SOL    HW220973   2.733   6.595   2.187
 6692SOL     OW20974   3.501   3.175   3.990
 6692SOL    HW120975   3.557   3.230   4.053
 6692SOL    HW220976   3.475   3.089   4.034
 6693SOL     OW20977   3.710   2.318   5.271
 6693SOL    HW120978   3.655   2.399   5.252
 6693SOL    HW220979   3.677   2.273   5.354
 6694SOL     OW20980   4.535   5.530   1.122
 6694SOL    HW120981   4.494   5.439   1.131
 6694SOL    HW220982   4.511   5.569   1.034
 6695SOL     OW20983   3.096   2.222   0.086
 6695SOL    HW120984   3.122   2.204   0.181
 6695SOL    HW220985   3.060   2.315   0.079
 6696SOL     OW20986   3.177   3.349   4.776
 6696SOL    HW120987   3.208   3.365   4.870
 6696SOL    HW220988   3.108   3.277   4.776
 6697SOL     OW20989   4.738   1.948   2.858
 6697SOL    HW120990   4.650   1.910   2.830
 6697SOL    HW220991   4.724   2.016   2.930
 6698SOL     OW20992   2.857   2.115   0.590
 6698SOL    HW120993   2.933   2.099   0.526
 6698SOL    HW220994   2.829   2.211   0.584
 6699SOL     OW20995   2.590   5.573   5.538
 6699SOL    HW120996   2.591   5.667   5.507
 6699SOL    HW220997   2.682   5.534   5.534
 6700SOL     OW20998   0.971   0.824   1.395
 6700SOL    HW120999   0.877   0.824   1.428
 6700SOL    HW221000   0.981   0.892   1.322
 6701SOL     OW21001   5.582   4.799   2.331
 6701SOL    HW121002   5.578   4.895   2.306
 6701SOL    HW221003   5.507   4.777   2.393
 6702SOL     OW21004   3.001   2.025   1.608
 6702SOL    HW121005   3.089   2.042   1.563
 6702SOL    HW221006   2.927   2.039   1.543
 6703SOL     OW21007   6.108   1.175   0.011
 6703SOL    HW121008   6.063   1.263   7.018
 6703SOL    HW221009   6.082   1.111   6.961
 6704SOL     OW21010   4.141   1.807   3.409
 6704SOL    HW121011   4.118   1.836   3.316
 6704SOL    HW221012   4.166   1.710   3.409
 6705SOL     OW21013   6.370   4.139   1.490
 6705SOL    HW121014   6.422   4.191   1.558
 6705SOL    HW221015   6.398   4.168   1.398
 6706SOL     OW21016   1.516   4.616   1.224
 6706SOL    HW121017   1.460   4.534   1.214
 6706SOL    HW221018   1.605   4.591   1.263
 6707SOL     OW21019   6.223   6.596   3.780
 6707SOL    HW121020   6.300   6.640   3.827
 6707SOL    HW221021   6.257   6.542   3.703
 6708SOL     OW21022   0.158   4.706   0.570
 6708SOL    HW121023   0.173   4.616   0.610
 6708SOL    HW221024   0.114   4.766   0.638
 6709SOL     OW21025   2.357   6.210   2.616
 6709SOL    HW121026   2.297   6.206   2.536
 6709SOL    HW221027   2.311   6.168   2.695
 6710SOL     OW21028   3.832   1.838   6.276
 6710SOL    HW121029   3.873   1.929   6.280
 6710SOL    HW221030   3.874   1.786   6.202
 6711SOL     OW21031   4.614   5.996   5.837
 6711SOL    HW121032   4.710   5.977   5.855
 6711SOL    HW221033   4.600   6.010   5.740
 6712SOL     OW21034   5.713   4.170   0.607
 6712SOL    HW121035   5.810   4.179   0.583
 6712SOL    HW221036   5.696   4.077   0.641
 6713SOL     OW21037   2.454   0.263   2.657
 6713SOL    HW121038   2.447   0.279   2.558
 6713SOL    HW221039   2.489   0.345   2.702
 6714SOL     OW21040   6.747   0.765   5.746
 6714SOL    HW121041   6.731   0.791   5.842
 6714SOL    HW221042   6.832   0.807   5.714
 6715SOL     OW21043   0.498   0.173   0.376
 6715SOL    HW121044   0.522   0.083   0.412
 6715SOL    HW221045   0.407   0.169   0.335
 6716SOL     OW21046   7.023   5.713   1.892
 6716SOL    HW121047   0.029   5.717   1.987
 6716SOL    HW221048   6.981   5.800   1.865
 6717SOL     OW21049   3.897   2.317   6.942
 6717SOL    HW121050   3.820   2.283   6.996
 6717SOL    HW221051   3.983   2.286   6.982
 6718SOL     OW21052   5.444   0.817   0.951
 6718SOL    HW121053   5.358   0.767   0.948
 6718SOL    HW221054   5.441   0.893   0.886
 6719SOL     OW21055   2.584   6.590   6.395
 6719SOL    HW121056   2.618   6.513   6.341
 6719SOL    HW221057   2.508   6.559   6.452
 6720SOL     OW21058   1.477   0.632   4.544
 6720SOL    HW121059   1.516   0.577   4.471
 6720SOL    HW221060   1.485   0.582   4.631
 6721SOL     OW21061   6.569   6.617   0.357
 6721SOL    HW121062   6.596   6.708   0.390
 6721SOL    HW221063   6.590   6.549   0.427
 6722SOL     OW21064   0.323   3.091   1.691
 6722SOL    HW121065   0.254   3.034   1.735
 6722SOL    HW221066   0.356   3.160   1.755
 6723SOL     OW21067   1.885   6.433   4.165
 6723SOL    HW121068   1.855   6.451   4.071
 6723SOL    HW221069   1.971   6.482   4.182
 6724SOL     OW21070   1.781   3.495   6.351
 6724SOL    HW121071   1.722   3.414   6.357
 6724SOL    HW221072   1.865   3.478   6.402
 6725SOL     OW21073   0.159   3.747   1.769
 6725SOL    HW121074   0.221   3.742   1.691
 6725SOL    HW221075   0.213   3.743   1.854
 6726SOL     OW21076   1.142   2.488   5.206
 6726SOL    HW121077   1.098   2.524   5.288
 6726SOL    HW221078   1.186   2.401   5.227
 6727SOL     OW21079   0.648   5.164   5.355
 6727SOL    HW121080   0.639   5.076   5.403
 6727SOL    HW221081   0.719   5.219   5.398
 6728SOL     OW21082   3.382   2.052   2.602
 6728SOL    HW121083   3.480   2.043   2.581
 6728SOL    HW221084   3.371   2.081   2.697
 6729SOL     OW21085   6.466   0.790   2.822
 6729SOL    HW121086   6.456   0.861   2.753
 6729SOL    HW221087   6.378   0.744   2.837
 6730SOL     OW21088   1.934   6.632   1.249
 6730SOL    HW121089   1.877   6.553   1.229
 6730SOL    HW221090   1.920   6.660   1.344
 6731SOL     OW21091   0.987   6.212   1.105
 6731SOL    HW121092   1.067   6.211   1.045
 6731SOL    HW221093   0.905   6.235   1.052
 6732SOL     OW21094   5.700   4.992   4.836
 6732SOL    HW121095   5.795   5.019   4.817
 6732SOL    HW221096   5.655   5.064   4.890
 6733SOL     OW21097   3.929   5.167   6.208
 6733SOL    HW121098   3.873   5.165   6.291
 6733SOL    HW221099   4.025   5.151   6.232
 6734SOL     OW21100   5.768   3.010   4.035
 6734SOL    HW121101   5.686   2.993   4.088
 6734SOL    HW221102   5.808   3.098   4.062
 6735SOL     OW21103   6.545   3.980   4.856
 6735SOL    HW121104   6.627   4.029   4.826
 6735SOL    HW221105   6.537   3.987   4.956
 6736SOL     OW21106   3.458   3.694   0.252
 6736SOL    HW121107   3.377   3.744   0.279
 6736SOL    HW221108   3.462   3.687   0.152
 6737SOL     OW21109   1.416   2.444   0.545
 6737SOL    HW121110   1.428   2.542   0.526
 6737SOL    HW221111   1.492   2.411   0.601
 6738SOL     OW21112   1.578   5.690   3.183
 6738SOL    HW121113   1.488   5.730   3.203
 6738SOL    HW221114   1.626   5.746   3.116
 6739SOL     OW21115   4.425   6.018   4.515
 6739SOL    HW121116   4.334   6.046   4.486
 6739SOL    HW221117   4.469   5.965   4.443
 6740SOL     OW21118   1.016   0.542   4.924
 6740SOL    HW121119   1.027   0.493   4.838
 6740SOL    HW221120   0.980   0.480   4.994
 6741SOL     OW21121   4.307   1.998   5.241
 6741SOL    HW121122   4.260   2.084   5.220
 6741SOL    HW221123   4.275   1.963   5.329
 6742SOL     OW21124   5.529   6.011   2.622
 6742SOL    HW121125   5.577   5.942   2.676
 6742SOL    HW221126   5.463   6.059   2.680
 6743SOL     OW21127   4.195   5.133   6.566
 6743SOL    HW121128   4.232   5.191   6.638
 6743SOL    HW221129   4.105   5.098   6.595
 6744SOL     OW21130   5.595   4.308   6.116
 6744SOL    HW121131   5.601   4.315   6.016
 6744SOL    HW221132   5.598   4.211   6.142
 6745SOL     OW21133   0.045   6.515   3.511
 6745SOL    HW121134   0.001   6.604   3.522
 6745SOL    HW221135   0.020   6.476   3.423
 6746SOL     OW21136   1.005   1.331   3.579
 6746SOL    HW121137   1.050   1.314   3.666
 6746SOL    HW221138   0.976   1.245   3.539
 6747SOL     OW21139   5.457   1.494   4.877
 6747SOL    HW121140   5.468   1.451   4.966
 6747SOL    HW221141   5.360   1.501   4.855
 6748SOL     OW21142   3.054   1.705   4.440
 6748SOL    HW121143   3.026   1.642   4.368
 6748SOL    HW221144   3.032   1.798   4.413
 6749SOL     OW21145   3.442   4.895   0.245
 6749SOL    HW121146   3.432   4.984   0.289
 6749SOL    HW221147   3.451   4.824   0.315
 6750SOL     OW21148   3.916   1.858   5.039
 6750SOL    HW121149   3.893   1.955   5.039
 6750SOL    HW221150   4.013   1.846   5.015
 6751SOL     OW21151   4.507   6.872   3.110
 6751SOL    HW121152   4.533   6.969   3.115
 6751SOL    HW221153   4.587   6.815   3.131
 6752SOL     OW21154   1.233   1.392   3.318
 6752SOL    HW121155   1.253   1.453   3.241
 6752SOL    HW221156   1.175   1.439   3.384
 6753SOL     OW21157   2.945   0.668   6.612
 6753SOL    HW121158   2.873   0.603   6.588
 6753SOL    HW221159   3.033   0.636   6.577
 6754SOL     OW21160   6.975   1.660   0.769
 6754SOL    HW121161   6.891   1.697   0.729
 6754SOL    HW221162   6.957   1.572   0.812
 6755SOL     OW21163   4.119   0.598   2.712
 6755SOL    HW121164   4.204   0.552   2.736
 6755SOL    HW221165   4.062   0.608   2.794
 6756SOL     OW21166   3.841   5.670   4.969
 6756SOL    HW121167   3.865   5.638   5.061
 6756SOL    HW221168   3.866   5.600   4.902
 6757SOL     OW21169   4.162   2.470   0.741
 6757SOL    HW121170   4.202   2.391   0.787
 6757SOL    HW221171   4.162   2.549   0.802
 6758SOL     OW21172   6.068   1.473   1.817
 6758SOL    HW121173   6.072   1.543   1.889
 6758SOL    HW221174   6.079   1.517   1.728
 6759SOL     OW21175   1.067   4.036   4.473
 6759SOL    HW121176   1.118   4.093   4.408
 6759SOL    HW221177   1.083   4.070   4.566
 6760SOL     OW21178   6.687   4.148   2.558
 6760SOL    HW121179   6.721   4.152   2.464
 6760SOL    HW221180   6.616   4.079   2.564
 6761SOL     OW21181   6.478   2.670   5.381
 6761SOL    HW121182   6.530   2.714   5.455
 6761SOL    HW221183   6.501   2.573   5.377
 6762SOL     OW21184   1.005   5.221   4.874
 6762SOL    HW121185   1.105   5.220   4.879
 6762SOL    HW221186   0.968   5.239   4.966
 6763SOL     OW21187   0.915   5.177   3.049
 6763SOL    HW121188   0.866   5.158   3.134
 6763SOL    HW221189   1.005   5.215   3.071
 6764SOL     OW21190   1.278   5.257   1.111
 6764SOL    HW121191   1.216   5.251   1.033
 6764SOL    HW221192   1.233   5.219   1.192
 6765SOL     OW21193   5.971   4.425   3.882
 6765SOL    HW121194   6.049   4.450   3.939
 6765SOL    HW221195   5.994   4.440   3.785
 6766SOL     OW21196   5.175   6.542   6.152
 6766SOL    HW121197   5.195   6.511   6.245
 6766SOL    HW221198   5.109   6.617   6.156
 6767SOL     OW21199   1.882   2.050   1.232
 6767SOL    HW121200   1.827   2.104   1.168
 6767SOL    HW221201   1.830   1.968   1.259
 6768SOL     OW21202   1.512   6.798   4.067
 6768SOL    HW121203   1.599   6.810   4.114
 6768SOL    HW221204   1.475   6.708   4.088
 6769SOL     OW21205   3.145   0.751   5.737
 6769SOL    HW121206   3.244   0.742   5.749
 6769SOL    HW221207   3.126   0.821   5.668
 6770SOL     OW21208   5.402   2.010   3.200
 6770SOL    HW121209   5.321   2.049   3.156
 6770SOL    HW221210   5.465   2.084   3.225
 6771SOL     OW21211   3.690   1.766   2.345
 6771SOL    HW121212   3.654   1.733   2.258
 6771SOL    HW221213   3.769   1.826   2.328
 6772SOL     OW21214   4.668   2.623   2.397
 6772SOL    HW121215   4.699   2.538   2.355
 6772SOL    HW221216   4.692   2.700   2.338
 6773SOL     OW21217   0.384   6.019   1.482
 6773SOL    HW121218   0.404   5.977   1.570
 6773SOL    HW221219   0.364   5.949   1.414
 6774SOL     OW21220   1.573   4.208   5.142
 6774SOL    HW121221   1.582   4.113   5.111
 6774SOL    HW221222   1.491   4.248   5.101
 6775SOL     OW21223   2.173   2.391   2.868
 6775SOL    HW121224   2.113   2.345   2.933
 6775SOL    HW221225   2.261   2.409   2.911
 6776SOL     OW21226   4.487   2.937   0.364
 6776SOL    HW121227   4.480   3.013   0.300
 6776SOL    HW221228   4.584   2.916   0.380
 6777SOL     OW21229   4.919   4.750   0.755
 6777SOL    HW121230   4.970   4.788   0.679
 6777SOL    HW221231   4.867   4.670   0.724
 6778SOL     OW21232   0.101   5.885   1.584
 6778SOL    HW121233   0.185   5.882   1.529
 6778SOL    HW221234   0.121   5.930   1.671
 6779SOL     OW21235   5.297   5.521   5.911
 6779SOL    HW121236   5.214   5.540   5.964
 6779SOL    HW221237   5.354   5.604   5.907
 6780SOL     OW21238   1.574   2.940   2.419
 6780SOL    HW121239   1.628   2.860   2.393
 6780SOL    HW221240   1.515   2.916   2.496
 6781SOL     OW21241   6.286   2.265   4.729
 6781SOL    HW121242   6.305   2.182   4.678
 6781SOL    HW221243   6.309   2.345   4.673
 6782SOL     OW21244   0.974   1.110   3.182
 6782SOL    HW121245   0.967   1.124   3.083
 6782SOL    HW221246   1.068   1.129   3.211
 6783SOL     OW21247   0.058   1.345   6.154
 6783SOL    HW121248   0.089   1.323   6.062
 6783SOL    HW221249   6.991   1.305   6.170
 6784SOL     OW21250   1.825   3.500   0.590
 6784SOL    HW121251   1.851   3.428   0.526
 6784SOL    HW221252   1.759   3.561   0.546
 6785SOL     OW21253   6.089   6.024   5.021
 6785SOL    HW121254   6.051   6.096   4.964
 6785SOL    HW221255   6.138   5.958   4.963
 6786SOL     OW21256   1.702   1.830   0.904
 6786SOL    HW121257   1.800   1.808   0.899
 6786SOL    HW221258   1.652   1.774   0.839
 6787SOL     OW21259   3.036   2.860   0.132
 6787SOL    HW121260   2.939   2.843   0.114
 6787SOL    HW221261   3.053   2.851   0.230
 6788SOL     OW21262   0.990   4.158   1.073
 6788SOL    HW121263   1.088   4.137   1.071
 6788SOL    HW221264   0.971   4.225   1.144
 6789SOL     OW21265   1.163   4.759   3.958
 6789SOL    HW121266   1.175   4.848   4.003
 6789SOL    HW221267   1.169   4.770   3.859
 6790SOL     OW21268   0.934   3.969   0.213
 6790SOL    HW121269   0.917   3.897   0.146
 6790SOL    HW221270   0.901   4.056   0.177
 6791SOL     OW21271   3.636   2.109   2.259
 6791SOL    HW121272   3.627   2.155   2.171
 6791SOL    HW221273   3.611   2.172   2.332
 6792SOL     OW21274   5.399   6.969   5.098
 6792SOL    HW121275   5.330   0.013   5.069
 6792SOL    HW221276   5.367   6.922   5.180
 6793SOL     OW21277   1.777   1.636   0.180
 6793SOL    HW121278   1.731   1.710   0.130
 6793SOL    HW221279   1.710   1.584   0.231
 6794SOL     OW21280   5.412   1.530   5.328
 6794SOL    HW121281   5.470   1.507   5.406
 6794SOL    HW221282   5.322   1.559   5.361
 6795SOL     OW21283   1.621   6.765   1.085
 6795SOL    HW121284   1.570   6.848   1.065
 6795SOL    HW221285   1.580   6.688   1.035
 6796SOL     OW21286   5.948   0.978   3.395
 6796SOL    HW121287   5.895   1.001   3.314
 6796SOL    HW221288   6.043   1.004   3.381
 6797SOL     OW21289   6.823   2.317   1.998
 6797SOL    HW121290   6.777   2.239   1.955
 6797SOL    HW221291   6.918   2.320   1.967
 6798SOL     OW21292   5.913   6.077   1.783
 6798SOL    HW121293   5.948   6.162   1.745
 6798SOL    HW221294   5.821   6.092   1.818
 6799SOL     OW21295   6.825   0.543   2.525
 6799SOL    HW121296   6.742   0.497   2.494
 6799SOL    HW221297   6.904   0.508   2.474
 6800SOL     OW21298   2.395   2.596   2.068
 6800SOL    HW121299   2.353   2.523   2.013
 6800SOL    HW221300   2.440   2.661   2.007
 6801SOL     OW21301   1.352   0.351   3.247
 6801SOL    HW121302   1.260   0.319   3.270
 6801SOL    HW221303   1.355   0.451   3.253
 6802SOL     OW21304   3.857   5.789   1.324
 6802SOL    HW121305   3.769   5.831   1.348
 6802SOL    HW221306   3.876   5.804   1.227
 6803SOL     OW21307   4.421   3.585   6.009
 6803SOL    HW121308   4.341   3.637   6.040
 6803SOL    HW221309   4.444   3.612   5.916
 6804SOL     OW21310   3.915   4.938   3.562
 6804SOL    HW121311   3.874   5.023   3.529
 6804SOL    HW221312   3.933   4.878   3.484
 6805SOL     OW21313   6.895   4.777   6.251
 6805SOL    HW121314   6.882   4.678   6.258
 6805SOL    HW221315   6.854   4.821   6.330
 6806SOL     OW21316   6.637   0.985   3.121
 6806SOL    HW121317   6.648   0.969   3.023
 6806SOL    HW221318   6.697   1.060   3.150
 6807SOL     OW21319   3.384   3.199   1.314
 6807SOL    HW121320   3.425   3.114   1.347
 6807SOL    HW221321   3.393   3.203   1.214
 6808SOL     OW21322   6.849   1.646   6.277
 6808SOL    HW121323   6.775   1.602   6.226
 6808SOL    HW221324   6.812   1.725   6.326
 6809SOL     OW21325   0.358   3.111   1.014
 6809SOL    HW121326   0.326   3.205   1.026
 6809SOL    HW221327   0.363   3.066   1.103
 6810SOL     OW21328   2.466   0.931   2.239
 6810SOL    HW121329   2.521   0.986   2.177
 6810SOL    HW221330   2.395   0.987   2.281
 6811SOL     OW21331   5.836   4.276   1.620
 6811SOL    HW121332   5.789   4.355   1.658
 6811SOL    HW221333   5.920   4.305   1.575
 6812SOL     OW21334   3.355   3.937   4.393
 6812SOL    HW121335   3.340   3.883   4.311
 6812SOL    HW221336   3.413   3.886   4.457
 6813SOL     OW21337   5.479   3.632   3.262
 6813SOL    HW121338   5.509   3.726   3.280
 6813SOL    HW221339   5.383   3.632   3.236
 6814SOL     OW21340   4.268   2.328   6.217
 6814SOL    HW121341   4.205   2.264   6.174
 6814SOL    HW221342   4.361   2.292   6.211
 6815SOL     OW21343   2.841   5.693   6.964
 6815SOL    HW121344   2.777   5.628   7.005
 6815SOL    HW221345   2.832   5.781   7.011
 6816SOL     OW21346   6.473   0.770   5.993
 6816SOL    HW121347   6.535   0.713   6.045
 6816SOL    HW221348   6.467   0.736   5.899
 6817SOL     OW21349   2.392   2.684   3.069
 6817SOL    HW121350   2.385   2.784   3.071
 6817SOL    HW221351   2.331   2.645   3.138
 6818SOL     OW21352   2.011   6.126   0.859
 6818SOL    HW121353   2.059   6.204   0.819
 6818SOL    HW221354   1.914   6.146   0.864
 6819SOL     OW21355   4.024   1.300   3.196
 6819SOL    HW121356   3.982   1.373   3.251
 6819SOL    HW221357   4.123   1.303   3.208
 6820SOL     OW21358   2.139   6.268   1.251
 6820SOL    HW121359   2.183   6.179   1.242
 6820SOL    HW221360   2.176   6.316   1.331
 6821SOL     OW21361   4.197   2.230   5.170
 6821SOL    HW121362   4.194   2.309   5.109
 6821SOL    HW221363   4.134   2.244   5.246
 6822SOL     OW21364   5.718   2.192   5.754
 6822SOL    HW121365   5.626   2.231   5.762
 6822SOL    HW221366   5.758   2.220   5.667
 6823SOL     OW21367   5.704   3.977   5.778
 6823SOL    HW121368   5.647   3.972   5.859
 6823SOL    HW221369   5.801   3.976   5.805
 6824SOL     OW21370   1.397   1.766   0.226
 6824SOL    HW121371   1.473   1.831   0.227
 6824SOL    HW221372   1.341   1.781   0.145
 6825SOL     OW21373   6.162   0.052   0.375
 6825SOL    HW121374   6.206   0.135   0.410
 6825SOL    HW221375   6.075   0.039   0.422
 6826SOL     OW21376   1.940   3.779   3.699
 6826SOL    HW121377   1.922   3.719   3.622
 6826SOL    HW221378   1.855   3.793   3.751
 6827SOL     OW21379   4.855   5.126   6.194
 6827SOL    HW121380   4.869   5.210   6.245
 6827SOL    HW221381   4.772   5.080   6.225
 6828SOL     OW21382   3.188   1.412   1.243
 6828SOL    HW121383   3.201   1.510   1.254
 6828SOL    HW221384   3.090   1.390   1.251
 6829SOL     OW21385   5.099   5.907   5.300
 6829SOL    HW121386   5.132   5.848   5.374
 6829SOL    HW221387   5.171   5.971   5.275
 6830SOL     OW21388   5.410   0.800   2.993
 6830SOL    HW121389   5.484   0.735   3.006
 6830SOL    HW221390   5.330   0.753   2.955
 6831SOL     OW21391   1.269   0.796   6.621
 6831SOL    HW121392   1.223   0.885   6.624
 6831SOL    HW221393   1.201   0.726   6.598
 6832SOL     OW21394   2.503   4.073   0.752
 6832SOL    HW121395   2.455   4.160   0.737
 6832SOL    HW221396   2.548   4.075   0.842
 6833SOL     OW21397   3.493   4.538   6.521
 6833SOL    HW121398   3.545   4.491   6.593
 6833SOL    HW221399   3.501   4.486   6.435
 6834SOL     OW21400   5.760   0.500   0.514
 6834SOL    HW121401   5.858   0.505   0.537
 6834SOL    HW221402   5.707   0.494   0.598
 6835SOL     OW21403   4.163   0.759   4.871
 6835SOL    HW121404   4.256   0.792   4.882
 6835SOL    HW221405   4.163   0.677   4.813
 6836SOL     OW21406   3.272   3.962   0.290
 6836SOL    HW121407   3.200   3.909   0.333
 6836SOL    HW221408   3.232   4.024   0.222
 6837SOL     OW21409   1.029   2.078   2.931
 6837SOL    HW121410   1.116   2.079   2.980
 6837SOL    HW221411   1.005   2.172   2.905
 6838SOL     OW21412   3.435   6.222   6.690
 6838SOL    HW121413   3.528   6.197   6.664
 6838SOL    HW221414   3.370   6.172   6.633
 6839SOL     OW21415   5.560   1.479   5.840
 6839SOL    HW121416   5.485   1.542   5.859
 6839SOL    HW221417   5.575   1.474   5.741
 6840SOL     OW21418   3.395   0.316   4.093
 6840SOL    HW121419   3.419   0.317   3.996
 6840SOL    HW221420   3.409   0.407   4.132
 6841SOL     OW21421   3.770   4.433   0.412
 6841SOL    HW121422   3.781   4.511   0.474
 6841SOL    HW221423   3.699   4.454   0.345
 6842SOL     OW21424   2.596   3.370   0.819
 6842SOL    HW121425   2.607   3.378   0.720
 6842SOL    HW221426   2.512   3.417   0.847
 6843SOL     OW21427   6.143   6.716   2.025
 6843SOL    HW121428   6.182   6.646   1.965
 6843SOL    HW221429   6.070   6.764   1.977
 6844SOL     OW21430   4.825   0.569   3.513
 6844SOL    HW121431   4.850   0.476   3.485
 6844SOL    HW221432   4.890   0.634   3.474
 6845SOL     OW21433   6.337   5.098   3.017
 6845SOL    HW121434   6.263   5.107   2.950
 6845SOL    HW221435   6.351   5.186   3.062
 6846SOL     OW21436   4.141   2.703   0.253
 6846SOL    HW121437   4.100   2.773   0.311
 6846SOL    HW221438   4.235   2.731   0.229
 6847SOL     OW21439   0.033   4.733   3.354
 6847SOL    HW121440   0.040   4.763   3.259
 6847SOL    HW221441   7.022   4.808   3.411
 6848SOL     OW21442   4.031   7.014   3.597
 6848SOL    HW121443   3.986   6.941   3.546
 6848SOL    HW221444   4.079   6.975   3.676
 6849SOL     OW21445   3.882   5.100   5.278
 6849SOL    HW121446   3.863   5.083   5.375
 6849SOL    HW221447   3.980   5.115   5.265
 6850SOL     OW21448   5.807   3.937   2.270
 6850SOL    HW121449   5.817   3.975   2.362
 6850SOL    HW221450   5.888   3.961   2.216
 6851SOL     OW21451   1.044   2.513   3.321
 6851SOL    HW121452   0.951   2.482   3.301
 6851SOL    HW221453   1.056   2.608   3.291
 6852SOL     OW21454   2.696   5.165   0.691
 6852SOL    HW121455   2.674   5.137   0.598
 6852SOL    HW221456   2.689   5.085   0.752
 6853SOL     OW21457   6.733   3.936   0.186
 6853SOL    HW121458   6.637   3.909   0.178
 6853SOL    HW221459   6.758   3.939   0.283
 6854SOL     OW21460   4.984   1.924   6.334
 6854SOL    HW121461   5.007   2.019   6.353
 6854SOL    HW221462   4.965   1.913   6.236
 6855SOL     OW21463   3.457   5.646   3.324
 6855SOL    HW121464   3.419   5.720   3.269
 6855SOL    HW221465   3.384   5.581   3.347
 6856SOL     OW21466   5.035   3.833   5.322
 6856SOL    HW121467   5.009   3.800   5.413
 6856SOL    HW221468   4.965   3.805   5.255
 6857SOL     OW21469   2.949   2.429   0.072
 6857SOL    HW121470   2.851   2.422   0.093
 6857SOL    HW221471   2.992   2.494   0.135
 6858SOL     OW21472   3.890   3.555   3.656
 6858SOL    HW121473   3.843   3.642   3.663
 6858SOL    HW221474   3.846   3.488   3.716
 6859SOL     OW21475   0.826   0.785   0.767
 6859SOL    HW121476   0.884   0.865   0.748
 6859SOL    HW221477   0.752   0.812   0.828
 6860SOL     OW21478   6.736   5.340   1.024
 6860SOL    HW121479   6.811   5.354   0.959
 6860SOL    HW221480   6.770   5.352   1.117
 6861SOL     OW21481   4.551   4.904   0.405
 6861SOL    HW121482   4.588   4.969   0.471
 6861SOL    HW221483   4.506   4.829   0.453
 6862SOL     OW21484   1.779   4.573   5.804
 6862SOL    HW121485   1.710   4.625   5.754
 6862SOL    HW221486   1.830   4.515   5.739
 6863SOL     OW21487   5.230   6.848   5.969
 6863SOL    HW121488   5.317   6.833   6.017
 6863SOL    HW221489   5.198   6.941   5.988
 6864SOL     OW21490   3.097   5.746   3.949
 6864SOL    HW121491   3.132   5.759   4.042
 6864SOL    HW221492   3.164   5.693   3.895
 6865SOL     OW21493   1.272   6.106   3.189
 6865SOL    HW121494   1.346   6.101   3.122
 6865SOL    HW221495   1.299   6.058   3.273
 6866SOL     OW21496   6.173   5.140   2.810
 6866SOL    HW121497   6.245   5.200   2.776
 6866SOL    HW221498   6.145   5.077   2.738
 6867SOL     OW21499   2.379   4.192   1.461
 6867SOL    HW121500   2.442   4.190   1.539
 6867SOL    HW221501   2.296   4.242   1.486
 6868SOL     OW21502   1.043   5.478   6.050
 6868SOL    HW121503   1.126   5.444   6.006
 6868SOL    HW221504   1.045   5.457   6.148
 6869SOL     OW21505   5.854   1.388   5.762
 6869SOL    HW121506   5.834   1.486   5.762
 6869SOL    HW221507   5.836   1.350   5.672
 6870SOL     OW21508   0.487   4.772   2.065
 6870SOL    HW121509   0.412   4.780   1.999
 6870SOL    HW221510   0.517   4.863   2.092
 6871SOL     OW21511   6.027   4.551   3.341
 6871SOL    HW121512   5.971   4.620   3.387
 6871SOL    HW221513   5.993   4.537   3.248
 6872SOL     OW21514   0.019   2.944   0.888
 6872SOL    HW121515   7.003   3.024   0.842
 6872SOL    HW221516   0.118   2.942   0.874
 6873SOL     OW21517   6.953   3.698   5.617
 6873SOL    HW121518   6.947   3.797   5.626
 6873SOL    HW221519   7.021   3.675   5.548
 6874SOL     OW21520   0.517   6.051   2.216
 6874SOL    HW121521   0.472   6.127   2.263
 6874SOL    HW221522   0.490   6.049   2.120
 6875SOL     OW21523   2.465   2.647   3.406
 6875SOL    HW121524   2.541   2.624   3.345
 6875SOL    HW221525   2.421   2.731   3.376
 6876SOL     OW21526   3.418   6.644   3.666
 6876SOL    HW121527   3.502   6.629   3.615
 6876SOL    HW221528   3.417   6.586   3.748
 6877SOL     OW21529   2.399   3.916   1.317
 6877SOL    HW121530   2.488   3.891   1.279
 6877SOL    HW221531   2.409   3.995   1.377
 6878SOL     OW21532   3.154   1.120   5.154
 6878SOL    HW121533   3.058   1.146   5.160
 6878SOL    HW221534   3.174   1.087   5.062
 6879SOL     OW21535   0.632   2.187   0.547
 6879SOL    HW121536   0.569   2.234   0.486
 6879SOL    HW221537   0.726   2.207   0.521
 6880SOL     OW21538   1.391   4.487   4.806
 6880SOL    HW121539   1.395   4.550   4.728
 6880SOL    HW221540   1.425   4.532   4.888
 6881SOL     OW21541   1.550   3.904   1.003
 6881SOL    HW121542   1.512   3.995   0.989
 6881SOL    HW221543   1.650   3.911   1.012
 6882SOL     OW21544   3.054   0.520   6.954
 6882SOL    HW121545   3.017   0.594   7.011
 6882SOL    HW221546   2.979   0.470   6.911
 6883SOL     OW21547   4.470   1.120   0.598
 6883SOL    HW121548   4.452   1.035   0.549
 6883SOL    HW221549   4.465   1.103   0.697
 6884SOL     OW21550   2.605   4.575   4.326
 6884SOL    HW121551   2.530   4.634   4.357
 6884SOL    HW221552   2.567   4.495   4.278
 6885SOL     OW21553   3.940   5.334   3.629
 6885SOL    HW121554   3.997   5.378   3.559
 6885SOL    HW221555   3.877   5.271   3.585
 6886SOL     OW21556   6.673   0.828   4.434
 6886SOL    HW121557   6.687   0.824   4.336
 6886SOL    HW221558   6.749   0.878   4.477
 6887SOL     OW21559   5.247   5.697   6.438
 6887SOL    HW121560   5.337   5.697   6.483
 6887SOL    HW221561   5.212   5.603   6.435
 6888SOL     OW21562   5.415   6.217   0.137
 6888SOL    HW121563   5.473   6.198   0.217
 6888SOL    HW221564   5.466   6.195   0.054
 6889SOL     OW21565   1.891   2.388   5.163
 6889SOL    HW121566   1.828   2.450   5.209
 6889SOL    HW221567   1.962   2.358   5.227
 6890SOL     OW21568   4.413   6.366   1.447
 6890SOL    HW121569   4.376   6.316   1.525
 6890SOL    HW221570   4.363   6.452   1.435
 6891SOL     OW21571   2.111   4.511   3.302
 6891SOL    HW121572   2.106   4.428   3.246
 6891SOL    HW221573   2.207   4.531   3.325
 6892SOL     OW21574   3.088   2.034   3.793
 6892SOL    HW121575   3.177   2.075   3.815
 6892SOL    HW221576   3.099   1.973   3.714
 6893SOL     OW21577   4.099   4.135   0.176
 6893SOL    HW121578   4.186   4.143   0.128
 6893SOL    HW221579   4.099   4.051   0.231
 6894SOL     OW21580   6.383   4.746   0.939
 6894SOL    HW121581   6.432   4.824   0.899
 6894SOL    HW221582   6.360   4.681   0.867
 6895SOL     OW21583   2.872   5.232   0.043
 6895SOL    HW121584   2.808   5.214   0.118
 6895SOL    HW221585   2.953   5.175   0.053
 6896SOL     OW21586   2.192   0.108   3.892
 6896SOL    HW121587   2.215   0.036   3.827
 6896SOL    HW221588   2.266   0.175   3.895
 6897SOL     OW21589   4.518   4.083   6.068
 6897SOL    HW121590   4.491   4.029   5.988
 6897SOL    HW221591   4.565   4.166   6.037
 6898SOL     OW21592   3.562   1.511   1.574
 6898SOL    HW121593   3.507   1.555   1.503
 6898SOL    HW221594   3.624   1.579   1.615
 6899SOL     OW21595   5.576   6.362   1.423
 6899SOL    HW121596   5.527   6.401   1.501
 6899SOL    HW221597   5.526   6.282   1.390
 6900SOL     OW21598   6.487   6.576   5.811
 6900SOL    HW121599   6.499   6.661   5.759
 6900SOL    HW221600   6.484   6.499   5.748
 6901SOL     OW21601   7.012   6.099   5.983
 6901SOL    HW121602   6.933   6.057   6.026
 6901SOL    HW221603   0.022   6.174   6.041
 6902SOL     OW21604   5.528   6.085   6.920
 6902SOL    HW121605   5.493   5.994   6.940
 6902SOL    HW221606   5.623   6.079   6.891
 6903SOL     OW21607   3.013   5.853   4.491
 6903SOL    HW121608   3.051   5.889   4.576
 6903SOL    HW221609   3.050   5.762   4.474
 6904SOL     OW21610   5.711   0.633   4.684
 6904SOL    HW121611   5.744   0.562   4.622
 6904SOL    HW221612   5.759   0.719   4.664
 6905SOL     OW21613   5.514   6.623   6.245
 6905SOL    HW121614   5.448   6.550   6.228
 6905SOL    HW221615   5.600   6.603   6.199
 6906SOL     OW21616   4.779   1.192   3.542
 6906SOL    HW121617   4.730   1.275   3.514
 6906SOL    HW221618   4.871   1.194   3.503
 6907SOL     OW21619   5.332   3.015   1.437
 6907SOL    HW121620   5.369   3.106   1.456
 6907SOL    HW221621   5.299   2.975   1.523
 6908SOL     OW21622   0.542   5.530   6.165
 6908SOL    HW121623   0.529   5.623   6.198
 6908SOL    HW221624   0.581   5.532   6.073
 6909SOL     OW21625   5.776   4.584   1.399
 6909SOL    HW121626   5.778   4.605   1.497
 6909SOL    HW221627   5.688   4.612   1.361
 6910SOL     OW21628   6.672   2.009   3.495
 6910SOL    HW121629   6.576   2.028   3.475
 6910SOL    HW221630   6.705   2.073   3.566
 6911SOL     OW21631   4.154   5.911   3.917
 6911SOL    HW121632   4.086   5.944   3.982
 6911SOL    HW221633   4.129   5.939   3.824
 6912SOL     OW21634   3.693   4.577   0.003
 6912SOL    HW121635   3.702   4.635   6.944
 6912SOL    HW221636   3.754   4.499   7.018
 6913SOL     OW21637   4.796   5.552   4.506
 6913SOL    HW121638   4.774   5.648   4.522
 6913SOL    HW221639   4.894   5.542   4.493
 6914SOL     OW21640   6.078   3.689   5.199
 6914SOL    HW121641   6.130   3.641   5.128
 6914SOL    HW221642   5.996   3.637   5.222
 6915SOL     OW21643   5.969   3.140   1.705
 6915SOL    HW121644   6.055   3.144   1.654
 6915SOL    HW221645   5.959   3.223   1.760
 6916SOL     OW21646   6.766   2.634   6.984
 6916SOL    HW121647   6.820   2.695   0.020
 6916SOL    HW221648   6.804   2.542   6.988
 6917SOL     OW21649   2.643   5.413   1.184
 6917SOL    HW121650   2.626   5.458   1.097
 6917SOL    HW221651   2.571   5.438   1.249
 6918SOL     OW21652   0.185   2.941   4.002
 6918SOL    HW121653   0.098   2.974   4.039
 6918SOL    HW221654   0.260   3.000   4.033
 6919SOL     OW21655   0.218   6.218   2.447
 6919SOL    HW121656   0.123   6.223   2.479
 6919SOL    HW221657   0.254   6.127   2.466
 6920SOL     OW21658   4.586   5.594   5.043
 6920SOL    HW121659   4.588   5.569   4.947
 6920SOL    HW221660   4.549   5.687   5.052
 6921SOL     OW21661   5.390   5.462   3.688
 6921SOL    HW121662   5.309   5.472   3.630
 6921SOL    HW221663   5.389   5.534   3.758
 6922SOL     OW21664   2.178   5.675   5.538
 6922SOL    HW121665   2.233   5.616   5.478
 6922SOL    HW221666   2.102   5.622   5.576
 6923SOL     OW21667   4.591   5.675   3.252
 6923SOL    HW121668   4.548   5.679   3.161
 6923SOL    HW221669   4.543   5.737   3.314
 6924SOL     OW21670   2.883   4.174   6.658
 6924SOL    HW121671   2.793   4.198   6.621
 6924SOL    HW221672   2.872   4.130   6.747
 6925SOL     OW21673   4.463   6.260   4.646
 6925SOL    HW121674   4.405   6.256   4.727
 6925SOL    HW221675   4.454   6.176   4.594
 6926SOL     OW21676   3.484   2.528   1.041
 6926SOL    HW121677   3.487   2.563   1.135
 6926SOL    HW221678   3.399   2.556   0.998
 6927SOL     OW21679   4.800   2.962   6.576
 6927SOL    HW121680   4.742   2.913   6.510
 6927SOL    HW221681   4.837   3.044   6.533
 6928SOL     OW21682   6.264   5.960   0.707
 6928SOL    HW121683   6.231   6.019   0.782
 6928SOL    HW221684   6.268   6.014   0.623
 6929SOL     OW21685   5.886   5.481   0.806
 6929SOL    HW121686   5.919   5.468   0.712
 6929SOL    HW221687   5.798   5.436   0.817
 6930SOL     OW21688   0.390   6.685   2.459
 6930SOL    HW121689   0.480   6.728   2.454
 6930SOL    HW221690   0.322   6.753   2.487
 6931SOL     OW21691   2.263   0.714   2.301
 6931SOL    HW121692   2.288   0.680   2.392
 6931SOL    HW221693   2.344   0.753   2.256
 6932SOL     OW21694   4.414   6.688   0.563
 6932SOL    HW121695   4.461   6.753   0.622
 6932SOL    HW221696   4.385   6.609   0.617
 6933SOL     OW21697   3.074   6.270   4.748
 6933SOL    HW121698   3.109   6.359   4.720
 6933SOL    HW221699   3.097   6.253   4.844
 6934SOL     OW21700   5.028   3.363   5.827
 6934SOL    HW121701   4.946   3.315   5.796
 6934SOL    HW221702   5.001   3.444   5.878
 6935SOL     OW21703   4.407   4.824   3.306
 6935SOL    HW121704   4.458   4.904   3.275
 6935SOL    HW221705   4.341   4.797   3.235
 6936SOL     OW21706   6.316   1.945   3.617
 6936SOL    HW121707   6.329   2.031   3.667
 6936SOL    HW221708   6.225   1.945   3.575
 6937SOL     OW21709   6.927   6.315   7.014
 6937SOL    HW121710   7.001   6.299   6.949
 6937SOL    HW221711   6.839   6.307   6.967
 6938SOL     OW21712   5.178   3.510   5.341
 6938SOL    HW121713   5.111   3.521   5.414
 6938SOL    HW221714   5.138   3.537   5.254
 6939SOL     OW21715   0.966   4.529   2.014
 6939SOL    HW121716   0.875   4.562   1.988
 6939SOL    HW221717   1.011   4.597   2.071
 6940SOL     OW21718   4.019   0.921   6.647
 6940SOL    HW121719   4.028   0.830   6.607
 6940SOL    HW221720   4.089   0.981   6.610
 6941SOL     OW21721   3.803   3.935   1.901
 6941SOL    HW121722   3.901   3.948   1.919
 6941SOL    HW221723   3.754   3.921   1.987
 6942SOL     OW21724   5.413   0.419   1.471
 6942SOL    HW121725   5.437   0.476   1.549
 6942SOL    HW221726   5.328   0.369   1.490
 6943SOL     OW21727   4.531   6.302   0.186
 6943SOL    HW121728   4.537   6.384   0.243
 6943SOL    HW221729   4.453   6.247   0.214
 6944SOL     OW21730   0.548   4.214   6.554
 6944SOL    HW121731   0.509   4.122   6.549
 6944SOL    HW221732   0.536   4.251   6.646
 6945SOL     OW21733   6.231   1.132   6.497
 6945SOL    HW121734   6.194   1.077   6.421
 6945SOL    HW221735   6.159   1.191   6.533
 6946SOL     OW21736   5.811   6.225   1.359
 6946SOL    HW121737   5.768   6.177   1.283
 6946SOL    HW221738   5.740   6.256   1.423
 6947SOL     OW21739   3.491   6.554   6.460
 6947SOL    HW121740   3.528   6.479   6.405
 6947SOL    HW221741   3.450   6.622   6.401
 6948SOL     OW21742   6.948   0.291   0.799
 6948SOL    HW121743   6.904   0.334   0.720
 6948SOL    HW221744   6.902   0.320   0.883
 6949SOL     OW21745   4.689   0.141   2.494
 6949SOL    HW121746   4.660   0.226   2.538
 6949SOL    HW221747   4.627   0.067   2.521
 6950SOL     OW21748   2.150   1.532   4.618
 6950SOL    HW121749   2.053   1.504   4.616
 6950SOL    HW221750   2.208   1.450   4.615
 6951SOL     OW21751   6.724   5.669   5.794
 6951SOL    HW121752   6.720   5.691   5.891
 6951SOL    HW221753   6.810   5.702   5.756
 6952SOL     OW21754   0.935   6.365   3.463
 6952SOL    HW121755   0.923   6.461   3.436
 6952SOL    HW221756   1.005   6.323   3.406
 6953SOL     OW21757   4.689   6.292   0.469
 6953SOL    HW121758   4.752   6.271   0.544
 6953SOL    HW221759   4.739   6.337   0.395
 6954SOL     OW21760   6.916   3.526   3.354
 6954SOL    HW121761   6.847   3.592   3.324
 6954SOL    HW221762   6.881   3.433   3.340
 6955SOL     OW21763   5.855   0.085   2.603
 6955SOL    HW121764   5.885   0.113   2.694
 6955SOL    HW221765   5.861   7.009   2.595
 6956SOL     OW21766   5.658   5.384   3.655
 6956SOL    HW121767   5.723   5.457   3.634
 6956SOL    HW221768   5.572   5.424   3.686
 6957SOL     OW21769   6.519   4.976   0.876
 6957SOL    HW121770   6.615   4.976   0.904
 6957SOL    HW221771   6.477   5.064   0.901
 6958SOL     OW21772   3.240   3.025   4.193
 6958SOL    HW121773   3.312   2.964   4.161
 6958SOL    HW221774   3.280   3.109   4.229
 6959SOL     OW21775   1.998   1.849   3.899
 6959SOL    HW121776   1.918   1.803   3.938
 6959SOL    HW221777   2.051   1.784   3.845
 6960SOL     OW21778   2.564   4.554   1.517
 6960SOL    HW121779   2.467   4.579   1.513
 6960SOL    HW221780   2.607   4.597   1.596
 6961SOL     OW21781   5.680   1.939   3.672
 6961SOL    HW121782   5.582   1.918   3.673
 6961SOL    HW221783   5.713   1.942   3.767
 6962SOL     OW21784   4.839   5.973   2.005
 6962SOL    HW121785   4.748   5.957   2.044
 6962SOL    HW221786   4.894   6.025   2.070
 6963SOL     OW21787   5.736   6.064   1.134
 6963SOL    HW121788   5.647   6.055   1.089
 6963SOL    HW221789   5.808   6.071   1.065
 6964SOL     OW21790   3.796   0.539   5.188
 6964SOL    HW121791   3.728   0.589   5.135
 6964SOL    HW221792   3.822   0.593   5.268
 6965SOL     OW21793   0.936   2.231   1.027
 6965SOL    HW121794   1.021   2.283   1.039
 6965SOL    HW221795   0.876   2.246   1.106
 6966SOL     OW21796   0.161   2.138   3.167
 6966SOL    HW121797   0.157   2.068   3.095
 6966SOL    HW221798   0.184   2.094   3.254
 6967SOL     OW21799   2.657   0.209   5.334
 6967SOL    HW121800   2.656   0.258   5.247
 6967SOL    HW221801   2.620   0.117   5.320
 6968SOL     OW21802   4.530   6.654   2.530
 6968SOL    HW121803   4.622   6.623   2.556
 6968SOL    HW221804   4.516   6.747   2.564
 6969SOL     OW21805   3.199   2.547   1.010
 6969SOL    HW121806   3.162   2.554   1.102
 6969SOL    HW221807   3.203   2.451   0.983
 6970SOL     OW21808   3.941   3.985   6.221
 6970SOL    HW121809   3.861   3.991   6.161
 6970SOL    HW221810   3.948   4.068   6.276
 6971SOL     OW21811   6.733   4.175   2.276
 6971SOL    HW121812   6.682   4.203   2.195
 6971SOL    HW221813   6.824   4.215   2.274
 6972SOL     OW21814   4.786   4.202   3.380
 6972SOL    HW121815   4.844   4.136   3.427
 6972SOL    HW221816   4.741   4.261   3.447
 6973SOL     OW21817   0.636   3.070   4.493
 6973SOL    HW121818   0.696   3.124   4.434
 6973SOL    HW221819   0.559   3.127   4.523
 6974SOL     OW21820   3.038   3.962   2.988
 6974SOL    HW121821   3.083   3.887   3.035
 6974SOL    HW221822   3.106   4.024   2.950
 6975SOL     OW21823   2.338   6.450   6.012
 6975SOL    HW121824   2.409   6.381   6.027
 6975SOL    HW221825   2.257   6.428   6.066
 6976SOL     OW21826   5.535   5.274   4.765
 6976SOL    HW121827   5.463   5.320   4.819
 6976SOL    HW221828   5.493   5.221   4.692
 6977SOL     OW21829   4.006   3.007   1.761
 6977SOL    HW121830   4.038   2.916   1.736
 6977SOL    HW221831   3.986   3.010   1.859
 6978SOL     OW21832   5.289   1.437   1.887
 6978SOL    HW121833   5.268   1.483   1.972
 6978SOL    HW221834   5.306   1.505   1.815
 6979SOL     OW21835   0.420   4.173   1.232
 6979SOL    HW121836   0.454   4.088   1.194
 6979SOL    HW221837   0.323   4.163   1.254
 6980SOL     OW21838   1.765   0.861   4.183
 6980SOL    HW121839   1.840   0.923   4.163
 6980SOL    HW221840   1.763   0.840   4.281
 6981SOL     OW21841   3.526   2.225   5.453
 6981SOL    HW121842   3.557   2.171   5.531
 6981SOL    HW221843   3.473   2.303   5.485
 6982SOL     OW21844   1.355   0.288   4.864
 6982SOL    HW121845   1.298   0.304   4.944
 6982SOL    HW221846   1.436   0.236   4.890
 6983SOL     OW21847   3.730   2.029   3.760
 6983SOL    HW121848   3.811   2.087   3.760
 6983SOL    HW221849   3.756   1.933   3.764
 6984SOL     OW21850   2.430   1.926   3.278
 6984SOL    HW121851   2.506   1.915   3.213
 6984SOL    HW221852   2.346   1.893   3.236
 6985SOL     OW21853   5.549   5.026   1.723
 6985SOL    HW121854   5.598   5.023   1.636
 6985SOL    HW221855   5.600   5.084   1.788
 6986SOL     OW21856   2.043   0.121   5.685
 6986SOL    HW121857   2.127   0.122   5.630
 6986SOL    HW221858   2.021   0.026   5.711
 6987SOL     OW21859   5.732   1.232   5.969
 6987SOL    HW121860   5.677   1.172   5.910
 6987SOL    HW221861   5.732   1.324   5.930
 6988SOL     OW21862   0.228   0.802   5.532
 6988SOL    HW121863   0.257   0.728   5.594
 6988SOL    HW221864   0.209   0.764   5.442
 6989SOL     OW21865   0.991   3.800   3.309
 6989SOL    HW121866   0.972   3.770   3.215
 6989SOL    HW221867   0.906   3.832   3.352
 6990SOL     OW21868   4.696   2.419   1.077
 6990SOL    HW121869   4.730   2.375   0.995
 6990SOL    HW221870   4.741   2.507   1.089
 6991SOL     OW21871   3.984   4.861   3.053
 6991SOL    HW121872   3.890   4.866   3.088
 6991SOL    HW221873   3.982   4.835   2.956
 6992SOL     OW21874   4.958   6.223   6.413
 6992SOL    HW121875   4.922   6.273   6.334
 6992SOL    HW221876   5.026   6.279   6.460
 6993SOL     OW21877   5.343   0.987   2.823
 6993SOL    HW121878   5.259   0.948   2.786
 6993SOL    HW221879   5.371   0.936   2.904
 6994SOL     OW21880   0.629   2.018   4.393
 6994SOL    HW121881   0.649   2.094   4.332
 6994SOL    HW221882   0.536   1.985   4.376
 6995SOL     OW21883   6.618   4.413   6.170
 6995SOL    HW121884   6.644   4.360   6.090
 6995SOL    HW221885   6.700   4.456   6.209
 6996SOL     OW21886   1.135   6.918   6.759
 6996SOL    HW121887   1.112   7.014   6.776
 6996SOL    HW221888   1.186   6.910   6.674
 6997SOL     OW21889   0.147   6.048   4.732
 6997SOL    HW121890   0.237   6.046   4.775
 6997SOL    HW221891   0.092   5.972   4.767
 6998SOL     OW21892   2.199   0.640   1.828
 6998SOL    HW121893   2.113   0.656   1.779
 6998SOL    HW221894   2.235   0.727   1.862
 6999SOL     OW21895   2.696   2.257   6.413
 6999SOL    HW121896   2.618   2.250   6.476
 6999SOL    HW221897   2.666   2.232   6.321
 7000SOL     OW21898   5.178   6.615   1.136
 7000SOL    HW121899   5.163   6.608   1.234
 7000SOL    HW221900   5.168   6.711   1.108
 7001SOL     OW21901   1.718   3.290   5.819
 7001SOL    HW121902   1.774   3.261   5.896
 7001SOL    HW221903   1.754   3.375   5.782
 7002SOL     OW21904   2.103   5.393   4.382
 7002SOL    HW121905   2.148   5.412   4.470
 7002SOL    HW221906   2.008   5.425   4.386
 7003SOL     OW21907   4.129   5.337   0.415
 7003SOL    HW121908   4.218   5.309   0.451
 7003SOL    HW221909   4.130   5.331   0.315
 7004SOL     OW21910   1.120   4.797   2.515
 7004SOL    HW121911   1.206   4.773   2.470
 7004SOL    HW221912   1.074   4.713   2.545
 7005SOL     OW21913   1.537   0.317   0.745
 7005SOL    HW121914   1.502   0.357   0.830
 7005SOL    HW221915   1.475   0.337   0.670
 7006SOL     OW21916   5.086   5.030   3.907
 7006SOL    HW121917   5.142   5.108   3.879
 7006SOL    HW221918   5.007   5.063   3.960
 7007SOL     OW21919   4.556   0.573   3.526
 7007SOL    HW121920   4.532   0.492   3.579
 7007SOL    HW221921   4.655   0.588   3.532
 7008SOL     OW21922   0.636   3.682   4.891
 7008SOL    HW121923   0.735   3.685   4.907
 7008SOL    HW221924   0.602   3.590   4.910
 7009SOL     OW21925   5.672   6.231   1.895
 7009SOL    HW121926   5.671   6.236   1.995
 7009SOL    HW221927   5.605   6.163   1.865
 7010SOL     OW21928   5.589   4.140   3.964
 7010SOL    HW121929   5.535   4.203   4.021
 7010SOL    HW221930   5.667   4.190   3.925
 7011SOL     OW21931   3.116   6.626   6.539
 7011SOL    HW121932   3.203   6.604   6.584
 7011SOL    HW221933   3.091   6.721   6.560
 7012SOL     OW21934   0.458   2.099   1.667
 7012SOL    HW121935   0.533   2.127   1.726
 7012SOL    HW221936   0.474   2.132   1.574
 7013SOL     OW21937   0.346   0.424   0.125
 7013SOL    HW121938   0.399   0.410   0.041
 7013SOL    HW221939   0.402   0.474   0.191
 7014SOL     OW21940   4.303   3.553   0.892
 7014SOL    HW121941   4.267   3.489   0.824
 7014SOL    HW221942   4.248   3.548   0.975
 7015SOL     OW21943   6.125   4.860   2.419
 7015SOL    HW121944   6.132   4.764   2.447
 7015SOL    HW221945   6.199   4.912   2.461
 7016SOL     OW21946   3.336   4.938   1.637
 7016SOL    HW121947   3.339   4.947   1.538
 7016SOL    HW221948   3.428   4.931   1.673
 7017SOL     OW21949   2.405   5.029   2.474
 7017SOL    HW121950   2.315   5.027   2.430
 7017SOL    HW221951   2.415   4.947   2.531
 7018SOL     OW21952   5.172   3.659   4.761
 7018SOL    HW121953   5.249   3.718   4.784
 7018SOL    HW221954   5.142   3.609   4.842
 7019SOL     OW21955   3.700   3.960   0.165
 7019SOL    HW121956   3.689   3.861   0.158
 7019SOL    HW221957   3.613   4.005   0.146
 7020SOL     OW21958   6.602   5.352   6.451
 7020SOL    HW121959   6.599   5.413   6.530
 7020SOL    HW221960   6.624   5.259   6.482
 7021SOL     OW21961   1.109   1.997   5.615
 7021SOL    HW121962   1.124   1.899   5.607
 7021SOL    HW221963   1.152   2.044   5.538
 7022SOL     OW21964   4.886   6.806   6.021
 7022SOL    HW121965   4.849   6.767   5.937
 7022SOL    HW221966   4.954   6.876   5.998
 7023SOL     OW21967   6.932   2.305   4.200
 7023SOL    HW121968   6.928   2.206   4.194
 7023SOL    HW221969   6.841   2.343   4.179
 7024SOL     OW21970   2.622   3.788   5.294
 7024SOL    HW121971   2.551   3.822   5.233
 7024SOL    HW221972   2.706   3.774   5.243
 7025SOL     OW21973   2.768   0.894   0.581
 7025SOL    HW121974   2.779   0.970   0.516
 7025SOL    HW221975   2.696   0.833   0.548
 7026SOL     OW21976   3.003   1.677   2.274
 7026SOL    HW121977   3.045   1.658   2.363
 7026SOL    HW221978   2.964   1.593   2.237
 7027SOL     OW21979   2.836   5.468   4.347
 7027SOL    HW121980   2.796   5.383   4.381
 7027SOL    HW221981   2.781   5.546   4.378
 7028SOL     OW21982   3.027   2.165   4.357
 7028SOL    HW121983   3.120   2.154   4.392
 7028SOL    HW221984   2.971   2.212   4.425
 7029SOL     OW21985   5.096   5.115   5.175
 7029SOL    HW121986   5.139   5.102   5.264
 7029SOL    HW221987   5.092   5.213   5.155
 7030SOL     OW21988   1.172   0.761   5.039
 7030SOL    HW121989   1.145   0.686   4.978
 7030SOL    HW221990   1.140   0.848   5.000
 7031SOL     OW21991   3.345   5.613   5.581
 7031SOL    HW121992   3.322   5.584   5.487
 7031SOL    HW221993   3.440   5.642   5.584
 7032SOL     OW21994   4.021   0.865   3.641
 7032SOL    HW121995   3.965   0.942   3.611
 7032SOL    HW221996   4.013   0.853   3.740
 7033SOL     OW21997   1.737   2.591   3.763
 7033SOL    HW121998   1.796   2.637   3.697
 7033SOL    HW221999   1.726   2.648   3.844
 7034SOL     OW22000   6.627   0.518   3.916
 7034SOL    HW122001   6.531   0.490   3.913
 7034SOL    HW222002   6.649   0.567   3.832
 7035SOL     OW22003   1.506   6.566   0.854
 7035SOL    HW122004   1.544   6.498   0.791
 7035SOL    HW222005   1.532   6.658   0.824
 7036SOL     OW22006   0.364   0.609   3.112
 7036SOL    HW122007   0.428   0.603   3.036
 7036SOL    HW222008   0.409   0.650   3.191
 7037SOL     OW22009   1.611   1.488   6.901
 7037SOL    HW122010   1.700   1.446   6.915
 7037SOL    HW222011   1.615   1.584   6.925
 7038SOL     OW22012   2.368   3.177   5.390
 7038SOL    HW122013   2.323   3.264   5.371
 7038SOL    HW222014   2.410   3.142   5.306
 7039SOL     OW22015   2.179   5.458   2.012
 7039SOL    HW122016   2.112   5.501   2.072
 7039SOL    HW222017   2.220   5.380   2.059
 7040SOL     OW22018   6.105   1.508   5.971
 7040SOL    HW122019   6.086   1.526   5.875
 7040SOL    HW222020   6.067   1.582   6.027
 7041SOL     OW22021   6.484   1.505   1.976
 7041SOL    HW122022   6.573   1.496   2.021
 7041SOL    HW222023   6.424   1.563   2.032
 7042SOL     OW22024   4.513   5.075   4.924
 7042SOL    HW122025   4.575   5.154   4.923
 7042SOL    HW222026   4.468   5.069   5.013
 7043SOL     OW22027   2.377   4.285   2.789
 7043SOL    HW122028   2.439   4.333   2.727
 7043SOL    HW222029   2.333   4.210   2.740
 7044SOL     OW22030   5.318   4.867   3.921
 7044SOL    HW122031   5.235   4.918   3.902
 7044SOL    HW222032   5.323   4.846   4.019
 7045SOL     OW22033   5.170   5.518   3.513
 7045SOL    HW122034   5.151   5.495   3.418
 7045SOL    HW222035   5.109   5.467   3.573
 7046SOL     OW22036   3.177   0.937   3.299
 7046SOL    HW122037   3.199   0.845   3.330
 7046SOL    HW222038   3.096   0.969   3.349
 7047SOL     OW22039   6.080   1.449   2.333
 7047SOL    HW122040   6.093   1.395   2.249
 7047SOL    HW222041   6.169   1.476   2.368
 7048SOL     OW22042   5.090   6.815   3.297
 7048SOL    HW122043   5.186   6.798   3.274
 7048SOL    HW222044   5.031   6.768   3.230
 7049SOL     OW22045   3.277   1.407   0.461
 7049SOL    HW122046   3.364   1.394   0.414
 7049SOL    HW222047   3.282   1.489   0.518
 7050SOL     OW22048   4.420   3.581   1.471
 7050SOL    HW122049   4.464   3.569   1.559
 7050SOL    HW222050   4.481   3.632   1.410
 7051SOL     OW22051   6.139   6.768   1.103
 7051SOL    HW122052   6.215   6.833   1.114
 7051SOL    HW222053   6.053   6.814   1.126
 7052SOL     OW22054   5.757   2.195   3.237
 7052SOL    HW122055   5.744   2.097   3.224
 7052SOL    HW222056   5.679   2.244   3.199
 7053SOL     OW22057   0.978   3.376   5.431
 7053SOL    HW122058   0.882   3.391   5.455
 7053SOL    HW222059   1.035   3.438   5.484
 7054SOL     OW22060   0.238   6.566   0.271
 7054SOL    HW122061   0.245   6.659   0.236
 7054SOL    HW222062   0.147   6.551   0.310
 7055SOL     OW22063   2.847   6.940   6.083
 7055SOL    HW122064   2.831   0.000   6.135
 7055SOL    HW222065   2.762   6.909   6.041
 7056SOL     OW22066   7.019   4.317   2.242
 7056SOL    HW122067   0.082   4.283   2.280
 7056SOL    HW222068   6.992   4.401   2.289
 7057SOL     OW22069   2.486   5.290   4.477
 7057SOL    HW122070   2.417   5.219   4.487
 7057SOL    HW222071   2.466   5.365   4.540
 7058SOL     OW22072   5.526   4.451   5.104
 7058SOL    HW122073   5.576   4.494   5.179
 7058SOL    HW222074   5.569   4.363   5.082
 7059SOL     OW22075   0.074   1.701   3.858
 7059SOL    HW122076   0.096   1.610   3.895
 7059SOL    HW222077   0.157   1.743   3.822
 7060SOL     OW22078   3.679   0.170   1.257
 7060SOL    HW122079   3.598   0.111   1.266
 7060SOL    HW222080   3.760   0.113   1.241
 7061SOL     OW22081   0.316   3.441   3.794
 7061SOL    HW122082   0.230   3.492   3.797
 7061SOL    HW222083   0.392   3.502   3.815
 7062SOL     OW22084   4.303   1.211   5.448
 7062SOL    HW122085   4.286   1.221   5.546
 7062SOL    HW222086   4.322   1.115   5.427
 7063SOL     OW22087   1.487   0.059   2.123
 7063SOL    HW122088   1.539   0.144   2.110
 7063SOL    HW222089   1.513   7.016   2.052
 7064SOL     OW22090   3.485   2.028   0.232
 7064SOL    HW122091   3.585   2.020   0.235
 7064SOL    HW222092   3.444   1.965   0.298
 7065SOL     OW22093   5.132   3.961   5.689
 7065SOL    HW122094   5.134   3.864   5.713
 7065SOL    HW222095   5.216   4.005   5.722
 7066SOL     OW22096   4.711   0.202   6.721
 7066SOL    HW122097   4.773   0.260   6.774
 7066SOL    HW222098   4.619   0.241   6.722
 7067SOL     OW22099   1.550   3.111   5.699
 7067SOL    HW122100   1.536   3.103   5.601
 7067SOL    HW222101   1.607   3.191   5.719
 7068SOL     OW22102   6.535   4.724   4.901
 7068SOL    HW122103   6.563   4.804   4.955
 7068SOL    HW222104   6.585   4.722   4.815
 7069SOL     OW22105   5.358   2.231   4.339
 7069SOL    HW122106   5.343   2.225   4.437
 7069SOL    HW222107   5.357   2.139   4.300
 7070SOL     OW22108   0.636   0.313   5.029
 7070SOL    HW122109   0.648   0.225   5.076
 7070SOL    HW222110   0.540   0.342   5.038
 7071SOL     OW22111   3.129   5.978   5.159
 7071SOL    HW122112   3.143   5.985   5.257
 7071SOL    HW222113   3.105   6.067   5.122
 7072SOL     OW22114   1.681   6.481   0.241
 7072SOL    HW122115   1.722   6.410   0.184
 7072SOL    HW222116   1.631   6.546   0.184
 7073SOL     OW22117   5.502   0.054   4.172
 7073SOL    HW122118   5.582   0.070   4.230
 7073SOL    HW222119   5.453   6.997   4.206
 7074SOL     OW22120   5.801   2.611   1.835
 7074SOL    HW122121   5.857   2.571   1.908
 7074SOL    HW222122   5.725   2.550   1.814
 7075SOL     OW22123   1.925   4.143   5.238
 7075SOL    HW122124   1.962   4.082   5.168
 7075SOL    HW222125   1.885   4.088   5.311
 7076SOL     OW22126   5.949   2.352   6.374
 7076SOL    HW122127   6.021   2.282   6.380
 7076SOL    HW222128   5.913   2.354   6.280
 7077SOL     OW22129   2.569   4.572   3.901
 7077SOL    HW122130   2.598   4.485   3.940
 7077SOL    HW222131   2.645   4.611   3.848
 7078SOL     OW22132   6.507   6.655   1.646
 7078SOL    HW122133   6.463   6.640   1.734
 7078SOL    HW222134   6.599   6.691   1.661
 7079SOL     OW22135   0.001   5.709   4.501
 7079SOL    HW122136   0.097   5.734   4.490
 7079SOL    HW222137   6.968   5.792   4.502
 7080SOL     OW22138   3.438   1.110   4.892
 7080SOL    HW122139   3.484   1.043   4.834
 7080SOL    HW222140   3.507   1.167   4.938
 7081SOL     OW22141   2.226   6.198   6.839
 7081SOL    HW122142   2.187   6.233   6.924
 7081SOL    HW222143   2.204   6.260   6.764
 7082SOL     OW22144   6.664   4.559   6.933
 7082SOL    HW122145   6.592   4.627   6.916
 7082SOL    HW222146   6.672   4.498   6.854
 7083SOL     OW22147   1.846   6.948   1.179
 7083SOL    HW122148   1.859   6.849   1.177
 7083SOL    HW222149   1.882   6.985   1.264
 7084SOL     OW22150   0.265   5.093   5.107
 7084SOL    HW122151   0.248   5.081   5.009
 7084SOL    HW222152   0.181   5.126   5.151
 7085SOL     OW22153   0.889   1.206   2.182
 7085SOL    HW122154   0.878   1.294   2.228
 7085SOL    HW222155   0.967   1.158   2.220
 7086SOL     OW22156   5.917   6.982   5.925
 7086SOL    HW122157   5.919   6.882   5.929
 7086SOL    HW222158   5.848   7.016   5.988
 7087SOL     OW22159   6.154   3.955   4.438
 7087SOL    HW122160   6.224   3.903   4.487
 7087SOL    HW222161   6.114   4.023   4.499
 7088SOL     OW22162   5.110   2.786   3.926
 7088SOL    HW122163   5.012   2.805   3.930
 7088SOL    HW222164   5.133   2.750   3.836
 7089SOL     OW22165   2.574   2.321   4.577
 7089SOL    HW122166   2.508   2.275   4.517
 7089SOL    HW222167   2.666   2.306   4.542
 7090SOL     OW22168   1.788   0.310   0.167
 7090SOL    HW122169   1.704   0.264   0.194
 7090SOL    HW222170   1.867   0.256   0.198
 7091SOL     OW22171   0.236   2.243   0.701
 7091SOL    HW122172   0.226   2.341   0.719
 7091SOL    HW222173   0.330   2.215   0.718
 7092SOL     OW22174   3.840   3.081   6.052
 7092SOL    HW122175   3.796   3.009   6.105
 7092SOL    HW222176   3.874   3.152   6.113
 7093SOL     OW22177   3.195   4.089   2.460
 7093SOL    HW122178   3.216   4.017   2.394
 7093SOL    HW222179   3.145   4.163   2.414
 7094SOL     OW22180   0.333   5.744   5.484
 7094SOL    HW122181   0.353   5.838   5.510
 7094SOL    HW222182   0.242   5.739   5.443
 7095SOL     OW22183   3.671   4.535   5.523
 7095SOL    HW122184   3.737   4.479   5.474
 7095SOL    HW222185   3.609   4.579   5.458
 7096SOL     OW22186   7.022   1.426   3.097
 7096SOL    HW122187   6.997   1.522   3.102
 7096SOL    HW222188   7.009   1.393   3.003
 7097SOL     OW22189   4.677   1.668   1.388
 7097SOL    HW122190   4.703   1.586   1.337
 7097SOL    HW222191   4.712   1.661   1.481
 7098SOL     OW22192   2.085   5.410   5.897
 7098SOL    HW122193   2.058   5.431   5.803
 7098SOL    HW222194   2.168   5.353   5.895
 7099SOL     OW22195   3.613   1.258   5.263
 7099SOL    HW122196   3.524   1.241   5.221
 7099SOL    HW222197   3.673   1.304   5.197
 7100SOL     OW22198   6.852   4.089   7.017
 7100SOL    HW122199   6.826   4.054   6.927
 7100SOL    HW222200   6.797   4.045   0.065
 7101SOL     OW22201   2.078   1.859   5.500
 7101SOL    HW122202   2.117   1.951   5.512
 7101SOL    HW222203   2.091   1.829   5.406
 7102SOL     OW22204   4.911   6.985   0.998
 7102SOL    HW122205   4.990   6.943   1.042
 7102SOL    HW222206   4.888   0.047   1.045
 7103SOL     OW22207   5.135   5.060   2.511
 7103SOL    HW122208   5.167   5.071   2.417
 7103SOL    HW222209   5.037   5.082   2.516
 7104SOL     OW22210   6.858   3.773   3.576
 7104SOL    HW122211   6.953   3.749   3.557
 7104SOL    HW222212   6.851   3.872   3.588
 7105SOL     OW22213   3.158   3.549   5.133
 7105SOL    HW122214   3.206   3.511   5.054
 7105SOL    HW222215   3.115   3.635   5.109
 7106SOL     OW22216   3.440   3.502   2.173
 7106SOL    HW122217   3.402   3.595   2.172
 7106SOL    HW222218   3.511   3.496   2.243
 7107SOL     OW22219   4.673   1.071   0.411
 7107SOL    HW122220   4.651   1.044   0.505
 7107SOL    HW222221   4.655   1.169   0.400
 7108SOL     OW22222   2.822   6.431   2.791
 7108SOL    HW122223   2.783   6.381   2.713
 7108SOL    HW222224   2.874   6.368   2.848
 7109SOL     OW22225   2.512   0.139   6.008
 7109SOL    HW122226   2.566   0.086   6.073
 7109SOL    HW222227   2.500   0.087   5.924
 7110SOL     OW22228   3.127   5.858   4.190
 7110SOL    HW122229   3.070   5.940   4.182
 7110SOL    HW222230   3.089   5.798   4.260
 7111SOL     OW22231   1.435   2.519   4.998
 7111SOL    HW122232   1.352   2.466   4.979
 7111SOL    HW222233   1.434   2.550   5.093
 7112SOL     OW22234   2.106   5.160   4.732
 7112SOL    HW122235   2.029   5.219   4.708
 7112SOL    HW222236   2.096   5.072   4.687
 7113SOL     OW22237   3.959   3.910   4.395
 7113SOL    HW122238   3.904   3.953   4.467
 7113SOL    HW222239   3.974   3.974   4.320
 7114SOL     OW22240   5.633   5.690   0.846
 7114SOL    HW122241   5.612   5.593   0.859
 7114SOL    HW222242   5.548   5.741   0.828
 7115SOL     OW22243   5.335   2.607   0.381
 7115SOL    HW122244   5.410   2.650   0.432
 7115SOL    HW222245   5.280   2.677   0.338
 7116SOL     OW22246   5.723   4.571   2.584
 7116SOL    HW122247   5.776   4.627   2.520
 7116SOL    HW222248   5.711   4.621   2.670
 7117SOL     OW22249   0.640   6.845   4.786
 7117SOL    HW122250   0.684   6.756   4.798
 7117SOL    HW222251   0.709   6.915   4.771
 7118SOL     OW22252   3.068   4.786   0.469
 7118SOL    HW122253   3.155   4.759   0.509
 7118SOL    HW222254   2.995   4.775   0.536
 7119SOL     OW22255   4.737   1.358   3.946
 7119SOL    HW122256   4.810   1.392   3.886
 7119SOL    HW222257   4.656   1.338   3.891
 7120SOL     OW22258   3.009   2.139   2.250
 7120SOL    HW122259   2.993   2.206   2.178
 7120SOL    HW222260   3.102   2.150   2.286
 7121SOL     OW22261   0.602   6.944   3.338
 7121SOL    HW122262   0.624   6.865   3.395
 7121SOL    HW222263   0.686   6.984   3.301
 7122SOL     OW22264   1.652   0.828   6.013
 7122SOL    HW122265   1.707   0.853   6.092
 7122SOL    HW222266   1.555   0.831   6.038
 7123SOL     OW22267   1.324   4.595   3.256
 7123SOL    HW122268   1.421   4.574   3.264
 7123SOL    HW222269   1.298   4.601   3.160
 7124SOL     OW22270   6.540   2.170   1.562
 7124SOL    HW122271   6.518   2.257   1.517
 7124SOL    HW222272   6.602   2.117   1.504
 7125SOL     OW22273   0.491   0.105   0.700
 7125SOL    HW122274   0.512   0.139   0.791
 7125SOL    HW222275   0.571   0.057   0.664
 7126SOL     OW22276   3.832   5.192   0.102
 7126SOL    HW122277   3.856   5.133   0.180
 7126SOL    HW222278   3.733   5.189   0.088
 7127SOL     OW22279   1.918   5.321   6.085
 7127SOL    HW122280   1.960   5.347   5.998
 7127SOL    HW222281   1.988   5.316   6.156
 7128SOL     OW22282   3.118   4.436   6.581
 7128SOL    HW122283   3.052   4.417   6.654
 7128SOL    HW222284   3.202   4.474   6.621
 7129SOL     OW22285   2.212   1.500   0.507
 7129SOL    HW122286   2.142   1.519   0.439
 7129SOL    HW222287   2.202   1.406   0.540
 7130SOL     OW22288   3.907   5.810   4.216
 7130SOL    HW122289   3.931   5.904   4.242
 7130SOL    HW222290   3.955   5.786   4.132
 7131SOL     OW22291   2.516   0.996   1.378
 7131SOL    HW122292   2.499   0.941   1.296
 7131SOL    HW222293   2.440   1.058   1.393
 7132SOL     OW22294   3.836   3.563   0.647
 7132SOL    HW122295   3.807   3.527   0.735
 7132SOL    HW222296   3.912   3.627   0.660
 7133SOL     OW22297   4.748   5.232   5.584
 7133SOL    HW122298   4.696   5.255   5.666
 7133SOL    HW222299   4.773   5.135   5.587
 7134SOL     OW22300   4.800   6.867   1.554
 7134SOL    HW122301   4.727   6.877   1.622
 7134SOL    HW222302   4.805   6.772   1.524
 7135SOL     OW22303   1.845   2.805   3.555
 7135SOL    HW122304   1.791   2.834   3.476
 7135SOL    HW222305   1.913   2.739   3.526
 7136SOL     OW22306   2.162   1.870   0.472
 7136SOL    HW122307   2.227   1.847   0.399
 7136SOL    HW222308   2.070   1.843   0.444
 7137SOL     OW22309   3.152   0.986   6.510
 7137SOL    HW122310   3.244   0.962   6.481
 7137SOL    HW222311   3.131   0.941   6.597
 7138SOL     OW22312   2.677   2.247   0.077
 7138SOL    HW122313   2.666   2.261   7.001
 7138SOL    HW222314   2.588   2.229   0.118
 7139SOL     OW22315   6.076   4.244   1.909
 7139SOL    HW122316   6.015   4.318   1.882
 7139SOL    HW222317   6.123   4.209   1.828
 7140SOL     OW22318   6.341   3.884   2.339
 7140SOL    HW122319   6.275   3.810   2.332
 7140SOL    HW222320   6.432   3.847   2.353
 7141SOL     OW22321   3.865   6.414   0.401
 7141SOL    HW122322   3.792   6.482   0.392
 7141SOL    HW222323   3.824   6.324   0.419
 7142SOL     OW22324   3.619   6.858   2.879
 7142SOL    HW122325   3.681   6.914   2.935
 7142SOL    HW222326   3.525   6.889   2.894
 7143SOL     OW22327   1.812   2.647   6.286
 7143SOL    HW122328   1.751   2.568   6.280
 7143SOL    HW222329   1.792   2.698   6.370
 7144SOL     OW22330   2.061   2.010   2.660
 7144SOL    HW122331   1.968   2.006   2.623
 7144SOL    HW222332   2.117   1.940   2.614
 7145SOL     OW22333   4.095   0.277   6.615
 7145SOL    HW122334   4.027   0.203   6.614
 7145SOL    HW222335   4.090   0.329   6.530
 7146SOL     OW22336   1.910   6.720   6.755
 7146SOL    HW122337   1.954   6.750   6.670
 7146SOL    HW222338   1.954   6.765   6.833
 7147SOL     OW22339   6.929   6.459   3.276
 7147SOL    HW122340   6.853   6.395   3.287
 7147SOL    HW222341   6.904   6.530   3.211
 7148SOL     OW22342   0.120   6.956   1.511
 7148SOL    HW122343   0.026   6.965   1.545
 7148SOL    HW222344   0.176   6.908   1.578
 7149SOL     OW22345   6.911   6.392   3.742
 7149SOL    HW122346   6.940   6.434   3.655
 7149SOL    HW222347   6.883   6.465   3.805
 7150SOL     OW22348   3.828   2.673   1.016
 7150SOL    HW122349   3.775   2.652   0.933
 7150SOL    HW222350   3.873   2.590   1.048
 7151SOL     OW22351   3.271   6.717   0.672
 7151SOL    HW122352   3.279   6.817   0.677
 7151SOL    HW222353   3.191   6.693   0.617
 7152SOL     OW22354   6.540   0.532   5.242
 7152SOL    HW122355   6.569   0.438   5.221
 7152SOL    HW222356   6.570   0.555   5.334
 7153SOL     OW22357   4.303   5.236   1.478
 7153SOL    HW122358   4.255   5.224   1.565
 7153SOL    HW222359   4.252   5.301   1.421
 7154SOL     OW22360   4.950   0.041   2.843
 7154SOL    HW122361   4.916   6.971   2.834
 7154SOL    HW222362   5.020   0.058   2.773
 7155SOL     OW22363   2.694   3.062   1.179
 7155SOL    HW122364   2.685   3.142   1.119
 7155SOL    HW222365   2.602   3.032   1.206
 7156SOL     OW22366   6.899   3.132   3.602
 7156SOL    HW122367   6.883   3.231   3.609
 7156SOL    HW222368   6.831   3.092   3.539
 7157SOL     OW22369   0.393   3.937   1.067
 7157SOL    HW122370   0.347   3.890   1.142
 7157SOL    HW222371   0.380   3.884   0.983
 7158SOL     OW22372   0.720   0.350   4.134
 7158SOL    HW122373   0.631   0.383   4.167
 7158SOL    HW222374   0.788   0.423   4.144
 7159SOL     OW22375   0.588   4.727   3.572
 7159SOL    HW122376   0.651   4.785   3.623
 7159SOL    HW222377   0.637   4.647   3.538
 7160SOL     OW22378   5.690   0.418   2.803
 7160SOL    HW122379   5.774   0.413   2.856
 7160SOL    HW222380   5.703   0.371   2.716
 7161SOL     OW22381   3.434   4.094   3.366
 7161SOL    HW122382   3.469   4.039   3.442
 7161SOL    HW222383   3.503   4.096   3.293
 7162SOL     OW22384   1.393   5.002   6.460
 7162SOL    HW122385   1.316   5.032   6.404
 7162SOL    HW222386   1.385   4.904   6.478
 7163SOL     OW22387   2.726   0.027   2.420
 7163SOL    HW122388   2.666   0.009   2.343
 7163SOL    HW222389   2.727   0.125   2.439
 7164SOL     OW22390   3.206   0.441   4.293
 7164SOL    HW122391   3.147   0.508   4.248
 7164SOL    HW222392   3.210   0.358   4.238
 7165SOL     OW22393   6.222   0.020   2.643
 7165SOL    HW122394   6.216   6.944   2.639
 7165SOL    HW222395   6.304   0.051   2.594
 7166SOL     OW22396   4.756   1.576   1.034
 7166SOL    HW122397   4.662   1.600   1.057
 7166SOL    HW222398   4.804   1.657   0.999
 7167SOL     OW22399   5.231   3.041   4.568
 7167SOL    HW122400   5.191   2.959   4.608
 7167SOL    HW222401   5.163   3.114   4.565
 7168SOL     OW22402   1.992   2.840   2.960
 7168SOL    HW122403   1.994   2.770   2.889
 7168SOL    HW222404   1.897   2.863   2.982
 7169SOL     OW22405   6.993   3.646   5.903
 7169SOL    HW122406   6.982   3.671   5.807
 7169SOL    HW222407   0.046   3.582   5.912
 7170SOL     OW22408   5.269   0.222   2.928
 7170SOL    HW122409   5.186   0.221   2.984
 7170SOL    HW222410   5.325   0.143   2.950
 7171SOL     OW22411   6.411   3.986   6.699
 7171SOL    HW122412   6.390   3.911   6.637
 7171SOL    HW222413   6.329   4.040   6.716
 7172SOL     OW22414   1.810   0.073   4.880
 7172SOL    HW122415   1.821   7.010   4.831
 7172SOL    HW222416   1.835   0.149   4.820
 7173SOL     OW22417   6.366   4.716   6.948
 7173SOL    HW122418   6.416   4.789   6.995
 7173SOL    HW222419   6.268   4.729   6.962
 7174SOL     OW22420   1.330   3.200   0.454
 7174SOL    HW122421   1.321   3.228   0.549
 7174SOL    HW222422   1.425   3.212   0.425
 7175SOL     OW22423   5.775   3.286   5.982
 7175SOL    HW122424   5.714   3.276   5.903
 7175SOL    HW222425   5.869   3.266   5.954
 7176SOL     OW22426   6.650   1.306   3.393
 7176SOL    HW122427   6.696   1.274   3.310
 7176SOL    HW222428   6.688   1.395   3.420
 7177SOL     OW22429   0.931   4.593   5.014
 7177SOL    HW122430   0.925   4.579   5.113
 7177SOL    HW222431   0.995   4.527   4.974
 7178SOL     OW22432   6.740   1.124   5.917
 7178SOL    HW122433   6.808   1.063   5.957
 7178SOL    HW222434   6.653   1.076   5.907
 7179SOL     OW22435   2.105   3.309   4.239
 7179SOL    HW122436   2.160   3.237   4.196
 7179SOL    HW222437   2.008   3.294   4.220
 7180SOL     OW22438   2.041   5.312   6.844
 7180SOL    HW122439   2.089   5.328   6.757
 7180SOL    HW222440   1.976   5.237   6.832
 7181SOL     OW22441   1.975   0.072   0.269
 7181SOL    HW122442   1.973   0.072   0.369
 7181SOL    HW222443   1.999   7.003   0.237
 7182SOL     OW22444   0.244   3.248   4.339
 7182SOL    HW122445   0.210   3.287   4.254
 7182SOL    HW222446   0.256   3.149   4.328
 7183SOL     OW22447   1.502   5.464   1.562
 7183SOL    HW122448   1.462   5.528   1.496
 7183SOL    HW222449   1.441   5.454   1.640
 7184SOL     OW22450   6.650   1.033   3.874
 7184SOL    HW122451   6.561   0.993   3.897
 7184SOL    HW222452   6.653   1.051   3.775
 7185SOL     OW22453   5.748   0.785   4.945
 7185SOL    HW122454   5.782   0.873   4.911
 7185SOL    HW222455   5.650   0.791   4.962
 7186SOL     OW22456   6.393   1.990   1.753
 7186SOL    HW122457   6.438   1.959   1.836
 7186SOL    HW222458   6.414   2.087   1.738
 7187SOL     OW22459   2.880   4.090   5.298
 7187SOL    HW122460   2.816   4.023   5.337
 7187SOL    HW222461   2.908   4.060   5.207
 7188SOL     OW22462   5.323   6.811   6.816
 7188SOL    HW122463   5.249   6.866   6.777
 7188SOL    HW222464   5.389   6.788   6.744
 7189SOL     OW22465   5.925   1.390   5.018
 7189SOL    HW122466   5.997   1.321   5.029
 7189SOL    HW222467   5.922   1.419   4.922
 7190SOL     OW22468   6.688   4.654   1.760
 7190SOL    HW122469   6.695   4.678   1.857
 7190SOL    HW222470   6.658   4.559   1.752
 7191SOL     OW22471   1.848   4.947   2.352
 7191SOL    HW122472   1.884   5.031   2.392
 7191SOL    HW222473   1.923   4.880   2.343
 7192SOL     OW22474   2.225   4.054   5.750
 7192SOL    HW122475   2.303   4.043   5.812
 7192SOL    HW222476   2.257   4.094   5.664
 7193SOL     OW22477   1.179   3.080   2.616
 7193SOL    HW122478   1.173   3.065   2.714
 7193SOL    HW222479   1.132   3.166   2.592
 7194SOL     OW22480   2.035   2.520   0.760
 7194SOL    HW122481   2.101   2.595   0.763
 7194SOL    HW222482   2.020   2.485   0.853
 7195SOL     OW22483   0.929   4.217   0.022
 7195SOL    HW122484   1.002   4.263   0.072
 7195SOL    HW222485   0.954   4.209   6.948
 7196SOL     OW22486   2.366   3.650   1.657
 7196SOL    HW122487   2.274   3.687   1.670
 7196SOL    HW222488   2.380   3.573   1.719
 7197SOL     OW22489   0.661   2.622   5.758
 7197SOL    HW122490   0.724   2.590   5.687
 7197SOL    HW222491   0.636   2.544   5.817
 7198SOL     OW22492   0.633   0.610   0.612
 7198SOL    HW122493   0.701   0.681   0.627
 7198SOL    HW222494   0.678   0.521   0.608
 7199SOL     OW22495   1.856   0.280   1.855
 7199SOL    HW122496   1.853   0.189   1.814
 7199SOL    HW222497   1.933   0.286   1.917
 7200SOL     OW22498   2.061   2.836   6.511
 7200SOL    HW122499   2.027   2.849   6.418
 7200SOL    HW222500   2.145   2.782   6.508
 7201SOL     OW22501   0.932   6.338   4.132
 7201SOL    HW122502   0.957   6.318   4.226
 7201SOL    HW222503   0.839   6.305   4.114
 7202SOL     OW22504   5.443   6.812   0.439
 7202SOL    HW122505   5.466   6.826   0.343
 7202SOL    HW222506   5.481   6.724   0.469
 7203SOL     OW22507   0.159   1.104   0.384
 7203SOL    HW122508   0.159   1.204   0.395
 7203SOL    HW222509   0.065   1.071   0.381
 7204SOL     OW22510   0.237   0.160   6.046
 7204SOL    HW122511   0.207   0.064   6.044
 7204SOL    HW222512   0.272   0.181   6.138
 7205SOL     OW22513   1.567   4.000   4.543
 7205SOL    HW122514   1.605   4.066   4.478
 7205SOL    HW222515   1.609   4.013   4.633
 7206SOL     OW22516   1.336   0.402   2.271
 7206SOL    HW122517   1.289   0.389   2.183
 7206SOL    HW222518   1.339   0.314   2.319
 7207SOL     OW22519   3.309   0.438   2.339
 7207SOL    HW122520   3.315   0.423   2.438
 7207SOL    HW222521   3.221   0.479   2.317
 7208SOL     OW22522   3.748   0.082   3.272
 7208SOL    HW122523   3.760   0.147   3.196
 7208SOL    HW222524   3.662   0.033   3.260
 7209SOL     OW22525   2.456   3.136   1.647
 7209SOL    HW122526   2.497   3.212   1.698
 7209SOL    HW222527   2.443   3.165   1.552
 7210SOL     OW22528   4.348   0.859   3.023
 7210SOL    HW122529   4.370   0.880   3.118
 7210SOL    HW222530   4.397   0.922   2.963
 7211SOL     OW22531   2.163   7.018   4.519
 7211SOL    HW122532   2.115   0.082   4.519
 7211SOL    HW222533   2.233   7.018   4.590
 7212SOL     OW22534   0.235   6.375   5.035
 7212SOL    HW122535   0.279   6.442   4.974
 7212SOL    HW222536   0.295   6.297   5.047
 7213SOL     OW22537   4.206   6.100   6.772
 7213SOL    HW122538   4.266   6.021   6.784
 7213SOL    HW222539   4.178   6.107   6.677
 7214SOL     OW22540   6.658   0.405   4.733
 7214SOL    HW122541   6.652   0.459   4.649
 7214SOL    HW222542   6.743   0.425   4.780
 7215SOL     OW22543   0.363   3.045   3.673
 7215SOL    HW122544   0.272   3.004   3.681
 7215SOL    HW222545   0.398   3.029   3.580
 7216SOL     OW22546   2.784   0.556   0.207
 7216SOL    HW122547   2.819   0.598   0.123
 7216SOL    HW222548   2.687   0.574   0.215
 7217SOL     OW22549   2.206   3.939   3.734
 7217SOL    HW122550   2.130   3.984   3.781
 7217SOL    HW222551   2.180   3.920   3.639
 7218SOL     OW22552   5.735   2.716   5.190
 7218SOL    HW122553   5.714   2.638   5.250
 7218SOL    HW222554   5.804   2.774   5.234
 7219SOL     OW22555   4.356   0.207   2.873
 7219SOL    HW122556   4.357   0.188   2.774
 7219SOL    HW222557   4.261   0.212   2.905
 7220SOL     OW22558   0.553   4.137   4.791
 7220SOL    HW122559   0.507   4.214   4.836
 7220SOL    HW222560   0.484   4.077   4.749
 7221SOL     OW22561   3.391   5.895   4.083
 7221SOL    HW122562   3.296   5.913   4.110
 7221SOL    HW222563   3.438   5.851   4.159
 7222SOL     OW22564   5.913   6.829   3.209
 7222SOL    HW122565   6.006   6.865   3.204
 7222SOL    HW222566   5.912   6.747   3.267
 7223SOL     OW22567   2.817   1.478   0.608
 7223SOL    HW122568   2.880   1.430   0.670
 7223SOL    HW222569   2.844   1.574   0.602
 7224SOL     OW22570   5.079   1.502   4.193
 7224SOL    HW122571   5.086   1.480   4.096
 7224SOL    HW222572   5.011   1.442   4.236
 7225SOL     OW22573   1.172   5.648   0.485
 7225SOL    HW122574   1.078   5.647   0.449
 7225SOL    HW222575   1.216   5.734   0.460
 7226SOL     OW22576   6.185   1.187   2.167
 7226SOL    HW122577   6.111   1.239   2.125
 7226SOL    HW222578   6.249   1.156   2.097
 7227SOL     OW22579   2.885   2.376   0.824
 7227SOL    HW122580   2.851   2.382   0.730
 7227SOL    HW222581   2.880   2.467   0.866
 7228SOL     OW22582   1.163   2.359   3.124
 7228SOL    HW122583   1.091   2.331   3.061
 7228SOL    HW222584   1.126   2.424   3.190
 7229SOL     OW22585   1.360   6.064   4.952
 7229SOL    HW122586   1.331   6.104   4.864
 7229SOL    HW222587   1.423   6.127   4.997
 7230SOL     OW22588   3.252   5.395   4.432
 7230SOL    HW122589   3.339   5.345   4.429
 7230SOL    HW222590   3.177   5.329   4.439
 7231SOL     OW22591   3.812   1.043   6.519
 7231SOL    HW122592   3.796   1.101   6.598
 7231SOL    HW222593   3.875   0.969   6.543
 7232SOL     OW22594   4.735   6.261   3.197
 7232SOL    HW122595   4.758   6.179   3.145
 7232SOL    HW222596   4.772   6.341   3.149
 7233SOL     OW22597   0.997   1.608   3.308
 7233SOL    HW122598   0.987   1.687   3.369
 7233SOL    HW222599   0.913   1.555   3.308
 7234SOL     OW22600   5.110   2.465   3.746
 7234SOL    HW122601   5.011   2.477   3.736
 7234SOL    HW222602   5.140   2.387   3.691
 7235SOL     OW22603   0.095   5.104   2.439
 7235SOL    HW122604   0.042   5.024   2.467
 7235SOL    HW222605   0.163   5.077   2.371
 7236SOL     OW22606   2.594   2.158   1.740
 7236SOL    HW122607   2.595   2.251   1.703
 7236SOL    HW222608   2.655   2.153   1.819
 7237SOL     OW22609   4.062   6.948   4.899
 7237SOL    HW122610   4.019   7.001   4.826
 7237SOL    HW222611   4.161   6.953   4.890
 7238SOL     OW22612   3.952   1.539   0.011
 7238SOL    HW122613   3.957   1.553   6.935
 7238SOL    HW222614   3.858   1.517   0.037
 7239SOL     OW22615   1.554   2.225   2.583
 7239SOL    HW122616   1.484   2.192   2.647
 7239SOL    HW222617   1.510   2.280   2.512
 7240SOL     OW22618   1.509   0.405   5.955
 7240SOL    HW122619   1.520   0.478   6.022
 7240SOL    HW222620   1.414   0.375   5.952
 7241SOL     OW22621   1.218   0.752   0.940
 7241SOL    HW122622   1.240   0.702   0.857
 7241SOL    HW222623   1.238   0.849   0.927
 7242SOL     OW22624   6.557   5.824   0.061
 7242SOL    HW122625   6.570   5.868   0.149
 7242SOL    HW222626   6.490   5.875   0.007
 7243SOL     OW22627   6.076   4.251   6.176
 7243SOL    HW122628   6.143   4.180   6.159
 7243SOL    HW222629   6.119   4.327   6.224
 7244SOL     OW22630   6.284   0.886   2.025
 7244SOL    HW122631   6.224   0.898   1.946
 7244SOL    HW222632   6.357   0.955   2.021
 7245SOL     OW22633   1.058   3.001   5.691
 7245SOL    HW122634   1.126   2.957   5.634
 7245SOL    HW222635   1.018   2.934   5.754
 7246SOL     OW22636   0.456   6.965   4.181
 7246SOL    HW122637   0.552   6.962   4.154
 7246SOL    HW222638   0.434   0.034   4.212
 7247SOL     OW22639   2.872   1.243   4.294
 7247SOL    HW122640   2.961   1.251   4.251
 7247SOL    HW222641   2.800   1.242   4.225
 7248SOL     OW22642   2.477   1.561   3.154
 7248SOL    HW122643   2.406   1.626   3.126
 7248SOL    HW222644   2.528   1.530   3.073
 7249SOL     OW22645   6.841   5.054   2.324
 7249SOL    HW122646   6.872   5.018   2.236
 7249SOL    HW222647   6.911   5.117   2.360
 7250SOL     OW22648   4.968   6.723   6.255
 7250SOL    HW122649   4.931   6.784   6.325
 7250SOL    HW222650   4.947   6.760   6.164
 7251SOL     OW22651   0.514   6.490   5.683
 7251SOL    HW122652   0.612   6.499   5.665
 7251SOL    HW222653   0.479   6.408   5.638
 7252SOL     OW22654   3.831   3.420   2.439
 7252SOL    HW122655   3.852   3.506   2.484
 7252SOL    HW222656   3.732   3.408   2.434
 7253SOL     OW22657   1.577   6.210   6.405
 7253SOL    HW122658   1.621   6.125   6.378
 7253SOL    HW222659   1.646   6.279   6.425
 7254SOL     OW22660   4.563   4.897   3.875
 7254SOL    HW122661   4.626   4.927   3.804
 7254SOL    HW222662   4.614   4.852   3.948
 7255SOL     OW22663   2.905   4.162   1.475
 7255SOL    HW122664   2.836   4.235   1.477
 7255SOL    HW222665   2.862   4.076   1.452
 7256SOL     OW22666   3.095   5.606   4.343
 7256SOL    HW122667   3.169   5.550   4.378
 7256SOL    HW222668   3.017   5.548   4.320
 7257SOL     OW22669   5.999   2.327   3.218
 7257SOL    HW122670   5.977   2.424   3.207
 7257SOL    HW222671   5.916   2.278   3.244
 7258SOL     OW22672   4.669   1.457   3.503
 7258SOL    HW122673   4.691   1.542   3.457
 7258SOL    HW222674   4.574   1.458   3.533
 7259SOL     OW22675   2.148   3.368   0.850
 7259SOL    HW122676   2.232   3.377   0.903
 7259SOL    HW222677   2.104   3.280   0.871
 7260SOL     OW22678   4.119   2.006   1.694
 7260SOL    HW122679   4.188   2.030   1.626
 7260SOL    HW222680   4.039   1.967   1.648
 7261SOL     OW22681   1.102   2.115   1.597
 7261SOL    HW122682   1.198   2.122   1.568
 7261SOL    HW222683   1.092   2.039   1.661
 7262SOL     OW22684   5.455   2.270   5.752
 7262SOL    HW122685   5.445   2.260   5.653
 7262SOL    HW222686   5.396   2.343   5.785
 7263SOL     OW22687   0.650   0.897   0.315
 7263SOL    HW122688   0.596   0.869   0.395
 7263SOL    HW222689   0.709   0.973   0.340
 7264SOL     OW22690   5.616   2.300   6.625
 7264SOL    HW122691   5.572   2.221   6.582
 7264SOL    HW222692   5.696   2.270   6.676
 7265SOL     OW22693   5.851   5.576   5.488
 7265SOL    HW122694   5.854   5.510   5.563
 7265SOL    HW222695   5.826   5.666   5.523
 7266SOL     OW22696   5.459   6.464   1.715
 7266SOL    HW122697   5.495   6.374   1.738
 7266SOL    HW222698   5.514   6.534   1.760
 7267SOL     OW22699   6.507   6.108   4.978
 7267SOL    HW122700   6.484   6.016   4.949
 7267SOL    HW222701   6.435   6.172   4.951
 7268SOL     OW22702   5.920   5.400   3.329
 7268SOL    HW122703   5.893   5.343   3.406
 7268SOL    HW222704   5.989   5.352   3.275
 7269SOL     OW22705   6.814   6.755   6.670
 7269SOL    HW122706   6.824   6.840   6.723
 7269SOL    HW222707   6.783   6.777   6.578
 7270SOL     OW22708   1.236   3.849   5.516
 7270SOL    HW122709   1.160   3.855   5.452
 7270SOL    HW222710   1.316   3.812   5.468
 7271SOL     OW22711   0.778   6.157   3.328
 7271SOL    HW122712   0.840   6.108   3.267
 7271SOL    HW222713   0.831   6.218   3.387
 7272SOL     OW22714   5.724   5.900   2.157
 7272SOL    HW122715   5.659   5.851   2.099
 7272SOL    HW222716   5.729   5.857   2.247
 7273SOL     OW22717   6.266   4.458   2.284
 7273SOL    HW122718   6.360   4.438   2.315
 7273SOL    HW222719   6.220   4.514   2.353
 7274SOL     OW22720   0.745   5.569   6.466
 7274SOL    HW122721   0.667   5.559   6.529
 7274SOL    HW222722   0.783   5.478   6.447
 7275SOL     OW22723   7.008   6.739   2.825
 7275SOL    HW122724   0.059   6.671   2.822
 7275SOL    HW222725   0.024   6.831   2.827
 7276SOL     OW22726   3.845   1.246   2.579
 7276SOL    HW122727   3.942   1.256   2.554
 7276SOL    HW222728   3.788   1.288   2.509
 7277SOL     OW22729   4.540   0.672   3.008
 7277SOL    HW122730   4.451   0.711   2.987
 7277SOL    HW222731   4.601   0.744   3.041
 7278SOL     OW22732   3.274   2.818   1.200
 7278SOL    HW122733   3.224   2.855   1.121
 7278SOL    HW222734   3.337   2.887   1.235
 7279SOL     OW22735   3.905   4.066   5.755
 7279SOL    HW122736   3.954   4.069   5.668
 7279SOL    HW222737   3.968   4.091   5.829
 7280SOL     OW22738   0.452   1.916   3.529
 7280SOL    HW122739   0.492   1.989   3.584
 7280SOL    HW222740   0.518   1.842   3.518
 7281SOL     OW22741   1.646   1.032   0.661
 7281SOL    HW122742   1.699   1.105   0.704
 7281SOL    HW222743   1.688   1.008   0.573
 7282SOL     OW22744   6.347   5.990   1.652
 7282SOL    HW122745   6.321   6.075   1.607
 7282SOL    HW222746   6.287   5.974   1.730
 7283SOL     OW22747   4.646   0.512   1.932
 7283SOL    HW122748   4.642   0.415   1.907
 7283SOL    HW222749   4.587   0.564   1.871
 7284SOL     OW22750   6.800   2.131   5.903
 7284SOL    HW122751   6.823   2.096   5.993
 7284SOL    HW222752   6.701   2.124   5.889
 7285SOL     OW22753   5.657   3.110   2.126
 7285SOL    HW122754   5.571   3.089   2.080
 7285SOL    HW222755   5.731   3.111   2.059
 7286SOL     OW22756   1.301   0.935   1.198
 7286SOL    HW122757   1.232   0.864   1.210
 7286SOL    HW222758   1.260   1.025   1.214
 7287SOL     OW22759   6.878   2.454   5.658
 7287SOL    HW122760   6.941   2.396   5.606
 7287SOL    HW222761   6.824   2.509   5.594
 7288SOL     OW22762   1.553   1.946   1.598
 7288SOL    HW122763   1.499   1.888   1.658
 7288SOL    HW222764   1.506   2.033   1.584
 7289SOL     OW22765   5.288   2.266   3.589
 7289SOL    HW122766   5.192   2.244   3.573
 7289SOL    HW222767   5.319   2.333   3.522
 7290SOL     OW22768   2.828   1.479   5.107
 7290SOL    HW122769   2.821   1.524   5.018
 7290SOL    HW222770   2.884   1.535   5.168
 7291SOL     OW22771   1.132   6.856   0.166
 7291SOL    HW122772   1.058   6.923   0.179
 7291SOL    HW222773   1.218   6.896   0.196
 7292SOL     OW22774   3.382   6.929   2.965
 7292SOL    HW122775   3.358   6.832   2.974
 7292SOL    HW222776   3.300   6.980   2.939
 7293SOL     OW22777   1.236   1.522   4.792
 7293SOL    HW122778   1.150   1.545   4.838
 7293SOL    HW222779   1.313   1.555   4.847
 7294SOL     OW22780   2.920   4.492   6.804
 7294SOL    HW122781   2.837   4.472   6.751
 7294SOL    HW222782   2.927   4.591   6.818
 7295SOL     OW22783   6.508   4.111   0.989
 7295SOL    HW122784   6.599   4.070   0.979
 7295SOL    HW222785   6.514   4.210   0.972
 7296SOL     OW22786   3.534   5.916   1.530
 7296SOL    HW122787   3.454   5.920   1.590
 7296SOL    HW222788   3.566   6.009   1.511
 7297SOL     OW22789   3.619   6.554   1.414
 7297SOL    HW122790   3.560   6.552   1.494
 7297SOL    HW222791   3.579   6.500   1.340
 7298SOL     OW22792   4.938   5.542   6.359
 7298SOL    HW122793   4.926   5.608   6.285
 7298SOL    HW222794   5.027   5.498   6.352
 7299SOL     OW22795   0.701   2.142   1.239
 7299SOL    HW122796   0.753   2.073   1.288
 7299SOL    HW222797   0.668   2.105   1.152
 7300SOL     OW22798   0.458   6.884   2.059
 7300SOL    HW122799   0.481   6.918   1.969
 7300SOL    HW222800   0.457   6.784   2.058
 7301SOL     OW22801   6.316   2.147   5.155
 7301SOL    HW122802   6.261   2.148   5.071
 7301SOL    HW222803   6.257   2.171   5.233
 7302SOL     OW22804   6.960   2.364   6.077
 7302SOL    HW122805   6.940   2.461   6.089
 7302SOL    HW222806   6.880   2.319   6.036
 7303SOL     OW22807   3.907   0.950   6.907
 7303SOL    HW122808   3.819   0.912   6.937
 7303SOL    HW222809   3.909   0.953   6.807
 7304SOL     OW22810   2.778   5.380   1.404
 7304SOL    HW122811   2.742   5.383   1.311
 7304SOL    HW222812   2.719   5.323   1.461
 7305SOL     OW22813   4.873   1.826   0.969
 7305SOL    HW122814   4.965   1.827   0.929
 7305SOL    HW222815   4.874   1.870   1.058
 7306SOL     OW22816   3.926   1.838   1.518
 7306SOL    HW122817   3.915   1.784   1.602
 7306SOL    HW222818   3.912   1.780   1.438
 7307SOL     OW22819   3.175   6.396   2.294
 7307SOL    HW122820   3.180   6.495   2.307
 7307SOL    HW222821   3.144   6.352   2.378
 7308SOL     OW22822   6.738   2.121   4.771
 7308SOL    HW122823   6.763   2.025   4.780
 7308SOL    HW222824   6.791   2.176   4.835
 7309SOL     OW22825   3.727   5.868   0.799
 7309SOL    HW122826   3.802   5.925   0.763
 7309SOL    HW222827   3.748   5.842   0.893
 7310SOL     OW22828   2.237   3.964   6.751
 7310SOL    HW122829   2.258   4.027   6.676
 7310SOL    HW222830   2.254   4.009   6.839
 7311SOL     OW22831   1.709   1.605   1.283
 7311SOL    HW122832   1.785   1.598   1.219
 7311SOL    HW222833   1.701   1.700   1.315
 7312SOL     OW22834   0.693   2.929   4.837
 7312SOL    HW122835   0.673   3.007   4.896
 7312SOL    HW222836   0.778   2.885   4.868
 7313SOL     OW22837   2.100   0.934   0.889
 7313SOL    HW122838   2.054   0.885   0.963
 7313SOL    HW222839   2.065   1.028   0.884
 7314SOL     OW22840   6.899   4.181   6.191
 7314SOL    HW122841   6.936   4.096   6.154
 7314SOL    HW222842   6.969   4.252   6.188
 7315SOL     OW22843   5.221   5.344   1.909
 7315SOL    HW122844   5.140   5.395   1.881
 7315SOL    HW222845   5.194   5.263   1.960
 7316SOL     OW22846   3.379   3.544   6.674
 7316SOL    HW122847   3.312   3.471   6.658
 7316SOL    HW222848   3.387   3.560   6.773
 7317SOL     OW22849   4.110   1.547   1.450
 7317SOL    HW122850   4.151   1.609   1.516
 7317SOL    HW222851   4.042   1.489   1.495
 7318SOL     OW22852   2.956   0.371   1.934
 7318SOL    HW122853   2.971   0.455   1.882
 7318SOL    HW222854   2.984   0.292   1.880
 7319SOL     OW22855   6.760   3.985   6.758
 7319SOL    HW122856   6.796   3.965   6.667
 7319SOL    HW222857   6.723   3.902   6.799
 7320SOL     OW22858   0.783   3.692   2.236
 7320SOL    HW122859   0.772   3.593   2.239
 7320SOL    HW222860   0.799   3.721   2.141
 7321SOL     OW22861   1.628   6.477   6.161
 7321SOL    HW122862   1.544   6.457   6.210
 7321SOL    HW222863   1.681   6.546   6.212
 7322SOL     OW22864   6.564   3.064   2.985
 7322SOL    HW122865   6.649   3.045   3.035
 7322SOL    HW222866   6.487   3.019   3.032
 7323SOL     OW22867   1.959   2.691   1.708
 7323SOL    HW122868   2.035   2.735   1.756
 7323SOL    HW222869   1.976   2.593   1.701
 7324SOL     OW22870   5.428   5.723   1.400
 7324SOL    HW122871   5.511   5.683   1.439
 7324SOL    HW222872   5.382   5.656   1.343
 7325SOL     OW22873   2.455   0.279   6.437
 7325SOL    HW122874   2.456   0.220   6.517
 7325SOL    HW222875   2.401   0.361   6.455
 7326SOL     OW22876   3.360   6.024   6.523
 7326SOL    HW122877   3.451   6.040   6.486
 7326SOL    HW222878   3.305   5.973   6.456
 7327SOL     OW22879   6.353   2.438   5.905
 7327SOL    HW122880   6.355   2.511   5.973
 7327SOL    HW222881   6.415   2.364   5.932
 7328SOL     OW22882   4.292   0.139   6.815
 7328SOL    HW122883   4.210   0.187   6.786
 7328SOL    HW222884   4.274   0.041   6.817
 7329SOL     OW22885   1.070   4.186   0.569
 7329SOL    HW122886   1.128   4.237   0.632
 7329SOL    HW222887   1.007   4.248   0.523
 7330SOL     OW22888   1.687   3.088   0.076
 7330SOL    HW122889   1.670   3.186   0.067
 7330SOL    HW222890   1.641   3.054   0.158
 7331SOL     OW22891   5.484   6.719   1.528
 7331SOL    HW122892   5.437   6.780   1.591
 7331SOL    HW222893   5.424   6.698   1.450
 7332SOL     OW22894   2.979   5.560   6.771
 7332SOL    HW122895   3.066   5.607   6.760
 7332SOL    HW222896   2.922   5.610   6.836
 7333SOL     OW22897   6.293   3.187   3.721
 7333SOL    HW122898   6.342   3.274   3.724
 7333SOL    HW222899   6.253   3.167   3.811
 7334SOL     OW22900   2.095   6.342   6.099
 7334SOL    HW122901   2.143   6.255   6.111
 7334SOL    HW222902   1.997   6.328   6.115
 7335SOL     OW22903   0.455   2.180   3.318
 7335SOL    HW122904   0.371   2.234   3.315
 7335SOL    HW222905   0.528   2.236   3.356
 7336SOL     OW22906   2.146   6.840   2.500
 7336SOL    HW122907   2.188   6.921   2.543
 7336SOL    HW222908   2.047   6.853   2.494
 7337SOL     OW22909   1.111   2.512   2.145
 7337SOL    HW122910   1.060   2.577   2.089
 7337SOL    HW222911   1.142   2.436   2.088
 7338SOL     OW22912   4.803   1.712   1.843
 7338SOL    HW122913   4.853   1.628   1.823
 7338SOL    HW222914   4.800   1.770   1.761
 7339SOL     OW22915   6.166   0.675   4.949
 7339SOL    HW122916   6.093   0.611   4.925
 7339SOL    HW222917   6.209   0.708   4.865
 7340SOL     OW22918   2.980   1.383   0.109
 7340SOL    HW122919   2.962   1.356   0.014
 7340SOL    HW222920   2.894   1.385   0.160
 7341SOL     OW22921   0.556   4.384   5.273
 7341SOL    HW122922   0.636   4.326   5.255
 7341SOL    HW222923   0.571   4.474   5.232
 7342SOL     OW22924   0.346   0.256   6.309
 7342SOL    HW122925   0.263   0.265   6.364
 7342SOL    HW222926   0.405   0.335   6.326
 7343SOL     OW22927   5.892   4.449   1.889
 7343SOL    HW122928   5.795   4.471   1.879
 7343SOL    HW222929   5.917   4.452   1.986
 7344SOL     OW22930   1.004   0.826   5.805
 7344SOL    HW122931   1.055   0.911   5.791
 7344SOL    HW222932   0.957   0.829   5.892
 7345SOL     OW22933   4.825   5.971   5.211
 7345SOL    HW122934   4.791   5.877   5.202
 7345SOL    HW222935   4.920   5.969   5.242
 7346SOL     OW22936   4.707   4.712   1.274
 7346SOL    HW122937   4.774   4.716   1.349
 7346SOL    HW222938   4.651   4.630   1.285
 7347SOL     OW22939   0.532   2.877   0.944
 7347SOL    HW122940   0.561   2.803   1.004
 7347SOL    HW222941   0.499   2.954   0.999
 7348SOL     OW22942   1.295   3.951   3.753
 7348SOL    HW122943   1.289   4.042   3.794
 7348SOL    HW222944   1.228   3.944   3.679
 7349SOL     OW22945   4.698   1.895   0.741
 7349SOL    HW122946   4.693   1.834   0.662
 7349SOL    HW222947   4.747   1.849   0.815
 7350SOL     OW22948   1.289   3.241   5.711
 7350SOL    HW122949   1.373   3.187   5.723
 7350SOL    HW222950   1.213   3.180   5.688
 7351SOL     OW22951   4.886   6.555   5.103
 7351SOL    HW122952   4.840   6.628   5.053
 7351SOL    HW222953   4.972   6.589   5.141
 7352SOL     OW22954   2.061   2.624   3.528
 7352SOL    HW122955   2.132   2.608   3.595
 7352SOL    HW222956   2.035   2.538   3.484
 7353SOL     OW22957   1.226   0.343   5.965
 7353SOL    HW122958   1.178   0.431   5.967
 7353SOL    HW222959   1.213   0.301   5.875
 7354SOL     OW22960   0.160   1.594   5.897
 7354SOL    HW122961   0.218   1.536   5.955
 7354SOL    HW222962   0.161   1.559   5.804
 7355SOL     OW22963   2.046   1.308   0.655
 7355SOL    HW122964   1.976   1.343   0.593
 7355SOL    HW222965   2.079   1.220   0.622
 7356SOL     OW22966   3.752   3.558   6.173
 7356SOL    HW122967   3.808   3.527   6.251
 7356SOL    HW222968   3.695   3.483   6.141
 7357SOL     OW22969   4.669   6.283   1.723
 7357SOL    HW122970   4.571   6.299   1.714
 7357SOL    HW222971   4.690   6.189   1.694
 7358SOL     OW22972   6.291   3.522   3.141
 7358SOL    HW122973   6.226   3.571   3.083
 7358SOL    HW222974   6.369   3.492   3.086
 7359SOL     OW22975   2.236   2.025   6.209
 7359SOL    HW122976   2.315   2.084   6.197
 7359SOL    HW222977   2.168   2.072   6.266
 7360SOL     OW22978   3.355   4.066   5.543
 7360SOL    HW122979   3.308   4.140   5.496
 7360SOL    HW222980   3.426   4.104   5.604
 7361SOL     OW22981   4.567   6.902   1.677
 7361SOL    HW122982   4.481   6.952   1.676
 7361SOL    HW222983   4.558   6.820   1.733
 7362SOL     OW22984   0.901   4.768   4.769
 7362SOL    HW122985   0.804   4.788   4.763
 7362SOL    HW222986   0.921   4.725   4.857
 7363SOL     OW22987   4.254   1.628   1.217
 7363SOL    HW122988   4.212   1.618   1.307
 7363SOL    HW222989   4.236   1.547   1.162
 7364SOL     OW22990   4.634   1.042   1.424
 7364SOL    HW122991   4.540   1.047   1.458
 7364SOL    HW222992   4.637   1.076   1.330
 7365SOL     OW22993   1.488   6.370   1.940
 7365SOL    HW122994   1.488   6.307   1.862
 7365SOL    HW222995   1.482   6.317   2.025
 7366SOL     OW22996   1.975   5.666   6.930
 7366SOL    HW122997   2.028   5.593   6.972
 7366SOL    HW222998   2.030   5.749   6.924
 7367SOL     OW22999   4.934   3.304   1.352
 7367SOL    HW123000   4.981   3.226   1.393
 7367SOL    HW223001   4.989   3.386   1.364
 7368SOL     OW23002   3.875   2.946   2.860
 7368SOL    HW123003   3.975   2.943   2.857
 7368SOL    HW223004   3.844   2.939   2.955
 7369SOL     OW23005   3.924   3.051   6.759
 7369SOL    HW123006   3.854   3.115   6.790
 7369SOL    HW223007   3.939   2.981   6.829
 7370SOL     OW23008   2.367   1.022   4.225
 7370SOL    HW123009   2.313   0.962   4.166
 7370SOL    HW223010   2.367   1.115   4.188
 7371SOL     OW23011   1.875   6.153   3.987
 7371SOL    HW123012   1.807   6.206   4.037
 7371SOL    HW223013   1.857   6.158   3.889
 7372SOL     OW23014   4.181   1.278   4.992
 7372SOL    HW123015   4.262   1.296   4.937
 7372SOL    HW223016   4.136   1.195   4.960
 7373SOL     OW23017   5.822   1.756   4.531
 7373SOL    HW123018   5.913   1.738   4.569
 7373SOL    HW223019   5.816   1.853   4.504
 7374SOL     OW23020   2.538   1.402   5.374
 7374SOL    HW123021   2.610   1.470   5.383
 7374SOL    HW223022   2.451   1.441   5.406
 7375SOL     OW23023   2.175   3.634   3.333
 7375SOL    HW123024   2.084   3.634   3.374
 7375SOL    HW223025   2.184   3.555   3.272
 7376SOL     OW23026   3.050   1.264   0.431
 7376SOL    HW123027   2.978   1.328   0.459
 7376SOL    HW223028   3.138   1.312   0.431
 7377SOL     OW23029   6.004   4.218   0.874
 7377SOL    HW123030   6.023   4.229   0.777
 7377SOL    HW223031   5.966   4.127   0.891
 7378SOL     OW23032   6.978   0.968   6.012
 7378SOL    HW123033   7.022   0.988   6.099
 7378SOL    HW223034   0.023   0.964   5.939
 7379SOL     OW23035   3.388   1.392   3.129
 7379SOL    HW123036   3.357   1.306   3.169
 7379SOL    HW223037   3.463   1.430   3.183
 7380SOL     OW23038   6.716   4.160   4.736
 7380SOL    HW123039   6.808   4.123   4.722
 7380SOL    HW223040   6.723   4.256   4.764
 7381SOL     OW23041   4.483   3.960   1.593
 7381SOL    HW123042   4.558   4.018   1.561
 7381SOL    HW223043   4.442   3.999   1.675
 7382SOL     OW23044   6.824   5.998   6.133
 7382SOL    HW123045   6.749   6.065   6.127
 7382SOL    HW223046   6.873   6.012   6.218
 7383SOL     OW23047   1.581   0.180   1.371
 7383SOL    HW123048   1.552   0.084   1.369
 7383SOL    HW223049   1.606   0.205   1.465
 7384SOL     OW23050   5.570   0.717   3.231
 7384SOL    HW123051   5.492   0.655   3.224
 7384SOL    HW223052   5.550   0.789   3.298
 7385SOL     OW23053   4.147   5.937   1.905
 7385SOL    HW123054   4.068   5.887   1.940
 7385SOL    HW223055   4.206   5.965   1.982
 7386SOL     OW23056   0.420   2.185   5.707
 7386SOL    HW123057   0.350   2.149   5.769
 7386SOL    HW223058   0.412   2.141   5.618
 7387SOL     OW23059   5.223   6.106   4.408
 7387SOL    HW123060   5.309   6.057   4.416
 7387SOL    HW223061   5.162   6.079   4.482
 7388SOL     OW23062   0.267   5.177   2.662
 7388SOL    HW123063   0.316   5.238   2.601
 7388SOL    HW223064   0.197   5.127   2.611
 7389SOL     OW23065   0.099   3.629   6.686
 7389SOL    HW123066   0.132   3.589   6.771
 7389SOL    HW223067   0.091   3.558   6.616
 7390SOL     OW23068   1.255   1.758   0.003
 7390SOL    HW123069   1.155   1.762   0.010
 7390SOL    HW223070   1.281   1.742   6.931
 7391SOL     OW23071   4.010   3.266   4.954
 7391SOL    HW123072   4.011   3.362   4.927
 7391SOL    HW223073   4.081   3.250   5.023
 7392SOL     OW23074   2.892   6.009   0.193
 7392SOL    HW123075   2.858   5.922   0.227
 7392SOL    HW223076   2.978   6.031   0.238
 7393SOL     OW23077   5.974   5.006   2.640
 7393SOL    HW123078   5.976   4.934   2.709
 7393SOL    HW223079   6.003   4.968   2.552
 7394SOL     OW23080   2.508   2.640   5.929
 7394SOL    HW123081   2.424   2.615   5.881
 7394SOL    HW223082   2.539   2.730   5.898
 7395SOL     OW23083   1.096   2.038   6.950
 7395SOL    HW123084   1.015   2.003   6.997
 7395SOL    HW223085   1.176   2.027   7.007
 7396SOL     OW23086   0.727   0.013   0.598
 7396SOL    HW123087   0.673   7.001   0.521
 7396SOL    HW223088   0.744   6.963   0.663
 7397SOL     OW23089   4.383   5.329   4.730
 7397SOL    HW123090   4.421   5.238   4.751
 7397SOL    HW223091   4.447   5.379   4.672
 7398SOL     OW23092   2.570   4.909   4.601
 7398SOL    HW123093   2.562   4.810   4.592
 7398SOL    HW223094   2.659   4.939   4.567
 7399SOL     OW23095   1.301   2.241   5.186
 7399SOL    HW123096   1.337   2.170   5.126
 7399SOL    HW223097   1.376   2.281   5.239
 7400SOL     OW23098   4.180   2.323   5.626
 7400SOL    HW123099   4.211   2.390   5.694
 7400SOL    HW223100   4.142   2.371   5.547
 7401SOL     OW23101   1.478   1.597   4.950
 7401SOL    HW123102   1.494   1.499   4.944
 7401SOL    HW223103   1.418   1.617   5.028
 7402SOL     OW23104   2.711   5.714   6.013
 7402SOL    HW123105   2.637   5.658   5.979
 7402SOL    HW223106   2.674   5.799   6.051
 7403SOL     OW23107   2.158   3.921   2.092
 7403SOL    HW123108   2.174   3.938   1.995
 7403SOL    HW223109   2.153   3.823   2.108
 7404SOL     OW23110   2.437   5.364   1.627
 7404SOL    HW123111   2.441   5.424   1.547
 7404SOL    HW223112   2.350   5.315   1.628
 7405SOL     OW23113   3.413   5.027   4.287
 7405SOL    HW123114   3.376   4.985   4.370
 7405SOL    HW223115   3.495   4.977   4.257
 7406SOL     OW23116   0.461   2.446   3.078
 7406SOL    HW123117   0.363   2.428   3.078
 7406SOL    HW223118   0.503   2.404   2.997
 7407SOL     OW23119   1.211   6.811   4.484
 7407SOL    HW123120   1.270   6.732   4.503
 7407SOL    HW223121   1.212   6.830   4.386
 7408SOL     OW23122   3.026   3.953   6.803
 7408SOL    HW123123   3.052   4.031   6.860
 7408SOL    HW223124   3.065   3.965   6.711
 7409SOL     OW23125   6.606   2.164   6.591
 7409SOL    HW123126   6.692   2.170   6.540
 7409SOL    HW223127   6.549   2.092   6.553
 7410SOL     OW23128   0.172   6.872   0.428
 7410SOL    HW123129   0.236   6.848   0.354
 7410SOL    HW223130   0.206   6.836   0.514
 7411SOL     OW23131   2.548   0.233   5.619
 7411SOL    HW123132   2.615   0.246   5.546
 7411SOL    HW223133   2.476   0.302   5.612
 7412SOL     OW23134   4.634   0.227   1.956
 7412SOL    HW123135   4.622   0.181   2.044
 7412SOL    HW223136   4.723   0.202   1.918
 7413SOL     OW23137   5.182   5.745   4.069
 7413SOL    HW123138   5.097   5.695   4.050
 7413SOL    HW223139   5.161   5.840   4.091
 7414SOL     OW23140   0.033   0.680   4.015
 7414SOL    HW123141   6.967   0.704   3.976
 7414SOL    HW223142   0.063   0.592   3.976
 7415SOL     OW23143   2.164   4.769   4.335
 7415SOL    HW123144   2.194   4.857   4.298
 7415SOL    HW223145   2.096   4.784   4.407
 7416SOL     OW23146   1.877   0.952   2.851
 7416SOL    HW123147   1.795   0.989   2.809
 7416SOL    HW223148   1.924   1.024   2.902
 7417SOL     OW23149   1.737   0.604   0.176
 7417SOL    HW123150   1.686   0.613   0.262
 7417SOL    HW223151   1.777   0.513   0.170
 7418SOL     OW23152   2.897   5.831   0.894
 7418SOL    HW123153   2.893   5.764   0.968
 7418SOL    HW223154   2.968   5.803   0.829
 7419SOL     OW23155   5.910   2.501   5.055
 7419SOL    HW123156   5.905   2.571   5.125
 7419SOL    HW223157   6.005   2.484   5.030
 7420SOL     OW23158   0.528   6.683   1.463
 7420SOL    HW123159   0.545   6.676   1.561
 7420SOL    HW223160   0.616   6.684   1.414
 7421SOL     OW23161   3.454   4.065   0.510
 7421SOL    HW123162   3.475   4.163   0.519
 7421SOL    HW223163   3.400   4.050   0.427
 7422SOL     OW23164   6.839   3.172   2.819
 7422SOL    HW123165   6.929   3.193   2.858
 7422SOL    HW223166   6.810   3.081   2.848
 7423SOL     OW23167   5.727   3.674   5.354
 7423SOL    HW123168   5.721   3.574   5.344
 7423SOL    HW223169   5.676   3.702   5.435
 7424SOL     OW23170   6.841   6.751   6.000
 7424SOL    HW123171   6.815   6.659   5.972
 7424SOL    HW223172   6.768   6.791   6.055
 7425SOL     OW23173   4.108   5.731   6.805
 7425SOL    HW123174   4.074   5.808   6.860
 7425SOL    HW223175   4.199   5.753   6.770
 7426SOL     OW23176   3.046   1.490   5.489
 7426SOL    HW123177   3.038   1.477   5.587
 7426SOL    HW223178   3.050   1.400   5.444
 7427SOL     OW23179   4.211   0.392   3.734
 7427SOL    HW123180   4.192   0.439   3.820
 7427SOL    HW223181   4.309   0.378   3.724
 7428SOL     OW23182   4.457   2.007   5.834
 7428SOL    HW123183   4.385   2.077   5.835
 7428SOL    HW223184   4.524   2.027   5.904
 7429SOL     OW23185   0.416   6.687   4.251
 7429SOL    HW123186   0.426   6.658   4.347
 7429SOL    HW223187   0.429   6.786   4.245
 7430SOL     OW23188   1.003   2.430   0.318
 7430SOL    HW123189   0.954   2.364   0.261
 7430SOL    HW223190   1.099   2.402   0.327
 7431SOL     OW23191   1.422   3.153   3.367
 7431SOL    HW123192   1.391   3.062   3.395
 7431SOL    HW223193   1.513   3.145   3.327
 7432SOL     OW23194   1.403   1.049   2.880
 7432SOL    HW123195   1.344   1.014   2.953
 7432SOL    HW223196   1.480   1.099   2.919
 7433SOL     OW23197   4.636   6.208   6.046
 7433SOL    HW123198   4.690   6.281   6.004
 7433SOL    HW223199   4.624   6.133   5.980
 7434SOL     OW23200   5.291   5.809   5.833
 7434SOL    HW123201   5.275   5.893   5.886
 7434SOL    HW223202   5.388   5.786   5.836
 7435SOL     OW23203   3.878   5.668   0.430
 7435SOL    HW123204   3.860   5.574   0.457
 7435SOL    HW223205   3.807   5.728   0.467
 7436SOL     OW23206   5.362   3.554   6.300
 7436SOL    HW123207   5.400   3.628   6.355
 7436SOL    HW223208   5.331   3.480   6.359
 7437SOL     OW23209   1.314   6.155   6.804
 7437SOL    HW123210   1.409   6.124   6.799
 7437SOL    HW223211   1.260   6.088   6.855
 7438SOL     OW23212   1.409   5.949   6.479
 7438SOL    HW123213   1.356   6.013   6.424
 7438SOL    HW223214   1.493   5.993   6.510
 7439SOL     OW23215   1.917   5.837   5.963
 7439SOL    HW123216   1.858   5.774   5.912
 7439SOL    HW223217   1.911   5.928   5.921
 7440SOL     OW23218   6.731   3.191   3.878
 7440SOL    HW123219   6.800   3.201   3.806
 7440SOL    HW223220   6.741   3.101   3.922
 7441SOL     OW23221   5.419   6.348   4.099
 7441SOL    HW123222   5.364   6.309   4.025
 7441SOL    HW223223   5.375   6.331   4.187
 7442SOL     OW23224   6.242   1.086   6.029
 7442SOL    HW123225   6.209   1.170   6.072
 7442SOL    HW223226   6.227   1.008   6.091
 7443SOL     OW23227   6.874   6.395   1.847
 7443SOL    HW123228   6.829   6.309   1.871
 7443SOL    HW223229   6.942   6.379   1.775
 7444SOL     OW23230   5.488   2.581   5.598
 7444SOL    HW123231   5.406   2.639   5.595
 7444SOL    HW223232   5.505   2.554   5.693
 7445SOL     OW23233   4.007   0.858   1.014
 7445SOL    HW123234   3.923   0.913   1.011
 7445SOL    HW223235   3.998   0.789   1.086
 7446SOL     OW23236   5.621   2.981   0.499
 7446SOL    HW123237   5.715   2.979   0.462
 7446SOL    HW223238   5.605   3.069   0.544
 7447SOL     OW23239   0.441   3.486   6.559
 7447SOL    HW123240   0.460   3.441   6.471
 7447SOL    HW223241   0.406   3.418   6.624
 7448SOL     OW23242   6.526   6.148   5.270
 7448SOL    HW123243   6.495   6.138   5.176
 7448SOL    HW223244   6.475   6.085   5.329
 7449SOL     OW23245   0.357   3.792   1.975
 7449SOL    HW123246   0.433   3.855   1.957
 7449SOL    HW223247   0.355   3.770   2.073
 7450SOL     OW23248   5.305   2.463   4.664
 7450SOL    HW123249   5.248   2.447   4.584
 7450SOL    HW223250   5.380   2.525   4.641
 7451SOL     OW23251   6.783   6.967   3.280
 7451SOL    HW123252   6.803   7.017   3.196
 7451SOL    HW223253   6.864   6.919   3.311
 7452SOL     OW23254   0.319   6.609   4.562
 7452SOL    HW123255   0.299   6.541   4.492
 7452SOL    HW223256   0.417   6.631   4.562
 7453SOL     OW23257   4.883   0.240   6.116
 7453SOL    HW123258   4.785   0.221   6.110
 7453SOL    HW223259   4.897   0.332   6.153
 7454SOL     OW23260   0.183   2.346   2.500
 7454SOL    HW123261   0.208   2.376   2.593
 7454SOL    HW223262   0.098   2.392   2.473
 7455SOL     OW23263   6.894   1.895   2.896
 7455SOL    HW123264   6.817   1.880   2.836
 7455SOL    HW223265   6.861   1.915   2.989
 7456SOL     OW23266   1.092   1.652   4.202
 7456SOL    HW123267   1.092   1.647   4.302
 7456SOL    HW223268   0.999   1.638   4.168
 7457SOL     OW23269   3.917   0.507   6.092
 7457SOL    HW123270   3.880   0.554   6.011
 7457SOL    HW223271   4.011   0.537   6.108
 7458SOL     OW23272   1.747   6.585   5.643
 7458SOL    HW123273   1.701   6.597   5.555
 7458SOL    HW223274   1.708   6.507   5.691
 7459SOL     OW23275   4.539   0.396   2.165
 7459SOL    HW123276   4.583   0.465   2.221
 7459SOL    HW223277   4.555   0.416   2.068
 7460SOL     OW23278   1.109   5.507   0.735
 7460SOL    HW123279   1.068   5.575   0.796
 7460SOL    HW223280   1.159   5.555   0.662
 7461SOL     OW23281   5.598   1.467   6.624
 7461SOL    HW123282   5.650   1.447   6.540
 7461SOL    HW223283   5.506   1.496   6.600
 7462SOL     OW23284   2.156   3.911   2.463
 7462SOL    HW123285   2.157   3.867   2.373
 7462SOL    HW223286   2.111   3.851   2.529
 7463SOL     OW23287   2.378   4.636   0.521
 7463SOL    HW123288   2.326   4.590   0.449
 7463SOL    HW223289   2.362   4.735   0.516
 7464SOL     OW23290   5.160   0.362   6.640
 7464SOL    HW123291   5.072   0.329   6.606
 7464SOL    HW223292   5.182   0.314   6.725
 7465SOL     OW23293   1.096   5.718   6.823
 7465SOL    HW123294   1.168   5.713   6.754
 7465SOL    HW223295   1.102   5.806   6.871
 7466SOL     OW23296   7.015   0.498   5.213
 7466SOL    HW123297   6.958   0.426   5.252
 7466SOL    HW223298   6.962   0.551   5.147
 7467SOL     OW23299   0.498   1.326   1.364
 7467SOL    HW123300   0.554   1.380   1.426
 7467SOL    HW223301   0.406   1.364   1.360
 7468SOL     OW23302   5.693   3.001   3.435
 7468SOL    HW123303   5.715   3.038   3.525
 7468SOL    HW223304   5.600   2.963   3.436
 7469SOL     OW23305   0.096   1.169   0.876
 7469SOL    HW123306   0.055   1.137   0.791
 7469SOL    HW223307   0.148   1.094   0.918
 7470SOL     OW23308   6.342   3.448   4.001
 7470SOL    HW123309   6.356   3.352   4.026
 7470SOL    HW223310   6.264   3.484   4.051
 7471SOL     OW23311   5.748   6.508   6.110
 7471SOL    HW123312   5.764   6.427   6.053
 7471SOL    HW223313   5.835   6.539   6.149
 7472SOL     OW23314   6.677   6.761   4.714
 7472SOL    HW123315   6.587   6.803   4.702
 7472SOL    HW223316   6.676   6.670   4.674
 7473SOL     OW23317   5.740   5.009   3.491
 7473SOL    HW123318   5.805   5.081   3.512
 7473SOL    HW223319   5.654   5.026   3.539
 7474SOL     OW23320   1.073   1.613   5.365
 7474SOL    HW123321   1.052   1.704   5.328
 7474SOL    HW223322   1.108   1.623   5.458
 7475SOL     OW23323   5.073   2.143   2.433
 7475SOL    HW123324   4.987   2.120   2.478
 7475SOL    HW223325   5.054   2.190   2.347
 7476SOL     OW23326   3.486   0.386   3.850
 7476SOL    HW123327   3.536   0.464   3.886
 7476SOL    HW223328   3.532   0.352   3.768
 7477SOL     OW23329   0.372   0.840   5.125
 7477SOL    HW123330   0.415   0.762   5.079
 7477SOL    HW223331   0.428   0.868   5.202
 7478SOL     OW23332   5.014   5.135   5.951
 7478SOL    HW123333   4.978   5.195   5.881
 7478SOL    HW223334   4.955   5.139   6.032
 7479SOL     OW23335   4.366   2.386   2.336
 7479SOL    HW123336   4.282   2.341   2.307
 7479SOL    HW223337   4.369   2.479   2.300
 7480SOL     OW23338   0.403   4.135   2.144
 7480SOL    HW123339   0.303   4.142   2.146
 7480SOL    HW223340   0.436   4.155   2.052
 7481SOL     OW23341   6.265   5.821   1.386
 7481SOL    HW123342   6.248   5.909   1.431
 7481SOL    HW223343   6.255   5.832   1.287
 7482SOL     OW23344   4.714   2.904   2.920
 7482SOL    HW123345   4.700   2.815   2.876
 7482SOL    HW223346   4.742   2.891   3.015
 7483SOL     OW23347   4.610   2.596   4.279
 7483SOL    HW123348   4.557   2.601   4.364
 7483SOL    HW223349   4.549   2.577   4.202
 7484SOL     OW23350   1.805   7.002   4.361
 7484SOL    HW123351   1.785   6.937   4.287
 7484SOL    HW223352   1.820   0.070   4.321
 7485SOL     OW23353   3.538   6.907   4.566
 7485SOL    HW123354   3.634   6.897   4.540
 7485SOL    HW223355   3.530   6.981   4.633
 7486SOL     OW23356   1.922   6.523   0.628
 7486SOL    HW123357   2.005   6.483   0.589
 7486SOL    HW223358   1.908   6.487   0.721
 7487SOL     OW23359   1.933   6.840   3.563
 7487SOL    HW123360   1.869   6.763   3.572
 7487SOL    HW223361   1.913   6.890   3.480
 7488SOL     OW23362   2.655   0.171   3.668
 7488SOL    HW123363   2.746   0.184   3.630
 7488SOL    HW223364   2.646   0.225   3.752
 7489SOL     OW23365   5.011   2.785   5.439
 7489SOL    HW123366   5.025   2.847   5.361
 7489SOL    HW223367   4.960   2.832   5.510
 7490SOL     OW23368   1.507   0.477   2.480
 7490SOL    HW123369   1.536   0.393   2.528
 7490SOL    HW223370   1.450   0.452   2.402
 7491SOL     OW23371   5.313   2.432   6.482
 7491SOL    HW123372   5.369   2.493   6.537
 7491SOL    HW223373   5.231   2.480   6.451
 7492SOL     OW23374   2.039   0.568   3.370
 7492SOL    HW123375   1.959   0.627   3.362
 7492SOL    HW223376   2.020   0.479   3.328
 7493SOL     OW23377   0.566   3.671   6.725
 7493SOL    HW123378   0.538   3.596   6.665
 7493SOL    HW223379   0.502   3.678   6.802
 7494SOL     OW23380   5.407   1.253   2.724
 7494SOL    HW123381   5.382   1.249   2.627
 7494SOL    HW223382   5.379   1.168   2.769
 7495SOL     OW23383   1.646   2.258   6.492
 7495SOL    HW123384   1.703   2.218   6.564
 7495SOL    HW223385   1.589   2.330   6.531
 7496SOL     OW23386   6.027   3.493   5.036
 7496SOL    HW123387   6.074   3.431   4.973
 7496SOL    HW223388   5.942   3.525   4.993
 7497SOL     OW23389   2.671   4.277   6.075
 7497SOL    HW123390   2.657   4.283   5.976
 7497SOL    HW223391   2.761   4.313   6.099
 7498SOL     OW23392   3.368   0.515   5.423
 7498SOL    HW123393   3.349   0.417   5.427
 7498SOL    HW223394   3.318   0.555   5.346
 7499SOL     OW23395   3.199   1.511   2.766
 7499SOL    HW123396   3.217   1.414   2.749
 7499SOL    HW223397   3.255   1.566   2.704
 7500SOL     OW23398   3.366   5.686   2.955
 7500SOL    HW123399   3.293   5.658   2.893
 7500SOL    HW223400   3.439   5.618   2.955
 7501SOL     OW23401   5.225   3.919   4.992
 7501SOL    HW123402   5.238   3.994   5.056
 7501SOL    HW223403   5.272   3.837   5.026
 7502SOL     OW23404   3.202   0.649   4.026
 7502SOL    HW123405   3.187   0.723   3.961
 7502SOL    HW223406   3.139   0.659   4.103
 7503SOL     OW23407   1.925   0.428   1.567
 7503SOL    HW123408   1.975   0.513   1.580
 7503SOL    HW223409   1.909   0.384   1.655
 7504SOL     OW23410   1.372   6.820   3.081
 7504SOL    HW123411   1.315   6.902   3.087
 7504SOL    HW223412   1.417   6.804   3.168
 7505SOL     OW23413   1.686   2.481   5.525
 7505SOL    HW123414   1.728   2.572   5.520
 7505SOL    HW223415   1.689   2.438   5.435
 7506SOL     OW23416   5.443   1.027   3.178
 7506SOL    HW123417   5.513   0.986   3.237
 7506SOL    HW223418   5.430   0.971   3.097
 7507SOL     OW23419   0.259   1.538   2.517
 7507SOL    HW123420   0.333   1.577   2.462
 7507SOL    HW223421   0.175   1.590   2.500
 7508SOL     OW23422   1.346   6.843   1.744
 7508SOL    HW123423   1.345   6.936   1.708
 7508SOL    HW223424   1.345   6.778   1.668
 7509SOL     OW23425   5.977   4.690   0.653
 7509SOL    HW123426   5.884   4.684   0.689
 7509SOL    HW223427   5.975   4.694   0.554
 7510SOL     OW23428   4.098   3.662   5.869
 7510SOL    HW123429   4.004   3.669   5.902
 7510SOL    HW223430   4.162   3.683   5.943
 7511SOL     OW23431   2.432   6.240   3.344
 7511SOL    HW123432   2.365   6.314   3.339
 7511SOL    HW223433   2.510   6.262   3.286
 7512SOL     OW23434   3.233   6.800   0.049
 7512SOL    HW123435   3.223   6.751   0.136
 7512SOL    HW223436   3.311   6.863   0.055
 7513SOL     OW23437   2.224   0.850   1.442
 7513SOL    HW123438   2.304   0.790   1.441
 7513SOL    HW223439   2.255   0.946   1.445
 7514SOL     OW23440   2.757   5.737   1.654
 7514SOL    HW123441   2.775   5.706   1.560
 7514SOL    HW223442   2.698   5.670   1.700
 7515SOL     OW23443   6.625   5.086   3.474
 7515SOL    HW123444   6.692   5.128   3.535
 7515SOL    HW223445   6.627   5.133   3.386
 7516SOL     OW23446   0.121   6.317   5.549
 7516SOL    HW123447   0.220   6.316   5.538
 7516SOL    HW223448   0.078   6.356   5.467
 7517SOL     OW23449   0.388   2.758   0.694
 7517SOL    HW123450   0.362   2.838   0.749
 7517SOL    HW223451   0.435   2.692   0.752
 7518SOL     OW23452   4.267   4.955   3.737
 7518SOL    HW123453   4.286   5.029   3.672
 7518SOL    HW223454   4.343   4.890   3.735
 7519SOL     OW23455   0.417   6.203   3.591
 7519SOL    HW123456   0.432   6.133   3.661
 7519SOL    HW223457   0.385   6.160   3.507
 7520SOL     OW23458   2.346   6.810   2.102
 7520SOL    HW123459   2.418   6.860   2.149
 7520SOL    HW223460   2.298   6.751   2.167
 7521SOL     OW23461   4.830   4.375   5.939
 7521SOL    HW123462   4.735   4.384   5.971
 7521SOL    HW223463   4.850   4.278   5.922
 7522SOL     OW23464   1.685   1.155   6.241
 7522SOL    HW123465   1.708   1.059   6.226
 7522SOL    HW223466   1.722   1.210   6.166
 7523SOL     OW23467   5.774   0.442   6.103
 7523SOL    HW123468   5.854   0.385   6.121
 7523SOL    HW223469   5.798   0.514   6.038
 7524SOL     OW23470   1.401   2.647   5.243
 7524SOL    HW123471   1.344   2.710   5.190
 7524SOL    HW223472   1.366   2.642   5.337
 7525SOL     OW23473   3.866   1.102   6.245
 7525SOL    HW123474   3.812   1.186   6.232
 7525SOL    HW223475   3.878   1.085   6.342
 7526SOL     OW23476   2.979   3.478   1.360
 7526SOL    HW123477   3.012   3.384   1.369
 7526SOL    HW223478   2.948   3.511   1.449
 7527SOL     OW23479   2.952   5.966   3.207
 7527SOL    HW123480   3.035   5.911   3.198
 7527SOL    HW223481   2.907   5.944   3.293
 7528SOL     OW23482   5.860   2.529   0.777
 7528SOL    HW123483   5.939   2.468   0.767
 7528SOL    HW223484   5.819   2.515   0.867
 7529SOL     OW23485   4.934   1.479   4.777
 7529SOL    HW123486   4.869   1.415   4.738
 7529SOL    HW223487   4.955   1.551   4.710
 7530SOL     OW23488   0.054   3.113   2.558
 7530SOL    HW123489   0.061   3.204   2.599
 7530SOL    HW223490   0.080   3.118   2.461
 7531SOL     OW23491   5.106   3.173   5.078
 7531SOL    HW123492   5.061   3.116   5.009
 7531SOL    HW223493   5.037   3.225   5.128
 7532SOL     OW23494   4.645   5.823   6.729
 7532SOL    HW123495   4.708   5.899   6.738
 7532SOL    HW223496   4.676   5.762   6.657
 7533SOL     OW23497   3.136   0.831   1.312
 7533SOL    HW123498   3.047   0.846   1.357
 7533SOL    HW223499   3.149   0.899   1.241
 7534SOL     OW23500   4.810   6.546   5.445
 7534SOL    HW123501   4.882   6.614   5.458
 7534SOL    HW223502   4.831   6.491   5.364
 7535SOL     OW23503   1.897   0.631   5.149
 7535SOL    HW123504   1.865   0.709   5.203
 7535SOL    HW223505   1.962   0.578   5.204
 7536SOL     OW23506   4.498   5.039   4.381
 7536SOL    HW123507   4.414   5.010   4.335
 7536SOL    HW223508   4.480   5.050   4.479
 7537SOL     OW23509   3.042   5.543   1.513
 7537SOL    HW123510   2.967   5.531   1.448
 7537SOL    HW223511   3.005   5.548   1.606
 7538SOL     OW23512   1.511   2.436   1.552
 7538SOL    HW123513   1.598   2.445   1.503
 7538SOL    HW223514   1.447   2.506   1.520
 7539SOL     OW23515   1.641   3.965   4.005
 7539SOL    HW123516   1.688   3.886   3.966
 7539SOL    HW223517   1.629   4.035   3.934
 7540SOL     OW23518   4.120   0.511   4.472
 7540SOL    HW123519   4.139   0.568   4.392
 7540SOL    HW223520   4.082   0.424   4.443
 7541SOL     OW23521   0.395   4.744   5.026
 7541SOL    HW123522   0.319   4.750   5.090
 7541SOL    HW223523   0.366   4.777   4.936
 7542SOL     OW23524   0.956   5.085   6.582
 7542SOL    HW123525   1.020   5.013   6.609
 7542SOL    HW223526   0.878   5.044   6.534
 7543SOL     OW23527   3.986   2.123   6.300
 7543SOL    HW123528   4.063   2.090   6.246
 7543SOL    HW223529   4.015   2.140   6.393
 7544SOL     OW23530   6.975   2.563   2.912
 7544SOL    HW123531   6.981   2.635   2.843
 7544SOL    HW223532   6.992   2.474   2.869
 7545SOL     OW23533   0.248   5.521   0.141
 7545SOL    HW123534   0.157   5.481   0.151
 7545SOL    HW223535   0.308   5.488   0.214
 7546SOL     OW23536   3.681   2.561   1.736
 7546SOL    HW123537   3.698   2.630   1.806
 7546SOL    HW223538   3.686   2.470   1.777
 7547SOL     OW23539   4.925   1.922   0.283
 7547SOL    HW123540   4.904   1.878   0.196
 7547SOL    HW223541   4.867   2.002   0.295
 7548SOL     OW23542   4.903   1.371   6.757
 7548SOL    HW123543   4.832   1.431   6.793
 7548SOL    HW223544   4.869   1.326   6.674
 7549SOL     OW23545   4.212   2.916   6.950
 7549SOL    HW123546   4.164   2.840   6.907
 7549SOL    HW223547   4.271   2.882   7.023
 7550SOL     OW23548   2.707   5.224   3.041
 7550SOL    HW123549   2.688   5.128   3.062
 7550SOL    HW223550   2.622   5.276   3.044
 7551SOL     OW23551   5.519   3.706   6.465
 7551SOL    HW123552   5.602   3.676   6.512
 7551SOL    HW223553   5.495   3.798   6.496
 7552SOL     OW23554   1.514   6.128   3.031
 7552SOL    HW123555   1.486   6.072   2.953
 7552SOL    HW223556   1.580   6.078   3.086
 7553SOL     OW23557   4.672   6.388   5.611
 7553SOL    HW123558   4.705   6.437   5.530
 7553SOL    HW223559   4.603   6.443   5.657
 7554SOL     OW23560   4.652   0.821   0.267
 7554SOL    HW123561   4.644   0.861   0.176
 7554SOL    HW223562   4.673   0.892   0.334
 7555SOL     OW23563   2.330   4.772   6.086
 7555SOL    HW123564   2.360   4.676   6.086
 7555SOL    HW223565   2.409   4.832   6.084
 7556SOL     OW23566   2.105   3.071   0.370
 7556SOL    HW123567   2.177   3.140   0.377
 7556SOL    HW223568   2.123   2.996   0.434
 7557SOL     OW23569   5.304   1.196   5.605
 7557SOL    HW123570   5.247   1.161   5.679
 7557SOL    HW223571   5.252   1.197   5.519
 7558SOL     OW23572   1.437   2.523   3.961
 7558SOL    HW123573   1.508   2.543   3.894
 7558SOL    HW223574   1.473   2.533   4.053
 7559SOL     OW23575   5.329   3.722   0.477
 7559SOL    HW123576   5.314   3.740   0.574
 7559SOL    HW223577   5.390   3.793   0.440
 7560SOL     OW23578   5.618   6.953   1.074
 7560SOL    HW123579   5.627   6.925   1.170
 7560SOL    HW223580   5.646   0.025   1.065
 7561SOL     OW23581   0.883   3.084   6.770
 7561SOL    HW123582   0.963   3.116   6.720
 7561SOL    HW223583   0.800   3.122   6.730
 7562SOL     OW23584   0.085   5.735   3.870
 7562SOL    HW123585   7.010   5.718   3.879
 7562SOL    HW223586   0.132   5.705   3.953
 7563SOL     OW23587   3.086   6.722   1.364
 7563SOL    HW123588   3.179   6.712   1.328
 7563SOL    HW223589   3.054   6.815   1.349
 7564SOL     OW23590   4.011   6.956   2.811
 7564SOL    HW123591   3.977   6.950   2.717
 7564SOL    HW223592   4.110   6.965   2.811
 7565SOL     OW23593   5.547   2.693   0.525
 7565SOL    HW123594   5.620   2.625   0.536
 7565SOL    HW223595   5.587   2.780   0.498
 7566SOL     OW23596   6.537   4.385   3.110
 7566SOL    HW123597   6.455   4.443   3.113
 7566SOL    HW223598   6.593   4.411   3.031
 7567SOL     OW23599   1.962   1.901   5.201
 7567SOL    HW123600   1.874   1.871   5.165
 7567SOL    HW223601   1.972   2.000   5.187
 7568SOL     OW23602   5.092   6.163   3.588
 7568SOL    HW123603   5.068   6.260   3.576
 7568SOL    HW223604   5.180   6.145   3.543
 7569SOL     OW23605   3.660   4.877   5.832
 7569SOL    HW123606   3.691   4.814   5.762
 7569SOL    HW223607   3.703   4.966   5.819
 7570SOL     OW23608   5.407   3.787   5.348
 7570SOL    HW123609   5.319   3.827   5.372
 7570SOL    HW223610   5.404   3.688   5.363
 7571SOL     OW23611   4.033   4.801   3.352
 7571SOL    HW123612   4.108   4.741   3.323
 7571SOL    HW223613   3.989   4.840   3.271
 7572SOL     OW23614   4.269   1.330   1.336
 7572SOL    HW123615   4.368   1.327   1.350
 7572SOL    HW223616   4.229   1.401   1.395
 7573SOL     OW23617   0.368   0.406   5.374
 7573SOL    HW123618   0.342   0.499   5.399
 7573SOL    HW223619   0.289   0.357   5.337
 7574SOL     OW23620   5.105   0.361   5.296
 7574SOL    HW123621   5.024   0.315   5.260
 7574SOL    HW223622   5.162   0.392   5.220
 7575SOL     OW23623   5.244   0.798   5.968
 7575SOL    HW123624   5.179   0.865   5.933
 7575SOL    HW223625   5.200   0.708   5.975
 7576SOL     OW23626   4.516   3.586   0.580
 7576SOL    HW123627   4.536   3.594   0.678
 7576SOL    HW223628   4.602   3.579   0.529
 7577SOL     OW23629   0.884   6.825   6.855
 7577SOL    HW123630   0.845   6.833   6.764
 7577SOL    HW223631   0.981   6.849   6.853
 7578SOL     OW23632   2.130   4.750   1.391
 7578SOL    HW123633   2.211   4.792   1.350
 7578SOL    HW223634   2.049   4.805   1.369
 7579SOL     OW23635   0.422   1.074   2.425
 7579SOL    HW123636   0.495   1.006   2.423
 7579SOL    HW223637   0.412   1.108   2.519
 7580SOL     OW23638   0.737   3.956   4.477
 7580SOL    HW123639   0.682   3.882   4.439
 7580SOL    HW223640   0.801   3.919   4.544
 7581SOL     OW23641   6.660   1.612   2.162
 7581SOL    HW123642   6.596   1.689   2.169
 7581SOL    HW223643   6.753   1.646   2.156
 7582SOL     OW23644   4.025   0.895   1.463
 7582SOL    HW123645   3.934   0.883   1.423
 7582SOL    HW223646   4.084   0.820   1.434
 7583SOL     OW23647   6.109   2.985   2.036
 7583SOL    HW123648   6.137   3.002   2.131
 7583SOL    HW223649   6.190   2.982   1.977
 7584SOL     OW23650   3.569   0.147   1.650
 7584SOL    HW123651   3.651   0.201   1.631
 7584SOL    HW223652   3.489   0.208   1.654
 7585SOL     OW23653   1.969   2.702   6.946
 7585SOL    HW123654   2.050   2.757   6.964
 7585SOL    HW223655   1.966   2.625   7.009
 7586SOL     OW23656   3.217   0.502   3.545
 7586SOL    HW123657   3.271   0.506   3.629
 7586SOL    HW223658   3.177   0.411   3.535
 7587SOL     OW23659   2.515   2.520   6.726
 7587SOL    HW123660   2.525   2.426   6.692
 7587SOL    HW223661   2.417   2.540   6.738
 7588SOL     OW23662   1.197   3.025   3.785
 7588SOL    HW123663   1.183   2.926   3.792
 7588SOL    HW223664   1.138   3.071   3.851
 7589SOL     OW23665   0.397   0.353   2.650
 7589SOL    HW123666   0.407   0.450   2.632
 7589SOL    HW223667   0.487   0.313   2.668
 7590SOL     OW23668   3.742   2.453   6.526
 7590SOL    HW123669   3.801   2.376   6.552
 7590SOL    HW223670   3.662   2.418   6.478
 7591SOL     OW23671   6.762   3.451   0.615
 7591SOL    HW123672   6.755   3.522   0.685
 7591SOL    HW223673   6.724   3.365   0.650
 7592SOL     OW23674   6.952   5.207   4.533
 7592SOL    HW123675   6.856   5.188   4.554
 7592SOL    HW223676   6.958   5.283   4.468
 7593SOL     OW23677   6.194   3.306   0.131
 7593SOL    HW123678   6.232   3.218   0.161
 7593SOL    HW223679   6.268   3.362   0.092
 7594SOL     OW23680   1.150   4.678   2.165
 7594SOL    HW123681   1.233   4.692   2.111
 7594SOL    HW223682   1.174   4.631   2.250
 7595SOL     OW23683   6.410   2.845   6.038
 7595SOL    HW123684   6.440   2.867   5.945
 7595SOL    HW223685   6.354   2.920   6.073
 7596SOL     OW23686   3.796   6.370   3.458
 7596SOL    HW123687   3.747   6.333   3.379
 7596SOL    HW223688   3.895   6.365   3.440
 7597SOL     OW23689   2.241   6.656   3.177
 7597SOL    HW123690   2.235   6.718   3.255
 7597SOL    HW223691   2.335   6.654   3.143
 7598SOL     OW23692   0.184   0.986   3.147
 7598SOL    HW123693   0.178   0.915   3.217
 7598SOL    HW223694   0.162   0.946   3.058
 7599SOL     OW23695   5.742   2.035   2.216
 7599SOL    HW123696   5.644   2.020   2.208
 7599SOL    HW223697   5.760   2.113   2.275
 7600SOL     OW23698   1.448   1.704   3.376
 7600SOL    HW123699   1.506   1.784   3.363
 7600SOL    HW223700   1.380   1.700   3.303
 7601SOL     OW23701   1.754   4.651   2.260
 7601SOL    HW123702   1.684   4.711   2.299
 7601SOL    HW223703   1.727   4.556   2.276
 7602SOL     OW23704   2.351   3.724   6.545
 7602SOL    HW123705   2.408   3.724   6.463
 7602SOL    HW223706   2.318   3.817   6.562
 7603SOL     OW23707   1.291   5.399   5.984
 7603SOL    HW123708   1.309   5.314   6.033
 7603SOL    HW223709   1.365   5.464   6.003
 7604SOL     OW23710   2.161   3.975   4.800
 7604SOL    HW123711   2.113   3.976   4.888
 7604SOL    HW223712   2.256   4.003   4.814
 7605SOL     OW23713   2.002   0.945   1.801
 7605SOL    HW123714   2.013   0.924   1.898
 7605SOL    HW223715   2.056   1.026   1.779
 7606SOL     OW23716   6.067   4.144   4.868
 7606SOL    HW123717   6.104   4.051   4.866
 7606SOL    HW223718   5.978   4.144   4.915
 7607SOL     OW23719   3.511   5.482   6.968
 7607SOL    HW123720   3.442   5.553   6.983
 7607SOL    HW223721   3.505   5.449   6.874
 7608SOL     OW23722   3.696   4.179   1.160
 7608SOL    HW123723   3.709   4.135   1.071
 7608SOL    HW223724   3.737   4.122   1.231
 7609SOL     OW23725   1.349   3.075   4.546
 7609SOL    HW123726   1.349   3.174   4.531
 7609SOL    HW223727   1.430   3.035   4.503
 7610SOL     OW23728   4.411   4.419   6.328
 7610SOL    HW123729   4.503   4.402   6.364
 7610SOL    HW223730   4.379   4.508   6.360
 7611SOL     OW23731   6.018   3.644   1.721
 7611SOL    HW123732   5.959   3.694   1.785
 7611SOL    HW223733   6.070   3.710   1.667
 7612SOL     OW23734   4.905   3.248   2.165
 7612SOL    HW123735   4.837   3.182   2.134
 7612SOL    HW223736   4.973   3.201   2.222
 7613SOL     OW23737   6.855   2.761   0.850
 7613SOL    HW123738   6.923   2.835   0.854
 7613SOL    HW223739   6.876   2.701   0.773
 7614SOL     OW23740   4.979   3.601   0.893
 7614SOL    HW123741   4.998   3.572   0.987
 7614SOL    HW223742   4.935   3.526   0.843
 7615SOL     OW23743   3.875   5.280   6.848
 7615SOL    HW123744   3.903   5.374   6.867
 7615SOL    HW223745   3.877   5.226   6.932
 7616SOL     OW23746   5.883   6.283   4.123
 7616SOL    HW123747   5.946   6.331   4.061
 7616SOL    HW223748   5.919   6.286   4.216
 7617SOL     OW23749   4.246   6.427   2.424
 7617SOL    HW123750   4.314   6.474   2.480
 7617SOL    HW223751   4.189   6.368   2.482
 7618SOL     OW23752   6.823   1.793   5.347
 7618SOL    HW123753   6.842   1.722   5.415
 7618SOL    HW223754   6.792   1.877   5.393
 7619SOL     OW23755   6.165   2.969   5.073
 7619SOL    HW123756   6.193   2.874   5.081
 7619SOL    HW223757   6.109   2.981   4.991
 7620SOL     OW23758   4.222   5.781   1.145
 7620SOL    HW123759   4.298   5.800   1.082
 7620SOL    HW223760   4.143   5.837   1.119
 7621SOL     OW23761   6.512   1.451   1.124
 7621SOL    HW123762   6.505   1.402   1.211
 7621SOL    HW223763   6.608   1.472   1.105
 7622SOL     OW23764   4.320   4.862   6.855
 7622SOL    HW123765   4.266   4.907   6.926
 7622SOL    HW223766   4.361   4.931   6.796
 7623SOL     OW23767   5.357   3.579   6.798
 7623SOL    HW123768   5.291   3.626   6.857
 7623SOL    HW223769   5.448   3.586   6.839
 7624SOL     OW23770   0.056   3.341   5.064
 7624SOL    HW123771   0.148   3.305   5.081
 7624SOL    HW223772   7.016   3.266   5.048
 7625SOL     OW23773   5.149   0.326   1.579
 7625SOL    HW123774   5.118   0.351   1.488
 7625SOL    HW223775   5.089   0.366   1.648
 7626SOL     OW23776   6.596   6.925   4.348
 7626SOL    HW123777   6.552   6.839   4.376
 7626SOL    HW223778   6.695   6.910   4.340
 7627SOL     OW23779   5.001   3.453   0.170
 7627SOL    HW123780   4.982   3.356   0.178
 7627SOL    HW223781   4.916   3.502   0.151
 7628SOL     OW23782   3.338   2.090   2.039
 7628SOL    HW123783   3.434   2.116   2.022
 7628SOL    HW223784   3.318   2.100   2.136
 7629SOL     OW23785   0.207   5.683   3.242
 7629SOL    HW123786   0.221   5.778   3.268
 7629SOL    HW223787   0.257   5.623   3.305
 7630SOL     OW23788   0.908   6.938   1.309
 7630SOL    HW123789   0.995   6.958   1.355
 7630SOL    HW223790   0.904   6.986   1.221
 7631SOL     OW23791   0.808   1.260   6.151
 7631SOL    HW123792   0.746   1.338   6.158
 7631SOL    HW223793   0.890   1.286   6.100
 7632SOL     OW23794   4.699   4.115   1.496
 7632SOL    HW123795   4.692   4.179   1.571
 7632SOL    HW223796   4.664   4.157   1.412
 7633SOL     OW23797   5.241   0.153   1.254
 7633SOL    HW123798   5.161   0.211   1.234
 7633SOL    HW223799   5.287   0.130   1.169
 7634SOL     OW23800   1.820   1.661   2.270
 7634SOL    HW123801   1.784   1.608   2.193
 7634SOL    HW223802   1.903   1.709   2.241
 7635SOL     OW23803   3.463   5.384   5.141
 7635SOL    HW123804   3.414   5.312   5.191
 7635SOL    HW223805   3.397   5.437   5.087
 7636SOL     OW23806   1.781   2.811   4.164
 7636SOL    HW123807   1.761   2.805   4.262
 7636SOL    HW223808   1.855   2.747   4.142
 7637SOL     OW23809   2.609   5.687   2.502
 7637SOL    HW123810   2.635   5.757   2.568
 7637SOL    HW223811   2.657   5.704   2.415
 7638SOL     OW23812   2.434   5.771   1.463
 7638SOL    HW123813   2.487   5.785   1.379
 7638SOL    HW223814   2.463   5.838   1.532
 7639SOL     OW23815   0.239   1.706   0.979
 7639SOL    HW123816   0.228   1.668   0.887
 7639SOL    HW223817   0.276   1.636   1.040
 7640SOL     OW23818   2.922   1.190   5.669
 7640SOL    HW123819   2.845   1.252   5.658
 7640SOL    HW223820   2.896   1.113   5.727
 7641SOL     OW23821   1.826   3.451   2.266
 7641SOL    HW123822   1.853   3.375   2.207
 7641SOL    HW223823   1.744   3.426   2.317
 7642SOL     OW23824   3.739   1.865   2.834
 7642SOL    HW123825   3.827   1.878   2.788
 7642SOL    HW223826   3.751   1.879   2.932
 7643SOL     OW23827   4.400   2.415   3.267
 7643SOL    HW123828   4.492   2.432   3.233
 7643SOL    HW223829   4.346   2.368   3.196
 7644SOL     OW23830   4.736   1.870   1.612
 7644SOL    HW123831   4.774   1.942   1.554
 7644SOL    HW223832   4.675   1.911   1.681
 7645SOL     OW23833   4.902   4.161   5.359
 7645SOL    HW123834   4.825   4.164   5.296
 7645SOL    HW223835   4.934   4.254   5.378
 7646SOL     OW23836   1.506   3.547   3.734
 7646SOL    HW123837   1.437   3.530   3.804
 7646SOL    HW223838   1.487   3.491   3.653
 7647SOL     OW23839   6.453   2.724   3.556
 7647SOL    HW123840   6.398   2.788   3.501
 7647SOL    HW223841   6.539   2.706   3.508
 7648SOL     OW23842   3.137   1.495   3.037
 7648SOL    HW123843   3.167   1.486   2.942
 7648SOL    HW223844   3.217   1.514   3.095
 7649SOL     OW23845   0.950   0.827   3.470
 7649SOL    HW123846   0.868   0.861   3.423
 7649SOL    HW223847   0.965   0.880   3.553
 7650SOL     OW23848   5.243   1.350   0.577
 7650SOL    HW123849   5.317   1.297   0.536
 7650SOL    HW223850   5.245   1.443   0.541
 7651SOL     OW23851   2.022   0.682   3.807
 7651SOL    HW123852   2.032   0.623   3.887
 7651SOL    HW223853   2.063   0.637   3.727
 7652SOL     OW23854   5.477   3.271   5.344
 7652SOL    HW123855   5.415   3.266   5.266
 7652SOL    HW223856   5.443   3.212   5.418
 7653SOL     OW23857   0.838   1.896   6.727
 7653SOL    HW123858   0.797   1.838   6.657
 7653SOL    HW223859   0.910   1.953   6.687
 7654SOL     OW23860   4.733   2.838   4.137
 7654SOL    HW123861   4.810   2.877   4.189
 7654SOL    HW223862   4.702   2.754   4.182
 7655SOL     OW23863   4.440   6.540   3.161
 7655SOL    HW123864   4.379   6.619   3.158
 7655SOL    HW223865   4.535   6.570   3.171
 7656SOL     OW23866   3.429   3.798   6.191
 7656SOL    HW123867   3.515   3.800   6.242
 7656SOL    HW223868   3.354   3.770   6.252
 7657SOL     OW23869   1.180   2.147   3.624
 7657SOL    HW123870   1.156   2.219   3.689
 7657SOL    HW223871   1.255   2.178   3.566
 7658SOL     OW23872   3.238   0.137   6.620
 7658SOL    HW123873   3.324   0.111   6.577
 7658SOL    HW223874   3.208   0.065   6.683
 7659SOL     OW23875   5.827   4.889   6.708
 7659SOL    HW123876   5.883   4.912   6.788
 7659SOL    HW223877   5.757   4.824   6.735
 7660SOL     OW23878   0.324   5.820   3.432
 7660SOL    HW123879   0.378   5.901   3.410
 7660SOL    HW223880   0.305   5.818   3.530
 7661SOL     OW23881   5.697   2.466   4.866
 7661SOL    HW123882   5.614   2.484   4.919
 7661SOL    HW223883   5.774   2.452   4.928
 7662SOL     OW23884   1.606   3.061   4.434
 7662SOL    HW123885   1.628   3.153   4.402
 7662SOL    HW223886   1.689   3.005   4.434
 7663SOL     OW23887   6.710   5.487   5.608
 7663SOL    HW123888   6.703   5.566   5.669
 7663SOL    HW223889   6.649   5.499   5.530
 7664SOL     OW23890   4.249   0.281   1.087
 7664SOL    HW123891   4.306   0.338   1.146
 7664SOL    HW223892   4.253   0.186   1.119
 7665SOL     OW23893   6.056   0.533   4.203
 7665SOL    HW123894   6.061   0.618   4.151
 7665SOL    HW223895   6.148   0.506   4.231
 7666SOL     OW23896   0.456   5.480   1.925
 7666SOL    HW123897   0.522   5.516   1.859
 7666SOL    HW223898   0.364   5.508   1.899
 7667SOL     OW23899   4.228   6.774   2.129
 7667SOL    HW123900   4.191   6.854   2.081
 7667SOL    HW223901   4.170   6.752   2.207
 7668SOL     OW23902   3.322   4.744   0.612
 7668SOL    HW123903   3.316   4.772   0.708
 7668SOL    HW223904   3.416   4.751   0.581
 7669SOL     OW23905   4.724   1.192   4.910
 7669SOL    HW123906   4.811   1.142   4.907
 7669SOL    HW223907   4.717   1.250   4.829
 7670SOL     OW23908   0.704   4.573   0.604
 7670SOL    HW123909   0.742   4.664   0.622
 7670SOL    HW223910   0.660   4.538   0.687
 7671SOL     OW23911   3.890   1.393   1.654
 7671SOL    HW123912   3.852   1.478   1.691
 7671SOL    HW223913   3.895   1.324   1.727
 7672SOL     OW23914   0.175   6.585   2.093
 7672SOL    HW123915   0.160   6.539   2.005
 7672SOL    HW223916   0.267   6.564   2.125
 7673SOL     OW23917   1.286   6.475   1.033
 7673SOL    HW123918   1.292   6.376   1.046
 7673SOL    HW223919   1.350   6.504   0.961
 7674SOL     OW23920   5.233   0.983   3.350
 7674SOL    HW123921   5.242   0.888   3.381
 7674SOL    HW223922   5.319   1.012   3.307
 7675SOL     OW23923   6.072   6.614   2.681
 7675SOL    HW123924   6.003   6.577   2.619
 7675SOL    HW223925   6.046   6.596   2.775
 7676SOL     OW23926   2.447   2.188   0.446
 7676SOL    HW123927   2.470   2.280   0.477
 7676SOL    HW223928   2.349   2.173   0.457
 7677SOL     OW23929   0.629   5.079   1.309
 7677SOL    HW123930   0.647   5.079   1.407
 7677SOL    HW223931   0.658   4.992   1.270
 7678SOL     OW23932   2.235   2.930   5.384
 7678SOL    HW123933   2.297   3.009   5.391
 7678SOL    HW223934   2.271   2.866   5.316
 7679SOL     OW23935   3.392   6.402   5.777
 7679SOL    HW123936   3.370   6.397   5.875
 7679SOL    HW223937   3.350   6.484   5.738
 7680SOL     OW23938   1.239   1.024   0.354
 7680SOL    HW123939   1.169   0.972   0.402
 7680SOL    HW223940   1.325   1.019   0.405
 7681SOL     OW23941   2.592   0.779   0.849
 7681SOL    HW123942   2.640   0.733   0.923
 7681SOL    HW223943   2.502   0.808   0.879
 7682SOL     OW23944   3.441   0.514   1.550
 7682SOL    HW123945   3.422   0.418   1.526
 7682SOL    HW223946   3.475   0.519   1.643
 7683SOL     OW23947   5.910   2.046   4.484
 7683SOL    HW123948   5.819   2.081   4.458
 7683SOL    HW223949   5.946   2.100   4.560
 7684SOL     OW23950   3.329   1.775   1.686
 7684SOL    HW123951   3.358   1.723   1.767
 7684SOL    HW223952   3.324   1.872   1.709
 7685SOL     OW23953   2.532   1.837   5.737
 7685SOL    HW123954   2.589   1.755   5.748
 7685SOL    HW223955   2.589   1.918   5.745
 7686SOL     OW23956   6.902   6.638   3.080
 7686SOL    HW123957   6.846   6.719   3.066
 7686SOL    HW223958   6.941   6.608   2.993
 7687SOL     OW23959   6.028   5.066   3.904
 7687SOL    HW123960   5.980   5.146   3.866
 7687SOL    HW223961   6.112   5.096   3.949
 7688SOL     OW23962   1.196   6.127   5.202
 7688SOL    HW123963   1.136   6.203   5.179
 7688SOL    HW223964   1.266   6.117   5.131
 7689SOL     OW23965   5.588   6.469   2.376
 7689SOL    HW123966   5.567   6.373   2.391
 7689SOL    HW223967   5.509   6.525   2.402
 7690SOL     OW23968   5.744   4.722   0.436
 7690SOL    HW123969   5.771   4.788   0.365
 7690SOL    HW223970   5.696   4.770   0.509
 7691SOL     OW23971   5.146   3.941   4.610
 7691SOL    HW123972   5.231   3.959   4.659
 7691SOL    HW223973   5.166   3.921   4.514
 7692SOL     OW23974   0.851   6.205   1.824
 7692SOL    HW123975   0.862   6.213   1.924
 7692SOL    HW223976   0.869   6.294   1.782
 7693SOL     OW23977   3.256   6.656   1.808
 7693SOL    HW123978   3.233   6.559   1.821
 7693SOL    HW223979   3.184   6.700   1.754
 7694SOL     OW23980   5.219   3.950   4.345
 7694SOL    HW123981   5.193   3.860   4.311
 7694SOL    HW223982   5.318   3.957   4.350
 7695SOL     OW23983   4.890   6.695   0.754
 7695SOL    HW123984   4.932   6.784   0.737
 7695SOL    HW223985   4.823   6.677   0.683
 7696SOL     OW23986   0.369   0.645   6.326
 7696SOL    HW123987   0.454   0.697   6.340
 7696SOL    HW223988   0.328   0.671   6.239
 7697SOL     OW23989   2.516   6.663   3.083
 7697SOL    HW123990   2.550   6.731   3.148
 7697SOL    HW223991   2.570   6.667   2.999
 7698SOL     OW23992   6.026   1.636   4.235
 7698SOL    HW123993   5.931   1.660   4.215
 7698SOL    HW223994   6.043   1.542   4.205
 7699SOL     OW23995   3.358   5.861   6.235
 7699SOL    HW123996   3.367   5.777   6.287
 7699SOL    HW223997   3.302   5.844   6.154
 7700SOL     OW23998   4.521   5.980   2.806
 7700SOL    HW123999   4.433   5.977   2.757
 7700SOL    HW224000   4.541   6.073   2.834
 7701SOL     OW24001   6.510   2.087   0.667
 7701SOL    HW124002   6.512   2.176   0.621
 7701SOL    HW224003   6.467   2.019   0.607
 7702SOL     OW24004   3.524   6.520   4.780
 7702SOL    HW124005   3.571   6.510   4.692
 7702SOL    HW224006   3.505   6.429   4.817
 7703SOL     OW24007   6.262   6.000   6.440
 7703SOL    HW124008   6.221   5.924   6.490
 7703SOL    HW224009   6.271   5.976   6.343
 7704SOL     OW24010   5.981   0.565   4.770
 7704SOL    HW124011   6.013   0.540   4.678
 7704SOL    HW224012   5.902   0.625   4.762
 7705SOL     OW24013   2.503   6.270   0.673
 7705SOL    HW124014   2.560   6.195   0.708
 7705SOL    HW224015   2.434   6.232   0.611
 7706SOL     OW24016   3.732   3.483   4.815
 7706SOL    HW124017   3.784   3.400   4.793
 7706SOL    HW224018   3.773   3.561   4.768
 7707SOL     OW24019   0.237   4.874   5.675
 7707SOL    HW124020   0.314   4.937   5.690
 7707SOL    HW224021   0.257   4.786   5.719
 7708SOL     OW24022   0.743   6.721   5.739
 7708SOL    HW124023   0.693   6.795   5.695
 7708SOL    HW224024   0.761   6.744   5.834
 7709SOL     OW24025   6.531   4.433   2.353
 7709SOL    HW124026   6.583   4.371   2.293
 7709SOL    HW224027   6.568   4.428   2.445
 7710SOL     OW24028   3.048   2.189   0.394
 7710SOL    HW124029   3.122   2.255   0.379
 7710SOL    HW224030   2.966   2.220   0.346
 7711SOL     OW24031   5.450   6.267   6.191
 7711SOL    HW124032   5.350   6.264   6.196
 7711SOL    HW224033   5.477   6.305   6.102
 7712SOL     OW24034   0.117   4.998   1.969
 7712SOL    HW124035   0.170   5.074   2.007
 7712SOL    HW224036   0.178   4.924   1.944
 7713SOL     OW24037   1.493   4.173   0.937
 7713SOL    HW124038   1.580   4.223   0.937
 7713SOL    HW224039   1.428   4.218   0.875
 7714SOL     OW24040   6.939   4.296   4.909
 7714SOL    HW124041   6.942   4.215   4.851
 7714SOL    HW224042   6.999   4.283   4.988
 7715SOL     OW24043   3.090   2.563   0.278
 7715SOL    HW124044   3.152   2.635   0.250
 7715SOL    HW224045   3.141   2.493   0.330
 7716SOL     OW24046   0.295   4.799   1.850
 7716SOL    HW124047   0.227   4.751   1.795
 7716SOL    HW224048   0.341   4.868   1.794
 7717SOL     OW24049   1.885   0.658   5.826
 7717SOL    HW124050   1.978   0.664   5.863
 7717SOL    HW224051   1.839   0.579   5.866
 7718SOL     OW24052   6.533   3.596   3.433
 7718SOL    HW124053   6.506   3.522   3.372
 7718SOL    HW224054   6.486   3.680   3.406
 7719SOL     OW24055   0.242   4.415   5.337
 7719SOL    HW124056   0.326   4.423   5.284
 7719SOL    HW224057   0.257   4.450   5.429
 7720SOL     OW24058   6.974   1.529   6.493
 7720SOL    HW124059   6.910   1.570   6.558
 7720SOL    HW224060   6.955   1.564   6.401
 7721SOL     OW24061   0.203   5.582   1.772
 7721SOL    HW124062   0.123   5.640   1.791
 7721SOL    HW224063   0.266   5.631   1.713
 7722SOL     OW24064   1.395   4.142   3.330
 7722SOL    HW124065   1.444   4.219   3.371
 7722SOL    HW224066   1.445   4.058   3.349
 7723SOL     OW24067   4.748   3.807   6.248
 7723SOL    HW124068   4.656   3.770   6.242
 7723SOL    HW224069   4.815   3.733   6.235
 7724SOL     OW24070   2.643   3.738   1.272
 7724SOL    HW124071   2.652   3.707   1.177
 7724SOL    HW224072   2.602   3.665   1.326
 7725SOL     OW24073   6.273   1.828   2.561
 7725SOL    HW124074   6.288   1.834   2.660
 7725SOL    HW224075   6.193   1.770   2.543
 7726SOL     OW24076   1.647   5.264   6.084
 7726SOL    HW124077   1.626   5.290   5.990
 7726SOL    HW224078   1.746   5.264   6.098
 7727SOL     OW24079   0.194   2.422   2.816
 7727SOL    HW124080   0.285   2.446   2.782
 7727SOL    HW224081   0.197   2.414   2.916
 7728SOL     OW24082   2.144   3.172   5.176
 7728SOL    HW124083   2.177   3.244   5.237
 7728SOL    HW224084   2.219   3.139   5.119
 7729SOL     OW24085   6.306   2.033   1.478
 7729SOL    HW124086   6.368   2.099   1.520
 7729SOL    HW224087   6.211   2.060   1.498
 7730SOL     OW24088   6.703   5.001   0.278
 7730SOL    HW124089   6.681   5.056   0.198
 7730SOL    HW224090   6.763   5.053   0.339
 7731SOL     OW24091   6.363   1.344   6.922
 7731SOL    HW124092   6.383   1.299   7.009
 7731SOL    HW224093   6.365   1.276   6.848
 7732SOL     OW24094   5.093   6.788   0.096
 7732SOL    HW124095   5.090   6.793   0.196
 7732SOL    HW224096   5.092   6.881   0.058
 7733SOL     OW24097   5.176   5.786   2.423
 7733SOL    HW124098   5.274   5.790   2.408
 7733SOL    HW224099   5.156   5.783   2.521
 7734SOL     OW24100   1.641   5.078   4.082
 7734SOL    HW124101   1.688   5.111   4.164
 7734SOL    HW224102   1.559   5.134   4.066
 7735SOL     OW24103   5.055   6.397   6.574
 7735SOL    HW124104   5.082   6.383   6.670
 7735SOL    HW224105   5.125   6.450   6.527
 7736SOL     OW24106   3.010   3.123   6.785
 7736SOL    HW124107   3.015   3.028   6.752
 7736SOL    HW224108   3.076   3.135   6.859
 7737SOL     OW24109   2.635   6.421   2.575
 7737SOL    HW124110   2.605   6.395   2.483
 7737SOL    HW224111   2.656   6.518   2.578
 7738SOL     OW24112   3.051   5.390   0.187
 7738SOL    HW124113   2.995   5.349   0.115
 7738SOL    HW224114   3.134   5.336   0.199
 7739SOL     OW24115   6.860   2.247   1.416
 7739SOL    HW124116   6.920   2.256   1.337
 7739SOL    HW224117   6.776   2.299   1.401
 7740SOL     OW24118   2.706   1.179   3.118
 7740SOL    HW124119   2.802   1.205   3.123
 7740SOL    HW224120   2.661   1.232   3.046
 7741SOL     OW24121   7.010   5.014   6.032
 7741SOL    HW124122   6.993   5.087   5.965
 7741SOL    HW224123   6.983   4.926   5.992
 7742SOL     OW24124   3.986   1.888   2.733
 7742SOL    HW124125   4.040   1.972   2.733
 7742SOL    HW224126   4.028   1.821   2.672
 7743SOL     OW24127   5.392   2.039   6.854
 7743SOL    HW124128   5.309   2.052   6.909
 7743SOL    HW224129   5.387   1.950   6.808
 7744SOL     OW24130   0.423   0.187   4.246
 7744SOL    HW124131   0.372   0.230   4.171
 7744SOL    HW224132   0.440   0.255   4.317
 7745SOL     OW24133   4.039   1.346   6.751
 7745SOL    HW124134   4.023   1.444   6.748
 7745SOL    HW224135   4.042   1.314   6.846
 7746SOL     OW24136   0.987   0.178   0.812
 7746SOL    HW124137   1.011   0.130   0.728
 7746SOL    HW224138   0.910   0.240   0.795
 7747SOL     OW24139   5.640   5.948   1.428
 7747SOL    HW124140   5.733   5.979   1.408
 7747SOL    HW224141   5.635   5.849   1.415
 7748SOL     OW24142   3.156   4.012   4.559
 7748SOL    HW124143   3.215   3.989   4.482
 7748SOL    HW224144   3.074   3.955   4.557
 7749SOL     OW24145   3.306   3.488   5.347
 7749SOL    HW124146   3.366   3.562   5.375
 7749SOL    HW224147   3.259   3.514   5.262
 7750SOL     OW24148   6.926   5.945   0.994
 7750SOL    HW124149   6.863   6.008   1.038
 7750SOL    HW224150   6.964   5.987   0.911
 7751SOL     OW24151   1.975   2.764   2.534
 7751SOL    HW124152   2.051   2.739   2.475
 7751SOL    HW224153   1.993   2.731   2.627
 7752SOL     OW24154   5.847   6.463   5.517
 7752SOL    HW124155   5.914   6.528   5.482
 7752SOL    HW224156   5.827   6.484   5.613
 7753SOL     OW24157   1.931   0.607   4.517
 7753SOL    HW124158   1.925   0.612   4.617
 7753SOL    HW224159   1.890   0.689   4.477
 7754SOL     OW24160   4.426   6.304   1.917
 7754SOL    HW124161   4.382   6.372   1.976
 7754SOL    HW224162   4.519   6.288   1.949
 7755SOL     OW24163   0.941   2.199   6.000
 7755SOL    HW124164   1.038   2.202   6.025
 7755SOL    HW224165   0.905   2.292   5.998
 7756SOL     OW24166   2.864   6.172   2.155
 7756SOL    HW124167   2.906   6.189   2.066
 7756SOL    HW224168   2.930   6.192   2.227
 7757SOL     OW24169   5.853   5.516   5.763
 7757SOL    HW124170   5.833   5.611   5.741
 7757SOL    HW224171   5.949   5.508   5.791
 7758SOL     OW24172   1.634   1.375   5.696
 7758SOL    HW124173   1.554   1.405   5.748
 7758SOL    HW224174   1.707   1.442   5.706
 7759SOL     OW24175   0.857   1.954   5.398
 7759SOL    HW124176   0.926   1.932   5.329
 7759SOL    HW224177   0.902   1.975   5.485
 7760SOL     OW24178   5.435   3.419   2.788
 7760SOL    HW124179   5.401   3.391   2.698
 7760SOL    HW224180   5.437   3.340   2.849
 7761SOL     OW24181   0.604   0.651   5.696
 7761SOL    HW124182   0.621   0.634   5.599
 7761SOL    HW224183   0.581   0.564   5.741
 7762SOL     OW24184   4.530   0.435   3.945
 7762SOL    HW124185   4.589   0.514   3.929
 7762SOL    HW224186   4.461   0.459   4.014
 7763SOL     OW24187   0.984   1.067   6.943
 7763SOL    HW124188   0.962   0.975   6.977
 7763SOL    HW224189   1.079   1.069   6.911
 7764SOL     OW24190   3.516   3.259   3.427
 7764SOL    HW124191   3.452   3.183   3.416
 7764SOL    HW224192   3.608   3.230   3.400
 7765SOL     OW24193   6.474   2.885   4.906
 7765SOL    HW124194   6.531   2.963   4.934
 7765SOL    HW224195   6.532   2.818   4.859
 7766SOL     OW24196   6.629   3.080   6.704
 7766SOL    HW124197   6.582   3.028   6.633
 7766SOL    HW224198   6.709   3.028   6.735
 7767SOL     OW24199   4.729   5.836   2.715
 7767SOL    HW124200   4.674   5.912   2.751
 7767SOL    HW224201   4.825   5.861   2.716
 7768SOL     OW24202   4.590   4.657   2.198
 7768SOL    HW124203   4.641   4.571   2.204
 7768SOL    HW224204   4.524   4.652   2.123
 7769SOL     OW24205   4.791   2.876   3.162
 7769SOL    HW124206   4.827   2.958   3.204
 7769SOL    HW224207   4.780   2.804   3.231
 7770SOL     OW24208   1.761   4.238   2.776
 7770SOL    HW124209   1.671   4.282   2.775
 7770SOL    HW224210   1.749   4.139   2.778
 7771SOL     OW24211   3.380   2.145   5.214
 7771SOL    HW124212   3.327   2.216   5.167
 7771SOL    HW224213   3.426   2.185   5.293
 7772SOL     OW24214   5.200   0.410   2.136
 7772SOL    HW124215   5.256   0.405   2.218
 7772SOL    HW224216   5.104   0.421   2.161
 7773SOL     OW24217   2.454   6.114   5.121
 7773SOL    HW124218   2.403   6.126   5.206
 7773SOL    HW224219   2.391   6.107   5.044
 7774SOL     OW24220   5.518   2.144   5.492
 7774SOL    HW124221   5.492   2.049   5.473
 7774SOL    HW224222   5.533   2.192   5.406
 7775SOL     OW24223   5.021   5.767   1.164
 7775SOL    HW124224   4.947   5.703   1.146
 7775SOL    HW224225   5.036   5.825   1.084
 7776SOL     OW24226   1.888   5.094   6.828
 7776SOL    HW124227   1.791   5.082   6.805
 7776SOL    HW224228   1.944   5.050   6.759
 7777SOL     OW24229   0.078   6.898   4.637
 7777SOL    HW124230   7.004   6.919   4.636
 7777SOL    HW224231   0.106   6.864   4.547
 7778SOL     OW24232   5.644   4.055   1.076
 7778SOL    HW124233   5.684   4.130   1.024
 7778SOL    HW224234   5.710   3.980   1.083
 7779SOL     OW24235   2.444   2.725   1.777
 7779SOL    HW124236   2.531   2.774   1.770
 7779SOL    HW224237   2.448   2.642   1.721
 7780SOL     OW24238   0.600   4.574   5.081
 7780SOL    HW124239   0.680   4.629   5.106
 7780SOL    HW224240   0.531   4.633   5.039
 7781SOL     OW24241   1.052   5.083   0.213
 7781SOL    HW124242   0.957   5.109   0.228
 7781SOL    HW224243   1.059   4.985   0.197
 7782SOL     OW24244   6.367   5.164   4.316
 7782SOL    HW124245   6.333   5.220   4.392
 7782SOL    HW224246   6.332   5.071   4.325
 7783SOL     OW24247   1.184   5.816   5.247
 7783SOL    HW124248   1.220   5.837   5.156
 7783SOL    HW224249   1.122   5.889   5.275
 7784SOL     OW24250   3.304   2.039   1.786
 7784SOL    HW124251   3.295   2.060   1.883
 7784SOL    HW224252   3.350   2.115   1.739
 7785SOL     OW24253   2.320   6.123   4.481
 7785SOL    HW124254   2.406   6.145   4.528
 7785SOL    HW224255   2.244   6.169   4.526
 7786SOL     OW24256   2.802   6.531   0.247
 7786SOL    HW124257   2.895   6.522   0.213
 7786SOL    HW224258   2.803   6.533   0.347
 7787SOL     OW24259   1.888   2.780   6.033
 7787SOL    HW124260   1.980   2.748   6.009
 7787SOL    HW224261   1.864   2.745   6.124
 7788SOL     OW24262   2.329   5.161   1.120
 7788SOL    HW124263   2.398   5.113   1.174
 7788SOL    HW224264   2.301   5.104   1.043
 7789SOL     OW24265   2.080   6.793   6.487
 7789SOL    HW124266   1.995   6.822   6.442
 7789SOL    HW224267   2.089   6.693   6.479
 7790SOL     OW24268   5.818   5.944   3.365
 7790SOL    HW124269   5.845   5.849   3.383
 7790SOL    HW224270   5.892   6.006   3.390
 7791SOL     OW24271   2.621   5.265   3.494
 7791SOL    HW124272   2.546   5.330   3.479
 7791SOL    HW224273   2.642   5.218   3.408
 7792SOL     OW24274   2.022   5.432   4.911
 7792SOL    HW124275   1.979   5.522   4.915
 7792SOL    HW224276   2.002   5.382   4.995
 7793SOL     OW24277   2.831   0.919   0.849
 7793SOL    HW124278   2.783   0.852   0.792
 7793SOL    HW224279   2.900   0.872   0.905
 7794SOL     OW24280   5.935   3.754   3.256
 7794SOL    HW124281   5.872   3.832   3.261
 7794SOL    HW224282   5.942   3.723   3.161
 7795SOL     OW24283   1.980   4.174   5.720
 7795SOL    HW124284   2.071   4.152   5.756
 7795SOL    HW224285   1.978   4.270   5.690
 7796SOL     OW24286   3.767   3.342   3.797
 7796SOL    HW124287   3.674   3.365   3.766
 7796SOL    HW224288   3.769   3.247   3.827
 7797SOL     OW24289   1.690   6.875   2.588
 7797SOL    HW124290   1.772   6.898   2.640
 7797SOL    HW224291   1.671   6.948   2.522
 7798SOL     OW24292   1.946   3.852   5.403
 7798SOL    HW124293   2.037   3.815   5.384
 7798SOL    HW224294   1.909   3.809   5.486
 7799SOL     OW24295   1.314   6.038   2.483
 7799SOL    HW124296   1.385   5.993   2.538
 7799SOL    HW224297   1.349   6.126   2.450
 7800SOL     OW24298   0.629   5.176   1.021
 7800SOL    HW124299   0.724   5.146   1.010
 7800SOL    HW224300   0.599   5.160   1.115
 7801SOL     OW24301   2.184   1.964   1.971
 7801SOL    HW124302   2.115   2.033   1.990
 7801SOL    HW224303   2.261   1.975   2.034
 7802SOL     OW24304   5.894   2.820   0.698
 7802SOL    HW124305   5.843   2.880   0.760
 7802SOL    HW224306   5.889   2.726   0.731
 7803SOL     OW24307   4.860   2.178   5.903
 7803SOL    HW124308   4.933   2.174   5.835
 7803SOL    HW224309   4.822   2.270   5.905
 7804SOL     OW24310   4.456   1.791   3.848
 7804SOL    HW124311   4.474   1.886   3.872
 7804SOL    HW224312   4.532   1.734   3.880
 7805SOL     OW24313   5.664   2.904   1.403
 7805SOL    HW124314   5.711   2.989   1.428
 7805SOL    HW224315   5.722   2.826   1.425
 7806SOL     OW24316   6.113   2.157   0.520
 7806SOL    HW124317   6.163   2.172   0.606
 7806SOL    HW224318   6.155   2.082   0.470
 7807SOL     OW24319   0.990   4.889   5.371
 7807SOL    HW124320   1.000   4.860   5.466
 7807SOL    HW224321   0.898   4.867   5.339
 7808SOL     OW24322   6.261   3.379   4.340
 7808SOL    HW124323   6.276   3.281   4.327
 7808SOL    HW224324   6.183   3.409   4.285
 7809SOL     OW24325   3.130   5.047   4.292
 7809SOL    HW124326   3.229   5.049   4.280
 7809SOL    HW224327   3.086   5.092   4.214
 7810SOL     OW24328   3.648   0.100   4.290
 7810SOL    HW124329   3.677   0.091   4.194
 7810SOL    HW224330   3.557   0.061   4.301
 7811SOL     OW24331   1.778   5.385   2.054
 7811SOL    HW124332   1.777   5.395   1.955
 7811SOL    HW224333   1.836   5.307   2.079
 7812SOL     OW24334   6.874   1.839   3.924
 7812SOL    HW124335   6.957   1.790   3.895
 7812SOL    HW224336   6.875   1.931   3.885
 7813SOL     OW24337   5.015   2.217   0.105
 7813SOL    HW124338   5.060   2.213   0.194
 7813SOL    HW224339   5.019   2.127   0.062
 7814SOL     OW24340   0.519   3.832   3.624
 7814SOL    HW124341   0.514   3.779   3.540
 7814SOL    HW224342   0.596   3.800   3.679
 7815SOL     OW24343   5.698   1.513   5.339
 7815SOL    HW124344   5.643   1.430   5.349
 7815SOL    HW224345   5.727   1.544   5.429
 7816SOL     OW24346   1.704   2.396   6.280
 7816SOL    HW124347   1.633   2.384   6.211
 7816SOL    HW224348   1.681   2.345   6.362
 7817SOL     OW24349   4.976   4.489   3.227
 7817SOL    HW124350   4.885   4.460   3.198
 7817SOL    HW224351   4.968   4.549   3.307
 7818SOL     OW24352   4.194   1.283   1.770
 7818SOL    HW124353   4.284   1.321   1.745
 7818SOL    HW224354   4.143   1.263   1.687
 7819SOL     OW24355   6.985   3.790   2.518
 7819SOL    HW124356   6.955   3.825   2.606
 7819SOL    HW224357   0.042   3.730   2.531
 7820SOL     OW24358   0.796   1.546   5.563
 7820SOL    HW124359   0.823   1.566   5.657
 7820SOL    HW224360   0.804   1.448   5.546
 7821SOL     OW24361   5.820   5.586   0.142
 7821SOL    HW124362   5.746   5.597   0.076
 7821SOL    HW224363   5.861   5.675   0.162
 7822SOL     OW24364   1.923   2.349   6.105
 7822SOL    HW124365   1.855   2.372   6.175
 7822SOL    HW224366   1.918   2.251   6.085
 7823SOL     OW24367   2.617   3.556   5.451
 7823SOL    HW124368   2.628   3.472   5.398
 7823SOL    HW224369   2.615   3.634   5.390
 7824SOL     OW24370   5.919   0.524   3.921
 7824SOL    HW124371   5.873   0.564   4.001
 7824SOL    HW224372   5.973   0.445   3.951
 7825SOL     OW24373   1.345   2.960   0.962
 7825SOL    HW124374   1.416   2.929   1.026
 7825SOL    HW224375   1.275   2.889   0.954
 7826SOL     OW24376   5.930   1.272   0.468
 7826SOL    HW124377   5.887   1.185   0.443
 7826SOL    HW224378   5.886   1.308   0.550
 7827SOL     OW24379   2.977   4.981   1.238
 7827SOL    HW124380   3.002   4.897   1.287
 7827SOL    HW224381   2.982   5.058   1.301
 7828SOL     OW24382   1.038   4.656   6.956
 7828SOL    HW124383   1.133   4.688   6.956
 7828SOL    HW224384   1.034   4.564   6.917
 7829SOL     OW24385   2.321   3.210   1.427
 7829SOL    HW124386   2.261   3.291   1.424
 7829SOL    HW224387   2.340   3.180   1.334
 7830SOL     OW24388   2.187   4.446   5.443
 7830SOL    HW124389   2.262   4.509   5.423
 7830SOL    HW224390   2.210   4.355   5.407
 7831SOL     OW24391   1.573   6.003   1.423
 7831SOL    HW124392   1.604   6.069   1.354
 7831SOL    HW224393   1.474   5.993   1.418
 7832SOL     OW24394   4.839   1.187   3.169
 7832SOL    HW124395   4.742   1.196   3.192
 7832SOL    HW224396   4.870   1.095   3.190
 7833SOL     OW24397   0.752   0.580   6.447
 7833SOL    HW124398   0.839   0.600   6.403
 7833SOL    HW224399   0.767   0.520   6.526
 7834SOL     OW24400   6.496   1.606   4.089
 7834SOL    HW124401   6.449   1.560   4.164
 7834SOL    HW224402   6.586   1.639   4.121
 7835SOL     OW24403   3.030   1.660   5.276
 7835SOL    HW124404   3.058   1.613   5.360
 7835SOL    HW224405   3.107   1.665   5.213
 7836SOL     OW24406   3.286   2.970   4.585
 7836SOL    HW124407   3.313   2.971   4.681
 7836SOL    HW224408   3.191   2.999   4.577
 7837SOL     OW24409   6.398   5.814   0.914
 7837SOL    HW124410   6.346   5.820   0.828
 7837SOL    HW224411   6.490   5.850   0.899
 7838SOL     OW24412   4.123   6.812   0.080
 7838SOL    HW124413   4.118   6.763   0.166
 7838SOL    HW224414   4.081   6.902   0.090
 7839SOL     OW24415   6.319   4.935   4.469
 7839SOL    HW124416   6.409   4.901   4.497
 7839SOL    HW224417   6.275   4.979   4.546
 7840SOL     OW24418   6.108   2.936   3.898
 7840SOL    HW124419   6.073   3.029   3.894
 7840SOL    HW224420   6.066   2.881   3.825
 7841SOL     OW24421   3.744   2.039   6.769
 7841SOL    HW124422   3.666   2.099   6.786
 7841SOL    HW224423   3.714   1.943   6.770
 7842SOL     OW24424   2.126   1.857   2.883
 7842SOL    HW124425   2.045   1.804   2.910
 7842SOL    HW224426   2.101   1.922   2.811
 7843SOL     OW24427   6.336   5.666   2.686
 7843SOL    HW124428   6.247   5.646   2.646
 7843SOL    HW224429   6.391   5.582   2.689
 7844SOL     OW24430   3.844   6.267   2.218
 7844SOL    HW124431   3.767   6.286   2.158
 7844SOL    HW224432   3.898   6.351   2.230
 7845SOL     OW24433   5.204   1.728   3.743
 7845SOL    HW124434   5.148   1.739   3.661
 7845SOL    HW224435   5.165   1.656   3.801
 7846SOL     OW24436   1.042   0.676   2.634
 7846SOL    HW124437   1.087   0.765   2.624
 7846SOL    HW224438   0.946   0.690   2.655
 7847SOL     OW24439   0.137   1.932   2.973
 7847SOL    HW124440   0.164   1.857   3.034
 7847SOL    HW224441   0.056   1.906   2.922
 7848SOL     OW24442   3.470   3.265   0.527
 7848SOL    HW124443   3.430   3.322   0.455
 7848SOL    HW224444   3.398   3.208   0.568
 7849SOL     OW24445   5.572   4.358   3.651
 7849SOL    HW124446   5.522   4.314   3.577
 7849SOL    HW224447   5.630   4.292   3.698
 7850SOL     OW24448   0.274   2.345   5.455
 7850SOL    HW124449   0.180   2.349   5.487
 7850SOL    HW224450   0.308   2.251   5.460
 7851SOL     OW24451   6.686   1.291   2.084
 7851SOL    HW124452   6.747   1.221   2.046
 7851SOL    HW224453   6.741   1.360   2.132
 7852SOL     OW24454   2.321   1.660   5.644
 7852SOL    HW124455   2.369   1.578   5.672
 7852SOL    HW224456   2.379   1.740   5.659
 7853SOL     OW24457   4.441   1.997   1.200
 7853SOL    HW124458   4.366   2.019   1.137
 7853SOL    HW224459   4.409   1.930   1.268
 7854SOL     OW24460   3.872   3.527   6.949
 7854SOL    HW124461   3.931   3.495   0.000
 7854SOL    HW224462   3.924   3.589   6.890
 7855SOL     OW24463   4.665   5.257   4.668
 7855SOL    HW124464   4.765   5.256   4.658
 7855SOL    HW224465   4.631   5.163   4.665
 7856SOL     OW24466   5.973   4.750   4.925
 7856SOL    HW124467   6.048   4.738   4.861
 7856SOL    HW224468   5.911   4.820   4.891
 7857SOL     OW24469   5.750   1.930   5.263
 7857SOL    HW124470   5.693   1.924   5.344
 7857SOL    HW224471   5.724   1.859   5.198
 7858SOL     OW24472   5.305   5.992   4.151
 7858SOL    HW124473   5.373   6.037   4.208
 7858SOL    HW224474   5.216   5.992   4.197
 7859SOL     OW24475   4.816   2.481   6.535
 7859SOL    HW124476   4.737   2.540   6.551
 7859SOL    HW224477   4.836   2.429   6.619
 7860SOL     OW24478   3.771   0.478   2.295
 7860SOL    HW124479   3.762   0.577   2.298
 7860SOL    HW224480   3.788   0.449   2.200
 7861SOL     OW24481   3.607   4.890   1.699
 7861SOL    HW124482   3.684   4.860   1.643
 7861SOL    HW224483   3.586   4.819   1.767
 7862SOL     OW24484   2.536   3.583   1.461
 7862SOL    HW124485   2.465   3.620   1.521
 7862SOL    HW224486   2.602   3.533   1.516
 7863SOL     OW24487   1.018   5.178   3.966
 7863SOL    HW124488   1.087   5.127   4.018
 7863SOL    HW224489   0.934   5.124   3.960
 7864SOL     OW24490   0.435   5.558   4.919
 7864SOL    HW124491   0.493   5.567   4.838
 7864SOL    HW224492   0.374   5.479   4.907
 7865SOL     OW24493   5.913   6.532   3.823
 7865SOL    HW124494   5.984   6.505   3.758
 7865SOL    HW224495   5.826   6.490   3.798
 7866SOL     OW24496   1.627   1.295   6.471
 7866SOL    HW124497   1.709   1.345   6.498
 7866SOL    HW224498   1.649   1.232   6.396
 7867SOL     OW24499   5.934   6.515   3.485
 7867SOL    HW124500   5.940   6.447   3.412
 7867SOL    HW224501   5.839   6.542   3.498
 7868SOL     OW24502   5.909   6.823   1.920
 7868SOL    HW124503   5.868   6.752   1.863
 7868SOL    HW224504   5.838   6.868   1.974
 7869SOL     OW24505   6.448   3.895   0.003
 7869SOL    HW124506   6.479   3.990   0.011
 7869SOL    HW224507   6.511   3.845   6.967
 7870SOL     OW24508   4.078   4.799   3.962
 7870SOL    HW124509   4.063   4.726   3.895
 7870SOL    HW224510   4.174   4.827   3.959
 7871SOL     OW24511   4.971   2.840   2.321
 7871SOL    HW124512   4.906   2.793   2.262
 7871SOL    HW224513   4.996   2.927   2.281
 7872SOL     OW24514   2.355   4.555   3.414
 7872SOL    HW124515   2.450   4.528   3.400
 7872SOL    HW224516   2.328   4.534   3.508
 7873SOL     OW24517   5.547   0.581   5.820
 7873SOL    HW124518   5.494   0.586   5.735
 7873SOL    HW224519   5.618   0.652   5.819
 7874SOL     OW24520   5.304   1.818   0.268
 7874SOL    HW124521   5.252   1.823   0.183
 7874SOL    HW224522   5.398   1.848   0.252
 7875SOL     OW24523   5.194   2.741   6.634
 7875SOL    HW124524   5.163   2.646   6.632
 7875SOL    HW224525   5.127   2.797   6.684
 7876SOL     OW24526   1.036   0.372   4.685
 7876SOL    HW124527   1.103   0.357   4.612
 7876SOL    HW224528   0.953   0.320   4.667
 7877SOL     OW24529   0.814   2.395   3.241
 7877SOL    HW124530   0.809   2.302   3.204
 7877SOL    HW224531   0.776   2.459   3.174
 7878SOL     OW24532   5.928   5.051   4.338
 7878SOL    HW124533   5.962   4.958   4.349
 7878SOL    HW224534   5.859   5.053   4.265
 7879SOL     OW24535   4.733   4.854   4.102
 7879SOL    HW124536   4.691   4.934   4.146
 7879SOL    HW224537   4.811   4.883   4.048
 7880SOL     OW24538   1.836   4.938   0.827
 7880SOL    HW124539   1.753   4.969   0.873
 7880SOL    HW224540   1.812   4.875   0.753
 7881SOL     OW24541   6.104   4.546   4.629
 7881SOL    HW124542   6.171   4.600   4.681
 7881SOL    HW224543   6.133   4.539   4.534
 7882SOL     OW24544   0.981   3.172   2.359
 7882SOL    HW124545   0.947   3.077   2.362
 7882SOL    HW224546   0.903   3.235   2.364
 7883SOL     OW24547   1.028   0.604   0.696
 7883SOL    HW124548   0.965   0.681   0.691
 7883SOL    HW224549   1.035   0.573   0.791
 7884SOL     OW24550   1.968   3.903   4.077
 7884SOL    HW124551   1.975   3.815   4.031
 7884SOL    HW224552   1.981   3.891   4.175
 7885SOL     OW24553   6.422   4.908   2.049
 7885SOL    HW124554   6.420   4.993   2.101
 7885SOL    HW224555   6.339   4.855   2.069
 7886SOL     OW24556   3.576   5.243   0.094
 7886SOL    HW124557   3.514   5.176   0.054
 7886SOL    HW224558   3.559   5.333   0.053
 7887SOL     OW24559   3.310   2.544   5.368
 7887SOL    HW124560   3.280   2.638   5.354
 7887SOL    HW224561   3.260   2.484   5.305
 7888SOL     OW24562   6.725   0.115   4.784
 7888SOL    HW124563   6.766   0.079   4.868
 7888SOL    HW224564   6.710   0.214   4.794
 7889SOL     OW24565   1.594   5.114   0.503
 7889SOL    HW124566   1.597   5.153   0.595
 7889SOL    HW224567   1.671   5.149   0.450
 7890SOL     OW24568   0.955   2.939   3.490
 7890SOL    HW124569   0.998   3.013   3.542
 7890SOL    HW224570   0.904   2.880   3.553
 7891SOL     OW24571   2.273   4.450   3.800
 7891SOL    HW124572   2.349   4.471   3.861
 7891SOL    HW224573   2.289   4.361   3.757
 7892SOL     OW24574   2.085   0.952   3.825
 7892SOL    HW124575   2.085   0.853   3.834
 7892SOL    HW224576   2.047   0.993   3.909
 7893SOL     OW24577   6.562   6.185   2.286
 7893SOL    HW124578   6.572   6.121   2.210
 7893SOL    HW224579   6.479   6.239   2.273
 7894SOL     OW24580   4.052   6.557   0.231
 7894SOL    HW124581   4.088   6.617   0.302
 7894SOL    HW224582   3.971   6.510   0.265
 7895SOL     OW24583   5.604   0.703   5.380
 7895SOL    HW124584   5.672   0.719   5.309
 7895SOL    HW224585   5.527   0.764   5.367
 7896SOL     OW24586   4.172   3.667   1.331
 7896SOL    HW124587   4.233   3.640   1.406
 7896SOL    HW224588   4.177   3.599   1.258
 7897SOL     OW24589   3.119   3.393   0.579
 7897SOL    HW124590   3.121   3.458   0.503
 7897SOL    HW224591   3.025   3.360   0.592
 7898SOL     OW24592   4.060   1.789   3.115
 7898SOL    HW124593   4.056   1.712   3.052
 7898SOL    HW224594   3.983   1.851   3.098
 7899SOL     OW24595   5.642   0.210   1.573
 7899SOL    HW124596   5.681   0.120   1.592
 7899SOL    HW224597   5.711   0.268   1.531
 7900SOL     OW24598   1.332   4.939   2.304
 7900SOL    HW124599   1.275   4.893   2.236
 7900SOL    HW224600   1.374   5.020   2.264
 7901SOL     OW24601   4.904   1.731   6.505
 7901SOL    HW124602   4.930   1.818   6.462
 7901SOL    HW224603   4.986   1.677   6.523
 7902SOL     OW24604   5.882   6.712   1.352
 7902SOL    HW124605   5.956   6.777   1.365
 7902SOL    HW224606   5.905   6.649   1.278
 7903SOL     OW24607   5.231   1.112   1.216
 7903SOL    HW124608   5.157   1.048   1.236
 7903SOL    HW224609   5.319   1.065   1.224
 7904SOL     OW24610   5.481   6.996   3.474
 7904SOL    HW124611   5.435   6.979   3.562
 7904SOL    HW224612   5.549   0.045   3.486
 7905SOL     OW24613   5.171   2.289   0.308
 7905SOL    HW124614   5.260   2.323   0.280
 7905SOL    HW224615   5.148   2.323   0.399
 7906SOL     OW24616   0.795   5.841   0.677
 7906SOL    HW124617   0.862   5.782   0.633
 7906SOL    HW224618   0.774   5.919   0.618
 7907SOL     OW24619   5.204   1.872   2.474
 7907SOL    HW124620   5.167   1.960   2.445
 7907SOL    HW224621   5.304   1.874   2.468
 7908SOL     OW24622   1.650   1.115   5.773
 7908SOL    HW124623   1.739   1.073   5.792
 7908SOL    HW224624   1.661   1.214   5.764
 7909SOL     OW24625   5.207   4.560   4.626
 7909SOL    HW124626   5.190   4.473   4.671
 7909SOL    HW224627   5.231   4.629   4.695
 7910SOL     OW24628   2.995   3.516   5.821
 7910SOL    HW124629   3.086   3.503   5.861
 7910SOL    HW224630   3.001   3.509   5.722
 7911SOL     OW24631   2.148   3.892   0.068
 7911SOL    HW124632   2.085   3.900   7.014
 7911SOL    HW224633   2.097   3.868   0.150
 7912SOL     OW24634   0.019   5.121   0.925
 7912SOL    HW124635   0.102   5.097   0.975
 7912SOL    HW224636   0.017   5.220   0.909
 7913SOL     OW24637   1.450   4.688   0.718
 7913SOL    HW124638   1.404   4.603   0.695
 7913SOL    HW224639   1.438   4.708   0.816
 7914SOL     OW24640   0.446   4.141   0.231
 7914SOL    HW124641   0.507   4.068   0.201
 7914SOL    HW224642   0.364   4.101   0.273
 7915SOL     OW24643   4.981   2.312   1.604
 7915SOL    HW124644   4.970   2.408   1.577
 7915SOL    HW224645   5.073   2.297   1.638
 7916SOL     OW24646   0.872   4.186   4.946
 7916SOL    HW124647   0.810   4.265   4.935
 7916SOL    HW224648   0.819   4.102   4.938
 7917SOL     OW24649   4.018   3.442   4.706
 7917SOL    HW124650   3.993   3.346   4.692
 7917SOL    HW224651   3.951   3.501   4.660
 7918SOL     OW24652   0.176   1.468   5.641
 7918SOL    HW124653   0.122   1.461   5.558
 7918SOL    HW224654   0.269   1.497   5.619
 7919SOL     OW24655   2.290   4.162   3.174
 7919SOL    HW124656   2.231   4.235   3.141
 7919SOL    HW224657   2.282   4.156   3.273
 7920SOL     OW24658   0.123   6.495   0.621
 7920SOL    HW124659   0.137   6.580   0.570
 7920SOL    HW224660   0.097   6.516   0.715
 7921SOL     OW24661   5.397   6.464   1.107
 7921SOL    HW124662   5.321   6.527   1.119
 7921SOL    HW224663   5.410   6.412   1.191
 7922SOL     OW24664   6.891   6.758   0.551
 7922SOL    HW124665   6.809   6.712   0.585
 7922SOL    HW224666   6.925   6.709   0.471
 7923SOL     OW24667   3.661   6.829   1.364
 7923SOL    HW124668   3.666   6.841   1.265
 7923SOL    HW224669   3.655   6.732   1.386
 7924SOL     OW24670   4.286   6.923   1.808
 7924SOL    HW124671   4.247   6.953   1.896
 7924SOL    HW224672   4.279   6.824   1.802
 7925SOL     OW24673   1.033   1.446   6.244
 7925SOL    HW124674   0.946   1.418   6.284
 7925SOL    HW224675   1.108   1.399   6.291
 7926SOL     OW24676   4.777   1.826   5.249
 7926SOL    HW124677   4.840   1.883   5.196
 7926SOL    HW224678   4.769   1.737   5.204
 7927SOL     OW24679   4.422   5.468   2.549
 7927SOL    HW124680   4.486   5.544   2.545
 7927SOL    HW224681   4.329   5.501   2.535
 7928SOL     OW24682   1.255   1.830   4.961
 7928SOL    HW124683   1.155   1.833   4.960
 7928SOL    HW224684   1.285   1.734   4.958
 7929SOL     OW24685   4.505   4.625   5.660
 7929SOL    HW124686   4.576   4.596   5.724
 7929SOL    HW224687   4.545   4.644   5.571
 7930SOL     OW24688   4.104   5.404   4.744
 7930SOL    HW124689   4.201   5.422   4.763
 7930SOL    HW224690   4.065   5.350   4.819
 7931SOL     OW24691   2.436   2.692   0.024
 7931SOL    HW124692   2.404   2.600   0.046
 7931SOL    HW224693   2.530   2.689   7.014
 7932SOL     OW24694   1.498   6.631   6.471
 7932SOL    HW124695   1.559   6.677   6.407
 7932SOL    HW224696   1.552   6.590   6.545
 7933SOL     OW24697   0.414   5.873   5.775
 7933SOL    HW124698   0.377   5.857   5.866
 7933SOL    HW224699   0.512   5.857   5.775
 7934SOL     OW24700   2.490   5.399   6.791
 7934SOL    HW124701   2.450   5.353   6.712
 7934SOL    HW224702   2.418   5.444   6.844
 7935SOL     OW24703   6.081   6.004   0.434
 7935SOL    HW124704   6.141   6.083   0.449
 7935SOL    HW224705   6.133   5.931   0.389
 7936SOL     OW24706   3.883   6.016   2.320
 7936SOL    HW124707   3.844   6.020   2.412
 7936SOL    HW224708   3.878   6.107   2.278
 7937SOL     OW24709   6.711   6.284   3.274
 7937SOL    HW124710   6.700   6.327   3.185
 7937SOL    HW224711   6.690   6.186   3.267
 7938SOL     OW24712   6.361   5.208   3.751
 7938SOL    HW124713   6.408   5.291   3.721
 7938SOL    HW224714   6.311   5.227   3.835
 7939SOL     OW24715   1.542   3.171   5.442
 7939SOL    HW124716   1.580   3.143   5.354
 7939SOL    HW224717   1.448   3.203   5.429
 7940SOL     OW24718   1.821   3.312   1.863
 7940SOL    HW124719   1.721   3.322   1.862
 7940SOL    HW224720   1.845   3.216   1.850
 7941SOL     OW24721   5.449   1.081   0.819
 7941SOL    HW124722   5.416   1.133   0.740
 7941SOL    HW224723   5.494   1.143   0.883
 7942SOL     OW24724   6.693   5.895   2.547
 7942SOL    HW124725   6.593   5.896   2.540
 7942SOL    HW224726   6.723   5.974   2.600
 7943SOL     OW24727   6.202   3.545   0.291
 7943SOL    HW124728   6.208   3.460   0.238
 7943SOL    HW224729   6.152   3.613   0.238
 7944SOL     OW24730   0.274   2.525   1.451
 7944SOL    HW124731   0.176   2.514   1.436
 7944SOL    HW224732   0.324   2.484   1.375
 7945SOL     OW24733   5.808   5.355   1.217
 7945SOL    HW124734   5.784   5.450   1.196
 7945SOL    HW224735   5.735   5.294   1.186
 7946SOL     OW24736   2.161   1.063   5.359
 7946SOL    HW124737   2.213   1.014   5.289
 7946SOL    HW224738   2.135   1.154   5.325
 7947SOL     OW24739   4.209   2.086   6.119
 7947SOL    HW124740   4.255   1.999   6.136
 7947SOL    HW224741   4.213   2.107   6.021
 7948SOL     OW24742   1.050   6.811   0.866
 7948SOL    HW124743   1.122   6.880   0.864
 7948SOL    HW224744   1.059   6.756   0.949
 7949SOL     OW24745   4.490   4.760   4.973
 7949SOL    HW124746   4.445   4.823   4.911
 7949SOL    HW224747   4.429   4.683   4.993
 7950SOL     OW24748   5.541   5.181   4.307
 7950SOL    HW124749   5.598   5.234   4.370
 7950SOL    HW224750   5.589   5.172   4.219
 7951SOL     OW24751   2.004   4.174   1.784
 7951SOL    HW124752   1.995   4.260   1.733
 7951SOL    HW224753   2.086   4.126   1.753
 7952SOL     OW24754   0.815   3.451   0.002
 7952SOL    HW124755   0.903   3.494   0.022
 7952SOL    HW224756   0.822   3.398   6.941
 7953SOL     OW24757   2.242   2.454   4.270
 7953SOL    HW124758   2.155   2.470   4.318
 7953SOL    HW224759   2.285   2.542   4.249
 7954SOL     OW24760   4.204   4.036   6.052
 7954SOL    HW124761   4.109   4.012   6.070
 7954SOL    HW224762   4.239   4.093   6.126
 7955SOL     OW24763   1.412   6.655   6.807
 7955SOL    HW124764   1.339   6.701   6.858
 7955SOL    HW224765   1.399   6.556   6.812
 7956SOL     OW24766   3.784   6.030   2.574
 7956SOL    HW124767   3.831   6.082   2.646
 7956SOL    HW224768   3.686   6.046   2.580
 7957SOL     OW24769   1.133   0.752   2.108
 7957SOL    HW124770   1.155   0.842   2.072
 7957SOL    HW224771   1.037   0.731   2.089
 7958SOL     OW24772   3.377   4.981   4.535
 7958SOL    HW124773   3.395   5.062   4.592
 7958SOL    HW224774   3.299   4.931   4.573
 7959SOL     OW24775   4.369   5.873   0.857
 7959SOL    HW124776   4.401   5.934   0.784
 7959SOL    HW224777   4.394   5.913   0.946
 7960SOL     OW24778   2.706   1.123   6.992
 7960SOL    HW124779   2.625   1.067   7.007
 7960SOL    HW224780   2.748   1.100   6.904
 7961SOL     OW24781   0.191   0.985   1.145
 7961SOL    HW124782   0.120   1.052   1.124
 7961SOL    HW224783   0.178   0.949   1.237
 7962SOL     OW24784   1.131   0.626   6.966
 7962SOL    HW124785   1.102   0.539   7.005
 7962SOL    HW224786   1.167   0.685   0.015
 7963SOL     OW24787   6.642   6.700   4.027
 7963SOL    HW124788   6.582   6.625   4.057
 7963SOL    HW224789   6.731   6.663   4.001
 7964SOL     OW24790   0.355   4.856   3.543
 7964SOL    HW124791   0.430   4.798   3.577
 7964SOL    HW224792   0.343   4.841   3.445
 7965SOL     OW24793   3.863   2.340   5.962
 7965SOL    HW124794   3.776   2.293   5.974
 7965SOL    HW224795   3.877   2.405   6.037
 7966SOL     OW24796   1.299   2.979   5.524
 7966SOL    HW124797   1.274   3.066   5.480
 7966SOL    HW224798   1.394   2.958   5.503
 7967SOL     OW24799   2.724   6.613   3.451
 7967SOL    HW124800   2.663   6.673   3.504
 7967SOL    HW224801   2.775   6.554   3.513
 7968SOL     OW24802   1.926   3.021   3.897
 7968SOL    HW124803   1.886   3.035   3.807
 7968SOL    HW224804   2.008   2.964   3.888
 7969SOL     OW24805   4.106   6.040   0.497
 7969SOL    HW124806   4.195   5.996   0.512
 7969SOL    HW224807   4.117   6.139   0.498
 7970SOL     OW24808   6.756   2.915   2.868
 7970SOL    HW124809   6.658   2.935   2.869
 7970SOL    HW224810   6.777   2.849   2.939
 7971SOL     OW24811   4.172   1.975   0.577
 7971SOL    HW124812   4.164   2.053   0.516
 7971SOL    HW224813   4.264   1.973   0.617
 7972SOL     OW24814   1.768   3.332   0.825
 7972SOL    HW124815   1.828   3.267   0.779
 7972SOL    HW224816   1.775   3.421   0.780
 7973SOL     OW24817   4.149   4.973   4.256
 7973SOL    HW124818   4.069   5.013   4.212
 7973SOL    HW224819   4.223   4.964   4.188
 7974SOL     OW24820   6.194   1.494   5.480
 7974SOL    HW124821   6.178   1.576   5.425
 7974SOL    HW224822   6.233   1.422   5.422
 7975SOL     OW24823   5.810   1.540   2.361
 7975SOL    HW124824   5.755   1.564   2.281
 7975SOL    HW224825   5.884   1.479   2.334
 7976SOL     OW24826   0.918   0.791   6.065
 7976SOL    HW124827   0.925   0.718   6.134
 7976SOL    HW224828   0.876   0.872   6.107
 7977SOL     OW24829   4.910   6.428   2.058
 7977SOL    HW124830   4.914   6.477   1.971
 7977SOL    HW224831   4.948   6.337   2.047
 7978SOL     OW24832   6.029   3.788   6.688
 7978SOL    HW124833   6.127   3.766   6.687
 7978SOL    HW224834   6.007   3.848   6.611
 7979SOL     OW24835   4.179   6.053   5.421
 7979SOL    HW124836   4.217   6.017   5.506
 7979SOL    HW224837   4.085   6.084   5.437
 7980SOL     OW24838   2.785   5.276   6.525
 7980SOL    HW124839   2.881   5.248   6.522
 7980SOL    HW224840   2.727   5.196   6.507
 7981SOL     OW24841   0.650   5.603   1.776
 7981SOL    HW124842   0.730   5.543   1.783
 7981SOL    HW224843   0.657   5.660   1.694
 7982SOL     OW24844   0.247   1.625   0.139
 7982SOL    HW124845   0.255   1.575   0.225
 7982SOL    HW224846   0.326   1.604   0.080
 7983SOL     OW24847   5.921   2.010   1.665
 7983SOL    HW124848   5.974   2.080   1.617
 7983SOL    HW224849   5.847   2.054   1.717
 7984SOL     OW24850   1.568   1.000   1.145
 7984SOL    HW124851   1.540   1.079   1.090
 7984SOL    HW224852   1.487   0.961   1.189
 7985SOL     OW24853   3.151   0.802   3.810
 7985SOL    HW124854   3.054   0.779   3.805
 7985SOL    HW224855   3.171   0.876   3.745
 7986SOL     OW24856   3.192   1.498   0.007
 7986SOL    HW124857   3.133   1.454   0.075
 7986SOL    HW224858   3.135   1.539   6.958
 7987SOL     OW24859   1.571   2.706   6.165
 7987SOL    HW124860   1.627   2.638   6.118
 7987SOL    HW224861   1.630   2.780   6.198
 7988SOL     OW24862   1.017   2.250   3.939
 7988SOL    HW124863   1.024   2.258   4.039
 7988SOL    HW224864   0.984   2.158   3.916
 7989SOL     OW24865   3.409   2.819   5.369
 7989SOL    HW124866   3.427   2.810   5.467
 7989SOL    HW224867   3.365   2.907   5.351
 7990SOL     OW24868   0.090   2.973   3.684
 7990SOL    HW124869   0.083   2.920   3.768
 7990SOL    HW224870   0.000   3.013   3.662
 7991SOL     OW24871   5.843   6.802   3.795
 7991SOL    HW124872   5.892   6.716   3.814
 7991SOL    HW224873   5.897   6.879   3.830
 7992SOL     OW24874   1.844   6.553   1.598
 7992SOL    HW124875   1.902   6.633   1.609
 7992SOL    HW224876   1.748   6.580   1.611
 7993SOL     OW24877   0.280   6.796   6.274
 7993SOL    HW124878   0.240   6.886   6.256
 7993SOL    HW224879   0.316   6.793   6.367
 7994SOL     OW24880   4.487   6.322   3.319
 7994SOL    HW124881   4.467   6.387   3.246
 7994SOL    HW224882   4.586   6.313   3.329
 7995SOL     OW24883   4.647   5.245   3.730
 7995SOL    HW124884   4.644   5.310   3.654
 7995SOL    HW224885   4.556   5.238   3.771
 7996SOL     OW24886   3.428   0.114   4.683
 7996SOL    HW124887   3.342   0.113   4.633
 7996SOL    HW224888   3.486   0.188   4.650
 7997SOL     OW24889   0.372   1.625   1.711
 7997SOL    HW124890   0.357   1.720   1.681
 7997SOL    HW224891   0.459   1.592   1.676
 7998SOL     OW24892   3.249   5.765   1.454
 7998SOL    HW124893   3.154   5.734   1.450
 7998SOL    HW224894   3.252   5.865   1.452
 7999SOL     OW24895   0.568   0.081   6.205
 7999SOL    HW124896   0.509   0.143   6.256
 7999SOL    HW224897   0.517   7.022   6.181
 8000SOL     OW24898   5.320   0.244   6.868
 8000SOL    HW124899   5.304   0.207   6.960
 8000SOL    HW224900   5.411   0.286   6.865
 8001SOL     OW24901   3.465   6.027   1.149
 8001SOL    HW124902   3.504   5.943   1.186
 8001SOL    HW224903   3.442   6.089   1.223
 8002SOL     OW24904   0.858   2.457   5.966
 8002SOL    HW124905   0.846   2.492   6.059
 8002SOL    HW224906   0.917   2.520   5.915
 8003SOL     OW24907   3.234   5.291   2.971
 8003SOL    HW124908   3.158   5.320   3.029
 8003SOL    HW224909   3.203   5.278   2.877
 8004SOL     OW24910   2.067   3.244   3.806
 8004SOL    HW124911   2.097   3.256   3.711
 8004SOL    HW224912   2.031   3.152   3.817
 8005SOL     OW24913   3.304   0.245   1.897
 8005SOL    HW124914   3.343   0.163   1.938
 8005SOL    HW224915   3.226   0.219   1.840
 8006SOL     OW24916   1.812   0.142   6.828
 8006SOL    HW124917   1.800   0.068   6.893
 8006SOL    HW224918   1.798   0.230   6.874
 8007SOL     OW24919   6.355   0.726   4.436
 8007SOL    HW124920   6.386   0.751   4.528
 8007SOL    HW224921   6.379   0.799   4.372
 8008SOL     OW24922   4.468   5.786   5.957
 8008SOL    HW124923   4.405   5.750   5.888
 8008SOL    HW224924   4.520   5.862   5.918
 8009SOL     OW24925   5.754   1.191   3.213
 8009SOL    HW124926   5.712   1.222   3.298
 8009SOL    HW224927   5.696   1.215   3.136
 8010SOL     OW24928   0.732   1.151   6.858
 8010SOL    HW124929   0.818   1.109   6.886
 8010SOL    HW224930   0.684   1.091   6.794
 8011SOL     OW24931   3.401   2.211   0.880
 8011SOL    HW124932   3.348   2.254   0.808
 8011SOL    HW224933   3.493   2.250   0.882
 8012SOL     OW24934   1.667   4.075   1.340
 8012SOL    HW124935   1.666   3.976   1.325
 8012SOL    HW224936   1.644   4.095   1.435
 8013SOL     OW24937   1.086   5.293   3.583
 8013SOL    HW124938   1.143   5.264   3.507
 8013SOL    HW224939   1.001   5.241   3.582
 8014SOL     OW24940   1.054   6.688   5.118
 8014SOL    HW124941   1.144   6.732   5.127
 8014SOL    HW224942   1.062   6.607   5.060
 8015SOL     OW24943   2.428   0.979   0.282
 8015SOL    HW124944   2.404   0.971   0.378
 8015SOL    HW224945   2.417   1.074   0.253
 8016SOL     OW24946   5.582   0.248   5.841
 8016SOL    HW124947   5.677   0.219   5.841
 8016SOL    HW224948   5.570   0.327   5.901
 8017SOL     OW24949   6.003   0.059   0.939
 8017SOL    HW124950   6.077   0.002   0.904
 8017SOL    HW224951   5.970   0.021   1.026
 8018SOL     OW24952   3.183   1.999   5.432
 8018SOL    HW124953   3.239   1.968   5.356
 8018SOL    HW224954   3.094   1.952   5.430
 8019SOL     OW24955   2.269   4.392   6.381
 8019SOL    HW124956   2.316   4.323   6.325
 8019SOL    HW224957   2.211   4.448   6.322
 8020SOL     OW24958   5.912   0.204   0.709
 8020SOL    HW124959   5.954   0.187   0.798
 8020SOL    HW224960   5.812   0.198   0.718
 8021SOL     OW24961   1.467   2.417   1.127
 8021SOL    HW124962   1.468   2.516   1.140
 8021SOL    HW224963   1.533   2.392   1.057
 8022SOL     OW24964   5.436   6.388   2.753
 8022SOL    HW124965   5.364   6.338   2.705
 8022SOL    HW224966   5.417   6.387   2.851
 8023SOL     OW24967   6.056   5.675   3.005
 8023SOL    HW124968   6.061   5.575   2.998
 8023SOL    HW224969   6.127   5.716   2.949
 8024SOL     OW24970   2.882   5.136   6.792
 8024SOL    HW124971   2.846   5.207   6.852
 8024SOL    HW224972   2.875   5.165   6.697
 8025SOL     OW24973   2.345   6.612   0.090
 8025SOL    HW124974   2.371   6.696   0.042
 8025SOL    HW224975   2.427   6.563   0.120
 8026SOL     OW24976   0.852   4.465   6.697
 8026SOL    HW124977   0.929   4.466   6.761
 8026SOL    HW224978   0.816   4.372   6.689
 8027SOL     OW24979   4.789   1.022   5.609
 8027SOL    HW124980   4.834   1.020   5.520
 8027SOL    HW224981   4.815   1.106   5.657
 8028SOL     OW24982   2.909   5.466   4.648
 8028SOL    HW124983   2.920   5.448   4.550
 8028SOL    HW224984   2.852   5.395   4.689
 8029SOL     OW24985   5.078   3.118   1.511
 8029SOL    HW124986   5.139   3.045   1.479
 8029SOL    HW224987   5.023   3.084   1.586
 8030SOL     OW24988   4.174   4.529   0.866
 8030SOL    HW124989   4.160   4.622   0.832
 8030SOL    HW224990   4.142   4.464   0.796
 8031SOL     OW24991   5.589   6.901   2.512
 8031SOL    HW124992   5.526   6.828   2.486
 8031SOL    HW224993   5.675   6.891   2.462
 8032SOL     OW24994   6.464   5.071   0.424
 8032SOL    HW124995   6.532   5.064   0.351
 8032SOL    HW224996   6.473   4.992   0.485
 8033SOL     OW24997   5.105   2.179   5.731
 8033SOL    HW124998   5.134   2.275   5.742
 8033SOL    HW224999   5.184   2.119   5.743
 8034SOL     OW25000   5.808   6.797   4.717
 8034SOL    HW125001   5.875   6.746   4.772
 8034SOL    HW225002   5.747   6.848   4.778
 8035SOL     OW25003   4.994   1.705   4.389
 8035SOL    HW125004   5.025   1.794   4.356
 8035SOL    HW225005   5.006   1.636   4.317
 8036SOL     OW25006   0.771   4.234   2.923
 8036SOL    HW125007   0.790   4.211   2.828
 8036SOL    HW225008   0.680   4.199   2.948
 8037SOL     OW25009   1.548   3.004   1.160
 8037SOL    HW125010   1.484   3.039   1.228
 8037SOL    HW225011   1.585   3.081   1.108
 8038SOL     OW25012   3.661   0.091   2.245
 8038SOL    HW125013   3.702   0.166   2.194
 8038SOL    HW225014   3.564   0.112   2.262
 8039SOL     OW25015   0.787   1.826   4.268
 8039SOL    HW125016   0.848   1.759   4.309
 8039SOL    HW225017   0.758   1.892   4.337
 8040SOL     OW25018   1.661   6.072   6.977
 8040SOL    HW125019   1.609   6.126   0.021
 8040SOL    HW225020   1.672   5.979   7.012
 8041SOL     OW25021   3.114   1.518   1.930
 8041SOL    HW125022   3.103   1.419   1.927
 8041SOL    HW225023   3.024   1.562   1.925
 8042SOL     OW25024   2.906   3.388   3.737
 8042SOL    HW125025   2.917   3.459   3.806
 8042SOL    HW225026   2.923   3.426   3.646
 8043SOL     OW25027   4.123   6.761   2.397
 8043SOL    HW125028   4.172   6.841   2.431
 8043SOL    HW225029   4.092   6.706   2.475
 8044SOL     OW25030   4.015   2.812   1.213
 8044SOL    HW125031   4.105   2.767   1.208
 8044SOL    HW225032   3.999   2.843   1.306
 8045SOL     OW25033   5.057   1.234   2.095
 8045SOL    HW125034   5.089   1.302   2.029
 8045SOL    HW225035   5.100   1.250   2.184
 8046SOL     OW25036   0.462   5.194   0.584
 8046SOL    HW125037   0.503   5.242   0.662
 8046SOL    HW225038   0.454   5.096   0.606
 8047SOL     OW25039   4.050   5.538   4.209
 8047SOL    HW125040   4.119   5.601   4.173
 8047SOL    HW225041   4.072   5.517   4.305
 8048SOL     OW25042   5.166   1.199   5.869
 8048SOL    HW125043   5.257   1.184   5.907
 8048SOL    HW225044   5.103   1.130   5.905
 8049SOL     OW25045   0.681   0.064   6.957
 8049SOL    HW125046   0.584   0.037   6.959
 8049SOL    HW225047   0.737   7.007   6.938
 8050SOL     OW25048   1.840   3.628   2.990
 8050SOL    HW125049   1.800   3.711   3.028
 8050SOL    HW225050   1.940   3.635   2.992
 8051SOL     OW25051   4.344   5.763   2.770
 8051SOL    HW125052   4.401   5.786   2.692
 8051SOL    HW225053   4.267   5.706   2.740
 8052SOL     OW25054   4.499   1.699   1.804
 8052SOL    HW125055   4.595   1.702   1.834
 8052SOL    HW225056   4.472   1.789   1.769
 8053SOL     OW25057   2.910   3.672   3.149
 8053SOL    HW125058   2.827   3.688   3.096
 8053SOL    HW225059   2.963   3.757   3.154
 8054SOL     OW25060   4.993   0.250   4.962
 8054SOL    HW125061   5.032   0.256   4.870
 8054SOL    HW225062   5.066   0.228   5.027
 8055SOL     OW25063   0.159   0.276   5.273
 8055SOL    HW125064   0.096   0.353   5.289
 8055SOL    HW225065   0.107   0.190   5.277
 8056SOL     OW25066   3.490   2.079   4.195
 8056SOL    HW125067   3.495   2.103   4.292
 8056SOL    HW225068   3.582   2.086   4.154
 8057SOL     OW25069   2.873   1.556   3.235
 8057SOL    HW125070   2.957   1.566   3.182
 8057SOL    HW225071   2.797   1.598   3.186
 8058SOL     OW25072   4.449   0.600   1.743
 8058SOL    HW125073   4.430   0.640   1.653
 8058SOL    HW225074   4.385   0.637   1.810
 8059SOL     OW25075   3.955   1.496   4.611
 8059SOL    HW125076   3.993   1.540   4.693
 8059SOL    HW225077   3.918   1.407   4.636
 8060SOL     OW25078   6.436   2.210   3.682
 8060SOL    HW125079   6.377   2.290   3.693
 8060SOL    HW225080   6.520   2.238   3.635
 8061SOL     OW25081   0.516   1.382   2.945
 8061SOL    HW125082   0.615   1.397   2.940
 8061SOL    HW225083   0.496   1.313   3.015
 8062SOL     OW25084   3.523   5.252   4.349
 8062SOL    HW125085   3.498   5.155   4.349
 8062SOL    HW225086   3.470   5.301   4.280
 8063SOL     OW25087   0.806   2.051   1.540
 8063SOL    HW125088   0.746   2.129   1.558
 8063SOL    HW225089   0.901   2.080   1.552
 8064SOL     OW25090   0.158   4.304   1.852
 8064SOL    HW125091   0.186   4.225   1.798
 8064SOL    HW225092   0.062   4.294   1.880
 8065SOL     OW25093   2.825   5.725   4.026
 8065SOL    HW125094   2.920   5.735   3.997
 8065SOL    HW225095   2.769   5.795   3.983
 8066SOL     OW25096   0.040   2.243   5.551
 8066SOL    HW125097   0.006   2.184   5.625
 8066SOL    HW225098   0.040   2.192   5.465
 8067SOL     OW25099   4.633   2.815   1.777
 8067SOL    HW125100   4.657   2.905   1.813
 8067SOL    HW225101   4.678   2.744   1.832
 8068SOL     OW25102   0.123   4.452   1.133
 8068SOL    HW125103   0.139   4.443   1.035
 8068SOL    HW225104   0.024   4.448   1.151
 8069SOL     OW25105   1.876   6.223   1.146
 8069SOL    HW125106   1.825   6.138   1.129
 8069SOL    HW225107   1.954   6.203   1.205
 8070SOL     OW25108   3.363   3.092   0.178
 8070SOL    HW125109   3.418   3.166   0.140
 8070SOL    HW225110   3.299   3.130   0.245
 8071SOL     OW25111   2.701   6.525   5.071
 8071SOL    HW125112   2.611   6.568   5.074
 8071SOL    HW225113   2.691   6.425   5.073
 8072SOL     OW25114   3.219   0.888   0.168
 8072SOL    HW125115   3.182   0.980   0.151
 8072SOL    HW225116   3.152   0.834   0.218
 8073SOL     OW25117   3.544   5.925   4.811
 8073SOL    HW125118   3.621   5.923   4.746
 8073SOL    HW225119   3.571   5.879   4.896
 8074SOL     OW25120   3.898   2.367   0.819
 8074SOL    HW125121   3.913   2.392   0.915
 8074SOL    HW225122   3.977   2.395   0.764
 8075SOL     OW25123   0.144   0.764   1.006
 8075SOL    HW125124   0.154   0.854   1.049
 8075SOL    HW225125   0.225   0.709   1.027
 8076SOL     OW25126   5.976   1.951   5.434
 8076SOL    HW125127   5.899   1.949   5.370
 8076SOL    HW225128   6.047   2.011   5.399
 8077SOL     OW25129   2.815   5.657   1.379
 8077SOL    HW125130   2.751   5.706   1.320
 8077SOL    HW225131   2.779   5.565   1.397
 8078SOL     OW25132   6.612   1.621   0.274
 8078SOL    HW125133   6.665   1.665   0.201
 8078SOL    HW225134   6.600   1.524   0.251
 8079SOL     OW25135   4.572   1.169   3.149
 8079SOL    HW125136   4.543   1.264   3.158
 8079SOL    HW225137   4.492   1.110   3.140
 8080SOL     OW25138   0.431   2.802   0.429
 8080SOL    HW125139   0.415   2.737   0.503
 8080SOL    HW225140   0.526   2.798   0.400
 8081SOL     OW25141   5.157   6.552   4.513
 8081SOL    HW125142   5.124   6.521   4.602
 8081SOL    HW225143   5.197   6.643   4.522
 8082SOL     OW25144   5.180   6.505   1.737
 8082SOL    HW125145   5.168   6.570   1.812
 8082SOL    HW225146   5.273   6.468   1.738
 8083SOL     OW25147   4.979   3.964   2.551
 8083SOL    HW125148   5.075   3.989   2.565
 8083SOL    HW225149   4.955   3.889   2.612
 8084SOL     OW25150   5.190   0.141   0.389
 8084SOL    HW125151   5.147   0.051   0.378
 8084SOL    HW225152   5.120   0.210   0.406
 8085SOL     OW25153   6.293   6.082   2.173
 8085SOL    HW125154   6.326   6.117   2.085
 8085SOL    HW225155   6.285   6.157   2.238
 8086SOL     OW25156   4.920   0.859   3.460
 8086SOL    HW125157   4.970   0.935   3.503
 8086SOL    HW225158   4.952   0.847   3.366
 8087SOL     OW25159   2.346   1.259   0.602
 8087SOL    HW125160   2.365   1.167   0.636
 8087SOL    HW225161   2.432   1.305   0.580
 8088SOL     OW25162   5.329   2.675   1.669
 8088SOL    HW125163   5.293   2.768   1.678
 8088SOL    HW225164   5.391   2.656   1.744
 8089SOL     OW25165   5.149   2.019   0.702
 8089SOL    HW125166   5.150   1.981   0.610
 8089SOL    HW225167   5.242   2.045   0.728
 8090SOL     OW25168   4.779   1.685   0.184
 8090SOL    HW125169   4.878   1.692   0.184
 8090SOL    HW225170   4.752   1.590   0.199
 8091SOL     OW25171   2.432   3.690   5.726
 8091SOL    HW125172   2.503   3.631   5.688
 8091SOL    HW225173   2.453   3.709   5.822
 8092SOL     OW25174   6.630   2.770   5.160
 8092SOL    HW125175   6.603   2.693   5.102
 8092SOL    HW225176   6.607   2.748   5.255
 8093SOL     OW25177   4.181   5.133   2.763
 8093SOL    HW125178   4.174   5.081   2.848
 8093SOL    HW225179   4.170   5.072   2.685
 8094SOL     OW25180   1.542   3.847   5.296
 8094SOL    HW125181   1.620   3.805   5.251
 8094SOL    HW225182   1.473   3.872   5.227
 8095SOL     OW25183   6.680   4.376   5.307
 8095SOL    HW125184   6.707   4.450   5.369
 8095SOL    HW225185   6.673   4.411   5.214
 8096SOL     OW25186   2.808   6.306   3.414
 8096SOL    HW125187   2.830   6.208   3.410
 8096SOL    HW225188   2.888   6.360   3.391
 8097SOL     OW25189   4.424   6.874   3.463
 8097SOL    HW125190   4.467   6.808   3.525
 8097SOL    HW225191   4.389   6.826   3.382
 8098SOL     OW25192   1.762   7.008   3.749
 8098SOL    HW125193   1.808   6.973   3.668
 8098SOL    HW225194   1.788   0.081   3.763
 8099SOL     OW25195   4.358   0.346   4.186
 8099SOL    HW125196   4.294   0.281   4.225
 8099SOL    HW225197   4.366   0.425   4.247
 8100SOL     OW25198   5.902   0.069   0.477
 8100SOL    HW125199   5.914   0.144   0.543
 8100SOL    HW225200   5.901   7.005   0.527
 8101SOL     OW25201   2.156   0.539   3.593
 8101SOL    HW125202   2.139   0.443   3.612
 8101SOL    HW225203   2.126   0.561   3.501
 8102SOL     OW25204   0.619   4.972   4.214
 8102SOL    HW125205   0.569   5.048   4.254
 8102SOL    HW225206   0.650   4.910   4.286
 8103SOL     OW25207   4.450   0.046   1.398
 8103SOL    HW125208   4.513   7.008   1.351
 8103SOL    HW225209   4.493   0.084   1.479
 8104SOL     OW25210   3.179   0.393   5.871
 8104SOL    HW125211   3.235   0.376   5.790
 8104SOL    HW225212   3.233   0.440   5.940
 8105SOL     OW25213   0.834   2.282   3.492
 8105SOL    HW125214   0.827   2.329   3.404
 8105SOL    HW225215   0.831   2.350   3.566
 8106SOL     OW25216   1.899   6.206   2.864
 8106SOL    HW125217   1.990   6.235   2.893
 8106SOL    HW225218   1.893   6.210   2.764
 8107SOL     OW25219   0.434   5.619   4.401
 8107SOL    HW125220   0.388   5.532   4.418
 8107SOL    HW225221   0.482   5.615   4.313
 8108SOL     OW25222   6.085   3.147   5.267
 8108SOL    HW125223   6.013   3.100   5.318
 8108SOL    HW225224   6.114   3.090   5.190
 8109SOL     OW25225   1.729   4.102   4.252
 8109SOL    HW125226   1.700   4.037   4.181
 8109SOL    HW225227   1.827   4.093   4.267
 8110SOL     OW25228   3.235   6.348   0.659
 8110SOL    HW125229   3.137   6.364   0.645
 8110SOL    HW225230   3.251   6.250   0.672
 8111SOL     OW25231   4.164   0.513   4.745
 8111SOL    HW125232   4.171   0.516   4.645
 8111SOL    HW225233   4.249   0.476   4.783
 8112SOL     OW25234   2.402   2.555   4.868
 8112SOL    HW125235   2.358   2.468   4.892
 8112SOL    HW225236   2.443   2.547   4.777
 8113SOL     OW25237   2.978   3.397   0.864
 8113SOL    HW125238   2.940   3.354   0.946
 8113SOL    HW225239   2.937   3.356   0.783
 8114SOL     OW25240   2.138   3.758   1.809
 8114SOL    HW125241   2.159   3.681   1.870
 8114SOL    HW225242   2.042   3.753   1.781
 8115SOL     OW25243   3.363   0.245   0.431
 8115SOL    HW125244   3.275   0.247   0.384
 8115SOL    HW225245   3.349   0.262   0.528
 8116SOL     OW25246   4.554   6.017   5.544
 8116SOL    HW125247   4.565   5.971   5.456
 8116SOL    HW225248   4.478   5.975   5.594
 8117SOL     OW25249   1.991   1.029   4.098
 8117SOL    HW125250   2.031   1.078   4.174
 8117SOL    HW225251   1.925   1.088   4.051
 8118SOL     OW25252   5.524   3.876   5.964
 8118SOL    HW125253   5.572   3.788   5.969
 8118SOL    HW225254   5.466   3.886   6.044
 8119SOL     OW25255   5.927   6.214   5.375
 8119SOL    HW125256   5.956   6.235   5.282
 8119SOL    HW225257   5.913   6.299   5.426
 8120SOL     OW25258   2.338   4.923   6.842
 8120SOL    HW125259   2.371   4.835   6.807
 8120SOL    HW225260   2.403   4.959   6.908
 8121SOL     OW25261   0.613   4.776   1.732
 8121SOL    HW125262   0.602   4.729   1.819
 8121SOL    HW225263   0.637   4.709   1.661
 8122SOL     OW25264   1.637   5.845   2.170
 8122SOL    HW125265   1.604   5.845   2.075
 8122SOL    HW225266   1.736   5.839   2.170
 8123SOL     OW25267   6.688   0.613   6.987
 8123SOL    HW125268   6.647   0.523   7.004
 8123SOL    HW225269   6.785   0.610   7.011
 8124SOL     OW25270   6.862   6.348   1.033
 8124SOL    HW125271   6.849   6.350   1.132
 8124SOL    HW225272   6.810   6.272   0.994
 8125SOL     OW25273   1.192   0.687   4.127
 8125SOL    HW125274   1.147   0.681   4.216
 8125SOL    HW225275   1.288   0.662   4.136
 8126SOL     OW25276   5.471   4.480   2.621
 8126SOL    HW125277   5.465   4.390   2.662
 8126SOL    HW225278   5.566   4.497   2.593
 8127SOL     OW25279   2.921   6.397   6.788
 8127SOL    HW125280   2.917   6.340   6.707
 8127SOL    HW225281   2.906   6.492   6.763
 8128SOL     OW25282   2.647   2.431   1.559
 8128SOL    HW125283   2.738   2.445   1.523
 8128SOL    HW225284   2.644   2.461   1.655
 8129SOL     OW25285   4.420   0.937   6.243
 8129SOL    HW125286   4.341   0.902   6.293
 8129SOL    HW225287   4.388   0.999   6.170
 8130SOL     OW25288   0.317   4.078   6.832
 8130SOL    HW125289   0.260   4.090   6.751
 8130SOL    HW225290   0.394   4.141   6.828
 8131SOL     OW25291   3.255   1.612   0.635
 8131SOL    HW125292   3.333   1.674   0.634
 8131SOL    HW225293   3.170   1.666   0.642
 8132SOL     OW25294   5.512   6.399   5.965
 8132SOL    HW125295   5.585   6.466   5.961
 8132SOL    HW225296   5.540   6.315   5.918
 8133SOL     OW25297   2.827   4.762   1.538
 8133SOL    HW125298   2.891   4.809   1.599
 8133SOL    HW225299   2.767   4.703   1.591
 8134SOL     OW25300   0.894   2.820   5.098
 8134SOL    HW125301   0.943   2.784   5.177
 8134SOL    HW225302   0.934   2.908   5.071
 8135SOL     OW25303   2.437   5.976   0.985
 8135SOL    HW125304   2.351   5.927   0.972
 8135SOL    HW225305   2.429   6.037   1.064
 8136SOL     OW25306   4.733   4.804   3.238
 8136SOL    HW125307   4.826   4.839   3.234
 8136SOL    HW225308   4.715   4.768   3.329
 8137SOL     OW25309   3.077   1.328   4.796
 8137SOL    HW125310   3.073   1.324   4.696
 8137SOL    HW225311   2.996   1.283   4.834
 8138SOL     OW25312   5.812   2.410   0.039
 8138SOL    HW125313   5.840   2.317   0.017
 8138SOL    HW225314   5.716   2.423   0.015
 8139SOL     OW25315   1.479   1.361   4.020
 8139SOL    HW125316   1.520   1.283   3.972
 8139SOL    HW225317   1.382   1.344   4.036
 8140SOL     OW25318   4.506   0.063   0.923
 8140SOL    HW125319   4.495   0.142   0.862
 8140SOL    HW225320   4.567   7.019   0.881
 8141SOL     OW25321   4.511   6.526   5.071
 8141SOL    HW125322   4.533   6.432   5.045
 8141SOL    HW225323   4.495   6.531   5.169
 8142SOL     OW25324   1.600   4.959   0.108
 8142SOL    HW125325   1.590   4.861   0.096
 8142SOL    HW225326   1.698   4.982   0.116
 8143SOL     OW25327   6.451   4.886   0.110
 8143SOL    HW125328   6.532   4.907   0.165
 8143SOL    HW225329   6.370   4.886   0.169
 8144SOL     OW25330   0.369   6.502   5.943
 8144SOL    HW125331   0.431   6.542   5.875
 8144SOL    HW225332   0.340   6.411   5.912
 8145SOL     OW25333   5.881   5.107   0.868
 8145SOL    HW125334   5.875   5.139   0.773
 8145SOL    HW225335   5.977   5.095   0.893
 8146SOL     OW25336   5.388   0.580   5.606
 8146SOL    HW125337   5.304   0.626   5.638
 8146SOL    HW225338   5.366   0.516   5.533
 8147SOL     OW25339   6.494   1.324   2.362
 8147SOL    HW125340   6.567   1.304   2.298
 8147SOL    HW225341   6.476   1.423   2.362
 8148SOL     OW25342   5.383   4.789   0.591
 8148SOL    HW125343   5.364   4.871   0.537
 8148SOL    HW225344   5.474   4.795   0.630
 8149SOL     OW25345   2.253   6.532   3.506
 8149SOL    HW125346   2.273   6.472   3.428
 8149SOL    HW225347   2.242   6.626   3.473
 8150SOL     OW25348   2.067   3.110   0.884
 8150SOL    HW125349   2.023   3.058   0.811
 8150SOL    HW225350   2.049   3.067   0.972
 8151SOL     OW25351   5.960   4.834   2.826
 8151SOL    HW125352   6.001   4.857   2.914
 8151SOL    HW225353   5.993   4.744   2.796
 8152SOL     OW25354   6.376   2.961   3.142
 8152SOL    HW125355   6.356   2.869   3.108
 8152SOL    HW225356   6.294   3.000   3.183
 8153SOL     OW25357   1.371   1.762   4.045
 8153SOL    HW125358   1.394   1.803   4.133
 8153SOL    HW225359   1.283   1.715   4.051
 8154SOL     OW25360   3.517   6.138   2.422
 8154SOL    HW125361   3.523   6.200   2.501
 8154SOL    HW225362   3.523   6.191   2.338
 8155SOL     OW25363   1.605   3.448   2.009
 8155SOL    HW125364   1.568   3.389   2.081
 8155SOL    HW225365   1.530   3.488   1.957
 8156SOL     OW25366   4.884   6.226   0.670
 8156SOL    HW125367   4.897   6.133   0.636
 8156SOL    HW225368   4.894   6.227   0.769
 8157SOL     OW25369   6.696   4.606   5.876
 8157SOL    HW125370   6.656   4.696   5.894
 8157SOL    HW225371   6.624   4.537   5.880
 8158SOL     OW25372   4.979   4.466   0.241
 8158SOL    HW125373   4.994   4.411   0.322
 8158SOL    HW225374   4.897   4.434   0.193
 8159SOL     OW25375   2.226   5.562   2.940
 8159SOL    HW125376   2.319   5.593   2.956
 8159SOL    HW225377   2.162   5.621   2.990
 8160SOL     OW25378   5.475   0.815   4.043
 8160SOL    HW125379   5.428   0.732   4.014
 8160SOL    HW225380   5.509   0.865   3.963
 8161SOL     OW25381   6.323   2.994   6.394
 8161SOL    HW125382   6.278   3.046   6.466
 8161SOL    HW225383   6.399   2.942   6.433
 8162SOL     OW25384   5.759   6.675   6.817
 8162SOL    HW125385   5.822   6.714   6.885
 8162SOL    HW225386   5.812   6.620   6.751
 8163SOL     OW25387   2.558   4.629   5.117
 8163SOL    HW125388   2.541   4.542   5.165
 8163SOL    HW225389   2.653   4.632   5.086
 8164SOL     OW25390   5.463   2.392   0.279
 8164SOL    HW125391   5.518   2.353   0.353
 8164SOL    HW225392   5.411   2.470   0.314
 8165SOL     OW25393   0.028   3.902   5.866
 8165SOL    HW125394   0.025   3.804   5.885
 8165SOL    HW225395   7.012   3.952   5.943
 8166SOL     OW25396   1.233   0.429   3.936
 8166SOL    HW125397   1.321   0.390   3.911
 8166SOL    HW225398   1.247   0.518   3.980
 8167SOL     OW25399   0.082   0.417   3.908
 8167SOL    HW125400   0.030   0.351   3.961
 8167SOL    HW225401   0.079   0.392   3.811
 8168SOL     OW25402   2.705   1.800   2.535
 8168SOL    HW125403   2.695   1.841   2.626
 8168SOL    HW225404   2.752   1.865   2.474
 8169SOL     OW25405   4.815   2.304   0.555
 8169SOL    HW125406   4.732   2.312   0.610
 8169SOL    HW225407   4.877   2.237   0.596
 8170SOL     OW25408   1.345   5.594   2.174
 8170SOL    HW125409   1.370   5.672   2.232
 8170SOL    HW225410   1.421   5.574   2.112
 8171SOL     OW25411   1.773   1.889   6.128
 8171SOL    HW125412   1.810   1.800   6.155
 8171SOL    HW225413   1.680   1.877   6.093
 8172SOL     OW25414   0.293   1.848   2.598
 8172SOL    HW125415   0.241   1.931   2.618
 8172SOL    HW225416   0.391   1.867   2.608
 8173SOL     OW25417   5.476   2.013   1.884
 8173SOL    HW125418   5.447   1.957   1.962
 8173SOL    HW225419   5.396   2.047   1.836
 8174SOL     OW25420   6.534   1.137   2.731
 8174SOL    HW125421   6.504   1.232   2.731
 8174SOL    HW225422   6.476   1.083   2.669
 8175SOL     OW25423   0.258   3.233   5.936
 8175SOL    HW125424   0.334   3.227   6.000
 8175SOL    HW225425   0.183   3.174   5.968
 8176SOL     OW25426   2.030   4.894   1.067
 8176SOL    HW125427   2.086   4.813   1.050
 8176SOL    HW225428   1.971   4.912   0.988
 8177SOL     OW25429   3.274   6.526   3.454
 8177SOL    HW125430   3.295   6.568   3.543
 8177SOL    HW225431   3.359   6.504   3.406
 8178SOL     OW25432   3.011   6.717   0.577
 8178SOL    HW125433   2.962   6.752   0.657
 8178SOL    HW225434   2.956   6.647   0.532
 8179SOL     OW25435   4.673   1.780   4.635
 8179SOL    HW125436   4.706   1.859   4.687
 8179SOL    HW225437   4.680   1.799   4.537
 8180SOL     OW25438   6.330   0.978   5.378
 8180SOL    HW125439   6.370   1.038   5.309
 8180SOL    HW225440   6.265   1.030   5.434
 8181SOL     OW25441   1.397   1.622   0.451
 8181SOL    HW125442   1.301   1.633   0.480
 8181SOL    HW225443   1.412   1.672   0.366
 8182SOL     OW25444   3.508   3.514   5.912
 8182SOL    HW125445   3.535   3.440   5.974
 8182SOL    HW225446   3.412   3.504   5.889
 8183SOL     OW25447   6.570   2.551   4.978
 8183SOL    HW125448   6.526   2.565   4.890
 8183SOL    HW225449   6.520   2.483   5.031
 8184SOL     OW25450   6.675   0.684   0.618
 8184SOL    HW125451   6.744   0.685   0.545
 8184SOL    HW225452   6.632   0.774   0.623
 8185SOL     OW25453   1.589   0.120   0.144
 8185SOL    HW125454   1.529   0.128   0.064
 8185SOL    HW225455   1.668   0.063   0.121
 8186SOL     OW25456   3.416   4.561   5.374
 8186SOL    HW125457   3.342   4.615   5.334
 8186SOL    HW225458   3.403   4.464   5.351
 8187SOL     OW25459   1.973   1.622   5.132
 8187SOL    HW125460   2.046   1.566   5.172
 8187SOL    HW225461   1.994   1.719   5.146
 8188SOL     OW25462   5.829   2.980   3.074
 8188SOL    HW125463   5.868   3.042   3.142
 8188SOL    HW225464   5.898   2.957   3.006
 8189SOL     OW25465   5.047   4.831   2.935
 8189SOL    HW125466   5.101   4.792   3.010
 8189SOL    HW225467   5.107   4.883   2.874
 8190SOL     OW25468   4.667   4.673   4.522
 8190SOL    HW125469   4.587   4.714   4.478
 8190SOL    HW225470   4.742   4.669   4.457
 8191SOL     OW25471   3.669   5.774   1.749
 8191SOL    HW125472   3.688   5.870   1.770
 8191SOL    HW225473   3.628   5.767   1.658
 8192SOL     OW25474   3.612   5.066   0.549
 8192SOL    HW125475   3.586   5.150   0.502
 8192SOL    HW225476   3.655   5.089   0.636
 8193SOL     OW25477   6.704   5.963   5.560
 8193SOL    HW125478   6.691   5.972   5.658
 8193SOL    HW225479   6.752   6.043   5.525
 8194SOL     OW25480   4.849   2.386   0.842
 8194SOL    HW125481   4.864   2.292   0.811
 8194SOL    HW225482   4.843   2.447   0.763
 8195SOL     OW25483   1.511   0.070   2.840
 8195SOL    HW125484   1.481   7.000   2.820
 8195SOL    HW225485   1.431   0.128   2.854
 8196SOL     OW25486   4.139   5.803   5.993
 8196SOL    HW125487   4.157   5.854   6.077
 8196SOL    HW225488   4.097   5.863   5.925
 8197SOL     OW25489   4.451   1.688   0.333
 8197SOL    HW125490   4.441   1.617   0.264
 8197SOL    HW225491   4.404   1.661   0.417
 8198SOL     OW25492   3.055   6.871   2.777
 8198SOL    HW125493   3.044   6.776   2.806
 8198SOL    HW225494   2.965   6.909   2.754
 8199SOL     OW25495   6.077   3.264   6.369
 8199SOL    HW125496   6.002   3.285   6.431
 8199SOL    HW225497   6.118   3.349   6.335
 8200SOL     OW25498   5.719   4.802   1.958
 8200SOL    HW125499   5.781   4.729   1.989
 8200SOL    HW225500   5.766   4.861   1.893
 8201SOL     OW25501   5.749   0.670   4.092
 8201SOL    HW125502   5.682   0.744   4.101
 8201SOL    HW225503   5.810   0.671   4.170
 8202SOL     OW25504   0.301   5.811   3.715
 8202SOL    HW125505   0.380   5.781   3.769
 8202SOL    HW225506   0.217   5.795   3.767
 8203SOL     OW25507   3.859   2.621   0.238
 8203SOL    HW125508   3.865   2.705   0.291
 8203SOL    HW225509   3.951   2.591   0.213
 8204SOL     OW25510   3.183   4.867   6.599
 8204SOL    HW125511   3.261   4.921   6.630
 8204SOL    HW225512   3.133   4.918   6.529
 8205SOL     OW25513   0.520   4.676   0.873
 8205SOL    HW125514   0.477   4.722   0.794
 8205SOL    HW225515   0.453   4.667   0.947
 8206SOL     OW25516   5.079   2.571   6.446
 8206SOL    HW125517   4.998   2.525   6.408
 8206SOL    HW225518   5.070   2.670   6.433
 8207SOL     OW25519   3.290   4.095   4.028
 8207SOL    HW125520   3.378   4.137   4.050
 8207SOL    HW225521   3.266   4.114   3.933
 8208SOL     OW25522   2.016   0.252   1.305
 8208SOL    HW125523   2.047   0.291   1.218
 8208SOL    HW225524   1.971   0.322   1.359
 8209SOL     OW25525   0.543   1.094   5.133
 8209SOL    HW125526   0.564   1.039   5.214
 8209SOL    HW225527   0.569   1.044   5.051
 8210SOL     OW25528   1.984   1.208   1.498
 8210SOL    HW125529   1.887   1.188   1.512
 8210SOL    HW225530   2.030   1.126   1.462
 8211SOL     OW25531   3.680   4.130   1.628
 8211SOL    HW125532   3.710   4.152   1.535
 8211SOL    HW225533   3.607   4.192   1.656
 8212SOL     OW25534   2.222   1.413   2.240
 8212SOL    HW125535   2.175   1.431   2.326
 8212SOL    HW225536   2.277   1.493   2.214
 8213SOL     OW25537   6.745   4.517   2.586
 8213SOL    HW125538   6.821   4.453   2.595
 8213SOL    HW225539   6.767   4.585   2.515
 8214SOL     OW25540   6.657   5.384   5.119
 8214SOL    HW125541   6.707   5.466   5.148
 8214SOL    HW225542   6.705   5.342   5.042
 8215SOL     OW25543   2.388   5.710   5.928
 8215SOL    HW125544   2.291   5.726   5.949
 8215SOL    HW225545   2.429   5.794   5.893
 8216SOL     OW25546   5.264   5.217   3.799
 8216SOL    HW125547   5.253   5.301   3.747
 8216SOL    HW225548   5.361   5.197   3.812
 8217SOL     OW25549   2.032   3.658   0.839
 8217SOL    HW125550   1.970   3.679   0.915
 8217SOL    HW225551   2.038   3.559   0.828
 8218SOL     OW25552   0.085   0.023   5.223
 8218SOL    HW125553   0.177   0.013   5.186
 8218SOL    HW225554   0.064   6.969   5.283
 8219SOL     OW25555   3.693   3.358   0.285
 8219SOL    HW125556   3.607   3.402   0.311
 8219SOL    HW225557   3.768   3.395   0.341
 8220SOL     OW25558   3.029   3.950   4.027
 8220SOL    HW125559   3.054   3.869   4.080
 8220SOL    HW225560   3.088   4.027   4.053
 8221SOL     OW25561   5.779   6.190   3.529
 8221SOL    HW125562   5.742   6.231   3.446
 8221SOL    HW225563   5.726   6.108   3.552
 8222SOL     OW25564   5.222   1.392   1.206
 8222SOL    HW125565   5.135   1.430   1.177
 8222SOL    HW225566   5.217   1.293   1.208
 8223SOL     OW25567   0.811   4.263   5.207
 8223SOL    HW125568   0.849   4.240   5.117
 8223SOL    HW225569   0.824   4.360   5.225
 8224SOL     OW25570   5.463   2.302   2.373
 8224SOL    HW125571   5.464   2.400   2.392
 8224SOL    HW225572   5.421   2.286   2.283
 8225SOL     OW25573   3.368   1.676   1.370
 8225SOL    HW125574   3.276   1.688   1.406
 8225SOL    HW225575   3.415   1.765   1.367
 8226SOL     OW25576   3.851   6.270   6.854
 8226SOL    HW125577   3.893   6.350   6.898
 8226SOL    HW225578   3.822   6.205   6.924
 8227SOL     OW25579   0.349   1.336   2.342
 8227SOL    HW125580   0.387   1.248   2.373
 8227SOL    HW225581   0.317   1.388   2.421
 8228SOL     OW25582   6.678   1.663   6.021
 8228SOL    HW125583   6.740   1.585   6.011
 8228SOL    HW225584   6.673   1.712   5.934
 8229SOL     OW25585   4.589   3.736   1.059
 8229SOL    HW125586   4.618   3.693   1.144
 8229SOL    HW225587   4.645   3.816   1.041
 8230SOL     OW25588   3.638   0.207   5.013
 8230SOL    HW125589   3.652   0.152   5.095
 8230SOL    HW225590   3.555   0.261   5.022
 8231SOL     OW25591   2.910   3.332   1.121
 8231SOL    HW125592   2.933   3.391   1.199
 8231SOL    HW225593   2.811   3.331   1.109
 8232SOL     OW25594   4.556   2.494   1.880
 8232SOL    HW125595   4.525   2.408   1.840
 8232SOL    HW225596   4.479   2.540   1.925
 8233SOL     OW25597   1.086   6.383   6.207
 8233SOL    HW125598   1.005   6.431   6.243
 8233SOL    HW225599   1.092   6.399   6.109
 8234SOL     OW25600   2.738   3.560   6.648
 8234SOL    HW125601   2.816   3.623   6.651
 8234SOL    HW225602   2.768   3.469   6.675
 8235SOL     OW25603   0.667   2.835   6.701
 8235SOL    HW125604   0.706   2.862   6.613
 8235SOL    HW225605   0.584   2.780   6.684
 8236SOL     OW25606   0.723   4.478   0.881
 8236SOL    HW125607   0.667   4.396   0.895
 8236SOL    HW225608   0.664   4.559   0.884
 8237SOL     OW25609   4.845   6.164   5.590
 8237SOL    HW125610   4.798   6.252   5.598
 8237SOL    HW225611   4.780   6.095   5.557
 8238SOL     OW25612   0.563   5.287   6.353
 8238SOL    HW125613   0.487   5.226   6.332
 8238SOL    HW225614   0.573   5.354   6.279
 8239SOL     OW25615   0.196   1.081   5.466
 8239SOL    HW125616   0.118   1.058   5.407
 8239SOL    HW225617   0.241   0.997   5.495
 8240SOL     OW25618   3.647   3.895   2.555
 8240SOL    HW125619   3.676   3.875   2.649
 8240SOL    HW225620   3.549   3.876   2.545
 8241SOL     OW25621   3.464   6.202   5.471
 8241SOL    HW125622   3.521   6.209   5.389
 8241SOL    HW225623   3.514   6.236   5.550
 8242SOL     OW25624   0.438   4.062   6.184
 8242SOL    HW125625   0.471   4.019   6.100
 8242SOL    HW225626   0.375   4.136   6.162
 8243SOL     OW25627   0.510   3.053   0.617
 8243SOL    HW125628   0.598   3.045   0.663
 8243SOL    HW225629   0.490   2.968   0.568
 8244SOL     OW25630   0.240   1.039   3.808
 8244SOL    HW125631   0.227   0.942   3.829
 8244SOL    HW225632   0.317   1.075   3.861
 8245SOL     OW25633   3.924   2.175   1.974
 8245SOL    HW125634   3.951   2.107   1.906
 8245SOL    HW225635   3.824   2.182   1.977
 8246SOL     OW25636   0.920   3.802   6.010
 8246SOL    HW125637   0.882   3.778   5.920
 8246SOL    HW225638   0.907   3.899   6.026
 8247SOL     OW25639   2.076   0.772   2.793
 8247SOL    HW125640   1.996   0.825   2.821
 8247SOL    HW225641   2.126   0.823   2.722
 8248SOL     OW25642   6.963   4.959   4.423
 8248SOL    HW125643   6.957   5.058   4.437
 8248SOL    HW225644   0.036   4.931   4.427
 8249SOL     OW25645   1.703   2.252   5.801
 8249SOL    HW125646   1.789   2.298   5.822
 8249SOL    HW225647   1.718   2.153   5.798
 8250SOL     OW25648   2.985   2.902   1.538
 8250SOL    HW125649   2.948   2.967   1.471
 8250SOL    HW225650   2.996   2.949   1.626
 8251SOL     OW25651   4.993   3.223   4.691
 8251SOL    HW125652   5.044   3.172   4.759
 8251SOL    HW225653   4.956   3.307   4.732
 8252SOL     OW25654   3.276   1.608   5.901
 8252SOL    HW125655   3.277   1.530   5.838
 8252SOL    HW225656   3.341   1.677   5.870
 8253SOL     OW25657   4.305   5.384   6.103
 8253SOL    HW125658   4.257   5.440   6.035
 8253SOL    HW225659   4.382   5.437   6.141
 8254SOL     OW25660   4.474   4.410   5.404
 8254SOL    HW125661   4.447   4.319   5.437
 8254SOL    HW225662   4.512   4.402   5.312
 8255SOL     OW25663   1.730   6.599   5.162
 8255SOL    HW125664   1.802   6.655   5.121
 8255SOL    HW225665   1.687   6.543   5.090
 8256SOL     OW25666   0.099   6.318   1.641
 8256SOL    HW125667   0.055   6.248   1.697
 8256SOL    HW225668   0.174   6.278   1.589
 8257SOL     OW25669   5.236   4.053   2.651
 8257SOL    HW125670   5.233   4.069   2.750
 8257SOL    HW225671   5.311   4.106   2.611
 8258SOL     OW25672   5.142   2.979   1.212
 8258SOL    HW125673   5.188   3.024   1.136
 8258SOL    HW225674   5.199   2.986   1.294
 8259SOL     OW25675   3.724   1.770   4.864
 8259SOL    HW125676   3.772   1.787   4.950
 8259SOL    HW225677   3.726   1.853   4.808
 8260SOL     OW25678   2.058   6.590   0.995
 8260SOL    HW125679   2.142   6.541   1.020
 8260SOL    HW225680   2.006   6.611   1.078
 8261SOL     OW25681   5.386   6.691   2.467
 8261SOL    HW125682   5.331   6.731   2.394
 8261SOL    HW225683   5.327   6.664   2.543
 8262SOL     OW25684   0.773   2.915   0.064
 8262SOL    HW125685   0.759   2.880   0.157
 8262SOL    HW225686   0.825   2.848   0.011
 8263SOL     OW25687   0.284   2.468   6.245
 8263SOL    HW125688   0.294   2.542   6.312
 8263SOL    HW225689   0.279   2.380   6.294
 8264SOL     OW25690   2.294   6.024   1.216
 8264SOL    HW125691   2.234   5.988   1.145
 8264SOL    HW225692   2.269   5.985   1.304
 8265SOL     OW25693   6.866   0.848   1.399
 8265SOL    HW125694   6.781   0.822   1.353
 8265SOL    HW225695   6.940   0.788   1.369
 8266SOL     OW25696   2.076   1.107   4.709
 8266SOL    HW125697   2.108   1.017   4.738
 8266SOL    HW225698   2.133   1.178   4.751
 8267SOL     OW25699   1.861   3.743   1.045
 8267SOL    HW125700   1.869   3.840   1.024
 8267SOL    HW225701   1.828   3.731   1.138
 8268SOL     OW25702   2.414   6.733   5.941
 8268SOL    HW125703   2.415   6.634   5.955
 8268SOL    HW225704   2.329   6.771   5.977
 8269SOL     OW25705   4.140   1.504   2.165
 8269SOL    HW125706   4.181   1.542   2.248
 8269SOL    HW225707   4.075   1.432   2.190
 8270SOL     OW25708   3.038   6.514   4.552
 8270SOL    HW125709   2.950   6.469   4.560
 8270SOL    HW225710   3.063   6.523   4.456
 8271SOL     OW25711   0.455   6.840   2.862
 8271SOL    HW125712   0.443   6.869   2.957
 8271SOL    HW225713   0.382   6.777   2.837
 8272SOL     OW25714   6.187   1.569   2.792
 8272SOL    HW125715   6.106   1.549   2.848
 8272SOL    HW225716   6.182   1.518   2.706
 8273SOL     OW25717   2.524   1.201   0.923
 8273SOL    HW125718   2.520   1.300   0.930
 8273SOL    HW225719   2.483   1.171   0.837
 8274SOL     OW25720   4.136   5.455   4.482
 8274SOL    HW125721   4.200   5.390   4.440
 8274SOL    HW225722   4.119   5.427   4.577
 8275SOL     OW25723   5.235   0.695   4.543
 8275SOL    HW125724   5.303   0.622   4.536
 8275SOL    HW225725   5.223   0.738   4.453
 8276SOL     OW25726   0.351   2.097   5.163
 8276SOL    HW125727   0.410   2.086   5.243
 8276SOL    HW225728   0.401   2.143   5.091
 8277SOL     OW25729   1.254   6.332   5.934
 8277SOL    HW125730   1.334   6.304   5.987
 8277SOL    HW225731   1.213   6.251   5.890
 8278SOL     OW25732   3.331   1.282   6.936
 8278SOL    HW125733   3.389   1.231   7.000
 8278SOL    HW225734   3.296   1.364   6.981
 8279SOL     OW25735   0.884   6.727   4.528
 8279SOL    HW125736   0.870   6.642   4.478
 8279SOL    HW225737   0.981   6.752   4.525
 8280SOL     OW25738   2.908   2.822   0.683
 8280SOL    HW125739   2.959   2.774   0.754
 8280SOL    HW225740   2.849   2.892   0.725
 8281SOL     OW25741   2.184   4.387   1.595
 8281SOL    HW125742   2.225   4.463   1.545
 8281SOL    HW225743   2.085   4.388   1.583
 8282SOL     OW25744   4.621   3.992   0.051
 8282SOL    HW125745   4.708   3.950   0.079
 8282SOL    HW225746   4.634   4.042   6.989
 8283SOL     OW25747   1.403   4.928   4.982
 8283SOL    HW125748   1.372   4.833   4.985
 8283SOL    HW225749   1.369   4.976   5.063
 8284SOL     OW25750   0.666   3.419   1.688
 8284SOL    HW125751   0.757   3.398   1.653
 8284SOL    HW225752   0.671   3.434   1.787
 8285SOL     OW25753   3.753   3.989   4.558
 8285SOL    HW125754   3.792   4.036   4.638
 8285SOL    HW225755   3.668   4.035   4.531
 8286SOL     OW25756   5.086   1.882   4.768
 8286SOL    HW125757   5.184   1.874   4.782
 8286SOL    HW225758   5.064   1.970   4.727
 8287SOL     OW25759   1.050   4.778   4.509
 8287SOL    HW125760   1.003   4.783   4.597
 8287SOL    HW225761   1.145   4.749   4.523
 8288SOL     OW25762   2.696   2.321   2.266
 8288SOL    HW125763   2.721   2.244   2.325
 8288SOL    HW225764   2.776   2.350   2.214
 8289SOL     OW25765   0.836   6.472   6.189
 8289SOL    HW125766   0.790   6.521   6.115
 8289SOL    HW225767   0.769   6.446   6.259
 8290SOL     OW25768   5.429   1.535   1.078
 8290SOL    HW125769   5.412   1.596   1.001
 8290SOL    HW225770   5.342   1.503   1.116
 8291SOL     OW25771   4.920   4.925   5.157
 8291SOL    HW125772   4.887   4.924   5.063
 8291SOL    HW225773   4.992   4.993   5.166
 8292SOL     OW25774   3.090   6.118   6.301
 8292SOL    HW125775   3.105   6.075   6.212
 8292SOL    HW225776   3.079   6.047   6.371
 8293SOL     OW25777   1.834   5.391   0.848
 8293SOL    HW125778   1.889   5.312   0.875
 8293SOL    HW225779   1.749   5.392   0.900
 8294SOL     OW25780   5.601   3.980   5.376
 8294SOL    HW125781   5.589   3.963   5.474
 8294SOL    HW225782   5.541   3.919   5.324
 8295SOL     OW25783   5.129   4.284   1.975
 8295SOL    HW125784   5.140   4.263   2.072
 8295SOL    HW225785   5.196   4.232   1.922
 8296SOL     OW25786   2.547   4.834   6.997
 8296SOL    HW125787   2.596   4.768   6.940
 8296SOL    HW225788   2.508   4.786   0.053
 8297SOL     OW25789   0.268   3.011   2.955
 8297SOL    HW125790   0.247   3.003   2.858
 8297SOL    HW225791   0.364   2.988   2.971
 8298SOL     OW25792   6.087   1.714   1.190
 8298SOL    HW125793   6.079   1.627   1.239
 8298SOL    HW225794   6.072   1.698   1.092
 8299SOL     OW25795   0.896   2.213   2.504
 8299SOL    HW125796   0.960   2.224   2.428
 8299SOL    HW225797   0.835   2.136   2.485
 8300SOL     OW25798   0.062   5.735   3.550
 8300SOL    HW125799   0.124   5.743   3.472
 8300SOL    HW225800   0.083   5.806   3.617
 8301SOL     OW25801   3.738   0.848   0.614
 8301SOL    HW125802   3.827   0.874   0.651
 8301SOL    HW225803   3.669   0.912   0.646
 8302SOL     OW25804   5.254   6.412   6.380
 8302SOL    HW125805   5.342   6.413   6.428
 8302SOL    HW225806   5.250   6.333   6.319
 8303SOL     OW25807   5.579   0.513   3.893
 8303SOL    HW125808   5.587   0.596   3.837
 8303SOL    HW225809   5.670   0.476   3.911
 8304SOL     OW25810   5.694   3.507   1.632
 8304SOL    HW125811   5.730   3.464   1.550
 8304SOL    HW225812   5.725   3.602   1.637
 8305SOL     OW25813   4.627   4.562   3.793
 8305SOL    HW125814   4.543   4.615   3.781
 8305SOL    HW225815   4.705   4.625   3.804
 8306SOL     OW25816   5.605   1.405   4.237
 8306SOL    HW125817   5.663   1.408   4.319
 8306SOL    HW225818   5.512   1.431   4.261
 8307SOL     OW25819   3.650   5.136   1.580
 8307SOL    HW125820   3.655   5.049   1.630
 8307SOL    HW225821   3.660   5.119   1.482
 8308SOL     OW25822   2.320   5.426   0.472
 8308SOL    HW125823   2.283   5.402   0.562
 8308SOL    HW225824   2.407   5.474   0.484
 8309SOL     OW25825   6.709   6.177   2.957
 8309SOL    HW125826   6.726   6.157   2.860
 8309SOL    HW225827   6.696   6.275   2.969
 8310SOL     OW25828   0.559   5.467   1.159
 8310SOL    HW125829   0.495   5.473   1.083
 8310SOL    HW225830   0.652   5.482   1.125
 8311SOL     OW25831   6.600   2.298   5.582
 8311SOL    HW125832   6.664   2.360   5.628
 8311SOL    HW225833   6.510   2.307   5.623
 8312SOL     OW25834   4.456   0.500   0.016
 8312SOL    HW125835   4.446   0.401   0.009
 8312SOL    HW225836   4.413   0.544   6.960
 8313SOL     OW25837   5.700   0.034   6.618
 8313SOL    HW125838   5.738   0.018   6.709
 8313SOL    HW225839   5.602   0.051   6.625
 8314SOL     OW25840   5.494   6.535   6.497
 8314SOL    HW125841   5.531   6.605   6.558
 8314SOL    HW225842   5.483   6.573   6.405
 8315SOL     OW25843   3.989   3.450   2.221
 8315SOL    HW125844   3.927   3.460   2.298
 8315SOL    HW225845   3.976   3.526   2.157
 8316SOL     OW25846   1.292   2.955   2.345
 8316SOL    HW125847   1.258   3.001   2.427
 8316SOL    HW225848   1.391   2.947   2.350
 8317SOL     OW25849   1.556   2.700   2.777
 8317SOL    HW125850   1.512   2.610   2.776
 8317SOL    HW225851   1.655   2.689   2.782
 8318SOL     OW25852   3.930   2.158   5.758
 8318SOL    HW125853   3.925   2.197   5.850
 8318SOL    HW225854   3.899   2.225   5.691
 8319SOL     OW25855   1.097   1.366   1.408
 8319SOL    HW125856   1.009   1.398   1.373
 8319SOL    HW225857   1.149   1.443   1.444
 8320SOL     OW25858   2.942   3.802   2.749
 8320SOL    HW125859   2.979   3.718   2.789
 8320SOL    HW225860   2.911   3.863   2.822
 8321SOL     OW25861   6.277   6.991   6.370
 8321SOL    HW125862   6.333   0.047   6.394
 8321SOL    HW225863   6.309   6.911   6.422
 8322SOL     OW25864   6.662   0.606   0.890
 8322SOL    HW125865   6.643   0.508   0.898
 8322SOL    HW225866   6.670   0.631   0.794
 8323SOL     OW25867   4.890   5.036   1.808
 8323SOL    HW125868   4.911   4.948   1.766
 8323SOL    HW225869   4.814   5.025   1.872
 8324SOL     OW25870   6.051   6.659   1.616
 8324SOL    HW125871   6.075   6.718   1.539
 8324SOL    HW225872   5.956   6.676   1.644
 8325SOL     OW25873   1.587   3.441   5.122
 8325SOL    HW125874   1.599   3.535   5.090
 8325SOL    HW225875   1.651   3.381   5.075
 8326SOL     OW25876   4.535   3.859   5.858
 8326SOL    HW125877   4.567   3.918   5.784
 8326SOL    HW225878   4.608   3.846   5.925
 8327SOL     OW25879   0.185   0.307   5.585
 8327SOL    HW125880   0.246   0.287   5.662
 8327SOL    HW225881   0.183   0.229   5.523
 8328SOL     OW25882   2.613   5.947   6.973
 8328SOL    HW125883   2.576   5.858   6.997
 8328SOL    HW225884   2.578   5.974   6.883
 8329SOL     OW25885   0.854   2.984   6.055
 8329SOL    HW125886   0.921   2.914   6.076
 8329SOL    HW225887   0.763   2.942   6.049
 8330SOL     OW25888   2.728   0.931   6.203
 8330SOL    HW125889   2.665   0.853   6.201
 8330SOL    HW225890   2.810   0.907   6.255
 8331SOL     OW25891   3.282   0.993   1.012
 8331SOL    HW125892   3.315   1.087   1.012
 8331SOL    HW225893   3.290   0.955   0.920
 8332SOL     OW25894   5.423   5.654   2.843
 8332SOL    HW125895   5.368   5.633   2.763
 8332SOL    HW225896   5.440   5.570   2.895
 8333SOL     OW25897   0.294   5.320   6.158
 8333SOL    HW125898   0.239   5.237   6.171
 8333SOL    HW225899   0.349   5.311   6.076
 8334SOL     OW25900   3.811   1.688   4.408
 8334SOL    HW125901   3.864   1.772   4.402
 8334SOL    HW225902   3.849   1.630   4.480
 8335SOL     OW25903   5.124   0.790   0.617
 8335SOL    HW125904   5.218   0.818   0.636
 8335SOL    HW225905   5.104   0.806   0.521
 8336SOL     OW25906   0.942   4.940   3.375
 8336SOL    HW125907   0.900   5.023   3.340
 8336SOL    HW225908   0.885   4.861   3.351
 8337SOL     OW25909   1.416   5.948   3.672
 8337SOL    HW125910   1.512   5.934   3.698
 8337SOL    HW225911   1.362   5.871   3.705
 8338SOL     OW25912   4.014   4.990   1.703
 8338SOL    HW125913   4.077   4.913   1.702
 8338SOL    HW225914   3.940   4.974   1.638
 8339SOL     OW25915   6.688   0.819   1.589
 8339SOL    HW125916   6.759   0.834   1.520
 8339SOL    HW225917   6.603   0.791   1.544
 8340SOL     OW25918   5.428   3.624   1.098
 8340SOL    HW125919   5.405   3.552   1.164
 8340SOL    HW225920   5.489   3.587   1.028
 8341SOL     OW25921   3.085   0.136   6.957
 8341SOL    HW125922   3.002   0.181   6.925
 8341SOL    HW225923   3.152   0.205   6.985
 8342SOL     OW25924   4.970   6.650   6.870
 8342SOL    HW125925   4.983   6.701   6.955
 8342SOL    HW225926   5.035   6.574   6.867
 8343SOL     OW25927   0.529   5.676   3.830
 8343SOL    HW125928   0.625   5.695   3.811
 8343SOL    HW225929   0.511   5.579   3.815
 8344SOL     OW25930   5.708   6.087   4.590
 8344SOL    HW125931   5.728   6.013   4.526
 8344SOL    HW225932   5.642   6.150   4.549
 8345SOL     OW25933   3.878   1.955   2.260
 8345SOL    HW125934   3.790   2.003   2.258
 8345SOL    HW225935   3.947   2.012   2.304
 8346SOL     OW25936   4.012   4.887   0.133
 8346SOL    HW125937   3.960   4.953   0.187
 8346SOL    HW225938   3.952   4.848   0.062
 8347SOL     OW25939   3.602   6.367   4.104
 8347SOL    HW125940   3.557   6.288   4.062
 8347SOL    HW225941   3.610   6.352   4.203
 8348SOL     OW25942   2.237   1.325   1.282
 8348SOL    HW125943   2.174   1.403   1.287
 8348SOL    HW225944   2.298   1.337   1.204
 8349SOL     OW25945   6.623   6.960   2.020
 8349SOL    HW125946   6.609   0.023   1.971
 8349SOL    HW225947   6.548   6.897   1.998
 8350SOL     OW25948   3.098   6.672   5.945
 8350SOL    HW125949   3.112   6.759   5.990
 8350SOL    HW225950   3.003   6.643   5.956
 8351SOL     OW25951   5.904   5.127   4.631
 8351SOL    HW125952   5.897   5.123   4.531
 8351SOL    HW225953   5.828   5.182   4.667
 8352SOL     OW25954   6.949   6.985   3.619
 8352SOL    HW125955   6.906   0.045   3.653
 8352SOL    HW225956   6.973   6.996   3.523
 8353SOL     OW25957   6.967   3.816   1.178
 8353SOL    HW125958   0.006   3.893   1.195
 8353SOL    HW225959   6.873   3.849   1.173
 8354SOL     OW25960   3.786   0.155   4.802
 8354SOL    HW125961   3.722   0.152   4.878
 8354SOL    HW225962   3.826   0.247   4.795
 8355SOL     OW25963   2.930   0.760   5.916
 8355SOL    HW125964   2.856   0.708   5.872
 8355SOL    HW225965   3.018   0.726   5.883
 8356SOL     OW25966   0.541   6.987   1.469
 8356SOL    HW125967   0.558   6.923   1.394
 8356SOL    HW225968   0.493   6.939   1.543
 8357SOL     OW25969   3.902   0.052   5.118
 8357SOL    HW125970   3.934   0.141   5.085
 8357SOL    HW225971   3.937   7.003   5.058
 8358SOL     OW25972   1.772   4.556   4.878
 8358SOL    HW125973   1.748   4.652   4.876
 8358SOL    HW225974   1.848   4.542   4.942
 8359SOL     OW25975   3.669   0.658   4.983
 8359SOL    HW125976   3.622   0.728   5.038
 8359SOL    HW225977   3.737   0.701   4.925
 8360SOL     OW25978   3.816   6.557   0.798
 8360SOL    HW125979   3.849   6.581   0.889
 8360SOL    HW225980   3.751   6.627   0.767
 8361SOL     OW25981   3.469   6.968   1.493
 8361SOL    HW125982   3.522   0.026   1.515
 8361SOL    HW225983   3.530   6.894   1.467
 8362SOL     OW25984   4.081   1.386   1.132
 8362SOL    HW125985   4.132   1.385   1.218
 8362SOL    HW225986   3.991   1.346   1.146
 8363SOL     OW25987   5.264   3.251   0.023
 8363SOL    HW125988   5.264   3.254   6.946
 8363SOL    HW225989   5.201   3.180   0.054
 8364SOL     OW25990   0.884   2.424   3.746
 8364SOL    HW125991   0.797   2.458   3.781
 8364SOL    HW225992   0.923   2.359   3.812
 8365SOL     OW25993   1.727   3.136   2.297
 8365SOL    HW125994   1.662   3.061   2.311
 8365SOL    HW225995   1.769   3.127   2.206
 8366SOL     OW25996   1.778   5.574   1.461
 8366SOL    HW125997   1.696   5.530   1.498
 8366SOL    HW225998   1.856   5.551   1.520
 8367SOL     OW25999   4.678   5.989   4.863
 8367SOL    HW126000   4.662   5.924   4.937
 8367SOL    HW226001   4.681   6.082   4.900
 8368SOL     OW26002   1.160   0.164   6.702
 8368SOL    HW126003   1.256   0.193   6.708
 8368SOL    HW226004   1.132   0.163   6.606
 8369SOL     OW26005   0.785   6.941   6.255
 8369SOL    HW126006   0.868   6.983   6.217
 8369SOL    HW226007   0.705   6.990   6.221
 8370SOL     OW26008   3.172   1.153   5.784
 8370SOL    HW126009   3.090   1.200   5.751
 8370SOL    HW226010   3.148   1.061   5.814
 8371SOL     OW26011   2.134   4.497   0.606
 8371SOL    HW126012   2.137   4.550   0.522
 8371SOL    HW226013   2.146   4.400   0.586
 8372SOL     OW26014   1.284   4.913   1.751
 8372SOL    HW126015   1.212   4.981   1.738
 8372SOL    HW226016   1.373   4.955   1.739
 8373SOL     OW26017   1.915   0.461   4.298
 8373SOL    HW126018   1.934   0.533   4.364
 8373SOL    HW226019   1.914   0.500   4.206
 8374SOL     OW26020   0.166   0.780   4.945
 8374SOL    HW126021   0.155   0.681   4.935
 8374SOL    HW226022   0.244   0.798   5.005
 8375SOL     OW26023   3.511   6.496   5.171
 8375SOL    HW126024   3.462   6.458   5.249
 8375SOL    HW226025   3.500   6.436   5.092
 8376SOL     OW26026   0.383   1.247   4.254
 8376SOL    HW126027   0.388   1.166   4.313
 8376SOL    HW226028   0.372   1.218   4.159
 8377SOL     OW26029   5.045   5.789   0.663
 8377SOL    HW126030   5.131   5.810   0.708
 8377SOL    HW226031   5.013   5.698   0.691
 8378SOL     OW26032   4.648   4.967   3.026
 8378SOL    HW126033   4.664   4.895   3.094
 8378SOL    HW226034   4.568   5.021   3.053
 8379SOL     OW26035   5.514   3.127   1.207
 8379SOL    HW126036   5.469   3.085   1.128
 8379SOL    HW226037   5.551   3.056   1.267
 8380SOL     OW26038   0.695   0.640   2.628
 8380SOL    HW126039   0.733   0.731   2.645
 8380SOL    HW226040   0.608   0.649   2.579
 8381SOL     OW26041   0.085   2.906   4.529
 8381SOL    HW126042   0.159   2.917   4.463
 8381SOL    HW226043   0.002   2.949   4.494
 8382SOL     OW26044   2.618   0.102   2.759
 8382SOL    HW126045   2.542   0.159   2.725
 8382SOL    HW226046   2.703   0.132   2.717
 8383SOL     OW26047   2.996   6.808   5.627
 8383SOL    HW126048   3.073   6.866   5.655
 8383SOL    HW226049   2.921   6.865   5.594
 8384SOL     OW26050   6.448   1.072   1.615
 8384SOL    HW126051   6.523   1.084   1.550
 8384SOL    HW226052   6.459   1.136   1.691
 8385SOL     OW26053   5.758   2.513   0.499
 8385SOL    HW126054   5.779   2.519   0.596
 8385SOL    HW226055   5.843   2.509   0.446
 8386SOL     OW26056   1.802   5.685   1.755
 8386SOL    HW126057   1.842   5.744   1.824
 8386SOL    HW226058   1.764   5.741   1.681
 8387SOL     OW26059   1.174   1.429   1.705
 8387SOL    HW126060   1.165   1.472   1.795
 8387SOL    HW226061   1.105   1.358   1.695
 8388SOL     OW26062   2.095   6.806   0.543
 8388SOL    HW126063   2.170   6.859   0.583
 8388SOL    HW226064   2.129   6.716   0.515
 8389SOL     OW26065   0.090   3.663   3.492
 8389SOL    HW126066   0.032   3.617   3.425
 8389SOL    HW226067   0.182   3.674   3.455
 8390SOL     OW26068   4.442   0.633   0.265
 8390SOL    HW126069   4.494   0.718   0.270
 8390SOL    HW226070   4.438   0.602   0.170
 8391SOL     OW26071   6.264   5.186   1.151
 8391SOL    HW126072   6.293   5.103   1.199
 8391SOL    HW226073   6.344   5.229   1.108
 8392SOL     OW26074   6.926   4.736   5.313
 8392SOL    HW126075   6.975   4.696   5.390
 8392SOL    HW226076   6.906   4.665   5.245
 8393SOL     OW26077   0.474   7.023   2.596
 8393SOL    HW126078   0.431   7.002   2.684
 8393SOL    HW226079   0.434   6.965   2.525
 8394SOL     OW26080   6.391   2.914   2.061
 8394SOL    HW126081   6.402   2.824   2.020
 8394SOL    HW226082   6.386   2.983   1.989
 8395SOL     OW26083   1.890   6.788   5.004
 8395SOL    HW126084   1.918   6.732   4.927
 8395SOL    HW226085   1.968   6.839   5.039
 8396SOL     OW26086   4.423   5.210   2.688
 8396SOL    HW126087   4.409   5.276   2.614
 8396SOL    HW226088   4.334   5.172   2.716
 8397SOL     OW26089   2.585   0.440   2.814
 8397SOL    HW126090   2.554   0.528   2.849
 8397SOL    HW226091   2.612   0.381   2.890
 8398SOL     OW26092   4.346   1.976   6.773
 8398SOL    HW126093   4.406   1.987   6.852
 8398SOL    HW226094   4.271   2.041   6.779
 8399SOL     OW26095   5.988   5.825   6.931
 8399SOL    HW126096   6.075   5.778   6.918
 8399SOL    HW226097   5.984   5.863   0.000
 8400SOL     OW26098   1.342   1.563   4.516
 8400SOL    HW126099   1.334   1.602   4.608
 8400SOL    HW226100   1.429   1.591   4.475
 8401SOL     OW26101   2.865   1.379   6.500
 8401SOL    HW126102   2.772   1.367   6.465
 8401SOL    HW226103   2.872   1.467   6.547
 8402SOL     OW26104   3.990   1.882   5.388
 8402SOL    HW126105   4.056   1.807   5.395
 8402SOL    HW226106   3.898   1.845   5.373
 8403SOL     OW26107   1.147   2.019   4.415
 8403SOL    HW126108   1.070   2.068   4.455
 8403SOL    HW226109   1.233   2.061   4.443
 8404SOL     OW26110   4.642   6.801   5.356
 8404SOL    HW126111   4.587   6.718   5.364
 8404SOL    HW226112   4.598   6.874   5.408
 8405SOL     OW26113   2.333   0.397   5.654
 8405SOL    HW126114   2.251   0.391   5.710
 8405SOL    HW226115   2.342   0.489   5.617
 8406SOL     OW26116   5.507   0.090   0.411
 8406SOL    HW126117   5.559   0.040   0.481
 8406SOL    HW226118   5.447   0.028   0.362
 8407SOL     OW26119   3.317   6.230   3.818
 8407SOL    HW126120   3.239   6.279   3.779
 8407SOL    HW226121   3.401   6.255   3.769
 8408SOL     OW26122   5.665   3.739   2.191
 8408SOL    HW126123   5.737   3.802   2.221
 8408SOL    HW226124   5.653   3.666   2.258
 8409SOL     OW26125   5.651   2.704   3.495
 8409SOL    HW126126   5.723   2.677   3.558
 8409SOL    HW226127   5.597   2.778   3.536
 8410SOL     OW26128   5.519   0.897   1.949
 8410SOL    HW126129   5.528   0.816   1.892
 8410SOL    HW226130   5.518   0.978   1.890
 8411SOL     OW26131   0.448   4.526   6.860
 8411SOL    HW126132   0.362   4.577   6.852
 8411SOL    HW226133   0.521   4.577   6.815
 8412SOL     OW26134   2.920   1.479   1.246
 8412SOL    HW126135   2.893   1.494   1.151
 8412SOL    HW226136   2.854   1.420   1.291
 8413SOL     OW26137   4.265   5.385   6.758
 8413SOL    HW126138   4.276   5.446   6.680
 8413SOL    HW226139   4.237   5.438   6.838
 8414SOL     OW26140   3.608   4.951   3.433
 8414SOL    HW126141   3.656   4.933   3.347
 8414SOL    HW226142   3.510   4.938   3.420
 8415SOL     OW26143   6.895   6.083   4.338
 8415SOL    HW126144   6.877   6.181   4.352
 8415SOL    HW226145   6.939   6.045   4.420
 8416SOL     OW26146   5.480   3.481   2.044
 8416SOL    HW126147   5.510   3.468   2.139
 8416SOL    HW226148   5.553   3.452   1.982
 8417SOL     OW26149   1.477   4.052   5.977
 8417SOL    HW126150   1.510   4.137   5.936
 8417SOL    HW226151   1.482   3.978   5.909
 8418SOL     OW26152   6.186   5.116   0.910
 8418SOL    HW126153   6.219   5.144   1.000
 8418SOL    HW226154   6.161   5.020   0.911
 8419SOL     OW26155   5.348   0.394   2.366
 8419SOL    HW126156   5.275   0.370   2.430
 8419SOL    HW226157   5.425   0.332   2.377
 8420SOL     OW26158   4.632   6.848   0.362
 8420SOL    HW126159   4.673   6.901   0.288
 8420SOL    HW226160   4.544   6.812   0.334
 8421SOL     OW26161   1.065   5.464   6.865
 8421SOL    HW126162   1.159   5.431   6.863
 8421SOL    HW226163   1.062   5.559   6.835
 8422SOL     OW26164   3.758   1.435   0.982
 8422SOL    HW126165   3.700   1.357   0.957
 8422SOL    HW226166   3.709   1.520   0.963
 8423SOL     OW26167   3.298   4.222   5.836
 8423SOL    HW126168   3.314   4.278   5.917
 8423SOL    HW226169   3.203   4.190   5.834
 8424SOL     OW26170   2.029   2.419   2.411
 8424SOL    HW126171   2.050   2.355   2.485
 8424SOL    HW226172   2.098   2.491   2.409
 8425SOL     OW26173   5.034   5.082   6.429
 8425SOL    HW126174   5.026   5.007   6.364
 8425SOL    HW226175   5.109   5.062   6.493
 8426SOL     OW26176   3.468   3.634   3.515
 8426SOL    HW126177   3.478   3.588   3.427
 8426SOL    HW226178   3.486   3.568   3.589
 8427SOL     OW26179   4.166   3.661   4.594
 8427SOL    HW126180   4.175   3.566   4.622
 8427SOL    HW226181   4.165   3.720   4.675
 8428SOL     OW26182   0.615   5.042   1.584
 8428SOL    HW126183   0.697   5.002   1.626
 8428SOL    HW226184   0.591   5.127   1.630
 8429SOL     OW26185   1.844   5.588   4.373
 8429SOL    HW126186   1.843   5.573   4.472
 8429SOL    HW226187   1.923   5.645   4.349
 8430SOL     OW26188   3.723   5.203   3.483
 8430SOL    HW126189   3.679   5.117   3.457
 8430SOL    HW226190   3.677   5.279   3.436
 8431SOL     OW26191   2.987   4.262   0.406
 8431SOL    HW126192   2.897   4.232   0.375
 8431SOL    HW226193   2.998   4.243   0.503
 8432SOL     OW26194   5.368   6.869   6.343
 8432SOL    HW126195   5.291   6.826   6.391
 8432SOL    HW226196   5.437   6.799   6.322
 8433SOL     OW26197   4.985   2.834   0.610
 8433SOL    HW126198   5.053   2.819   0.538
 8433SOL    HW226199   4.944   2.924   0.598
 8434SOL     OW26200   2.791   6.513   4.802
 8434SOL    HW126201   2.805   6.524   4.900
 8434SOL    HW226202   2.743   6.428   4.783
 8435SOL     OW26203   6.129   1.005   1.819
 8435SOL    HW126204   6.153   1.102   1.813
 8435SOL    HW226205   6.029   0.995   1.819
 8436SOL     OW26206   3.417   6.919   3.251
 8436SOL    HW126207   3.493   6.861   3.281
 8436SOL    HW226208   3.420   6.928   3.151
 8437SOL     OW26209   2.222   0.605   4.499
 8437SOL    HW126210   2.254   0.693   4.462
 8437SOL    HW226211   2.123   0.600   4.492
 8438SOL     OW26212   2.431   4.452   2.318
 8438SOL    HW126213   2.469   4.465   2.409
 8438SOL    HW226214   2.500   4.476   2.249
 8439SOL     OW26215   6.566   4.998   2.349
 8439SOL    HW126216   6.500   5.058   2.304
 8439SOL    HW226217   6.658   5.018   2.315
 8440SOL     OW26218   1.239   2.729   3.774
 8440SOL    HW126219   1.239   2.669   3.694
 8440SOL    HW226220   1.199   2.680   3.852
 8441SOL     OW26221   5.865   6.669   0.550
 8441SOL    HW126222   5.882   6.688   0.454
 8441SOL    HW226223   5.858   6.756   0.600
 8442SOL     OW26224   2.818   1.518   4.843
 8442SOL    HW126225   2.903   1.553   4.803
 8442SOL    HW226226   2.834   1.426   4.879
 8443SOL     OW26227   2.658   5.016   3.831
 8443SOL    HW126228   2.587   5.064   3.779
 8443SOL    HW226229   2.698   5.078   3.898
 8444SOL     OW26230   2.596   6.167   3.849
 8444SOL    HW126231   2.609   6.200   3.756
 8444SOL    HW226232   2.600   6.244   3.912
 8445SOL     OW26233   4.067   6.423   0.862
 8445SOL    HW126234   4.032   6.375   0.942
 8445SOL    HW226235   3.992   6.442   0.799
 8446SOL     OW26236   4.611   4.505   6.828
 8446SOL    HW126237   4.679   4.470   6.763
 8446SOL    HW226238   4.541   4.556   6.778
 8447SOL     OW26239   5.040   2.246   2.123
 8447SOL    HW126240   5.030   2.329   2.179
 8447SOL    HW226241   4.950   2.218   2.089
 8448SOL     OW26242   4.261   5.706   4.094
 8448SOL    HW126243   4.360   5.696   4.102
 8448SOL    HW226244   4.239   5.756   4.010
 8449SOL     OW26245   6.711   2.730   3.743
 8449SOL    HW126246   6.697   2.745   3.645
 8449SOL    HW226247   6.640   2.779   3.794
 8450SOL     OW26248   0.582   6.556   0.659
 8450SOL    HW126249   0.543   6.631   0.713
 8450SOL    HW226250   0.629   6.493   0.720
 8451SOL     OW26251   3.769   1.780   0.424
 8451SOL    HW126252   3.714   1.850   0.378
 8451SOL    HW226253   3.717   1.740   0.499
 8452SOL     OW26254   5.650   1.589   2.970
 8452SOL    HW126255   5.644   1.689   2.969
 8452SOL    HW226256   5.568   1.551   2.927
 8453SOL     OW26257   0.320   4.476   6.551
 8453SOL    HW126258   0.384   4.493   6.625
 8453SOL    HW226259   0.248   4.415   6.583
 8454SOL     OW26260   6.867   6.688   1.441
 8454SOL    HW126261   6.958   6.647   1.433
 8454SOL    HW226262   6.798   6.617   1.430
 8455SOL     OW26263   6.437   2.675   1.937
 8455SOL    HW126264   6.414   2.667   1.840
 8455SOL    HW226265   6.526   2.633   1.954
 8456SOL     OW26266   3.794   5.928   2.956
 8456SOL    HW126267   3.891   5.922   2.933
 8456SOL    HW226268   3.747   5.846   2.924
 8457SOL     OW26269   6.868   6.715   4.936
 8457SOL    HW126270   6.883   6.658   4.855
 8457SOL    HW226271   6.835   6.805   4.908
 8458SOL     OW26272   3.442   1.466   6.754
 8458SOL    HW126273   3.380   1.543   6.742
 8458SOL    HW226274   3.408   1.407   6.827
 8459SOL     OW26275   2.765   5.728   2.172
 8459SOL    HW126276   2.819   5.708   2.254
 8459SOL    HW226277   2.766   5.648   2.111
 8460SOL     OW26278   4.285   3.880   5.513
 8460SOL    HW126279   4.244   3.789   5.514
 8460SOL    HW226280   4.362   3.882   5.449
 8461SOL     OW26281   7.006   4.216   3.996
 8461SOL    HW126282   0.014   4.122   4.012
 8461SOL    HW226283   0.036   4.279   4.051
 8462SOL     OW26284   3.070   2.977   6.355
 8462SOL    HW126285   2.991   2.959   6.414
 8462SOL    HW226286   3.109   3.066   6.378
 8463SOL     OW26287   6.650   0.124   1.354
 8463SOL    HW126288   6.603   0.043   1.318
 8463SOL    HW226289   6.609   0.206   1.315
 8464SOL     OW26290   5.454   3.387   4.837
 8464SOL    HW126291   5.464   3.340   4.749
 8464SOL    HW226292   5.437   3.484   4.821
 8465SOL     OW26293   0.819   2.594   0.920
 8465SOL    HW126294   0.780   2.512   0.964
 8465SOL    HW226295   0.854   2.569   0.829
 8466SOL     OW26296   0.138   6.970   4.364
 8466SOL    HW126297   0.137   0.033   4.414
 8466SOL    HW226298   0.167   6.986   4.269
 8467SOL     OW26299   4.261   0.024   0.612
 8467SOL    HW126300   4.356   0.043   0.636
 8467SOL    HW226301   4.201   0.060   0.684
 8468SOL     OW26302   3.885   2.253   6.673
 8468SOL    HW126303   3.891   2.307   6.757
 8468SOL    HW226304   3.827   2.173   6.689
 8469SOL     OW26305   3.259   1.576   6.486
 8469SOL    HW126306   3.180   1.611   6.436
 8469SOL    HW226307   3.227   1.512   6.557
 8470SOL     OW26308   1.776   3.828   0.203
 8470SOL    HW126309   1.870   3.813   0.234
 8470SOL    HW226310   1.758   3.926   0.198
 8471SOL     OW26311   3.551   1.022   3.513
 8471SOL    HW126312   3.620   1.086   3.481
 8471SOL    HW226313   3.582   0.928   3.497
 8472SOL     OW26314   6.806   0.860   5.360
 8472SOL    HW126315   6.713   0.875   5.326
 8472SOL    HW226316   6.801   0.811   5.447
 8473SOL     OW26317   6.368   5.957   6.896
 8473SOL    HW126318   6.322   5.870   6.880
 8473SOL    HW226319   6.380   6.005   6.810
 8474SOL     OW26320   3.516   3.055   1.665
 8474SOL    HW126321   3.602   3.100   1.691
 8474SOL    HW226322   3.537   2.966   1.624
 8475SOL     OW26323   6.905   2.492   3.661
 8475SOL    HW126324   6.977   2.498   3.731
 8475SOL    HW226325   6.820   2.531   3.697
 8476SOL     OW26326   6.693   2.083   1.187
 8476SOL    HW126327   6.679   2.180   1.165
 8476SOL    HW226328   6.790   2.060   1.177
 8477SOL     OW26329   5.184   6.427   0.893
 8477SOL    HW126330   5.133   6.455   0.812
 8477SOL    HW226331   5.194   6.506   0.955
 8478SOL     OW26332   0.883   6.450   5.837
 8478SOL    HW126333   0.979   6.475   5.849
 8478SOL    HW226334   0.824   6.518   5.881
 8479SOL     OW26335   0.735   2.441   1.179
 8479SOL    HW126336   0.806   2.479   1.239
 8479SOL    HW226337   0.727   2.343   1.197
 8480SOL     OW26338   4.450   1.486   0.158
 8480SOL    HW126339   4.384   1.411   0.158
 8480SOL    HW226340   4.444   1.537   0.072
 8481SOL     OW26341   3.974   2.153   3.801
 8481SOL    HW126342   4.023   2.179   3.885
 8481SOL    HW226343   4.040   2.137   3.728
 8482SOL     OW26344   4.475   5.945   1.704
 8482SOL    HW126345   4.483   5.869   1.640
 8482SOL    HW226346   4.566   5.984   1.721
 8483SOL     OW26347   4.755   6.517   2.598
 8483SOL    HW126348   4.829   6.578   2.626
 8483SOL    HW226349   4.795   6.434   2.558
 8484SOL     OW26350   0.750   6.072   3.593
 8484SOL    HW126351   0.698   5.986   3.587
 8484SOL    HW226352   0.731   6.127   3.512
 8485SOL     OW26353   3.995   3.067   0.017
 8485SOL    HW126354   3.932   2.991   0.035
 8485SOL    HW226355   4.079   3.031   7.000
 8486SOL     OW26356   3.200   0.966   2.622
 8486SOL    HW126357   3.289   0.979   2.579
 8486SOL    HW226358   3.208   0.897   2.694
 8487SOL     OW26359   5.682   1.707   6.003
 8487SOL    HW126360   5.774   1.712   6.042
 8487SOL    HW226361   5.654   1.611   5.995
 8488SOL     OW26362   5.565   5.700   0.036
 8488SOL    HW126363   5.483   5.650   0.064
 8488SOL    HW226364   5.561   5.793   0.073
 8489SOL     OW26365   6.154   1.988   1.228
 8489SOL    HW126366   6.130   1.891   1.225
 8489SOL    HW226367   6.226   2.002   1.296
 8490SOL     OW26368   4.419   6.545   3.847
 8490SOL    HW126369   4.398   6.466   3.904
 8490SOL    HW226370   4.417   6.518   3.750
 8491SOL     OW26371   2.345   6.125   0.535
 8491SOL    HW126372   2.373   6.111   0.440
 8491SOL    HW226373   2.255   6.084   0.549
 8492SOL     OW26374   4.703   4.014   6.432
 8492SOL    HW126375   4.722   3.949   6.358
 8492SOL    HW226376   4.616   4.059   6.416
 8493SOL     OW26377   2.714   2.660   6.563
 8493SOL    HW126378   2.642   2.608   6.609
 8493SOL    HW226379   2.686   2.679   6.469
 8494SOL     OW26380   3.306   5.293   0.762
 8494SOL    HW126381   3.329   5.210   0.711
 8494SOL    HW226382   3.386   5.353   0.765
 8495SOL     OW26383   6.392   5.148   2.193
 8495SOL    HW126384   6.313   5.173   2.249
 8495SOL    HW226385   6.449   5.229   2.179
 8496SOL     OW26386   0.808   2.044   2.064
 8496SOL    HW126387   0.739   2.000   2.122
 8496SOL    HW226388   0.763   2.102   1.997
 8497SOL     OW26389   6.350   0.952   3.508
 8497SOL    HW126390   6.394   1.036   3.539
 8497SOL    HW226391   6.268   0.975   3.455
 8498SOL     OW26392   6.936   6.723   2.569
 8498SOL    HW126393   6.956   6.735   2.666
 8498SOL    HW226394   6.888   6.637   2.555
 8499SOL     OW26395   2.298   4.663   6.711
 8499SOL    HW126396   2.380   4.676   6.655
 8499SOL    HW226397   2.217   4.660   6.653
 8500SOL     OW26398   1.761   6.314   5.311
 8500SOL    HW126399   1.710   6.345   5.391
 8500SOL    HW226400   1.787   6.394   5.256
 8501SOL     OW26401   0.511   1.741   6.901
 8501SOL    HW126402   0.571   1.703   6.830
 8501SOL    HW226403   0.426   1.772   6.859
 8502SOL     OW26404   1.247   4.126   1.103
 8502SOL    HW126405   1.307   4.125   1.023
 8502SOL    HW226406   1.251   4.037   1.148
 8503SOL     OW26407   1.900   0.186   4.210
 8503SOL    HW126408   1.895   0.169   4.112
 8503SOL    HW226409   1.884   0.283   4.228
 8504SOL     OW26410   2.705   5.314   2.459
 8504SOL    HW126411   2.692   5.317   2.360
 8504SOL    HW226412   2.801   5.334   2.481
 8505SOL     OW26413   4.862   3.163   3.918
 8505SOL    HW126414   4.874   3.255   3.880
 8505SOL    HW226415   4.872   3.167   4.018
 8506SOL     OW26416   6.880   1.152   6.247
 8506SOL    HW126417   6.826   1.068   6.251
 8506SOL    HW226418   6.908   1.178   6.339
 8507SOL     OW26419   3.731   1.035   5.410
 8507SOL    HW126420   3.686   1.115   5.368
 8507SOL    HW226421   3.824   1.059   5.436
 8508SOL     OW26422   6.480   1.894   5.549
 8508SOL    HW126423   6.487   1.832   5.471
 8508SOL    HW226424   6.391   1.881   5.593
 8509SOL     OW26425   4.027   1.562   3.598
 8509SOL    HW126426   4.110   1.617   3.610
 8509SOL    HW226427   4.041   1.471   3.636
 8510SOL     OW26428   5.864   4.021   3.528
 8510SOL    HW126429   5.816   3.955   3.471
 8510SOL    HW226430   5.867   4.109   3.481
 8511SOL     OW26431   6.439   3.819   2.075
 8511SOL    HW126432   6.357   3.844   2.024
 8511SOL    HW226433   6.455   3.885   2.148
 8512SOL     OW26434   3.503   2.225   1.732
 8512SOL    HW126435   3.587   2.253   1.780
 8512SOL    HW226436   3.433   2.295   1.745
 8513SOL     OW26437   5.673   4.341   1.071
 8513SOL    HW126438   5.683   4.311   1.166
 8513SOL    HW226439   5.752   4.397   1.045
 8514SOL     OW26440   2.484   2.472   4.055
 8514SOL    HW126441   2.476   2.530   3.974
 8514SOL    HW226442   2.419   2.396   4.048
 8515SOL     OW26443   5.709   1.721   0.863
 8515SOL    HW126444   5.614   1.702   0.839
 8515SOL    HW226445   5.735   1.666   0.943
 8516SOL     OW26446   6.440   2.512   1.492
 8516SOL    HW126447   6.393   2.550   1.413
 8516SOL    HW226448   6.422   2.569   1.573
 8517SOL     OW26449   1.610   3.151   6.116
 8517SOL    HW126450   1.704   3.133   6.086
 8517SOL    HW226451   1.546   3.115   6.048
 8518SOL     OW26452   4.873   3.910   0.120
 8518SOL    HW126453   4.842   3.871   0.207
 8518SOL    HW226454   4.964   3.875   0.099
 8519SOL     OW26455   1.077   3.952   1.559
 8519SOL    HW126456   1.086   4.049   1.580
 8519SOL    HW226457   1.159   3.904   1.589
 8520SOL     OW26458   3.780   2.852   6.987
 8520SOL    HW126459   3.827   2.774   6.946
 8520SOL    HW226460   3.682   2.832   6.994
 8521SOL     OW26461   2.061   4.889   6.224
 8521SOL    HW126462   2.030   4.885   6.129
 8521SOL    HW226463   2.002   4.950   6.276
 8522SOL     OW26464   1.563   6.637   1.608
 8522SOL    HW126465   1.574   6.639   1.509
 8522SOL    HW226466   1.514   6.554   1.635
 8523SOL     OW26467   1.995   6.415   6.818
 8523SOL    HW126468   1.933   6.480   6.864
 8523SOL    HW226469   1.968   6.322   6.840
 8524SOL     OW26470   0.538   2.642   4.958
 8524SOL    HW126471   0.537   2.592   4.871
 8524SOL    HW226472   0.591   2.726   4.947
 8525SOL     OW26473   5.838   3.732   2.905
 8525SOL    HW126474   5.866   3.740   2.809
 8525SOL    HW226475   5.865   3.643   2.940
 8526SOL     OW26476   3.829   5.762   6.653
 8526SOL    HW126477   3.820   5.663   6.646
 8526SOL    HW226478   3.923   5.786   6.677
 8527SOL     OW26479   2.976   0.870   6.304
 8527SOL    HW126480   2.987   0.770   6.298
 8527SOL    HW226481   3.023   0.903   6.386
 8528SOL     OW26482   3.540   1.775   6.264
 8528SOL    HW126483   3.504   1.845   6.326
 8528SOL    HW226484   3.640   1.777   6.266
 8529SOL     OW26485   1.038   0.568   1.325
 8529SOL    HW126486   1.103   0.600   1.257
 8529SOL    HW226487   1.006   0.645   1.380
 8530SOL     OW26488   3.290   3.982   4.815
 8530SOL    HW126489   3.256   3.890   4.833
 8530SOL    HW226490   3.281   4.003   4.718
 8531SOL     OW26491   6.789   5.419   2.432
 8531SOL    HW126492   6.731   5.421   2.350
 8531SOL    HW226493   6.885   5.423   2.405
 8532SOL     OW26494   3.629   4.988   4.690
 8532SOL    HW126495   3.706   4.995   4.627
 8532SOL    HW226496   3.598   4.894   4.695
 8533SOL     OW26497   1.442   0.135   6.412
 8533SOL    HW126498   1.439   0.234   6.423
 8533SOL    HW226499   1.427   0.091   6.501
 8534SOL     OW26500   6.359   2.957   4.011
 8534SOL    HW126501   6.366   2.897   4.091
 8534SOL    HW226502   6.271   2.943   3.966
 8535SOL     OW26503   6.464   1.470   4.673
 8535SOL    HW126504   6.476   1.546   4.609
 8535SOL    HW226505   6.380   1.484   4.725
 8536SOL     OW26506   6.269   2.720   5.088
 8536SOL    HW126507   6.312   2.718   4.998
 8536SOL    HW226508   6.339   2.716   5.159
 8537SOL     OW26509   5.174   1.536   2.116
 8537SOL    HW126510   5.222   1.524   2.203
 8537SOL    HW226511   5.078   1.556   2.134
 8538SOL     OW26512   0.606   0.791   6.628
 8538SOL    HW126513   0.634   0.802   6.723
 8538SOL    HW226514   0.649   0.708   6.590
 8539SOL     OW26515   5.682   1.044   2.242
 8539SOL    HW126516   5.680   1.061   2.144
 8539SOL    HW226517   5.692   0.946   2.259
 8540SOL     OW26518   4.693   0.621   6.968
 8540SOL    HW126519   4.765   0.570   7.015
 8540SOL    HW226520   4.606   0.575   6.981
 8541SOL     OW26521   2.680   1.835   4.902
 8541SOL    HW126522   2.656   1.741   4.927
 8541SOL    HW226523   2.752   1.868   4.963
 8542SOL     OW26524   3.936   4.815   6.699
 8542SOL    HW126525   3.976   4.768   6.778
 8542SOL    HW226526   3.885   4.749   6.643
 8543SOL     OW26527   3.139   0.332   0.654
 8543SOL    HW126528   3.134   0.429   0.678
 8543SOL    HW226529   3.060   0.307   0.600
 8544SOL     OW26530   5.501   3.128   4.641
 8544SOL    HW126531   5.406   3.098   4.634
 8544SOL    HW226532   5.519   3.198   4.571
 8545SOL     OW26533   4.677   6.670   4.715
 8545SOL    HW126534   4.578   6.685   4.714
 8545SOL    HW226535   4.720   6.727   4.645
 8546SOL     OW26536   0.182   0.787   3.347
 8546SOL    HW126537   0.220   0.816   3.435
 8546SOL    HW226538   0.164   0.688   3.349
 8547SOL     OW26539   1.353   6.531   6.216
 8547SOL    HW126540   1.269   6.479   6.205
 8547SOL    HW226541   1.370   6.547   6.313
 8548SOL     OW26542   6.070   3.435   5.349
 8548SOL    HW126543   6.162   3.467   5.325
 8548SOL    HW226544   6.019   3.414   5.266
 8549SOL     OW26545   1.107   2.919   4.514
 8549SOL    HW126546   1.180   2.974   4.554
 8549SOL    HW226547   1.019   2.946   4.554
 8550SOL     OW26548   1.554   4.712   6.739
 8550SOL    HW126549   1.571   4.681   6.645
 8550SOL    HW226550   1.587   4.806   6.750
 8551SOL     OW26551   2.741   3.544   6.374
 8551SOL    HW126552   2.822   3.590   6.340
 8551SOL    HW226553   2.736   3.555   6.474
 8552SOL     OW26554   2.919   0.656   3.766
 8552SOL    HW126555   2.961   0.613   3.686
 8552SOL    HW226556   2.841   0.711   3.736
 8553SOL     OW26557   4.260   3.850   6.704
 8553SOL    HW126558   4.308   3.828   6.619
 8553SOL    HW226559   4.326   3.850   6.780
 8554SOL     OW26560   1.026   4.544   0.676
 8554SOL    HW126561   1.055   4.635   0.707
 8554SOL    HW226562   0.986   4.494   0.753
 8555SOL     OW26563   2.286   1.351   3.715
 8555SOL    HW126564   2.263   1.352   3.618
 8555SOL    HW226565   2.211   1.392   3.768
 8556SOL     OW26566   1.265   5.817   5.003
 8556SOL    HW126567   1.288   5.746   4.937
 8556SOL    HW226568   1.317   5.900   4.982
 8557SOL     OW26569   5.780   6.662   2.764
 8557SOL    HW126570   5.802   6.649   2.667
 8557SOL    HW226571   5.688   6.701   2.773
 8558SOL     OW26572   2.380   4.654   2.787
 8558SOL    HW126573   2.421   4.745   2.793
 8558SOL    HW226574   2.397   4.605   2.873
 8559SOL     OW26575   1.540   0.221   2.576
 8559SOL    HW126576   1.487   0.170   2.509
 8559SOL    HW226577   1.533   0.178   2.665
 8560SOL     OW26578   6.697   6.181   1.714
 8560SOL    HW126579   6.617   6.221   1.670
 8560SOL    HW226580   6.753   6.135   1.645
 8561SOL     OW26581   3.442   0.525   2.103
 8561SOL    HW126582   3.385   0.472   2.165
 8561SOL    HW226583   3.485   0.600   2.153
 8562SOL     OW26584   4.216   6.396   5.909
 8562SOL    HW126585   4.232   6.482   5.958
 8562SOL    HW226586   4.252   6.320   5.963
 8563SOL     OW26587   1.590   4.279   0.164
 8563SOL    HW126588   1.585   4.369   0.122
 8563SOL    HW226589   1.497   4.241   0.171
 8564SOL     OW26590   3.651   0.898   5.190
 8564SOL    HW126591   3.681   0.949   5.110
 8564SOL    HW226592   3.684   0.942   5.273
 8565SOL     OW26593   3.841   5.302   0.959
 8565SOL    HW126594   3.800   5.351   1.036
 8565SOL    HW226595   3.924   5.351   0.930
 8566SOL     OW26596   2.153   0.321   1.064
 8566SOL    HW126597   2.214   0.400   1.071
 8566SOL    HW226598   2.100   0.326   0.980
 8567SOL     OW26599   0.752   2.563   3.023
 8567SOL    HW126600   0.656   2.558   3.050
 8567SOL    HW226601   0.785   2.656   3.036
 8568SOL     OW26602   5.559   1.243   0.064
 8568SOL    HW126603   5.656   1.226   0.082
 8568SOL    HW226604   5.504   1.187   0.126
 8569SOL     OW26605   5.080   1.035   6.213
 8569SOL    HW126606   5.003   0.980   6.244
 8569SOL    HW226607   5.132   1.067   6.293
 8570SOL     OW26608   1.700   1.813   5.097
 8570SOL    HW126609   1.656   1.795   5.185
 8570SOL    HW226610   1.763   1.738   5.076
 8571SOL     OW26611   1.701   5.922   5.199
 8571SOL    HW126612   1.654   5.870   5.271
 8571SOL    HW226613   1.729   5.859   5.126
 8572SOL     OW26614   3.300   4.703   6.346
 8572SOL    HW126615   3.322   4.794   6.381
 8572SOL    HW226616   3.349   4.634   6.399
 8573SOL     OW26617   3.260   5.955   0.070
 8573SOL    HW126618   3.172   5.987   0.034
 8573SOL    HW226619   3.251   5.933   0.167
 8574SOL     OW26620   0.068   5.842   5.940
 8574SOL    HW126621   0.060   5.941   5.952
 8574SOL    HW226622   0.151   5.810   5.986
 8575SOL     OW26623   1.962   2.990   4.630
 8575SOL    HW126624   1.953   2.935   4.548
 8575SOL    HW226625   1.962   3.087   4.605
 8576SOL     OW26626   1.489   5.230   6.314
 8576SOL    HW126627   1.481   5.139   6.354
 8576SOL    HW226628   1.570   5.233   6.255
 8577SOL     OW26629   0.550   6.583   5.069
 8577SOL    HW126630   0.557   6.676   5.105
 8577SOL    HW226631   0.554   6.518   5.144
 8578SOL     OW26632   5.348   6.771   3.828
 8578SOL    HW126633   5.319   6.723   3.911
 8578SOL    HW226634   5.444   6.798   3.837
 8579SOL     OW26635   2.213   6.676   2.304
 8579SOL    HW126636   2.183   6.745   2.370
 8579SOL    HW226637   2.133   6.629   2.267
 8580SOL     OW26638   2.033   5.750   2.115
 8580SOL    HW126639   1.981   5.707   2.189
 8580SOL    HW226640   2.109   5.801   2.154
 8581SOL     OW26641   3.285   4.040   2.042
 8581SOL    HW126642   3.384   4.049   2.032
 8581SOL    HW226643   3.263   3.949   2.078
 8582SOL     OW26644   4.387   4.650   3.717
 8582SOL    HW126645   4.291   4.638   3.692
 8582SOL    HW226646   4.422   4.733   3.673
 8583SOL     OW26647   5.605   0.481   4.248
 8583SOL    HW126648   5.541   0.427   4.194
 8583SOL    HW226649   5.664   0.534   4.187
 8584SOL     OW26650   1.023   4.861   5.643
 8584SOL    HW126651   0.945   4.828   5.696
 8584SOL    HW226652   1.103   4.872   5.702
 8585SOL     OW26653   0.576   6.163   5.661
 8585SOL    HW126654   0.623   6.190   5.745
 8585SOL    HW226655   0.579   6.063   5.652
 8586SOL     OW26656   2.955   6.623   2.211
 8586SOL    HW126657   3.024   6.686   2.248
 8586SOL    HW226658   3.000   6.555   2.153
 8587SOL     OW26659   1.133   6.806   3.913
 8587SOL    HW126660   1.077   6.724   3.925
 8587SOL    HW226661   1.188   6.798   3.830
 8588SOL     OW26662   2.724   1.258   0.205
 8588SOL    HW126663   2.741   1.209   0.119
 8588SOL    HW226664   2.736   1.195   0.281
 8589SOL     OW26665   4.603   3.026   5.410
 8589SOL    HW126666   4.536   3.100   5.422
 8589SOL    HW226667   4.622   2.984   5.498
 8590SOL     OW26668   6.832   6.076   3.791
 8590SOL    HW126669   6.780   6.160   3.774
 8590SOL    HW226670   6.927   6.099   3.813
 8591SOL     OW26671   0.585   3.932   0.174
 8591SOL    HW126672   0.635   3.910   0.258
 8591SOL    HW226673   0.643   3.987   0.114
 8592SOL     OW26674   6.582   3.071   6.244
 8592SOL    HW126675   6.606   2.974   6.251
 8592SOL    HW226676   6.484   3.079   6.226
 8593SOL     OW26677   2.450   0.816   1.171
 8593SOL    HW126678   2.538   0.776   1.146
 8593SOL    HW226679   2.410   0.863   1.092
 8594SOL     OW26680   4.498   2.331   5.361
 8594SOL    HW126681   4.519   2.234   5.376
 8594SOL    HW226682   4.471   2.373   5.447
 8595SOL     OW26683   0.499   2.035   3.073
 8595SOL    HW126684   0.450   2.078   3.149
 8595SOL    HW226685   0.451   2.054   2.987
 8596SOL     OW26686   0.849   5.504   3.250
 8596SOL    HW126687   0.839   5.487   3.152
 8596SOL    HW226688   0.794   5.583   3.276
 8597SOL     OW26689   4.085   1.802   1.111
 8597SOL    HW126690   4.168   1.793   1.166
 8597SOL    HW226691   4.080   1.725   1.047
 8598SOL     OW26692   6.265   0.321   1.062
 8598SOL    HW126693   6.247   0.230   1.100
 8598SOL    HW226694   6.239   0.391   1.128
 8599SOL     OW26695   1.014   2.849   4.781
 8599SOL    HW126696   0.998   2.763   4.733
 8599SOL    HW226697   1.112   2.858   4.801
 8600SOL     OW26698   5.146   5.168   4.865
 8600SOL    HW126699   5.176   5.079   4.829
 8600SOL    HW226700   5.170   5.173   4.962
 8601SOL     OW26701   0.996   1.398   4.303
 8601SOL    HW126702   1.089   1.387   4.336
 8601SOL    HW226703   0.968   1.316   4.253
 8602SOL     OW26704   2.770   5.042   1.818
 8602SOL    HW126705   2.838   4.969   1.830
 8602SOL    HW226706   2.810   5.129   1.847
 8603SOL     OW26707   4.559   6.020   0.693
 8603SOL    HW126708   4.655   6.000   0.712
 8603SOL    HW226709   4.542   6.118   0.704
 8604SOL     OW26710   0.240   3.048   5.436
 8604SOL    HW126711   0.153   3.043   5.484
 8604SOL    HW226712   0.259   2.961   5.390
 8605SOL     OW26713   2.826   6.482   3.800
 8605SOL    HW126714   2.762   6.556   3.821
 8605SOL    HW226715   2.784   6.394   3.820
 8606SOL     OW26716   1.589   3.541   6.666
 8606SOL    HW126717   1.677   3.493   6.663
 8606SOL    HW226718   1.605   3.639   6.654
 8607SOL     OW26719   3.728   6.295   0.775
 8607SOL    HW126720   3.761   6.389   0.772
 8607SOL    HW226721   3.745   6.257   0.866
 8608SOL     OW26722   3.939   4.840   2.530
 8608SOL    HW126723   3.925   4.775   2.456
 8608SOL    HW226724   4.037   4.859   2.541
 8609SOL     OW26725   4.862   0.777   2.701
 8609SOL    HW126726   4.793   0.738   2.640
 8609SOL    HW226727   4.885   0.710   2.772
 8610SOL     OW26728   1.971   2.334   3.090
 8610SOL    HW126729   2.030   2.332   3.171
 8610SOL    HW226730   1.933   2.244   3.074
 8611SOL     OW26731   2.875   1.218   5.190
 8611SOL    HW126732   2.792   1.162   5.195
 8611SOL    HW226733   2.850   1.314   5.182
 8612SOL     OW26734   3.098   3.239   1.371
 8612SOL    HW126735   3.190   3.222   1.333
 8612SOL    HW226736   3.039   3.160   1.352
 8613SOL     OW26737   2.020   1.934   1.508
 8613SOL    HW126738   2.056   2.021   1.474
 8613SOL    HW226739   2.033   1.930   1.607
 8614SOL     OW26740   0.837   2.495   2.432
 8614SOL    HW126741   0.844   2.396   2.446
 8614SOL    HW226742   0.807   2.539   2.516
 8615SOL     OW26743   4.696   1.418   5.203
 8615SOL    HW126744   4.604   1.448   5.230
 8615SOL    HW226745   4.703   1.319   5.212
 8616SOL     OW26746   3.067   4.523   1.655
 8616SOL    HW126747   2.988   4.503   1.714
 8616SOL    HW226748   3.043   4.595   1.590
 8617SOL     OW26749   6.452   1.200   6.659
 8617SOL    HW126750   6.374   1.174   6.602
 8617SOL    HW226751   6.448   1.151   6.746
 8618SOL     OW26752   5.925   5.916   0.636
 8618SOL    HW126753   5.887   5.974   0.708
 8618SOL    HW226754   5.995   5.967   0.586
 8619SOL     OW26755   3.963   4.830   2.207
 8619SOL    HW126756   3.917   4.792   2.127
 8619SOL    HW226757   4.025   4.903   2.179
 8620SOL     OW26758   1.525   0.761   3.801
 8620SOL    HW126759   1.509   0.664   3.784
 8620SOL    HW226760   1.456   0.815   3.752
 8621SOL     OW26761   5.586   1.881   3.034
 8621SOL    HW126762   5.660   1.900   3.098
 8621SOL    HW226763   5.502   1.924   3.067
 8622SOL     OW26764   5.235   3.430   0.755
 8622SOL    HW126765   5.183   3.493   0.698
 8622SOL    HW226766   5.331   3.457   0.755
 8623SOL     OW26767   1.128   3.780   4.448
 8623SOL    HW126768   1.093   3.744   4.362
 8623SOL    HW226769   1.103   3.877   4.457
 8624SOL     OW26770   1.465   3.652   4.981
 8624SOL    HW126771   1.420   3.734   5.016
 8624SOL    HW226772   1.544   3.679   4.925
 8625SOL     OW26773   4.841   0.689   6.015
 8625SOL    HW126774   4.786   0.605   6.022
 8625SOL    HW226775   4.829   0.730   5.925
 8626SOL     OW26776   3.636   3.114   5.867
 8626SOL    HW126777   3.584   3.033   5.895
 8626SOL    HW226778   3.729   3.108   5.902
 8627SOL     OW26779   1.153   1.601   3.574
 8627SOL    HW126780   1.232   1.563   3.622
 8627SOL    HW226781   1.094   1.527   3.542
 8628SOL     OW26782   6.694   6.596   0.642
 8628SOL    HW126783   6.711   6.502   0.673
 8628SOL    HW226784   6.623   6.637   0.698
 8629SOL     OW26785   1.314   5.458   5.104
 8629SOL    HW126786   1.229   5.441   5.155
 8629SOL    HW226787   1.293   5.509   5.020
 8630SOL     OW26788   5.266   4.436   3.709
 8630SOL    HW126789   5.354   4.484   3.712
 8630SOL    HW226790   5.265   4.364   3.777
 8631SOL     OW26791   0.792   4.991   6.100
 8631SOL    HW126792   0.855   4.913   6.098
 8631SOL    HW226793   0.821   5.059   6.033
 8632SOL     OW26794   3.673   5.833   4.095
 8632SOL    HW126795   3.743   5.802   4.159
 8632SOL    HW226796   3.637   5.754   4.045
 8633SOL     OW26797   5.369   1.655   5.880
 8633SOL    HW126798   5.303   1.653   5.805
 8633SOL    HW226799   5.321   1.668   5.967
 8634SOL     OW26800   5.320   3.751   0.763
 8634SOL    HW126801   5.372   3.789   0.839
 8634SOL    HW226802   5.233   3.715   0.797
 8635SOL     OW26803   5.439   4.164   6.415
 8635SOL    HW126804   5.355   4.201   6.376
 8635SOL    HW226805   5.488   4.111   6.345
 8636SOL     OW26806   5.001   5.523   0.710
 8636SOL    HW126807   4.984   5.437   0.760
 8636SOL    HW226808   5.061   5.505   0.632
 8637SOL     OW26809   1.877   1.354   0.459
 8637SOL    HW126810   1.876   1.271   0.403
 8637SOL    HW226811   1.789   1.400   0.453
 8638SOL     OW26812   2.780   3.033   5.653
 8638SOL    HW126813   2.694   3.084   5.656
 8638SOL    HW226814   2.851   3.089   5.612
 8639SOL     OW26815   5.616   2.610   0.978
 8639SOL    HW126816   5.691   2.671   0.953
 8639SOL    HW226817   5.530   2.647   0.942
 8640SOL     OW26818   4.456   3.841   6.881
 8640SOL    HW126819   4.491   3.915   6.939
 8640SOL    HW226820   4.530   3.779   6.858
 8641SOL     OW26821   5.044   4.697   3.968
 8641SOL    HW126822   5.129   4.719   4.017
 8641SOL    HW226823   5.053   4.608   3.925
 8642SOL     OW26824   1.837   6.254   3.130
 8642SOL    HW126825   1.839   6.261   3.030
 8642SOL    HW226826   1.915   6.200   3.161
 8643SOL     OW26827   2.956   0.001   6.741
 8643SOL    HW126828   3.025   0.033   6.806
 8643SOL    HW226829   2.908   0.079   6.702
 8644SOL     OW26830   5.265   2.347   5.147
 8644SOL    HW126831   5.292   2.393   5.062
 8644SOL    HW226832   5.208   2.267   5.124
 8645SOL     OW26833   4.680   4.509   1.570
 8645SOL    HW126834   4.645   4.475   1.483
 8645SOL    HW226835   4.767   4.465   1.591
 8646SOL     OW26836   6.574   1.833   1.638
 8646SOL    HW126837   6.609   1.897   1.569
 8646SOL    HW226838   6.495   1.873   1.684
 8647SOL     OW26839   2.915   5.690   6.467
 8647SOL    HW126840   2.936   5.786   6.487
 8647SOL    HW226841   2.935   5.635   6.548
 8648SOL     OW26842   6.427   0.565   3.317
 8648SOL    HW126843   6.405   0.529   3.407
 8648SOL    HW226844   6.473   0.653   3.326
 8649SOL     OW26845   5.291   5.143   6.015
 8649SOL    HW126846   5.204   5.122   5.972
 8649SOL    HW226847   5.353   5.184   5.948
 8650SOL     OW26848   2.345   5.243   4.815
 8650SOL    HW126849   2.253   5.231   4.777
 8650SOL    HW226850   2.380   5.154   4.846
 8651SOL     OW26851   3.866   0.121   6.890
 8651SOL    HW126852   3.846   0.066   6.809
 8651SOL    HW226853   3.780   0.157   6.928
 8652SOL     OW26854   1.893   4.773   4.154
 8652SOL    HW126855   1.858   4.764   4.247
 8652SOL    HW226856   1.990   4.799   4.158
 8653SOL     OW26857   5.626   0.217   6.184
 8653SOL    HW126858   5.664   0.291   6.130
 8653SOL    HW226859   5.626   0.242   6.281
 8654SOL     OW26860   1.042   4.848   1.424
 8654SOL    HW126861   1.128   4.814   1.385
 8654SOL    HW226862   1.003   4.917   1.362
 8655SOL     OW26863   0.043   1.456   3.963
 8655SOL    HW126864   6.994   1.389   3.947
 8655SOL    HW226865   0.034   1.493   4.056
 8656SOL     OW26866   6.522   0.622   1.427
 8656SOL    HW126867   6.615   0.585   1.424
 8656SOL    HW226868   6.512   0.692   1.357
 8657SOL     OW26869   5.382   4.508   0.553
 8657SOL    HW126870   5.376   4.604   0.580
 8657SOL    HW226871   5.443   4.460   0.616
 8658SOL     OW26872   5.570   6.578   0.209
 8658SOL    HW126873   5.510   6.555   0.286
 8658SOL    HW226874   5.569   6.503   0.143
 8659SOL     OW26875   4.450   1.877   2.450
 8659SOL    HW126876   4.548   1.877   2.430
 8659SOL    HW226877   4.415   1.784   2.446
 8660SOL     OW26878   6.545   4.237   2.058
 8660SOL    HW126879   6.556   4.153   2.005
 8660SOL    HW226880   6.478   4.223   2.130
 8661SOL     OW26881   6.229   3.697   1.229
 8661SOL    HW126882   6.282   3.757   1.170
 8661SOL    HW226883   6.196   3.618   1.177
 8662SOL     OW26884   4.547   5.322   1.395
 8662SOL    HW126885   4.458   5.284   1.421
 8662SOL    HW226886   4.576   5.389   1.463
 8663SOL     OW26887   3.397   6.158   1.630
 8663SOL    HW126888   3.366   6.253   1.641
 8663SOL    HW226889   3.420   6.121   1.720
 8664SOL     OW26890   1.427   6.108   0.680
 8664SOL    HW126891   1.407   6.173   0.607
 8664SOL    HW226892   1.467   6.158   0.758
 8665SOL     OW26893   5.462   6.377   4.790
 8665SOL    HW126894   5.481   6.354   4.885
 8665SOL    HW226895   5.475   6.295   4.733
 8666SOL     OW26896   5.116   1.476   3.905
 8666SOL    HW126897   5.183   1.410   3.869
 8666SOL    HW226898   5.037   1.479   3.845
 8667SOL     OW26899   4.347   2.263   3.037
 8667SOL    HW126900   4.336   2.299   2.944
 8667SOL    HW226901   4.384   2.170   3.032
 8668SOL     OW26902   4.883   3.533   3.196
 8668SOL    HW126903   4.893   3.450   3.141
 8668SOL    HW226904   4.899   3.511   3.292
 8669SOL     OW26905   1.780   6.681   6.333
 8669SOL    HW126906   1.784   6.777   6.360
 8669SOL    HW226907   1.851   6.662   6.265
 8670SOL     OW26908   3.808   4.125   5.111
 8670SOL    HW126909   3.753   4.067   5.171
 8670SOL    HW226910   3.882   4.167   5.163
 8671SOL     OW26911   5.183   1.457   2.552
 8671SOL    HW126912   5.249   1.532   2.559
 8671SOL    HW226913   5.229   1.377   2.513
 8672SOL     OW26914   1.492   4.999   4.507
 8672SOL    HW126915   1.512   4.901   4.517
 8672SOL    HW226916   1.564   5.042   4.452
 8673SOL     OW26917   6.241   2.968   6.969
 8673SOL    HW126918   6.311   3.030   6.932
 8673SOL    HW226919   6.253   2.877   6.928
 8674SOL     OW26920   5.539   6.016   3.280
 8674SOL    HW126921   5.632   5.987   3.257
 8674SOL    HW226922   5.539   6.114   3.299
 8675SOL     OW26923   3.105   2.182   4.102
 8675SOL    HW126924   3.032   2.227   4.051
 8675SOL    HW226925   3.088   2.192   4.200
 8676SOL     OW26926   4.612   0.129   2.211
 8676SOL    HW126927   4.583   0.224   2.198
 8676SOL    HW226928   4.622   0.111   2.309
 8677SOL     OW26929   2.125   5.655   6.006
 8677SOL    HW126930   2.055   5.714   5.964
 8677SOL    HW226931   2.110   5.560   5.979
 8678SOL     OW26932   6.965   0.380   1.845
 8678SOL    HW126933   0.030   0.419   1.821
 8678SOL    HW226934   6.910   0.366   1.763
 8679SOL     OW26935   6.892   1.810   3.402
 8679SOL    HW126936   6.973   1.846   3.449
 8679SOL    HW226937   6.814   1.871   3.417
 8680SOL     OW26938   0.777   3.681   0.695
 8680SOL    HW126939   0.693   3.717   0.735
 8680SOL    HW226940   0.823   3.754   0.644
 8681SOL     OW26941   5.042   5.103   0.457
 8681SOL    HW126942   4.983   5.029   0.424
 8681SOL    HW226943   5.066   5.164   0.381
 8682SOL     OW26944   5.070   6.737   2.293
 8682SOL    HW126945   5.048   6.829   2.260
 8682SOL    HW226946   5.023   6.669   2.237
 8683SOL     OW26947   1.783   2.106   3.820
 8683SOL    HW126948   1.877   2.084   3.794
 8683SOL    HW226949   1.727   2.024   3.816
 8684SOL     OW26950   6.636   3.042   5.083
 8684SOL    HW126951   6.549   3.087   5.062
 8684SOL    HW226952   6.621   2.943   5.089
 8685SOL     OW26953   0.582   1.868   6.431
 8685SOL    HW126954   0.577   1.900   6.525
 8685SOL    HW226955   0.497   1.888   6.383
 8686SOL     OW26956   6.902   1.540   2.407
 8686SOL    HW126957   6.996   1.575   2.411
 8686SOL    HW226958   6.840   1.616   2.388
 8687SOL     OW26959   4.928   4.658   1.423
 8687SOL    HW126960   4.915   4.575   1.477
 8687SOL    HW226961   5.023   4.665   1.394
 8688SOL     OW26962   2.237   5.497   6.915
 8688SOL    HW126963   2.156   5.444   6.892
 8688SOL    HW226964   2.270   5.471   7.006
 8689SOL     OW26965   3.768   3.834   1.566
 8689SOL    HW126966   3.673   3.802   1.565
 8689SOL    HW226967   3.825   3.767   1.518
 8690SOL     OW26968   1.556   3.940   3.395
 8690SOL    HW126969   1.520   3.876   3.463
 8690SOL    HW226970   1.615   3.891   3.331
 8691SOL     OW26971   2.740   1.496   5.663
 8691SOL    HW126972   2.743   1.551   5.580
 8691SOL    HW226973   2.650   1.505   5.705
 8692SOL     OW26974   2.480   1.331   5.102
 8692SOL    HW126975   2.511   1.347   5.196
 8692SOL    HW226976   2.506   1.238   5.075
 8693SOL     OW26977   6.008   0.680   0.156
 8693SOL    HW126978   6.064   0.726   0.087
 8693SOL    HW226979   6.000   0.739   0.236
 8694SOL     OW26980   4.635   1.145   5.168
 8694SOL    HW126981   4.681   1.156   5.079
 8694SOL    HW226982   4.536   1.137   5.154
 8695SOL     OW26983   4.101   3.143   6.087
 8695SOL    HW126984   4.136   3.222   6.037
 8695SOL    HW226985   4.045   3.087   6.027
 8696SOL     OW26986   2.016   4.934   6.590
 8696SOL    HW126987   2.108   4.973   6.594
 8696SOL    HW226988   2.021   4.840   6.557
 8697SOL     OW26989   6.970   2.843   6.267
 8697SOL    HW126990   7.017   2.929   6.248
 8697SOL    HW226991   0.007   2.783   6.320
 8698SOL     OW26992   5.305   6.363   5.547
 8698SOL    HW126993   5.238   6.342   5.476
 8698SOL    HW226994   5.391   6.390   5.504
 8699SOL     OW26995   1.715   2.581   5.251
 8699SOL    HW126996   1.725   2.651   5.321
 8699SOL    HW226997   1.683   2.623   5.166
 8700SOL     OW26998   0.896   1.100   3.958
 8700SOL    HW126999   0.886   1.089   4.057
 8700SOL    HW227000   0.881   1.196   3.934
 8701SOL     OW27001   0.989   1.024   0.711
 8701SOL    HW127002   0.926   1.096   0.682
 8701SOL    HW227003   1.049   1.060   0.782
 8702SOL     OW27004   5.673   5.021   2.132
 8702SOL    HW127005   5.700   4.945   2.073
 8702SOL    HW227006   5.600   5.073   2.088
 8703SOL     OW27007   2.949   5.003   6.394
 8703SOL    HW127008   2.956   4.909   6.359
 8703SOL    HW227009   3.026   5.057   6.359
 8704SOL     OW27010   0.300   3.755   3.368
 8704SOL    HW127011   0.354   3.837   3.385
 8704SOL    HW227012   0.362   3.677   3.354
 8705SOL     OW27013   5.706   1.460   6.374
 8705SOL    HW127014   5.779   1.394   6.357
 8705SOL    HW227015   5.702   1.525   6.298
 8706SOL     OW27016   4.600   1.850   0.094
 8706SOL    HW127017   4.544   1.882   0.171
 8706SOL    HW227018   4.669   1.785   0.128
 8707SOL     OW27019   6.954   1.243   6.505
 8707SOL    HW127020   6.871   1.208   6.548
 8707SOL    HW227021   6.954   1.343   6.508
 8708SOL     OW27022   4.474   2.027   2.777
 8708SOL    HW127023   4.381   2.011   2.811
 8708SOL    HW227024   4.469   2.070   2.687
 8709SOL     OW27025   6.905   6.798   0.142
 8709SOL    HW127026   6.981   6.807   0.078
 8709SOL    HW227027   6.896   6.882   0.195
 8710SOL     OW27028   1.979   3.461   3.991
 8710SOL    HW127029   2.018   3.395   3.927
 8710SOL    HW227030   2.026   3.549   3.982
 8711SOL     OW27031   1.912   6.994   3.042
 8711SOL    HW127032   1.816   0.000   3.048
 8711SOL    HW227033   1.917   6.907   2.994
 8712SOL     OW27034   3.935   2.168   4.783
 8712SOL    HW127035   3.888   2.151   4.697
 8712SOL    HW227036   3.872   2.158   4.860
 8713SOL     OW27037   6.489   3.215   4.035
 8713SOL    HW127038   6.576   3.224   3.986
 8713SOL    HW227039   6.460   3.120   4.034
 8714SOL     OW27040   0.561   0.451   5.877
 8714SOL    HW127041   0.615   0.367   5.887
 8714SOL    HW227042   0.592   0.519   5.944
 8715SOL     OW27043   4.685   0.032   0.559
 8715SOL    HW127044   4.780   0.011   0.581
 8715SOL    HW227045   4.642   6.976   0.515
 8716SOL     OW27046   6.912   6.895   1.651
 8716SOL    HW127047   6.886   6.818   1.593
 8716SOL    HW227048   6.831   6.950   1.672
 8717SOL     OW27049   2.927   3.262   4.322
 8717SOL    HW127050   2.905   3.323   4.398
 8717SOL    HW227051   3.022   3.277   4.293
 8718SOL     OW27052   1.656   3.966   5.045
 8718SOL    HW127053   1.673   3.952   4.948
 8718SOL    HW227054   1.715   3.906   5.099
 8719SOL     OW27055   3.563   0.500   6.680
 8719SOL    HW127056   3.653   0.458   6.672
 8719SOL    HW227057   3.537   0.541   6.593
 8720SOL     OW27058   6.714   5.321   5.853
 8720SOL    HW127059   6.708   5.390   5.781
 8720SOL    HW227060   6.809   5.292   5.864
 8721SOL     OW27061   6.835   3.161   1.916
 8721SOL    HW127062   6.877   3.194   2.001
 8721SOL    HW227063   6.738   3.143   1.932
 8722SOL     OW27064   3.963   1.624   6.771
 8722SOL    HW127065   3.898   1.602   6.698
 8722SOL    HW227066   3.978   1.723   6.774
 8723SOL     OW27067   5.451   5.952   1.188
 8723SOL    HW127068   5.376   5.976   1.249
 8723SOL    HW227069   5.535   5.941   1.241
 8724SOL     OW27070   4.803   6.914   5.141
 8724SOL    HW127071   4.773   6.889   5.233
 8724SOL    HW227072   4.771   6.845   5.076
 8725SOL     OW27073   1.821   6.250   6.146
 8725SOL    HW127074   1.764   6.327   6.172
 8725SOL    HW227075   1.786   6.166   6.187
 8726SOL     OW27076   6.768   1.222   3.137
 8726SOL    HW127077   6.785   1.263   3.048
 8726SOL    HW227078   6.854   1.215   3.188
 8727SOL     OW27079   6.460   6.734   1.938
 8727SOL    HW127080   6.521   6.656   1.952
 8727SOL    HW227081   6.376   6.702   1.895
 8728SOL     OW27082   6.498   0.724   2.383
 8728SOL    HW127083   6.461   0.712   2.291
 8728SOL    HW227084   6.433   0.690   2.451
 8729SOL     OW27085   4.108   5.919   4.777
 8729SOL    HW127086   4.064   5.954   4.860
 8729SOL    HW227087   4.048   5.937   4.698
 8730SOL     OW27088   6.656   4.427   2.852
 8730SOL    HW127089   6.606   4.341   2.859
 8730SOL    HW227090   6.672   4.449   2.756
 8731SOL     OW27091   1.835   2.503   2.925
 8731SOL    HW127092   1.892   2.455   2.991
 8731SOL    HW227093   1.775   2.437   2.878
 8732SOL     OW27094   5.879   5.289   1.787
 8732SOL    HW127095   5.935   5.219   1.832
 8732SOL    HW227096   5.873   5.268   1.689
 8733SOL     OW27097   1.671   5.208   1.579
 8733SOL    HW127098   1.611   5.275   1.533
 8733SOL    HW227099   1.641   5.115   1.555
 8734SOL     OW27100   1.110   4.296   2.099
 8734SOL    HW127101   1.050   4.374   2.085
 8734SOL    HW227102   1.206   4.325   2.093
 8735SOL     OW27103   1.127   2.334   0.608
 8735SOL    HW127104   1.183   2.339   0.526
 8735SOL    HW227105   1.049   2.274   0.592
 8736SOL     OW27106   0.149   5.552   6.833
 8736SOL    HW127107   0.086   5.560   6.755
 8736SOL    HW227108   0.188   5.642   6.853
 8737SOL     OW27109   1.652   6.582   6.724
 8737SOL    HW127110   1.566   6.624   6.752
 8737SOL    HW227111   1.728   6.628   6.768
 8738SOL     OW27112   2.761   5.668   4.537
 8738SOL    HW127113   2.833   5.737   4.538
 8738SOL    HW227114   2.774   5.606   4.615
 8739SOL     OW27115   5.708   5.540   6.482
 8739SOL    HW127116   5.794   5.538   6.431
 8739SOL    HW227117   5.665   5.450   6.479
 8740SOL     OW27118   4.849   1.105   4.587
 8740SOL    HW127119   4.933   1.147   4.554
 8740SOL    HW227120   4.871   1.039   4.659
 8741SOL     OW27121   2.763   1.352   2.620
 8741SOL    HW127122   2.758   1.399   2.532
 8741SOL    HW227123   2.673   1.316   2.645
 8742SOL     OW27124   5.637   5.987   1.702
 8742SOL    HW127125   5.611   5.990   1.605
 8742SOL    HW227126   5.659   5.893   1.728
 8743SOL     OW27127   1.378   0.107   2.374
 8743SOL    HW127128   1.389   0.071   2.282
 8743SOL    HW227129   1.319   0.045   2.427
 8744SOL     OW27130   3.907   2.703   6.513
 8744SOL    HW127131   3.997   2.663   6.533
 8744SOL    HW227132   3.835   2.638   6.539
 8745SOL     OW27133   6.285   2.711   6.821
 8745SOL    HW127134   6.385   2.710   6.819
 8745SOL    HW227135   6.250   2.715   6.728
 8746SOL     OW27136   4.812   5.402   4.267
 8746SOL    HW127137   4.912   5.407   4.258
 8746SOL    HW227138   4.785   5.449   4.351
 8747SOL     OW27139   0.911   2.780   3.033
 8747SOL    HW127140   0.933   2.809   3.125
 8747SOL    HW227141   0.901   2.860   2.974
 8748SOL     OW27142   6.234   1.553   4.812
 8748SOL    HW127143   6.258   1.583   4.904
 8748SOL    HW227144   6.172   1.619   4.770
 8749SOL     OW27145   2.543   0.397   5.135
 8749SOL    HW127146   2.552   0.468   5.064
 8749SOL    HW227147   2.447   0.391   5.162
 8750SOL     OW27148   3.107   4.118   4.945
 8750SOL    HW127149   3.075   4.207   4.912
 8750SOL    HW227150   3.178   4.083   4.883
 8751SOL     OW27151   5.383   1.535   2.301
 8751SOL    HW127152   5.437   1.452   2.315
 8751SOL    HW227153   5.420   1.608   2.357
 8752SOL     OW27154   2.966   3.324   0.272
 8752SOL    HW127155   2.914   3.315   0.188
 8752SOL    HW227156   2.946   3.412   0.315
 8753SOL     OW27157   4.267   2.191   5.882
 8753SOL    HW127158   4.187   2.163   5.829
 8753SOL    HW227159   4.305   2.275   5.844
 8754SOL     OW27160   2.047   3.440   5.881
 8754SOL    HW127161   1.967   3.464   5.936
 8754SOL    HW227162   2.065   3.342   5.890
 8755SOL     OW27163   1.833   0.549   0.597
 8755SOL    HW127164   1.802   0.538   0.691
 8755SOL    HW227165   1.933   0.553   0.595
 8756SOL     OW27166   0.639   2.986   3.801
 8756SOL    HW127167   0.542   2.961   3.799
 8756SOL    HW227168   0.669   2.994   3.896
 8757SOL     OW27169   4.045   5.691   6.359
 8757SOL    HW127170   4.130   5.669   6.406
 8757SOL    HW227171   3.999   5.607   6.331
 8758SOL     OW27172   5.354   5.960   2.099
 8758SOL    HW127173   5.340   5.968   2.197
 8758SOL    HW227174   5.424   5.890   2.081
 8759SOL     OW27175   4.803   2.496   0.374
 8759SOL    HW127176   4.819   2.433   0.451
 8759SOL    HW227177   4.739   2.454   0.310
 8760SOL     OW27178   2.157   0.879   5.149
 8760SOL    HW127179   2.155   0.959   5.089
 8760SOL    HW227180   2.178   0.798   5.096
 8761SOL     OW27181   6.144   1.906   1.829
 8761SOL    HW127182   6.239   1.924   1.804
 8761SOL    HW227183   6.083   1.938   1.756
 8762SOL     OW27184   1.711   3.867   3.053
 8762SOL    HW127185   1.743   3.941   3.112
 8762SOL    HW227186   1.614   3.879   3.032
 8763SOL     OW27187   6.890   6.436   6.032
 8763SOL    HW127188   6.873   6.340   6.009
 8763SOL    HW227189   6.988   6.453   6.033
 8764SOL     OW27190   4.637   0.763   4.961
 8764SOL    HW127191   4.706   0.825   4.999
 8764SOL    HW227192   4.681   0.686   4.917
 8765SOL     OW27193   4.966   6.603   3.741
 8765SOL    HW127194   4.867   6.616   3.750
 8765SOL    HW227195   5.002   6.672   3.677
 8766SOL     OW27196   4.639   4.320   3.925
 8766SOL    HW127197   4.638   4.416   3.898
 8766SOL    HW227198   4.590   4.266   3.857
 8767SOL     OW27199   5.000   5.471   2.965
 8767SOL    HW127200   5.088   5.425   2.973
 8767SOL    HW227201   4.928   5.411   2.999
 8768SOL     OW27202   1.251   2.322   0.330
 8768SOL    HW127203   1.316   2.265   0.382
 8768SOL    HW227204   1.294   2.410   0.309
 8769SOL     OW27205   6.959   0.703   4.307
 8769SOL    HW127206   6.873   0.737   4.269
 8769SOL    HW227207   0.001   0.685   4.233
 8770SOL     OW27208   4.644   4.309   2.345
 8770SOL    HW127209   4.644   4.341   2.250
 8770SOL    HW227210   4.736   4.279   2.370
 8771SOL     OW27211   1.168   1.260   6.414
 8771SOL    HW127212   1.254   1.309   6.401
 8771SOL    HW227213   1.139   1.268   6.509
 8772SOL     OW27214   5.075   0.533   5.946
 8772SOL    HW127215   5.109   0.477   6.021
 8772SOL    HW227216   4.995   0.585   5.977
 8773SOL     OW27217   4.362   2.456   3.564
 8773SOL    HW127218   4.381   2.551   3.588
 8773SOL    HW227219   4.363   2.446   3.465
 8774SOL     OW27220   1.228   0.782   0.151
 8774SOL    HW127221   1.214   0.876   0.181
 8774SOL    HW227222   1.283   0.732   0.218
 8775SOL     OW27223   5.871   6.774   5.160
 8775SOL    HW127224   5.775   6.744   5.157
 8775SOL    HW227225   5.874   6.874   5.170
 8776SOL     OW27226   3.598   2.583   6.821
 8776SOL    HW127227   3.571   2.558   6.729
 8776SOL    HW227228   3.698   2.591   6.825
 8777SOL     OW27229   0.297   4.108   2.444
 8777SOL    HW127230   0.349   4.057   2.376
 8777SOL    HW227231   0.292   4.204   2.417
 8778SOL     OW27232   5.269   3.042   5.338
 8778SOL    HW127233   5.269   2.945   5.362
 8778SOL    HW227234   5.247   3.052   5.241
 8779SOL     OW27235   2.935   5.137   2.409
 8779SOL    HW127236   3.022   5.095   2.437
 8779SOL    HW227237   2.909   5.103   2.318
 8780SOL     OW27238   1.063   6.166   2.589
 8780SOL    HW127239   1.007   6.117   2.656
 8780SOL    HW227240   1.155   6.127   2.588
 8781SOL     OW27241   5.657   1.210   3.513
 8781SOL    HW127242   5.614   1.298   3.532
 8781SOL    HW227243   5.753   1.214   3.538
 8782SOL     OW27244   6.493   6.354   1.622
 8782SOL    HW127245   6.406   6.320   1.657
 8782SOL    HW227246   6.504   6.450   1.647
 8783SOL     OW27247   6.425   4.376   3.607
 8783SOL    HW127248   6.512   4.349   3.565
 8783SOL    HW227249   6.386   4.454   3.557
 8784SOL     OW27250   6.374   3.766   6.128
 8784SOL    HW127251   6.345   3.833   6.061
 8784SOL    HW227252   6.329   3.678   6.109
 8785SOL     OW27253   5.809   3.904   0.076
 8785SOL    HW127254   5.850   3.904   0.168
 8785SOL    HW227255   5.854   3.834   0.020
 8786SOL     OW27256   2.274   0.375   0.457
 8786SOL    HW127257   2.374   0.374   0.455
 8786SOL    HW227258   2.239   0.343   0.368
 8787SOL     OW27259   3.590   2.150   1.477
 8787SOL    HW127260   3.688   2.161   1.492
 8787SOL    HW227261   3.541   2.164   1.563
 8788SOL     OW27262   6.561   1.349   5.857
 8788SOL    HW127263   6.495   1.309   5.793
 8788SOL    HW227264   6.632   1.282   5.878
 8789SOL     OW27265   6.467   0.009   4.757
 8789SOL    HW127266   6.430   7.011   4.847
 8789SOL    HW227267   6.566   0.022   4.764
 8790SOL     OW27268   0.429   0.353   6.903
 8790SOL    HW127269   0.395   0.325   6.813
 8790SOL    HW227270   0.522   0.318   6.916
 8791SOL     OW27271   5.488   6.839   4.855
 8791SOL    HW127272   5.439   6.758   4.821
 8791SOL    HW227273   5.449   6.867   4.943
 8792SOL     OW27274   2.175   6.358   2.913
 8792SOL    HW127275   2.271   6.364   2.887
 8792SOL    HW227276   2.160   6.277   2.969
 8793SOL     OW27277   1.274   4.222   3.090
 8793SOL    HW127278   1.278   4.172   3.177
 8793SOL    HW227279   1.189   4.197   3.043
 8794SOL     OW27280   5.105   0.229   2.701
 8794SOL    HW127281   5.147   0.279   2.777
 8794SOL    HW227282   5.088   0.292   2.625
 8795SOL     OW27283   1.675   5.225   5.523
 8795SOL    HW127284   1.670   5.177   5.611
 8795SOL    HW227285   1.690   5.322   5.539
 8796SOL     OW27286   3.761   2.126   4.551
 8796SOL    HW127287   3.818   2.057   4.506
 8796SOL    HW227288   3.673   2.133   4.504
 8797SOL     OW27289   6.901   7.001   6.812
 8797SOL    HW127290   6.869   0.063   6.853
 8797SOL    HW227291   6.939   6.942   6.884
 8798SOL     OW27292   4.871   5.697   6.094
 8798SOL    HW127293   4.807   5.740   6.158
 8798SOL    HW227294   4.892   5.761   6.021
 8799SOL     OW27295   2.631   4.763   3.573
 8799SOL    HW127296   2.677   4.774   3.661
 8799SOL    HW227297   2.543   4.810   3.574
 8800SOL     OW27298   6.302   3.864   5.445
 8800SOL    HW127299   6.336   3.947   5.490
 8800SOL    HW227300   6.352   3.849   5.360
 8801SOL     OW27301   6.838   1.273   5.087
 8801SOL    HW127302   6.926   1.263   5.134
 8801SOL    HW227303   6.798   1.361   5.110
 8802SOL     OW27304   2.008   6.739   0.233
 8802SOL    HW127305   2.074   6.755   0.306
 8802SOL    HW227306   1.916   6.757   0.268
 8803SOL     OW27307   6.692   6.343   6.849
 8803SOL    HW127308   6.635   6.395   6.785
 8803SOL    HW227309   6.640   6.323   6.932
 8804SOL     OW27310   2.486   6.393   2.307
 8804SOL    HW127311   2.547   6.471   2.290
 8804SOL    HW227312   2.425   6.414   2.383
 8805SOL     OW27313   2.643   6.404   4.051
 8805SOL    HW127314   2.702   6.464   4.105
 8805SOL    HW227315   2.578   6.460   3.999
 8806SOL     OW27316   3.057   5.365   2.284
 8806SOL    HW127317   3.023   5.279   2.322
 8806SOL    HW227318   3.095   5.349   2.193
 8807SOL     OW27319   5.020   0.349   0.390
 8807SOL    HW127320   4.924   0.323   0.398
 8807SOL    HW227321   5.032   0.409   0.311
 8808SOL     OW27322   5.923   2.764   6.795
 8808SOL    HW127323   5.835   2.719   6.793
 8808SOL    HW227324   5.987   2.711   6.851
 8809SOL     OW27325   5.194   5.766   3.443
 8809SOL    HW127326   5.189   5.675   3.484
 8809SOL    HW227327   5.265   5.768   3.372
 8810SOL     OW27328   6.081   0.898   5.116
 8810SOL    HW127329   6.077   0.855   5.206
 8810SOL    HW227330   6.127   0.838   5.051
 8811SOL     OW27331   2.967   0.934   2.466
 8811SOL    HW127332   3.064   0.939   2.488
 8811SOL    HW227333   2.921   1.018   2.496
 8812SOL     OW27334   1.804   0.474   0.995
 8812SOL    HW127335   1.827   0.520   1.081
 8812SOL    HW227336   1.711   0.500   0.968
 8813SOL     OW27337   2.307   4.624   1.541
 8813SOL    HW127338   2.270   4.650   1.630
 8813SOL    HW227339   2.259   4.675   1.469
 8814SOL     OW27340   5.670   6.905   1.326
 8814SOL    HW127341   5.760   6.875   1.359
 8814SOL    HW227342   5.600   6.879   1.393
 8815SOL     OW27343   5.578   0.213   1.071
 8815SOL    HW127344   5.605   0.247   1.161
 8815SOL    HW227345   5.512   0.276   1.030
 8816SOL     OW27346   1.077   6.349   0.139
 8816SOL    HW127347   1.014   6.296   0.194
 8816SOL    HW227348   1.169   6.344   0.178
 8817SOL     OW27349   0.350   5.131   3.855
 8817SOL    HW127350   0.433   5.075   3.844
 8817SOL    HW227351   0.367   5.202   3.923
 8818SOL     OW27352   0.478   4.430   4.364
 8818SOL    HW127353   0.575   4.411   4.355
 8818SOL    HW227354   0.426   4.362   4.311
 8819SOL     OW27355   5.836   5.403   5.266
 8819SOL    HW127356   5.831   5.483   5.326
 8819SOL    HW227357   5.797   5.324   5.313
 8820SOL     OW27358   2.106   0.479   5.278
 8820SOL    HW127359   2.172   0.416   5.237
 8820SOL    HW227360   2.153   0.563   5.305
 8821SOL     OW27361   1.540   6.176   0.934
 8821SOL    HW127362   1.518   6.238   1.010
 8821SOL    HW227363   1.620   6.121   0.958
 8822SOL     OW27364   0.808   6.909   4.217
 8822SOL    HW127365   0.791   6.944   4.125
 8822SOL    HW227366   0.775   6.814   4.223
 8823SOL     OW27367   2.502   0.847   2.502
 8823SOL    HW127368   2.543   0.926   2.549
 8823SOL    HW227369   2.505   0.863   2.403
 8824SOL     OW27370   1.305   1.982   0.537
 8824SOL    HW127371   1.368   2.029   0.475
 8824SOL    HW227372   1.317   2.017   0.630
 8825SOL     OW27373   2.485   1.372   1.668
 8825SOL    HW127374   2.562   1.348   1.728
 8825SOL    HW227375   2.405   1.393   1.725
 8826SOL     OW27376   7.021   3.261   0.189
 8826SOL    HW127377   7.000   3.287   0.284
 8826SOL    HW227378   0.047   3.336   0.144
 8827SOL     OW27379   3.914   1.756   2.057
 8827SOL    HW127380   3.921   1.821   2.132
 8827SOL    HW227381   3.957   1.669   2.084
 8828SOL     OW27382   4.328   5.938   5.635
 8828SOL    HW127383   4.286   5.852   5.663
 8828SOL    HW227384   4.303   6.010   5.700
 8829SOL     OW27385   5.140   3.184   0.662
 8829SOL    HW127386   5.177   3.271   0.691
 8829SOL    HW227387   5.202   3.110   0.688
 8830SOL     OW27388   1.686   1.944   2.902
 8830SOL    HW127389   1.594   1.955   2.941
 8830SOL    HW227390   1.703   1.847   2.884
 8831SOL     OW27391   3.978   2.191   4.234
 8831SOL    HW127392   4.031   2.194   4.149
 8831SOL    HW227393   4.037   2.217   4.311
 8832SOL     OW27394   0.207   6.510   3.084
 8832SOL    HW127395   0.232   6.561   3.167
 8832SOL    HW227396   0.145   6.435   3.109
 8833SOL     OW27397   2.622   5.229   5.727
 8833SOL    HW127398   2.597   5.264   5.817
 8833SOL    HW227399   2.549   5.171   5.693
 8834SOL     OW27400   5.446   4.133   4.590
 8834SOL    HW127401   5.447   4.225   4.552
 8834SOL    HW227402   5.391   4.131   4.673
 8835SOL     OW27403   5.037   1.262   5.392
 8835SOL    HW127404   4.975   1.185   5.380
 8835SOL    HW227405   4.984   1.346   5.405
 8836SOL     OW27406   5.153   2.431   0.536
 8836SOL    HW127407   5.201   2.410   0.621
 8836SOL    HW227408   5.201   2.504   0.487
 8837SOL     OW27409   0.198   6.283   2.004
 8837SOL    HW127410   0.253   6.297   2.087
 8837SOL    HW227411   0.112   6.238   2.029
 8838SOL     OW27412   2.350   5.438   3.513
 8838SOL    HW127413   2.273   5.374   3.515
 8838SOL    HW227414   2.331   5.514   3.574
 8839SOL     OW27415   5.869   5.292   2.460
 8839SOL    HW127416   5.937   5.244   2.515
 8839SOL    HW227417   5.781   5.246   2.469
 8840SOL     OW27418   6.892   1.946   2.567
 8840SOL    HW127419   6.825   2.019   2.552
 8840SOL    HW227420   6.899   1.926   2.665
 8841SOL     OW27421   0.662   0.953   4.929
 8841SOL    HW127422   0.573   0.914   4.903
 8841SOL    HW227423   0.727   0.879   4.948
 8842SOL     OW27424   3.409   2.894   2.657
 8842SOL    HW127425   3.392   2.864   2.563
 8842SOL    HW227426   3.508   2.904   2.672
 8843SOL     OW27427   1.976   3.686   5.635
 8843SOL    HW127428   2.056   3.629   5.616
 8843SOL    HW227429   1.992   3.740   5.718
 8844SOL     OW27430   0.256   1.320   6.353
 8844SOL    HW127431   0.188   1.341   6.282
 8844SOL    HW227432   0.265   1.398   6.414
 8845SOL     OW27433   3.356   3.439   0.723
 8845SOL    HW127434   3.292   3.401   0.657
 8845SOL    HW227435   3.306   3.483   0.797
 8846SOL     OW27436   3.628   5.592   3.985
 8846SOL    HW127437   3.708   5.539   4.013
 8846SOL    HW227438   3.621   5.591   3.885
 8847SOL     OW27439   2.685   0.883   3.061
 8847SOL    HW127440   2.687   0.983   3.065
 8847SOL    HW227441   2.624   0.847   3.132
 8848SOL     OW27442   2.744   2.137   2.480
 8848SOL    HW127443   2.804   2.066   2.441
 8848SOL    HW227444   2.800   2.201   2.533
 8849SOL     OW27445   2.812   6.765   3.219
 8849SOL    HW127446   2.760   6.725   3.294
 8849SOL    HW227447   2.859   6.847   3.250
 8850SOL     OW27448   0.957   1.714   6.919
 8850SOL    HW127449   0.936   1.756   6.831
 8850SOL    HW227450   0.956   1.784   6.990
 8851SOL     OW27451   1.364   4.628   2.406
 8851SOL    HW127452   1.382   4.545   2.459
 8851SOL    HW227453   1.440   4.692   2.418
 8852SOL     OW27454   5.426   3.067   5.644
 8852SOL    HW127455   5.468   3.006   5.577
 8852SOL    HW227456   5.327   3.071   5.629
 8853SOL     OW27457   2.939   1.331   0.836
 8853SOL    HW127458   2.882   1.303   0.913
 8853SOL    HW227459   2.988   1.415   0.861
 8854SOL     OW27460   3.140   2.240   5.567
 8854SOL    HW127461   3.145   2.165   5.500
 8854SOL    HW227462   3.078   2.311   5.532
 8855SOL     OW27463   0.028   5.612   1.451
 8855SOL    HW127464   0.079   5.572   1.375
 8855SOL    HW227465   0.073   5.695   1.481
 8856SOL     OW27466   0.062   6.279   6.183
 8856SOL    HW127467   0.081   6.293   6.281
 8856SOL    HW227468   0.109   6.349   6.130
 8857SOL     OW27469   6.691   1.811   4.415
 8857SOL    HW127470   6.693   1.909   4.434
 8857SOL    HW227471   6.704   1.796   4.316
 8858SOL     OW27472   0.687   3.350   5.803
 8858SOL    HW127473   0.609   3.297   5.771
 8858SOL    HW227474   0.770   3.295   5.796
 8859SOL     OW27475   0.227   0.338   4.108
 8859SOL    HW127476   0.199   0.394   4.186
 8859SOL    HW227477   0.180   0.370   4.026
 8860SOL     OW27478   0.022   2.888   3.022
 8860SOL    HW127479   7.019   2.865   2.929
 8860SOL    HW227480   0.119   2.910   3.026
 8861SOL     OW27481   4.455   1.601   6.120
 8861SOL    HW127482   4.392   1.535   6.159
 8861SOL    HW227483   4.549   1.568   6.132
 8862SOL     OW27484   5.489   0.249   3.937
 8862SOL    HW127485   5.448   0.228   4.026
 8862SOL    HW227486   5.511   0.346   3.933
 8863SOL     OW27487   1.809   4.755   4.417
 8863SOL    HW127488   1.818   4.830   4.483
 8863SOL    HW227489   1.794   4.669   4.466
 8864SOL     OW27490   3.042   4.786   6.261
 8864SOL    HW127491   3.136   4.766   6.287
 8864SOL    HW227492   3.036   4.790   6.161
 8865SOL     OW27493   3.194   0.005   5.734
 8865SOL    HW127494   3.174   0.062   5.813
 8865SOL    HW227495   3.146   0.040   5.653
 8866SOL     OW27496   5.413   0.507   3.149
 8866SOL    HW127497   5.435   0.465   3.062
 8866SOL    HW227498   5.317   0.491   3.171
 8867SOL     OW27499   5.666   4.173   3.030
 8867SOL    HW127500   5.649   4.205   3.123
 8867SOL    HW227501   5.654   4.074   3.026
 8868SOL     OW27502   6.590   2.729   1.260
 8868SOL    HW127503   6.673   2.783   1.274
 8868SOL    HW227504   6.511   2.782   1.289
 8869SOL     OW27505   4.373   5.846   4.758
 8869SOL    HW127506   4.403   5.910   4.688
 8869SOL    HW227507   4.273   5.845   4.762
 8870SOL     OW27508   2.886   0.437   0.974
 8870SOL    HW127509   2.876   0.508   0.904
 8870SOL    HW227510   2.796   0.404   1.002
 8871SOL     OW27511   2.616   1.203   4.470
 8871SOL    HW127512   2.615   1.182   4.372
 8871SOL    HW227513   2.707   1.186   4.507
 8872SOL     OW27514   1.132   4.423   4.907
 8872SOL    HW127515   1.130   4.392   4.812
 8872SOL    HW227516   1.219   4.468   4.925
 8873SOL     OW27517   0.746   6.732   1.746
 8873SOL    HW127518   0.762   6.807   1.682
 8873SOL    HW227519   0.649   6.711   1.749
 8874SOL     OW27520   2.189   6.707   2.914
 8874SOL    HW127521   2.225   6.686   3.004
 8874SOL    HW227522   2.246   6.663   2.844
 8875SOL     OW27523   0.095   3.940   5.095
 8875SOL    HW127524   0.016   3.901   5.049
 8875SOL    HW227525   0.071   3.965   5.189
 8876SOL     OW27526   2.262   6.405   5.402
 8876SOL    HW127527   2.231   6.497   5.376
 8876SOL    HW227528   2.359   6.396   5.381
 8877SOL     OW27529   2.880   2.292   4.557
 8877SOL    HW127530   2.914   2.383   4.532
 8877SOL    HW227531   2.925   2.261   4.640
 8878SOL     OW27532   6.348   4.642   0.628
 8878SOL    HW127533   6.393   4.559   0.596
 8878SOL    HW227534   6.249   4.633   0.618
 8879SOL     OW27535   4.900   5.056   3.045
 8879SOL    HW127536   4.813   5.024   3.008
 8879SOL    HW227537   4.975   5.024   2.987
 8880SOL     OW27538   5.135   6.296   4.673
 8880SOL    HW127539   5.064   6.248   4.621
 8880SOL    HW227540   5.198   6.229   4.713
 8881SOL     OW27541   4.719   6.716   3.808
 8881SOL    HW127542   4.670   6.666   3.880
 8881SOL    HW227543   4.778   6.784   3.851
 8882SOL     OW27544   5.206   1.116   0.940
 8882SOL    HW127545   5.222   1.145   1.034
 8882SOL    HW227546   5.292   1.086   0.899
 8883SOL     OW27547   1.516   6.224   5.990
 8883SOL    HW127548   1.564   6.285   6.053
 8883SOL    HW227549   1.463   6.157   6.043
 8884SOL     OW27550   6.421   4.085   5.567
 8884SOL    HW127551   6.421   4.137   5.481
 8884SOL    HW227552   6.396   4.146   5.642
 8885SOL     OW27553   5.846   4.008   1.766
 8885SOL    HW127554   5.854   4.034   1.862
 8885SOL    HW227555   5.850   4.091   1.709
 8886SOL     OW27556   2.663   6.674   4.580
 8886SOL    HW127557   2.729   6.713   4.516
 8886SOL    HW227558   2.708   6.655   4.667
 8887SOL     OW27559   3.647   0.396   0.157
 8887SOL    HW127560   3.589   0.354   0.087
 8887SOL    HW227561   3.730   0.433   0.115
 8888SOL     OW27562   1.876   1.529   5.683
 8888SOL    HW127563   1.949   1.510   5.617
 8888SOL    HW227564   1.887   1.622   5.718
 8889SOL     OW27565   6.624   0.346   0.054
 8889SOL    HW127566   6.714   0.329   0.095
 8889SOL    HW227567   6.611   0.285   6.999
 8890SOL     OW27568   0.059   5.791   4.867
 8890SOL    HW127569   0.153   5.757   4.879
 8890SOL    HW227570   0.028   5.833   4.952
 8891SOL     OW27571   4.348   3.016   6.731
 8891SOL    HW127572   4.269   3.048   6.677
 8891SOL    HW227573   4.315   2.970   6.813
 8892SOL     OW27574   3.569   5.514   2.929
 8892SOL    HW127575   3.603   5.470   3.011
 8892SOL    HW227576   3.571   5.450   2.852
 8893SOL     OW27577   1.000   5.612   4.011
 8893SOL    HW127578   0.947   5.647   4.089
 8893SOL    HW227579   1.097   5.615   4.033
 8894SOL     OW27580   3.410   2.409   6.475
 8894SOL    HW127581   3.433   2.494   6.523
 8894SOL    HW227582   3.407   2.427   6.377
 8895SOL     OW27583   6.606   3.086   2.164
 8895SOL    HW127584   6.573   2.995   2.137
 8895SOL    HW227585   6.679   3.077   2.232
 8896SOL     OW27586   2.631   3.340   5.294
 8896SOL    HW127587   2.546   3.291   5.314
 8896SOL    HW227588   2.685   3.288   5.227
 8897SOL     OW27589   2.179   3.060   3.167
 8897SOL    HW127590   2.235   2.998   3.221
 8897SOL    HW227591   2.193   3.041   3.069
 8898SOL     OW27592   5.157   3.437   2.341
 8898SOL    HW127593   5.063   3.467   2.356
 8898SOL    HW227594   5.169   3.412   2.245
 8899SOL     OW27595   1.602   5.188   1.943
 8899SOL    HW127596   1.633   5.266   1.889
 8899SOL    HW227597   1.601   5.214   2.040
 8900SOL     OW27598   5.533   2.812   2.777
 8900SOL    HW127599   5.555   2.762   2.693
 8900SOL    HW227600   5.502   2.747   2.847
 8901SOL     OW27601   1.683   0.934   4.842
 8901SOL    HW127602   1.610   0.879   4.883
 8901SOL    HW227603   1.666   0.944   4.744
 8902SOL     OW27604   1.697   6.574   0.501
 8902SOL    HW127605   1.688   6.530   0.412
 8902SOL    HW227606   1.787   6.556   0.540
 8903SOL     OW27607   0.369   1.720   4.523
 8903SOL    HW127608   0.297   1.767   4.471
 8903SOL    HW227609   0.402   1.641   4.470
 8904SOL     OW27610   6.554   0.394   4.299
 8904SOL    HW127611   6.546   0.307   4.347
 8904SOL    HW227612   6.631   0.390   4.235
 8905SOL     OW27613   1.911   4.220   3.568
 8905SOL    HW127614   1.950   4.151   3.629
 8905SOL    HW227615   1.816   4.196   3.547
 8906SOL     OW27616   0.293   6.241   6.721
 8906SOL    HW127617   0.280   6.170   6.652
 8906SOL    HW227618   0.360   6.308   6.688
 8907SOL     OW27619   2.866   2.655   5.330
 8907SOL    HW127620   2.955   2.700   5.325
 8907SOL    HW227621   2.803   2.712   5.384
 8908SOL     OW27622   1.407   5.030   6.878
 8908SOL    HW127623   1.347   5.105   6.905
 8908SOL    HW227624   1.475   5.014   6.949
 8909SOL     OW27625   2.398   1.167   5.777
 8909SOL    HW127626   2.470   1.183   5.710
 8909SOL    HW227627   2.415   1.221   5.859
 8910SOL     OW27628   0.484   3.026   5.534
 8910SOL    HW127629   0.411   3.043   5.469
 8910SOL    HW227630   0.490   3.102   5.599
 8911SOL     OW27631   4.208   2.159   4.857
 8911SOL    HW127632   4.119   2.173   4.814
 8911SOL    HW227633   4.224   2.230   4.925
 8912SOL     OW27634   3.335   3.649   6.431
 8912SOL    HW127635   3.275   3.728   6.446
 8912SOL    HW227636   3.364   3.612   6.520
 8913SOL     OW27637   4.668   5.440   5.428
 8913SOL    HW127638   4.677   5.357   5.484
 8913SOL    HW227639   4.620   5.418   5.343
 8914SOL     OW27640   4.376   0.357   4.790
 8914SOL    HW127641   4.472   0.359   4.818
 8914SOL    HW227642   4.370   0.319   4.698
 8915SOL     OW27643   0.741   2.765   4.081
 8915SOL    HW127644   0.655   2.714   4.081
 8915SOL    HW227645   0.801   2.729   4.010
 8916SOL     OW27646   6.769   2.766   0.470
 8916SOL    HW127647   6.799   2.674   0.494
 8916SOL    HW227648   6.815   2.833   0.528
 8917SOL     OW27649   6.631   3.730   6.919
 8917SOL    HW127650   6.617   3.669   6.841
 8917SOL    HW227651   6.696   3.688   6.982
 8918SOL     OW27652   6.714   3.938   0.949
 8918SOL    HW127653   6.719   3.928   1.049
 8918SOL    HW227654   6.798   3.903   0.908
 8919SOL     OW27655   3.858   4.269   0.805
 8919SOL    HW127656   3.823   4.186   0.847
 8919SOL    HW227657   3.929   4.246   0.738
 8920SOL     OW27658   0.415   1.129   0.020
 8920SOL    HW127659   0.418   1.126   6.943
 8920SOL    HW227660   0.329   1.172   0.050
 8921SOL     OW27661   1.999   2.167   1.962
 8921SOL    HW127662   2.017   2.249   2.015
 8921SOL    HW227663   1.901   2.147   1.961
 8922SOL     OW27664   4.442   4.835   1.322
 8922SOL    HW127665   4.513   4.791   1.267
 8922SOL    HW227666   4.460   4.819   1.419
 8923SOL     OW27667   2.011   2.294   6.628
 8923SOL    HW127668   1.976   2.356   6.699
 8923SOL    HW227669   2.043   2.348   6.550
 8924SOL     OW27670   3.934   5.655   5.275
 8924SOL    HW127671   4.026   5.692   5.263
 8924SOL    HW227672   3.941   5.559   5.303
 8925SOL     OW27673   1.261   1.670   3.181
 8925SOL    HW127674   1.277   1.728   3.101
 8925SOL    HW227675   1.162   1.661   3.196
 8926SOL     OW27676   6.595   3.028   5.831
 8926SOL    HW127677   6.551   3.031   5.742
 8926SOL    HW227678   6.560   3.102   5.889
 8927SOL     OW27679   7.005   0.869   4.745
 8927SOL    HW127680   6.956   0.957   4.745
 8927SOL    HW227681   0.069   0.880   4.793
 8928SOL     OW27682   0.626   6.800   6.420
 8928SOL    HW127683   0.677   6.853   6.351
 8928SOL    HW227684   0.597   6.713   6.380
 8929SOL     OW27685   5.552   1.846   4.347
 8929SOL    HW127686   5.651   1.834   4.356
 8929SOL    HW227687   5.506   1.763   4.380
 8930SOL     OW27688   1.914   3.494   4.598
 8930SOL    HW127689   1.829   3.546   4.601
 8930SOL    HW227690   1.946   3.478   4.691
 8931SOL     OW27691   2.466   3.012   0.669
 8931SOL    HW127692   2.411   3.040   0.748
 8931SOL    HW227693   2.462   3.082   0.599
 8932SOL     OW27694   6.111   1.141   1.511
 8932SOL    HW127695   6.144   1.167   1.601
 8932SOL    HW227696   6.181   1.085   1.465
 8933SOL     OW27697   2.607   2.717   6.279
 8933SOL    HW127698   2.510   2.700   6.296
 8933SOL    HW227699   2.621   2.814   6.260
 8934SOL     OW27700   3.040   5.203   4.488
 8934SOL    HW127701   3.074   5.131   4.428
 8934SOL    HW227702   2.940   5.205   4.484
 8935SOL     OW27703   0.202   4.413   0.395
 8935SOL    HW127704   0.225   4.320   0.367
 8935SOL    HW227705   0.222   4.424   0.493
 8936SOL     OW27706   1.452   3.176   2.523
 8936SOL    HW127707   1.377   3.119   2.557
 8936SOL    HW227708   1.530   3.119   2.500
 8937SOL     OW27709   0.372   0.192   5.777
 8937SOL    HW127710   0.311   0.175   5.855
 8937SOL    HW227711   0.455   0.236   5.809
 8938SOL     OW27712   0.057   6.594   0.879
 8938SOL    HW127713   0.048   6.617   0.976
 8938SOL    HW227714   0.149   6.560   0.862
 8939SOL     OW27715   5.887   4.147   4.162
 8939SOL    HW127716   5.981   4.148   4.129
 8939SOL    HW227717   5.829   4.100   4.095
 8940SOL     OW27718   6.869   0.836   1.793
 8940SOL    HW127719   6.839   0.801   1.882
 8940SOL    HW227720   6.798   0.820   1.725
 8941SOL     OW27721   5.344   2.520   4.922
 8941SOL    HW127722   5.340   2.620   4.917
 8941SOL    HW227723   5.332   2.482   4.830
 8942SOL     OW27724   6.317   5.649   5.690
 8942SOL    HW127725   6.376   5.718   5.648
 8942SOL    HW227726   6.265   5.601   5.619
 8943SOL     OW27727   3.731   5.526   0.117
 8943SOL    HW127728   3.660   5.554   0.053
 8943SOL    HW227729   3.739   5.426   0.116
 8944SOL     OW27730   5.353   5.324   5.730
 8944SOL    HW127731   5.313   5.399   5.782
 8944SOL    HW227732   5.438   5.353   5.688
 8945SOL     OW27733   1.342   0.641   3.247
 8945SOL    HW127734   1.433   0.681   3.253
 8945SOL    HW227735   1.274   0.714   3.239
 8946SOL     OW27736   2.539   1.610   4.966
 8946SOL    HW127737   2.590   1.640   5.046
 8946SOL    HW227738   2.482   1.531   4.991
 8947SOL     OW27739   2.644   3.059   6.054
 8947SOL    HW127740   2.736   3.093   6.035
 8947SOL    HW227741   2.643   3.015   6.144
 8948SOL     OW27742   5.981   5.995   4.652
 8948SOL    HW127743   5.904   6.029   4.598
 8948SOL    HW227744   6.067   6.014   4.603
 8949SOL     OW27745   3.380   6.178   0.258
 8949SOL    HW127746   3.444   6.168   0.182
 8949SOL    HW227747   3.288   6.154   0.228
 8950SOL     OW27748   4.821   4.107   6.686
 8950SOL    HW127749   4.891   4.042   6.715
 8950SOL    HW227750   4.804   4.098   6.588
 8951SOL     OW27751   1.600   1.352   4.965
 8951SOL    HW127752   1.605   1.254   4.984
 8951SOL    HW227753   1.652   1.402   5.035
 8952SOL     OW27754   1.075   6.300   2.064
 8952SOL    HW127755   1.053   6.206   2.040
 8952SOL    HW227756   1.111   6.303   2.158
 8953SOL     OW27757   1.480   3.694   6.880
 8953SOL    HW127758   1.572   3.735   6.877
 8953SOL    HW227759   1.412   3.766   6.893
 8954SOL     OW27760   0.445   6.965   4.638
 8954SOL    HW127761   0.519   6.902   4.664
 8954SOL    HW227762   0.365   6.912   4.609
 8955SOL     OW27763   0.137   5.501   2.669
 8955SOL    HW127764   0.194   5.419   2.678
 8955SOL    HW227765   0.075   5.507   2.748
 8956SOL     OW27766   2.036   1.183   6.848
 8956SOL    HW127767   2.071   1.195   6.755
 8956SOL    HW227768   2.112   1.181   6.913
 8957SOL     OW27769   2.095   4.386   1.017
 8957SOL    HW127770   2.146   4.316   1.068
 8957SOL    HW227771   2.061   4.346   0.932
 8958SOL     OW27772   0.298   1.849   4.789
 8958SOL    HW127773   0.342   1.795   4.861
 8958SOL    HW227774   0.325   1.813   4.699
 8959SOL     OW27775   1.654   4.363   2.303
 8959SOL    HW127776   1.589   4.368   2.378
 8959SOL    HW227777   1.731   4.305   2.329
 8960SOL     OW27778   4.120   5.109   3.052
 8960SOL    HW127779   4.051   5.179   3.069
 8960SOL    HW227780   4.076   5.019   3.051
 8961SOL     OW27781   2.904   1.022   3.869
 8961SOL    HW127782   2.887   1.002   3.772
 8961SOL    HW227783   2.926   1.119   3.879
 8962SOL     OW27784   6.556   5.642   2.935
 8962SOL    HW127785   6.585   5.559   2.984
 8962SOL    HW227786   6.529   5.618   2.842
 8963SOL     OW27787   4.221   6.902   4.557
 8963SOL    HW127788   4.187   6.808   4.562
 8963SOL    HW227789   4.320   6.902   4.572
 8964SOL     OW27790   5.111   3.893   2.931
 8964SOL    HW127791   5.020   3.924   2.901
 8964SOL    HW227792   5.108   3.795   2.949
 8965SOL     OW27793   2.532   4.722   0.751
 8965SOL    HW127794   2.517   4.669   0.834
 8965SOL    HW227795   2.478   4.684   0.676
 8966SOL     OW27796   6.932   4.360   0.178
 8966SOL    HW127797   7.011   4.371   0.118
 8966SOL    HW227798   6.848   4.374   0.126
 8967SOL     OW27799   4.296   6.937   0.984
 8967SOL    HW127800   4.332   6.844   0.998
 8967SOL    HW227801   4.373   7.000   0.972
 8968SOL     OW27802   4.414   5.668   3.021
 8968SOL    HW127803   4.321   5.646   3.053
 8968SOL    HW227804   4.409   5.717   2.935
 8969SOL     OW27805   6.116   0.871   4.280
 8969SOL    HW127806   6.096   0.848   4.185
 8969SOL    HW227807   6.205   0.916   4.286
 8970SOL     OW27808   2.815   3.312   6.753
 8970SOL    HW127809   2.860   3.224   6.769
 8970SOL    HW227810   2.721   3.296   6.724
 8971SOL     OW27811   6.024   4.743   1.583
 8971SOL    HW127812   6.111   4.778   1.549
 8971SOL    HW227813   6.004   4.656   1.539
 8972SOL     OW27814   5.217   3.625   0.102
 8972SOL    HW127815   5.296   3.599   0.157
 8972SOL    HW227816   5.140   3.565   0.125
 8973SOL     OW27817   0.760   3.485   3.260
 8973SOL    HW127818   0.812   3.444   3.185
 8973SOL    HW227819   0.696   3.553   3.223
 8974SOL     OW27820   1.095   4.382   4.621
 8974SOL    HW127821   1.007   4.425   4.600
 8974SOL    HW227822   1.169   4.435   4.578
 8975SOL     OW27823   1.559   6.653   5.887
 8975SOL    HW127824   1.588   6.671   5.980
 8975SOL    HW227825   1.477   6.707   5.866
 8976SOL     OW27826   6.961   5.571   5.574
 8976SOL    HW127827   6.973   5.669   5.593
 8976SOL    HW227828   6.865   5.546   5.589
 8977SOL     OW27829   0.182   3.049   6.961
 8977SOL    HW127830   0.150   3.040   0.033
 8977SOL    HW227831   0.164   2.963   6.913
 8978SOL     OW27832   5.078   6.437   3.562
 8978SOL    HW127833   5.167   6.481   3.548
 8978SOL    HW227834   5.031   6.481   3.638
 8979SOL     OW27835   0.925   3.886   4.726
 8979SOL    HW127836   0.990   3.962   4.729
 8979SOL    HW227837   0.973   3.801   4.705
 8980SOL     OW27838   3.936   2.981   5.421
 8980SOL    HW127839   3.957   2.974   5.519
 8980SOL    HW227840   3.841   2.955   5.406
 8981SOL     OW27841   4.124   1.213   6.214
 8981SOL    HW127842   4.025   1.207   6.227
 8981SOL    HW227843   4.165   1.123   6.226
 8982SOL     OW27844   1.396   2.055   1.970
 8982SOL    HW127845   1.398   1.972   1.913
 8982SOL    HW227846   1.437   2.036   2.058
 8983SOL     OW27847   0.874   5.825   6.424
 8983SOL    HW127848   0.838   5.735   6.449
 8983SOL    HW227849   0.963   5.838   6.467
 8984SOL     OW27850   6.511   6.981   4.084
 8984SOL    HW127851   6.534   0.006   4.168
 8984SOL    HW227852   6.561   6.894   4.080
 8985SOL     OW27853   2.531   2.064   0.730
 8985SOL    HW127854   2.515   2.122   0.650
 8985SOL    HW227855   2.546   2.121   0.810
 8986SOL     OW27856   4.219   5.171   1.744
 8986SOL    HW127857   4.183   5.255   1.785
 8986SOL    HW227858   4.146   5.105   1.733
 8987SOL     OW27859   5.464   6.961   0.681
 8987SOL    HW127860   5.510   6.907   0.752
 8987SOL    HW227861   5.451   6.904   0.599
 8988SOL     OW27862   1.502   4.155   6.348
 8988SOL    HW127863   1.481   4.072   6.296
 8988SOL    HW227864   1.493   4.137   6.446
 8989SOL     OW27865   5.258   3.779   2.579
 8989SOL    HW127866   5.261   3.869   2.621
 8989SOL    HW227867   5.274   3.786   2.481
 8990SOL     OW27868   2.042   5.593   2.424
 8990SOL    HW127869   2.134   5.631   2.430
 8990SOL    HW227870   1.989   5.622   2.504
 8991SOL     OW27871   1.916   2.088   0.072
 8991SOL    HW127872   1.876   2.145   0.144
 8991SOL    HW227873   2.006   2.125   0.046
 8992SOL     OW27874   6.554   2.252   0.223
 8992SOL    HW127875   6.525   2.185   0.155
 8992SOL    HW227876   6.642   2.224   0.262
 8993SOL     OW27877   4.716   2.394   2.240
 8993SOL    HW127878   4.654   2.316   2.235
 8993SOL    HW227879   4.748   2.417   2.149
 8994SOL     OW27880   1.586   5.099   4.810
 8994SOL    HW127881   1.539   5.080   4.724
 8994SOL    HW227882   1.550   5.041   4.882
 8995SOL     OW27883   0.779   2.375   6.696
 8995SOL    HW127884   0.756   2.290   6.649
 8995SOL    HW227885   0.833   2.433   6.634
 8996SOL     OW27886   6.508   5.462   1.518
 8996SOL    HW127887   6.415   5.442   1.547
 8996SOL    HW227888   6.539   5.547   1.561
 8997SOL     OW27889   4.786   1.161   6.594
 8997SOL    HW127890   4.752   1.245   6.552
 8997SOL    HW227891   4.822   1.101   6.523
 8998SOL     OW27892   6.971   3.539   4.895
 8998SOL    HW127893   6.874   3.517   4.888
 8998SOL    HW227894   7.017   3.467   4.947
 8999SOL     OW27895   5.235   6.416   0.111
 8999SOL    HW127896   5.266   6.509   0.094
 8999SOL    HW227897   5.314   6.355   0.117
 9000SOL     OW27898   2.647   3.888   0.173
 9000SOL    HW127899   2.643   3.960   0.103
 9000SOL    HW227900   2.560   3.840   0.176
 9001SOL     OW27901   1.215   5.376   2.453
 9001SOL    HW127902   1.288   5.381   2.386
 9001SOL    HW227903   1.250   5.341   2.540
 9002SOL     OW27904   6.971   5.030   5.136
 9002SOL    HW127905   7.006   4.937   5.148
 9002SOL    HW227906   6.960   5.048   5.038
 9003SOL     OW27907   5.222   2.922   1.672
 9003SOL    HW127908   5.146   2.856   1.665
 9003SOL    HW227909   5.203   2.985   1.747
 9004SOL     OW27910   4.558   6.448   0.937
 9004SOL    HW127911   4.553   6.397   0.851
 9004SOL    HW227912   4.628   6.407   0.995
 9005SOL     OW27913   5.034   2.473   4.209
 9005SOL    HW127914   5.024   2.478   4.308
 9005SOL    HW227915   5.113   2.527   4.180
 9006SOL     OW27916   2.947   6.402   0.740
 9006SOL    HW127917   2.950   6.307   0.769
 9006SOL    HW227918   2.962   6.462   0.818
 9007SOL     OW27919   4.740   0.934   4.018
 9007SOL    HW127920   4.670   0.960   3.953
 9007SOL    HW227921   4.742   0.999   4.094
 9008SOL     OW27922   0.724   5.879   3.135
 9008SOL    HW127923   0.687   5.810   3.198
 9008SOL    HW227924   0.824   5.881   3.144
 9009SOL     OW27925   2.591   1.322   0.547
 9009SOL    HW127926   2.650   1.395   0.581
 9009SOL    HW227927   2.633   1.233   0.565
 9010SOL     OW27928   1.480   6.520   4.082
 9010SOL    HW127929   1.473   6.478   4.173
 9010SOL    HW227930   1.451   6.453   4.014
 9011SOL     OW27931   4.619   2.392   1.448
 9011SOL    HW127932   4.700   2.449   1.437
 9011SOL    HW227933   4.614   2.327   1.372
 9012SOL     OW27934   2.646   4.129   1.234
 9012SOL    HW127935   2.635   4.121   1.135
 9012SOL    HW227936   2.629   4.224   1.262
 9013SOL     OW27937   0.155   6.598   5.164
 9013SOL    HW127938   0.093   6.650   5.105
 9013SOL    HW227939   0.180   6.512   5.119
 9014SOL     OW27940   0.033   1.397   0.378
 9014SOL    HW127941   0.012   1.410   0.281
 9014SOL    HW227942   0.128   1.425   0.395
 9015SOL     OW27943   5.538   1.675   1.472
 9015SOL    HW127944   5.544   1.751   1.408
 9015SOL    HW227945   5.572   1.704   1.562
 9016SOL     OW27946   0.763   6.566   6.894
 9016SOL    HW127947   0.800   6.504   6.964
 9016SOL    HW227948   0.821   6.647   6.887
 9017SOL     OW27949   4.562   2.166   2.287
 9017SOL    HW127950   4.517   2.112   2.216
 9017SOL    HW227951   4.497   2.231   2.326
 9018SOL     OW27952   4.013   1.887   6.768
 9018SOL    HW127953   3.926   1.933   6.752
 9018SOL    HW227954   4.084   1.954   6.788
 9019SOL     OW27955   1.153   0.349   2.063
 9019SOL    HW127956   1.172   0.410   1.986
 9019SOL    HW227957   1.070   0.381   2.111
 9020SOL     OW27958   0.950   3.370   1.553
 9020SOL    HW127959   0.965   3.329   1.463
 9020SOL    HW227960   0.926   3.466   1.543
 9021SOL     OW27961   6.407   0.902   3.923
 9021SOL    HW127962   6.395   0.869   3.829
 9021SOL    HW227963   6.408   0.824   3.985
 9022SOL     OW27964   2.757   1.616   0.040
 9022SOL    HW127965   2.730   1.712   0.029
 9022SOL    HW227966   2.714   1.562   6.991
 9023SOL     OW27967   3.522   3.800   2.120
 9023SOL    HW127968   3.533   3.899   2.131
 9023SOL    HW227969   3.604   3.754   2.154
 9024SOL     OW27970   0.233   5.013   4.856
 9024SOL    HW127971   0.222   5.062   4.770
 9024SOL    HW227972   0.240   4.915   4.838
 9025SOL     OW27973   0.481   5.238   0.042
 9025SOL    HW127974   0.437   5.314   7.018
 9025SOL    HW227975   0.411   5.177   0.079
 9026SOL     OW27976   4.100   3.533   1.082
 9026SOL    HW127977   4.071   3.453   1.134
 9026SOL    HW227978   4.025   3.566   1.025
 9027SOL     OW27979   1.034   2.275   4.200
 9027SOL    HW127980   1.005   2.226   4.282
 9027SOL    HW227981   1.106   2.340   4.225
 9028SOL     OW27982   2.214   3.730   6.078
 9028SOL    HW127983   2.311   3.707   6.076
 9028SOL    HW227984   2.174   3.700   6.164
 9029SOL     OW27985   3.104   5.982   4.711
 9029SOL    HW127986   3.109   6.081   4.707
 9029SOL    HW227987   3.194   5.943   4.690
 9030SOL     OW27988   2.393   2.395   3.568
 9030SOL    HW127989   2.432   2.446   3.492
 9030SOL    HW227990   2.381   2.455   3.647
 9031SOL     OW27991   4.232   5.874   4.310
 9031SOL    HW127992   4.192   5.840   4.395
 9031SOL    HW227993   4.231   5.801   4.241
 9032SOL     OW27994   3.561   3.276   0.038
 9032SOL    HW127995   3.608   3.329   0.108
 9032SOL    HW227996   3.629   3.233   7.001
 9033SOL     OW27997   1.413   5.238   4.060
 9033SOL    HW127998   1.374   5.272   3.974
 9033SOL    HW227999   1.391   5.301   4.134
 9034SOL     OW28000   3.096   0.357   5.594
 9034SOL    HW128001   3.061   0.446   5.624
 9034SOL    HW228002   3.064   0.286   5.657
 9035SOL     OW28003   1.210   4.705   6.078
 9035SOL    HW128004   1.209   4.682   5.980
 9035SOL    HW228005   1.243   4.799   6.089
 9036SOL     OW28006   2.268   0.963   5.628
 9036SOL    HW128007   2.303   1.043   5.677
 9036SOL    HW228008   2.224   0.993   5.543
 9037SOL     OW28009   1.352   4.070   5.583
 9037SOL    HW128010   1.295   3.999   5.542
 9037SOL    HW228011   1.405   4.031   5.658
 9038SOL     OW28012   4.545   6.644   5.941
 9038SOL    HW128013   4.568   6.628   5.845
 9038SOL    HW228014   4.446   6.644   5.951
 9039SOL     OW28015   2.828   5.039   4.835
 9039SOL    HW128016   2.803   4.943   4.837
 9039SOL    HW228017   2.800   5.083   4.920
 9040SOL     OW28018   3.172   2.184   3.181
 9040SOL    HW128019   3.132   2.193   3.090
 9040SOL    HW228020   3.118   2.236   3.247
 9041SOL     OW28021   1.160   2.265   1.969
 9041SOL    HW128022   1.232   2.201   1.942
 9041SOL    HW228023   1.096   2.220   2.030
 9042SOL     OW28024   3.127   0.020   4.006
 9042SOL    HW128025   3.219   0.042   3.973
 9042SOL    HW228026   3.059   0.064   3.946
 9043SOL     OW28027   1.870   1.406   6.954
 9043SOL    HW128028   1.923   1.345   6.895
 9043SOL    HW228029   1.859   1.364   0.021
 9044SOL     OW28030   5.468   0.984   1.171
 9044SOL    HW128031   5.548   1.043   1.186
 9044SOL    HW228032   5.478   0.935   1.084
 9045SOL     OW28033   2.509   1.275   2.447
 9045SOL    HW128034   2.580   1.272   2.376
 9045SOL    HW228035   2.495   1.183   2.484
 9046SOL     OW28036   3.735   3.769   3.674
 9046SOL    HW128037   3.706   3.774   3.579
 9046SOL    HW228038   3.662   3.801   3.734
 9047SOL     OW28039   1.040   3.439   5.874
 9047SOL    HW128040   0.975   3.487   5.932
 9047SOL    HW228041   1.018   3.342   5.872
 9048SOL     OW28042   5.846   1.975   6.093
 9048SOL    HW128043   5.910   2.010   6.162
 9048SOL    HW228044   5.773   2.042   6.078
 9049SOL     OW28045   3.407   6.938   6.267
 9049SOL    HW128046   3.344   7.016   6.273
 9049SOL    HW228047   3.355   6.853   6.261
 9050SOL     OW28048   0.272   3.351   6.982
 9050SOL    HW128049   0.372   3.339   6.979
 9050SOL    HW228050   0.230   3.263   7.005
 9051SOL     OW28051   4.529   6.308   0.700
 9051SOL    HW128052   4.578   6.317   0.614
 9051SOL    HW228053   4.443   6.360   0.696
 9052SOL     OW28054   2.013   2.431   4.409
 9052SOL    HW128055   2.048   2.420   4.502
 9052SOL    HW228056   1.917   2.456   4.413
 9053SOL     OW28057   1.918   1.720   2.965
 9053SOL    HW128058   1.948   1.705   3.059
 9053SOL    HW228059   1.818   1.718   2.961
 9054SOL     OW28060   1.525   6.546   2.318
 9054SOL    HW128061   1.510   6.644   2.304
 9054SOL    HW228062   1.611   6.519   2.275
 9055SOL     OW28063   6.035   3.213   3.867
 9055SOL    HW128064   5.986   3.241   3.949
 9055SOL    HW228065   6.018   3.279   3.794
 9056SOL     OW28066   0.853   0.956   1.881
 9056SOL    HW128067   0.787   1.028   1.903
 9056SOL    HW228068   0.834   0.876   1.939
 9057SOL     OW28069   5.785   5.297   5.981
 9057SOL    HW128070   5.813   5.381   5.933
 9057SOL    HW228071   5.837   5.219   5.946
 9058SOL     OW28072   2.437   1.959   2.852
 9058SOL    HW128073   2.480   2.032   2.798
 9058SOL    HW228074   2.338   1.965   2.844
 9059SOL     OW28075   1.169   2.212   4.704
 9059SOL    HW128076   1.174   2.304   4.665
 9059SOL    HW228077   1.251   2.160   4.677
 9060SOL     OW28078   6.016   2.933   2.888
 9060SOL    HW128079   6.051   2.840   2.880
 9060SOL    HW228080   6.031   2.982   2.802
 9061SOL     OW28081   2.581   5.553   1.781
 9061SOL    HW128082   2.539   5.474   1.738
 9061SOL    HW228083   2.516   5.594   1.846
 9062SOL     OW28084   1.940   6.301   1.961
 9062SOL    HW128085   1.975   6.394   1.971
 9062SOL    HW228086   1.928   6.281   1.864
 9063SOL     OW28087   2.665   0.149   3.035
 9063SOL    HW128088   2.637   0.153   2.939
 9063SOL    HW228089   2.762   0.127   3.041
 9064SOL     OW28090   6.224   2.729   5.505
 9064SOL    HW128091   6.317   2.716   5.471
 9064SOL    HW228092   6.206   2.827   5.516
 9065SOL     OW28093   3.276   6.440   6.089
 9065SOL    HW128094   3.267   6.344   6.063
 9065SOL    HW228095   3.199   6.492   6.051
 9066SOL     OW28096   5.264   6.091   0.517
 9066SOL    HW128097   5.224   6.174   0.478
 9066SOL    HW228098   5.255   6.095   0.617
 9067SOL     OW28099   6.326   0.519   4.265
 9067SOL    HW128100   6.402   0.457   4.285
 9067SOL    HW228101   6.330   0.598   4.327
 9068SOL     OW28102   2.385   6.994   5.070
 9068SOL    HW128103   2.437   6.991   5.156
 9068SOL    HW228104   2.406   6.912   5.016
 9069SOL     OW28105   2.043   2.407   2.116
 9069SOL    HW128106   1.983   2.463   2.059
 9069SOL    HW228107   2.022   2.423   2.213
 9070SOL     OW28108   1.724   4.291   4.889
 9070SOL    HW128109   1.694   4.289   4.984
 9070SOL    HW228110   1.721   4.385   4.855
 9071SOL     OW28111   5.340   0.018   1.042
 9071SOL    HW128112   5.277   0.039   0.967
 9071SOL    HW228113   5.434   0.023   1.008
 9072SOL     OW28114   0.093   1.652   2.050
 9072SOL    HW128115   0.066   1.557   2.070
 9072SOL    HW228116   0.011   1.709   2.048
 9073SOL     OW28117   3.600   6.831   2.193
 9073SOL    HW128118   3.627   6.923   2.221
 9073SOL    HW228119   3.515   6.835   2.141
 9074SOL     OW28120   2.387   1.267   2.046
 9074SOL    HW128121   2.341   1.279   2.134
 9074SOL    HW228122   2.471   1.215   2.059
 9075SOL     OW28123   1.635   0.879   3.076
 9075SOL    HW128124   1.650   0.962   3.022
 9075SOL    HW228125   1.621   0.802   3.013
 9076SOL     OW28126   6.019   2.255   4.691
 9076SOL    HW128127   6.118   2.263   4.699
 9076SOL    HW228128   5.981   2.339   4.652
 9077SOL     OW28129   5.628   0.141   0.159
 9077SOL    HW128130   5.726   0.161   0.168
 9077SOL    HW228131   5.586   0.135   0.249
 9078SOL     OW28132   4.352   3.736   6.442
 9078SOL    HW128133   4.258   3.723   6.410
 9078SOL    HW228134   4.415   3.691   6.379
 9079SOL     OW28135   3.409   0.035   4.001
 9079SOL    HW128136   3.411   0.123   4.048
 9079SOL    HW228137   3.477   0.034   3.928
 9080SOL     OW28138   4.918   2.783   0.045
 9080SOL    HW128139   4.963   2.871   0.032
 9080SOL    HW228140   4.902   2.740   6.979
 9081SOL     OW28141   3.652   6.292   2.696
 9081SOL    HW128142   3.552   6.289   2.688
 9081SOL    HW228143   3.691   6.333   2.614
 9082SOL     OW28144   2.761   0.449   5.785
 9082SOL    HW128145   2.665   0.429   5.803
 9082SOL    HW228146   2.782   0.430   5.689
 9083SOL     OW28147   3.218   5.986   5.857
 9083SOL    HW128148   3.211   5.903   5.911
 9083SOL    HW228149   3.182   5.970   5.765
 9084SOL     OW28150   2.949   3.816   4.542
 9084SOL    HW128151   2.881   3.799   4.471
 9084SOL    HW228152   2.987   3.729   4.573
 9085SOL     OW28153   2.672   5.062   1.230
 9085SOL    HW128154   2.751   5.119   1.206
 9085SOL    HW228155   2.639   5.086   1.321
 9086SOL     OW28156   1.188   4.626   0.331
 9086SOL    HW128157   1.265   4.571   0.299
 9086SOL    HW228158   1.218   4.686   0.405
 9087SOL     OW28159   5.010   2.790   1.563
 9087SOL    HW128160   5.068   2.772   1.484
 9087SOL    HW228161   4.917   2.810   1.533
 9088SOL     OW28162   6.148   6.558   0.923
 9088SOL    HW128163   6.144   6.648   0.967
 9088SOL    HW228164   6.182   6.491   0.988
 9089SOL     OW28165   5.182   5.882   5.584
 9089SOL    HW128166   5.199   5.851   5.678
 9089SOL    HW228167   5.169   5.981   5.584
 9090SOL     OW28168   0.002   0.969   3.685
 9090SOL    HW128169   0.036   1.056   3.721
 9090SOL    HW228170   7.003   0.907   3.760
 9091SOL     OW28171   3.331   4.295   0.133
 9091SOL    HW128172   3.243   4.255   0.158
 9091SOL    HW228173   3.321   4.347   0.048
 9092SOL     OW28174   0.405   1.019   0.503
 9092SOL    HW128175   0.405   0.920   0.517
 9092SOL    HW228176   0.311   1.051   0.495
 9093SOL     OW28177   1.136   6.568   5.864
 9093SOL    HW128178   1.173   6.477   5.883
 9093SOL    HW228179   1.176   6.604   5.780
 9094SOL     OW28180   6.579   5.172   2.874
 9094SOL    HW128181   6.500   5.116   2.896
 9094SOL    HW228182   6.601   5.164   2.777
 9095SOL     OW28183   5.285   4.716   6.163
 9095SOL    HW128184   5.311   4.812   6.173
 9095SOL    HW228185   5.276   4.695   6.065
 9096SOL     OW28186   5.837   4.328   2.406
 9096SOL    HW128187   5.836   4.233   2.436
 9096SOL    HW228188   5.804   4.387   2.479
 9097SOL     OW28189   1.000   1.451   0.957
 9097SOL    HW128190   0.965   1.358   0.962
 9097SOL    HW228191   1.028   1.471   0.863
 9098SOL     OW28192   3.771   1.743   5.254
 9098SOL    HW128193   3.702   1.806   5.292
 9098SOL    HW228194   3.825   1.791   5.185
 9099SOL     OW28195   3.351   2.396   5.600
 9099SOL    HW128196   3.284   2.322   5.606
 9099SOL    HW228197   3.332   2.452   5.520
 9100SOL     OW28198   0.377   3.257   3.403
 9100SOL    HW128199   0.331   3.288   3.486
 9100SOL    HW228200   0.375   3.158   3.398
 9101SOL     OW28201   2.446   2.532   2.770
 9101SOL    HW128202   2.483   2.558   2.858
 9101SOL    HW228203   2.454   2.608   2.706
 9102SOL     OW28204   2.912   6.183   1.500
 9102SOL    HW128205   2.921   6.190   1.401
 9102SOL    HW228206   2.853   6.256   1.534
 9103SOL     OW28207   6.973   2.983   6.526
 9103SOL    HW128208   6.903   3.036   6.477
 9103SOL    HW228209   6.935   2.949   6.612
 9104SOL     OW28210   0.271   5.881   2.195
 9104SOL    HW128211   0.358   5.913   2.156
 9104SOL    HW228212   0.252   5.930   2.280
 9105SOL     OW28213   0.852   1.247   6.556
 9105SOL    HW128214   0.787   1.172   6.562
 9105SOL    HW228215   0.944   1.213   6.578
 9106SOL     OW28216   6.873   3.564   1.171
 9106SOL    HW128217   6.919   3.503   1.235
 9106SOL    HW228218   6.934   3.640   1.148
 9107SOL     OW28219   2.790   0.789   6.811
 9107SOL    HW128220   2.782   0.888   6.803
 9107SOL    HW228221   2.832   0.752   6.729
 9108SOL     OW28222   5.271   4.569   5.169
 9108SOL    HW128223   5.187   4.525   5.200
 9108SOL    HW228224   5.342   4.500   5.155
 9109SOL     OW28225   6.444   3.408   3.760
 9109SOL    HW128226   6.512   3.473   3.725
 9109SOL    HW228227   6.425   3.429   3.856
 9110SOL     OW28228   2.153   4.970   4.137
 9110SOL    HW128229   2.119   5.040   4.074
 9110SOL    HW228230   2.240   4.934   4.103
 9111SOL     OW28231   5.435   2.189   0.684
 9111SOL    HW128232   5.375   2.262   0.716
 9111SOL    HW228233   5.495   2.224   0.613
 9112SOL     OW28234   1.142   5.478   2.798
 9112SOL    HW128235   1.049   5.443   2.786
 9112SOL    HW228236   1.206   5.418   2.749
 9113SOL     OW28237   4.807   2.952   2.557
 9113SOL    HW128238   4.718   2.911   2.574
 9113SOL    HW228239   4.864   2.889   2.505
 9114SOL     OW28240   0.620   5.172   3.500
 9114SOL    HW128241   0.607   5.253   3.557
 9114SOL    HW228242   0.534   5.121   3.495
 9115SOL     OW28243   6.813   6.096   4.780
 9115SOL    HW128244   6.768   6.146   4.706
 9115SOL    HW228245   6.753   6.023   4.812
 9116SOL     OW28246   0.108   6.978   2.861
 9116SOL    HW128247   0.126   0.045   2.822
 9116SOL    HW228248   0.117   6.982   2.960
 9117SOL     OW28249   3.813   2.876   6.273
 9117SOL    HW128250   3.844   2.824   6.353
 9117SOL    HW228251   3.718   2.853   6.254
 9118SOL     OW28252   0.364   3.088   0.327
 9118SOL    HW128253   0.387   3.006   0.379
 9118SOL    HW228254   0.426   3.097   0.249
 9119SOL     OW28255   3.992   0.704   2.355
 9119SOL    HW128256   3.996   0.618   2.404
 9119SOL    HW228257   3.899   0.741   2.360
 9120SOL     OW28258   6.622   1.550   5.420
 9120SOL    HW128259   6.537   1.588   5.385
 9120SOL    HW228260   6.604   1.463   5.467
 9121SOL     OW28261   3.796   6.528   4.914
 9121SOL    HW128262   3.740   6.456   4.956
 9121SOL    HW228263   3.830   6.496   4.826
 9122SOL     OW28264   2.382   4.529   2.037
 9122SOL    HW128265   2.376   4.467   1.959
 9122SOL    HW228266   2.473   4.571   2.039
 9123SOL     OW28267   1.915   0.776   4.918
 9123SOL    HW128268   1.920   0.735   5.009
 9123SOL    HW228269   1.835   0.836   4.912
 9124SOL     OW28270   4.377   5.168   0.420
 9124SOL    HW128271   4.437   5.088   0.420
 9124SOL    HW228272   4.346   5.186   0.326
 9125SOL     OW28273   4.235   4.261   0.869
 9125SOL    HW128274   4.333   4.254   0.847
 9125SOL    HW228275   4.219   4.225   0.961
 9126SOL     OW28276   6.344   3.328   1.758
 9126SOL    HW128277   6.318   3.336   1.662
 9126SOL    HW228278   6.304   3.404   1.810
 9127SOL     OW28279   6.014   1.269   6.040
 9127SOL    HW128280   5.918   1.279   6.014
 9127SOL    HW228281   6.064   1.354   6.020
 9128SOL     OW28282   5.819   2.293   5.276
 9128SOL    HW128283   5.846   2.352   5.200
 9128SOL    HW228284   5.726   2.259   5.260
 9129SOL     OW28285   6.696   2.015   6.927
 9129SOL    HW128286   6.657   2.089   6.873
 9129SOL    HW228287   6.624   1.971   6.980
 9130SOL     OW28288   1.305   4.371   6.441
 9130SOL    HW128289   1.268   4.395   6.351
 9130SOL    HW228290   1.316   4.271   6.447
 9131SOL     OW28291   5.587   3.196   6.157
 9131SOL    HW128292   5.628   3.238   6.076
 9131SOL    HW228293   5.595   3.259   6.234
 9132SOL     OW28294   0.812   5.697   4.205
 9132SOL    HW128295   0.739   5.758   4.236
 9132SOL    HW228296   0.843   5.640   4.281
 9133SOL     OW28297   3.792   6.216   1.351
 9133SOL    HW128298   3.844   6.155   1.411
 9133SOL    HW228299   3.694   6.208   1.372
 9134SOL     OW28300   3.929   5.070   1.308
 9134SOL    HW128301   3.889   5.162   1.310
 9134SOL    HW228302   4.029   5.077   1.303
 9135SOL     OW28303   0.510   0.256   1.508
 9135SOL    HW128304   0.489   0.306   1.424
 9135SOL    HW228305   0.451   0.176   1.516
 9136SOL     OW28306   4.620   6.079   6.293
 9136SOL    HW128307   4.658   6.111   6.379
 9136SOL    HW228308   4.653   6.136   6.218
 9137SOL     OW28309   3.911   0.762   6.403
 9137SOL    HW128310   3.853   0.780   6.482
 9137SOL    HW228311   3.864   0.788   6.319
 9138SOL     OW28312   6.843   4.518   6.268
 9138SOL    HW128313   6.922   4.466   6.237
 9138SOL    HW228314   6.851   4.535   6.367
 9139SOL     OW28315   1.675   1.363   2.824
 9139SOL    HW128316   1.630   1.451   2.808
 9139SOL    HW228317   1.748   1.350   2.757
 9140SOL     OW28318   0.559   3.811   2.328
 9140SOL    HW128319   0.555   3.910   2.344
 9140SOL    HW228320   0.649   3.788   2.290
 9141SOL     OW28321   5.958   6.317   1.577
 9141SOL    HW128322   6.035   6.381   1.571
 9141SOL    HW228323   5.924   6.297   1.485
 9142SOL     OW28324   0.431   3.955   1.590
 9142SOL    HW128325   0.492   3.877   1.606
 9142SOL    HW228326   0.368   3.933   1.516
 9143SOL     OW28327   6.526   3.100   0.259
 9143SOL    HW128328   6.609   3.147   0.230
 9143SOL    HW228329   6.536   3.002   0.246
 9144SOL     OW28330   3.188   5.496   5.074
 9144SOL    HW128331   3.145   5.580   5.043
 9144SOL    HW228332   3.153   5.419   5.021
 9145SOL     OW28333   0.453   5.826   6.596
 9145SOL    HW128334   0.528   5.846   6.658
 9145SOL    HW228335   0.440   5.727   6.591
 9146SOL     OW28336   5.457   3.218   2.951
 9146SOL    HW128337   5.510   3.147   2.905
 9146SOL    HW228338   5.453   3.198   3.049
 9147SOL     OW28339   6.711   0.546   5.591
 9147SOL    HW128340   6.790   0.489   5.569
 9147SOL    HW228341   6.740   0.627   5.642
 9148SOL     OW28342   5.308   6.266   2.530
 9148SOL    HW128343   5.312   6.184   2.587
 9148SOL    HW228344   5.213   6.288   2.510
 9149SOL     OW28345   5.276   3.807   2.305
 9149SOL    HW128346   5.176   3.812   2.298
 9149SOL    HW228347   5.313   3.771   2.220
 9150SOL     OW28348   3.506   4.677   0.891
 9150SOL    HW128349   3.416   4.636   0.873
 9150SOL    HW228350   3.577   4.611   0.866
 9151SOL     OW28351   1.751   4.615   3.680
 9151SOL    HW128352   1.798   4.608   3.592
 9151SOL    HW228353   1.819   4.613   3.754
 9152SOL     OW28354   2.399   4.458   4.713
 9152SOL    HW128355   2.389   4.401   4.631
 9152SOL    HW228356   2.351   4.415   4.790
 9153SOL     OW28357   0.262   2.246   6.412
 9153SOL    HW128358   0.339   2.279   6.467
 9153SOL    HW228359   0.181   2.237   6.470
 9154SOL     OW28360   4.685   4.718   4.788
 9154SOL    HW128361   4.661   4.689   4.696
 9154SOL    HW228362   4.604   4.715   4.846
 9155SOL     OW28363   2.680   4.952   2.260
 9155SOL    HW128364   2.595   4.928   2.213
 9155SOL    HW228365   2.667   5.038   2.310
 9156SOL     OW28366   6.468   1.895   1.099
 9156SOL    HW128367   6.482   1.839   1.181
 9156SOL    HW228368   6.544   1.959   1.089
 9157SOL     OW28369   3.399   3.828   7.012
 9157SOL    HW128370   3.410   3.786   6.922
 9157SOL    HW228371   3.460   3.907   7.018
 9158SOL     OW28372   6.604   3.968   4.197
 9158SOL    HW128373   6.600   4.005   4.290
 9158SOL    HW228374   6.639   4.038   4.135
 9159SOL     OW28375   2.394   0.609   3.685
 9159SOL    HW128376   2.457   0.536   3.658
 9159SOL    HW228377   2.303   0.590   3.646
 9160SOL     OW28378   0.747   6.224   5.848
 9160SOL    HW128379   0.769   6.184   5.937
 9160SOL    HW228380   0.786   6.316   5.842
 9161SOL     OW28381   6.424   4.682   3.229
 9161SOL    HW128382   6.396   4.749   3.298
 9161SOL    HW228383   6.384   4.706   3.141
 9162SOL     OW28384   3.913   0.270   2.634
 9162SOL    HW128385   3.930   0.182   2.589
 9162SOL    HW228386   3.849   0.324   2.579
 9163SOL     OW28387   6.818   3.379   3.650
 9163SOL    HW128388   6.746   3.444   3.675
 9163SOL    HW228389   6.904   3.428   3.637
 9164SOL     OW28390   2.082   0.430   6.764
 9164SOL    HW128391   2.013   0.482   6.815
 9164SOL    HW228392   2.106   0.348   6.816
 9165SOL     OW28393   5.166   2.200   6.080
 9165SOL    HW128394   5.206   2.128   6.023
 9165SOL    HW228395   5.166   2.172   6.175
 9166SOL     OW28396   4.760   5.615   0.884
 9166SOL    HW128397   4.796   5.531   0.924
 9166SOL    HW228398   4.661   5.608   0.875
 9167SOL     OW28399   1.871   2.068   5.977
 9167SOL    HW128400   1.840   2.017   6.058
 9167SOL    HW228401   1.830   2.029   5.895
 9168SOL     OW28402   6.808   6.259   6.450
 9168SOL    HW128403   6.718   6.236   6.487
 9168SOL    HW228404   6.797   6.303   6.361
 9169SOL     OW28405   6.937   6.804   6.433
 9169SOL    HW128406   6.971   6.711   6.444
 9169SOL    HW228407   7.004   6.859   6.382
 9170SOL     OW28408   1.928   0.121   6.575
 9170SOL    HW128409   1.889   0.134   6.666
 9170SOL    HW228410   1.949   0.210   6.534
 9171SOL     OW28411   3.760   6.125   0.267
 9171SOL    HW128412   3.849   6.083   0.282
 9171SOL    HW228413   3.707   6.122   0.352
 9172SOL     OW28414   4.489   1.368   3.836
 9172SOL    HW128415   4.471   1.270   3.839
 9172SOL    HW228416   4.408   1.417   3.867
 9173SOL     OW28417   5.787   3.386   5.374
 9173SOL    HW128418   5.884   3.365   5.387
 9173SOL    HW228419   5.734   3.342   5.447
 9174SOL     OW28420   0.821   5.690   6.820
 9174SOL    HW128421   0.919   5.706   6.807
 9174SOL    HW228422   0.807   5.630   6.899
 9175SOL     OW28423   1.397   0.329   6.710
 9175SOL    HW128424   1.393   0.390   6.789
 9175SOL    HW228425   1.403   0.383   6.626
 9176SOL     OW28426   2.769   0.108   1.916
 9176SOL    HW128427   2.721   0.028   1.881
 9176SOL    HW228428   2.704   0.183   1.929
 9177SOL     OW28429   1.429   2.652   4.235
 9177SOL    HW128430   1.502   2.627   4.298
 9177SOL    HW228431   1.439   2.749   4.209
 9178SOL     OW28432   2.074   6.263   6.471
 9178SOL    HW128433   1.986   6.235   6.432
 9178SOL    HW228434   2.139   6.188   6.465
 9179SOL     OW28435   1.808   5.731   5.029
 9179SOL    HW128436   1.760   5.646   5.046
 9179SOL    HW228437   1.799   5.757   4.932
 9180SOL     OW28438   6.637   2.589   3.305
 9180SOL    HW128439   6.603   2.617   3.215
 9180SOL    HW228440   6.644   2.489   3.308
 9181SOL     OW28441   4.923   2.849   3.664
 9181SOL    HW128442   4.870   2.852   3.749
 9181SOL    HW228443   4.921   2.939   3.620
 9182SOL     OW28444   3.270   0.344   3.060
 9182SOL    HW128445   3.187   0.400   3.058
 9182SOL    HW228446   3.260   0.266   2.998
 9183SOL     OW28447   4.819   4.390   6.673
 9183SOL    HW128448   4.906   4.434   6.652
 9183SOL    HW228449   4.830   4.291   6.674
 9184SOL     OW28450   3.661   2.118   1.184
 9184SOL    HW128451   3.643   2.199   1.129
 9184SOL    HW228452   3.651   2.141   1.281
 9185SOL     OW28453   0.123   7.018   5.663
 9185SOL    HW128454   0.205   0.035   5.622
 9185SOL    HW228455   0.058   6.993   5.591
 9186SOL     OW28456   5.423   0.986   5.361
 9186SOL    HW128457   5.371   1.067   5.336
 9186SOL    HW228458   5.521   1.003   5.349
 9187SOL     OW28459   4.419   1.961   0.330
 9187SOL    HW128460   4.372   1.874   0.350
 9187SOL    HW228461   4.463   1.995   0.413
 9188SOL     OW28462   1.677   0.464   1.954
 9188SOL    HW128463   1.641   0.529   1.888
 9188SOL    HW228464   1.738   0.399   1.908
 9189SOL     OW28465   2.789   6.860   2.975
 9189SOL    HW128466   2.769   6.787   2.910
 9189SOL    HW228467   2.804   6.820   3.066
 9190SOL     OW28468   0.392   3.800   5.162
 9190SOL    HW128469   0.453   3.876   5.186
 9190SOL    HW228470   0.370   3.805   5.065
 9191SOL     OW28471   5.719   1.034   6.854
 9191SOL    HW128472   5.627   1.074   6.848
 9191SOL    HW228473   5.717   0.955   6.914
 9192SOL     OW28474   6.078   2.969   5.661
 9192SOL    HW128475   5.989   2.926   5.647
 9192SOL    HW228476   6.084   3.052   5.604
 9193SOL     OW28477   3.802   3.662   4.089
 9193SOL    HW128478   3.885   3.717   4.082
 9193SOL    HW228479   3.753   3.664   4.001
 9194SOL     OW28480   3.969   5.757   2.029
 9194SOL    HW128481   3.908   5.822   2.074
 9194SOL    HW228482   3.918   5.674   2.007
 9195SOL     OW28483   1.664   3.103   3.224
 9195SOL    HW128484   1.647   3.174   3.156
 9195SOL    HW228485   1.761   3.103   3.249
 9196SOL     OW28486   5.306   0.232   3.440
 9196SOL    HW128487   5.219   0.187   3.420
 9196SOL    HW228488   5.376   0.197   3.377
 9197SOL     OW28489   3.494   5.342   0.461
 9197SOL    HW128490   3.508   5.376   0.554
 9197SOL    HW228491   3.508   5.417   0.396
 9198SOL     OW28492   6.201   4.457   6.322
 9198SOL    HW128493   6.234   4.404   6.400
 9198SOL    HW228494   6.265   4.531   6.303
 9199SOL     OW28495   0.316   2.713   6.418
 9199SOL    HW128496   0.393   2.776   6.427
 9199SOL    HW228497   0.232   2.760   6.446
 9200SOL     OW28498   2.187   5.823   6.239
 9200SOL    HW128499   2.284   5.798   6.233
 9200SOL    HW228500   2.131   5.748   6.203
 9201SOL     OW28501   0.710   3.031   0.819
 9201SOL    HW128502   0.788   2.970   0.829
 9201SOL    HW228503   0.643   3.011   0.890
 9202SOL     OW28504   0.961   5.891   3.495
 9202SOL    HW128505   0.951   5.792   3.510
 9202SOL    HW228506   0.884   5.939   3.536
 9203SOL     OW28507   5.386   2.901   5.901
 9203SOL    HW128508   5.418   2.816   5.860
 9203SOL    HW228509   5.347   2.959   5.830
 9204SOL     OW28510   4.850   3.704   4.114
 9204SOL    HW128511   4.847   3.605   4.099
 9204SOL    HW228512   4.847   3.751   4.026
 9205SOL     OW28513   4.883   5.220   2.574
 9205SOL    HW128514   4.962   5.264   2.616
 9205SOL    HW228515   4.832   5.286   2.519
 9206SOL     OW28516   3.411   0.160   3.402
 9206SOL    HW128517   3.374   0.069   3.381
 9206SOL    HW228518   3.437   0.164   3.499
 9207SOL     OW28519   3.576   5.274   6.526
 9207SOL    HW128520   3.544   5.277   6.432
 9207SOL    HW228521   3.525   5.340   6.581
 9208SOL     OW28522   5.498   3.967   2.302
 9208SOL    HW128523   5.558   3.898   2.263
 9208SOL    HW228524   5.405   3.932   2.309
 9209SOL     OW28525   4.044   0.223   1.493
 9209SOL    HW128526   4.116   0.199   1.557
 9209SOL    HW228527   4.038   0.154   1.421
 9210SOL     OW28528   0.699   0.896   1.504
 9210SOL    HW128529   0.717   0.826   1.573
 9210SOL    HW228530   0.716   0.987   1.544
 9211SOL     OW28531   5.634   3.392   6.366
 9211SOL    HW128532   5.713   3.409   6.424
 9211SOL    HW228533   5.626   3.465   6.298
 9212SOL     OW28534   5.059   4.232   5.123
 9212SOL    HW128535   5.148   4.188   5.134
 9212SOL    HW228536   5.031   4.275   5.209
 9213SOL     OW28537   4.982   5.769   4.384
 9213SOL    HW128538   5.069   5.721   4.373
 9213SOL    HW228539   4.980   5.849   4.324
 9214SOL     OW28540   0.154   2.804   5.264
 9214SOL    HW128541   0.065   2.818   5.220
 9214SOL    HW228542   0.189   2.714   5.238
 9215SOL     OW28543   0.983   4.645   3.063
 9215SOL    HW128544   0.898   4.670   3.110
 9215SOL    HW228545   1.007   4.717   2.998
 9216SOL     OW28546   2.836   6.875   4.137
 9216SOL    HW128547   2.762   6.840   4.195
 9216SOL    HW228548   2.799   6.941   4.072
 9217SOL     OW28549   5.676   1.950   6.934
 9217SOL    HW128550   5.656   1.852   6.923
 9217SOL    HW228551   5.595   2.003   6.912
 9218SOL     OW28552   3.490   0.875   6.715
 9218SOL    HW128553   3.430   0.800   6.744
 9218SOL    HW228554   3.434   0.947   6.673
 9219SOL     OW28555   4.340   3.309   6.002
 9219SOL    HW128556   4.287   3.298   5.917
 9219SOL    HW228557   4.383   3.399   6.003
 9220SOL     OW28558   1.680   6.614   2.559
 9220SOL    HW128559   1.621   6.584   2.484
 9220SOL    HW228560   1.700   6.711   2.548
 9221SOL     OW28561   3.018   6.882   4.335
 9221SOL    HW128562   2.955   6.884   4.258
 9221SOL    HW228563   3.064   6.970   4.344
 9222SOL     OW28564   2.518   4.989   5.091
 9222SOL    HW128565   2.450   4.940   5.147
 9222SOL    HW228566   2.497   4.977   4.994
 9223SOL     OW28567   1.040   2.727   4.280
 9223SOL    HW128568   1.086   2.791   4.342
 9223SOL    HW228569   0.948   2.707   4.315
 9224SOL     OW28570   1.452   4.351   3.494
 9224SOL    HW128571   1.372   4.395   3.534
 9224SOL    HW228572   1.522   4.419   3.473
 9225SOL     OW28573   4.099   5.522   5.951
 9225SOL    HW128574   4.111   5.610   5.997
 9225SOL    HW228575   4.063   5.455   6.017
 9226SOL     OW28576   1.025   0.296   1.187
 9226SOL    HW128577   0.977   0.368   1.238
 9226SOL    HW228578   1.122   0.296   1.214
 9227SOL     OW28579   1.907   6.307   1.695
 9227SOL    HW128580   1.892   6.401   1.665
 9227SOL    HW228581   1.884   6.244   1.621
 9228SOL     OW28582   2.357   2.436   0.058
 9228SOL    HW128583   2.263   2.420   0.028
 9228SOL    HW228584   2.393   2.353   0.100
 9229SOL     OW28585   0.763   5.224   5.954
 9229SOL    HW128586   0.688   5.164   5.979
 9229SOL    HW228587   0.759   5.307   6.010
 9230SOL     OW28588   4.934   3.450   2.784
 9230SOL    HW128589   4.900   3.357   2.773
 9230SOL    HW228590   4.977   3.481   2.699
 9231SOL     OW28591   0.871   3.545   5.134
 9231SOL    HW128592   0.919   3.553   5.047
 9231SOL    HW228593   0.933   3.505   5.202
 9232SOL     OW28594   2.912   5.034   0.980
 9232SOL    HW128595   2.834   4.976   0.956
 9232SOL    HW228596   2.932   5.023   1.078
 9233SOL     OW28597   0.280   6.864   0.957
 9233SOL    HW128598   0.213   6.798   0.993
 9233SOL    HW228599   0.261   6.954   0.996
 9234SOL     OW28600   2.064   6.029   0.572
 9234SOL    HW128601   2.005   5.978   0.510
 9234SOL    HW228602   2.080   5.976   0.655
 9235SOL     OW28603   1.938   3.127   3.276
 9235SOL    HW128604   1.957   3.193   3.349
 9235SOL    HW228605   2.025   3.088   3.244
 9236SOL     OW28606   2.594   3.809   6.306
 9236SOL    HW128607   2.639   3.866   6.236
 9236SOL    HW228608   2.664   3.769   6.365
 9237SOL     OW28609   0.862   5.833   2.862
 9237SOL    HW128610   0.920   5.914   2.878
 9237SOL    HW228611   0.788   5.832   2.929
 9238SOL     OW28612   2.722   2.185   6.073
 9238SOL    HW128613   2.755   2.280   6.078
 9238SOL    HW228614   2.706   2.160   5.977
 9239SOL     OW28615   0.077   4.348   6.579
 9239SOL    HW128616   0.039   4.295   6.655
 9239SOL    HW228617   0.009   4.413   6.547
 9240SOL     OW28618   5.116   2.756   1.997
 9240SOL    HW128619   5.043   2.811   1.957
 9240SOL    HW228620   5.193   2.814   2.022
 9241SOL     OW28621   0.468   5.925   0.479
 9241SOL    HW128622   0.455   5.839   0.527
 9241SOL    HW228623   0.394   5.939   0.414
 9242SOL     OW28624   1.844   3.769   1.846
 9242SOL    HW128625   1.822   3.762   1.943
 9242SOL    HW228626   1.808   3.855   1.810
 9243SOL     OW28627   0.117   0.768   2.064
 9243SOL    HW128628   0.140   0.859   2.030
 9243SOL    HW228629   0.019   0.764   2.083
 9244SOL     OW28630   3.033   6.237   5.926
 9244SOL    HW128631   3.023   6.266   6.021
 9244SOL    HW228632   3.110   6.173   5.919
 9245SOL     OW28633   0.573   4.419   3.649
 9245SOL    HW128634   0.522   4.378   3.725
 9245SOL    HW228635   0.520   4.410   3.565
 9246SOL     OW28636   5.605   0.721   3.706
 9246SOL    HW128637   5.512   0.752   3.689
 9246SOL    HW228638   5.665   0.800   3.718
 9247SOL     OW28639   3.514   5.312   2.336
 9247SOL    HW128640   3.572   5.256   2.395
 9247SOL    HW228641   3.481   5.257   2.259
 9248SOL     OW28642   2.998   2.178   4.800
 9248SOL    HW128643   2.906   2.162   4.836
 9248SOL    HW228644   3.062   2.192   4.875
 9249SOL     OW28645   4.874   5.282   1.679
 9249SOL    HW128646   4.907   5.190   1.701
 9249SOL    HW228647   4.929   5.350   1.729
 9250SOL     OW28648   6.544   2.932   3.825
 9250SOL    HW128649   6.495   2.961   3.743
 9250SOL    HW228650   6.481   2.929   3.902
 9251SOL     OW28651   3.574   1.412   2.126
 9251SOL    HW128652   3.597   1.354   2.048
 9251SOL    HW228653   3.566   1.507   2.095
 9252SOL     OW28654   5.786   0.422   5.063
 9252SOL    HW128655   5.777   0.510   5.110
 9252SOL    HW228656   5.755   0.432   4.968
 9253SOL     OW28657   5.476   5.480   5.387
 9253SOL    HW128658   5.519   5.437   5.466
 9253SOL    HW228659   5.390   5.522   5.414
 9254SOL     OW28660   4.395   4.603   3.002
 9254SOL    HW128661   4.474   4.648   2.959
 9254SOL    HW228662   4.425   4.520   3.048
 9255SOL     OW28663   5.044   3.531   0.435
 9255SOL    HW128664   5.050   3.511   0.337
 9255SOL    HW228665   5.128   3.577   0.465
 9256SOL     OW28666   2.617   0.043   2.157
 9256SOL    HW128667   2.601   0.114   2.090
 9256SOL    HW228668   2.676   6.995   2.118
 9257SOL     OW28669   5.908   5.221   3.548
 9257SOL    HW128670   5.865   5.247   3.635
 9257SOL    HW228671   6.007   5.214   3.560
 9258SOL     OW28672   4.174   3.602   1.743
 9258SOL    HW128673   4.120   3.659   1.682
 9258SOL    HW228674   4.267   3.593   1.707
 9259SOL     OW28675   1.724   1.240   0.835
 9259SOL    HW128676   1.749   1.325   0.790
 9259SOL    HW228677   1.804   1.202   0.883
 9260SOL     OW28678   6.602   2.639   6.058
 9260SOL    HW128679   6.589   2.624   5.960
 9260SOL    HW228680   6.531   2.701   6.092
 9261SOL     OW28681   4.413   1.391   6.910
 9261SOL    HW128682   4.360   1.321   6.861
 9261SOL    HW228683   4.363   1.478   6.907
 9262SOL     OW28684   0.478   6.200   5.003
 9262SOL    HW128685   0.447   6.109   5.031
 9262SOL    HW228686   0.446   6.220   4.910
 9263SOL     OW28687   3.129   5.744   2.241
 9263SOL    HW128688   3.105   5.691   2.159
 9263SOL    HW228689   3.225   5.724   2.265
 9264SOL     OW28690   4.481   3.995   0.410
 9264SOL    HW128691   4.483   3.939   0.493
 9264SOL    HW228692   4.449   3.940   0.333
 9265SOL     OW28693   3.596   2.493   0.579
 9265SOL    HW128694   3.601   2.465   0.483
 9265SOL    HW228695   3.503   2.476   0.613
 9266SOL     OW28696   0.987   5.988   1.273
 9266SOL    HW128697   1.010   6.063   1.212
 9266SOL    HW228698   0.962   5.907   1.219
 9267SOL     OW28699   0.306   1.881   4.230
 9267SOL    HW128700   0.339   1.795   4.189
 9267SOL    HW228701   0.223   1.863   4.283
 9268SOL     OW28702   0.758   6.924   2.786
 9268SOL    HW128703   0.807   6.986   2.847
 9268SOL    HW228704   0.660   6.941   2.792
 9269SOL     OW28705   4.369   0.288   6.052
 9269SOL    HW128706   4.297   0.260   6.115
 9269SOL    HW228707   4.329   0.332   5.972
 9270SOL     OW28708   4.117   0.164   5.826
 9270SOL    HW128709   4.205   0.119   5.813
 9270SOL    HW228710   4.066   0.163   5.740
 9271SOL     OW28711   6.051   0.388   0.543
 9271SOL    HW128712   6.144   0.403   0.575
 9271SOL    HW228713   6.005   0.322   0.603
 9272SOL     OW28714   1.207   6.144   6.322
 9272SOL    HW128715   1.162   6.218   6.271
 9272SOL    HW228716   1.146   6.113   6.395
 9273SOL     OW28717   6.691   5.872   3.449
 9273SOL    HW128718   6.781   5.904   3.422
 9273SOL    HW228719   6.697   5.822   3.536
 9274SOL     OW28720   7.002   2.070   0.110
 9274SOL    HW128721   0.015   2.001   0.172
 9274SOL    HW228722   6.965   2.026   0.028
 9275SOL     OW28723   6.387   0.713   0.490
 9275SOL    HW128724   6.486   0.722   0.504
 9275SOL    HW228725   6.348   0.801   0.465
 9276SOL     OW28726   2.035   4.747   0.507
 9276SOL    HW128727   1.958   4.810   0.501
 9276SOL    HW228728   2.076   4.736   0.416
 9277SOL     OW28729   4.627   4.985   1.958
 9277SOL    HW128730   4.586   4.898   1.931
 9277SOL    HW228731   4.617   5.051   1.884
 9278SOL     OW28732   2.138   0.662   5.963
 9278SOL    HW128733   2.164   0.757   5.977
 9278SOL    HW228734   2.211   0.615   5.913
 9279SOL     OW28735   3.472   6.616   1.649
 9279SOL    HW128736   3.565   6.625   1.685
 9279SOL    HW228737   3.406   6.642   1.721
 9280SOL     OW28738   2.860   1.076   2.699
 9280SOL    HW128739   2.913   1.016   2.760
 9280SOL    HW228740   2.920   1.147   2.662
 9281SOL     OW28741   3.308   4.489   6.969
 9281SOL    HW128742   3.360   4.542   0.013
 9281SOL    HW228743   3.309   4.537   6.881
 9282SOL     OW28744   5.083   1.367   3.632
 9282SOL    HW128745   5.169   1.323   3.657
 9282SOL    HW228746   5.059   1.342   3.538
 9283SOL     OW28747   5.227   0.603   4.864
 9283SOL    HW128748   5.199   0.530   4.802
 9283SOL    HW228749   5.245   0.686   4.811
 9284SOL     OW28750   3.041   3.387   5.306
 9284SOL    HW128751   3.055   3.472   5.255
 9284SOL    HW228752   3.117   3.374   5.369
 9285SOL     OW28753   4.963   3.635   1.308
 9285SOL    HW128754   5.037   3.678   1.256
 9285SOL    HW228755   4.972   3.659   1.405
 9286SOL     OW28756   5.387   5.248   0.798
 9286SOL    HW128757   5.462   5.198   0.755
 9286SOL    HW228758   5.300   5.222   0.756
 9287SOL     OW28759   3.722   4.595   6.167
 9287SOL    HW128760   3.761   4.679   6.205
 9287SOL    HW228761   3.623   4.595   6.183
 9288SOL     OW28762   4.074   1.738   2.520
 9288SOL    HW128763   3.986   1.718   2.476
 9288SOL    HW228764   4.136   1.660   2.506
 9289SOL     OW28765   4.840   0.369   0.984
 9289SOL    HW128766   4.780   0.300   1.026
 9289SOL    HW228767   4.848   0.350   0.886
 9290SOL     OW28768   5.592   0.990   3.862
 9290SOL    HW128769   5.623   0.970   3.769
 9290SOL    HW228770   5.659   1.049   3.907
 9291SOL     OW28771   1.337   5.241   5.738
 9291SOL    HW128772   1.264   5.256   5.671
 9291SOL    HW228773   1.335   5.313   5.807
 9292SOL     OW28774   2.796   2.225   6.734
 9292SOL    HW128775   2.859   2.187   6.802
 9292SOL    HW228776   2.840   2.302   6.687
 9293SOL     OW28777   5.695   4.415   6.818
 9293SOL    HW128778   5.711   4.369   6.906
 9293SOL    HW228779   5.633   4.359   6.762
 9294SOL     OW28780   5.491   1.643   6.275
 9294SOL    HW128781   5.457   1.552   6.301
 9294SOL    HW228782   5.431   1.682   6.205
 9295SOL     OW28783   5.722   0.477   5.500
 9295SOL    HW128784   5.682   0.553   5.448
 9295SOL    HW228785   5.652   0.408   5.518
 9296SOL     OW28786   1.962   4.776   0.176
 9296SOL    HW128787   2.027   4.822   0.116
 9296SOL    HW228788   1.925   4.842   0.242
 9297SOL     OW28789   0.833   0.037   3.211
 9297SOL    HW128790   0.881   6.976   3.185
 9297SOL    HW228791   0.831   0.099   3.132
 9298SOL     OW28792   1.427   6.037   6.157
 9298SOL    HW128793   1.404   5.940   6.163
 9298SOL    HW228794   1.375   6.088   6.226
 9299SOL     OW28795   0.939   2.203   4.453
 9299SOL    HW128796   0.866   2.139   4.477
 9299SOL    HW228797   0.910   2.296   4.475
 9300SOL     OW28798   0.315   5.240   5.462
 9300SOL    HW128799   0.360   5.184   5.392
 9300SOL    HW228800   0.216   5.241   5.444
 9301SOL     OW28801   6.178   5.104   4.654
 9301SOL    HW128802   6.081   5.120   4.636
 9301SOL    HW228803   6.213   5.172   4.718
 9302SOL     OW28804   2.053   3.697   4.492
 9302SOL    HW128805   1.995   3.641   4.550
 9302SOL    HW228806   2.060   3.655   4.401
 9303SOL     OW28807   2.845   3.901   0.931
 9303SOL    HW128808   2.840   3.904   0.831
 9303SOL    HW228809   2.841   3.805   0.961
 9304SOL     OW28810   4.645   5.079   0.581
 9304SOL    HW128811   4.645   5.173   0.616
 9304SOL    HW228812   4.680   5.017   0.651
 9305SOL     OW28813   3.704   0.692   0.943
 9305SOL    HW128814   3.705   0.760   1.016
 9305SOL    HW228815   3.763   0.615   0.968
 9306SOL     OW28816   1.423   4.321   5.431
 9306SOL    HW128817   1.410   4.239   5.487
 9306SOL    HW228818   1.408   4.298   5.334
 9307SOL     OW28819   0.715   3.784   0.367
 9307SOL    HW128820   0.648   3.718   0.402
 9307SOL    HW228821   0.794   3.735   0.329
 9308SOL     OW28822   1.190   3.862   2.299
 9308SOL    HW128823   1.231   3.918   2.227
 9308SOL    HW228824   1.102   3.902   2.325
 9309SOL     OW28825   3.968   5.996   5.866
 9309SOL    HW128826   3.898   6.067   5.861
 9309SOL    HW228827   3.926   5.906   5.856
 9310SOL     OW28828   5.458   6.590   5.640
 9310SOL    HW128829   5.362   6.589   5.664
 9310SOL    HW228830   5.505   6.661   5.693
 9311SOL     OW28831   5.530   4.444   1.526
 9311SOL    HW128832   5.583   4.527   1.547
 9311SOL    HW228833   5.470   4.462   1.448
 9312SOL     OW28834   1.686   2.387   0.976
 9312SOL    HW128835   1.746   2.425   1.047
 9312SOL    HW228836   1.719   2.296   0.951
 9313SOL     OW28837   0.283   0.118   1.805
 9313SOL    HW128838   0.253   0.023   1.789
 9313SOL    HW228839   0.233   0.155   1.883
 9314SOL     OW28840   6.745   3.582   0.101
 9314SOL    HW128841   6.826   3.640   0.092
 9314SOL    HW228842   6.710   3.587   0.195
 9315SOL     OW28843   6.573   6.844   5.637
 9315SOL    HW128844   6.522   6.889   5.711
 9315SOL    HW228845   6.664   6.820   5.670
 9316SOL     OW28846   5.934   6.706   5.413
 9316SOL    HW128847   5.937   6.726   5.315
 9316SOL    HW228848   5.844   6.730   5.449
 9317SOL     OW28849   4.234   5.697   3.572
 9317SOL    HW128850   4.134   5.695   3.563
 9317SOL    HW228851   4.260   5.665   3.663
 9318SOL     OW28852   5.451   7.015   6.983
 9318SOL    HW128853   5.396   6.936   6.956
 9318SOL    HW228854   5.393   0.059   0.005
 9319SOL     OW28855   2.437   2.612   1.036
 9319SOL    HW128856   2.457   2.587   1.130
 9319SOL    HW228857   2.523   2.631   0.988
 9320SOL     OW28858   4.542   0.753   5.367
 9320SOL    HW128859   4.466   0.731   5.428
 9320SOL    HW228860   4.523   0.718   5.275
 9321SOL     OW28861   0.854   1.108   5.196
 9321SOL    HW128862   0.820   1.199   5.222
 9321SOL    HW228863   0.813   1.081   5.109
 9322SOL     OW28864   0.173   4.625   0.200
 9322SOL    HW128865   0.172   4.571   0.116
 9322SOL    HW228866   0.191   4.565   0.278
 9323SOL     OW28867   1.282   1.267   4.692
 9323SOL    HW128868   1.279   1.353   4.743
 9323SOL    HW228869   1.335   1.200   4.744
 9324SOL     OW28870   2.016   3.841   2.752
 9324SOL    HW128871   2.049   3.886   2.835
 9324SOL    HW228872   2.033   3.743   2.757
 9325SOL     OW28873   6.881   0.090   0.591
 9325SOL    HW128874   6.917   0.075   0.499
 9325SOL    HW228875   6.949   0.140   0.645
 9326SOL     OW28876   2.958   4.996   0.269
 9326SOL    HW128877   3.018   5.030   0.196
 9326SOL    HW228878   3.012   4.942   0.333
 9327SOL     OW28879   4.001   6.684   2.638
 9327SOL    HW128880   3.909   6.712   2.612
 9327SOL    HW228881   3.996   6.610   2.705
 9328SOL     OW28882   1.727   0.495   4.986
 9328SOL    HW128883   1.739   0.411   5.039
 9328SOL    HW228884   1.771   0.571   5.034
 9329SOL     OW28885   6.850   5.341   1.272
 9329SOL    HW128886   6.945   5.363   1.297
 9329SOL    HW228887   6.800   5.313   1.354
 9330SOL     OW28888   6.933   6.994   5.841
 9330SOL    HW128889   0.004   7.013   5.815
 9330SOL    HW228890   6.923   6.896   5.860
 9331SOL     OW28891   2.079   1.703   6.339
 9331SOL    HW128892   2.136   1.779   6.308
 9331SOL    HW228893   2.004   1.688   6.273
 9332SOL     OW28894   4.630   5.323   0.681
 9332SOL    HW128895   4.538   5.361   0.687
 9332SOL    HW228896   4.688   5.383   0.626
 9333SOL     OW28897   4.160   5.310   6.352
 9333SOL    HW128898   4.241   5.307   6.293
 9333SOL    HW228899   4.171   5.244   6.426
 9334SOL     OW28900   4.861   6.514   4.518
 9334SOL    HW128901   4.835   6.570   4.596
 9334SOL    HW228902   4.961   6.511   4.511
 9335SOL     OW28903   1.619   1.762   6.901
 9335SOL    HW128904   1.707   1.808   6.887
 9335SOL    HW228905   1.549   1.831   6.921
 9336SOL     OW28906   5.038   6.653   4.195
 9336SOL    HW128907   5.042   6.611   4.285
 9336SOL    HW228908   4.980   6.733   4.198
 9337SOL     OW28909   5.074   1.418   5.723
 9337SOL    HW128910   5.128   1.347   5.767
 9337SOL    HW228911   4.977   1.395   5.730
 9338SOL     OW28912   6.420   6.305   0.881
 9338SOL    HW128913   6.421   6.231   0.948
 9338SOL    HW228914   6.499   6.365   0.897
 9339SOL     OW28915   5.915   5.878   0.180
 9339SOL    HW128916   5.929   5.977   0.182
 9339SOL    HW228917   5.915   5.842   0.273
 9340SOL     OW28918   3.718   4.898   2.692
 9340SOL    HW128919   3.636   4.905   2.636
 9340SOL    HW228920   3.798   4.882   2.634
 9341SOL     OW28921   6.117   4.840   0.901
 9341SOL    HW128922   6.204   4.798   0.924
 9341SOL    HW228923   6.086   4.808   0.812
 9342SOL     OW28924   2.539   0.660   4.598
 9342SOL    HW128925   2.521   0.716   4.517
 9342SOL    HW228926   2.633   0.626   4.594
 9343SOL     OW28927   5.002   3.971   1.989
 9343SOL    HW128928   4.919   4.012   2.026
 9343SOL    HW228929   5.080   4.000   2.044
 9344SOL     OW28930   5.325   5.656   0.823
 9344SOL    HW128931   5.312   5.630   0.727
 9344SOL    HW228932   5.272   5.595   0.882
 9345SOL     OW28933   6.891   4.549   2.290
 9345SOL    HW128934   6.878   4.552   2.191
 9345SOL    HW228935   6.837   4.620   2.334
 9346SOL     OW28936   4.884   0.193   2.180
 9346SOL    HW128937   4.788   0.167   2.194
 9346SOL    HW228938   4.904   0.277   2.231
 9347SOL     OW28939   3.134   6.067   0.364
 9347SOL    HW128940   3.229   6.060   0.394
 9347SOL    HW228941   3.074   6.029   0.434
 9348SOL     OW28942   2.501   5.470   2.600
 9348SOL    HW128943   2.508   5.568   2.584
 9348SOL    HW228944   2.590   5.427   2.584
 9349SOL     OW28945   6.776   5.447   2.675
 9349SOL    HW128946   6.780   5.544   2.700
 9349SOL    HW228947   6.780   5.439   2.575
 9350SOL     OW28948   6.677   2.084   4.057
 9350SOL    HW128949   6.627   2.030   3.990
 9350SOL    HW228950   6.750   2.029   4.097
 9351SOL     OW28951   3.114   0.292   6.289
 9351SOL    HW128952   3.094   0.195   6.302
 9351SOL    HW228953   3.204   0.313   6.328
 9352SOL     OW28954   3.126   2.416   5.925
 9352SOL    HW128955   3.164   2.452   5.840
 9352SOL    HW228956   3.105   2.319   5.913
 9353SOL     OW28957   1.928   4.214   0.849
 9353SOL    HW128958   1.977   4.147   0.792
 9353SOL    HW228959   1.855   4.256   0.795
 9354SOL     OW28960   6.439   2.005   0.084
 9354SOL    HW128961   6.418   1.909   0.101
 9354SOL    HW228962   6.353   2.056   0.071
 9355SOL     OW28963   6.564   1.717   4.885
 9355SOL    HW128964   6.617   1.694   4.967
 9355SOL    HW228965   6.571   1.643   4.818
 9356SOL     OW28966   4.847   5.831   1.574
 9356SOL    HW128967   4.924   5.836   1.511
 9356SOL    HW228968   4.772   5.779   1.532
 9357SOL     OW28969   3.182   3.237   6.408
 9357SOL    HW128970   3.084   3.246   6.426
 9357SOL    HW228971   3.233   3.292   6.474
 9358SOL     OW28972   6.548   3.438   2.619
 9358SOL    HW128973   6.505   3.488   2.544
 9358SOL    HW228974   6.629   3.390   2.585
 9359SOL     OW28975   1.066   3.728   5.696
 9359SOL    HW128976   1.104   3.790   5.627
 9359SOL    HW228977   1.111   3.639   5.689
 9360SOL     OW28978   1.357   6.858   5.920
 9360SOL    HW128979   1.403   6.919   5.855
 9360SOL    HW228980   1.284   6.909   5.967
 9361SOL     OW28981   1.828   6.376   3.399
 9361SOL    HW128982   1.905   6.323   3.434
 9361SOL    HW228983   1.818   6.360   3.301
 9362SOL     OW28984   1.538   2.736   2.115
 9362SOL    HW128985   1.604   2.695   2.177
 9362SOL    HW228986   1.447   2.700   2.135
 9363SOL     OW28987   4.114   5.883   1.640
 9363SOL    HW128988   4.129   5.886   1.739
 9363SOL    HW228989   4.081   5.792   1.614
 9364SOL     OW28990   3.762   2.764   5.864
 9364SOL    HW128991   3.839   2.771   5.928
 9364SOL    HW228992   3.681   2.731   5.913
 9365SOL     OW28993   2.281   2.318   5.041
 9365SOL    HW128994   2.311   2.230   5.007
 9365SOL    HW228995   2.336   2.344   5.120
 9366SOL     OW28996   3.630   0.222   6.923
 9366SOL    HW128997   3.579   0.308   6.924
 9366SOL    HW228998   3.568   0.146   6.939
 9367SOL     OW28999   6.482   6.236   2.532
 9367SOL    HW129000   6.530   6.187   2.460
 9367SOL    HW229001   6.497   6.334   2.522
 9368SOL     OW29002   2.597   1.690   3.842
 9368SOL    HW129003   2.585   1.613   3.780
 9368SOL    HW229004   2.678   1.743   3.815
 9369SOL     OW29005   0.350   0.296   5.069
 9369SOL    HW129006   0.366   0.198   5.070
 9369SOL    HW229007   0.275   0.319   5.130
 9370SOL     OW29008   4.935   0.005   2.475
 9370SOL    HW129009   4.862   0.073   2.478
 9370SOL    HW229010   4.996   0.024   2.398
 9371SOL     OW29011   2.484   4.888   0.439
 9371SOL    HW129012   2.497   4.985   0.417
 9371SOL    HW229013   2.571   4.839   0.429
 9372SOL     OW29014   4.878   6.149   2.920
 9372SOL    HW129015   4.838   6.240   2.928
 9372SOL    HW229016   4.831   6.086   2.981
 9373SOL     OW29017   4.422   2.017   2.119
 9373SOL    HW129018   4.379   2.048   2.034
 9373SOL    HW229019   4.401   1.920   2.134
 9374SOL     OW29020   0.928   2.882   0.867
 9374SOL    HW129021   0.954   2.967   0.911
 9374SOL    HW229022   1.004   2.817   0.869
 9375SOL     OW29023   5.959   1.784   3.089
 9375SOL    HW129024   5.957   1.685   3.078
 9375SOL    HW229025   6.050   1.813   3.119
 9376SOL     OW29026   2.652   4.118   0.961
 9376SOL    HW129027   2.722   4.048   0.948
 9376SOL    HW229028   2.692   4.208   0.948
 9377SOL     OW29029   2.225   5.643   4.113
 9377SOL    HW129030   2.255   5.551   4.087
 9377SOL    HW229031   2.159   5.677   4.046
 9378SOL     OW29032   1.274   1.566   5.118
 9378SOL    HW129033   1.256   1.552   5.215
 9378SOL    HW229034   1.202   1.523   5.064
 9379SOL     OW29035   4.328   6.111   4.856
 9379SOL    HW129036   4.302   6.019   4.825
 9379SOL    HW229037   4.377   6.104   4.943
 9380SOL     OW29038   5.876   4.952   5.251
 9380SOL    HW129039   5.950   4.885   5.244
 9380SOL    HW229040   5.795   4.917   5.203
 9381SOL     OW29041   3.552   2.469   5.792
 9381SOL    HW129042   3.529   2.434   5.701
 9381SOL    HW229043   3.575   2.393   5.852
 9382SOL     OW29044   3.366   0.780   2.925
 9382SOL    HW129045   3.340   0.876   2.917
 9382SOL    HW229046   3.346   0.748   3.018
 9383SOL     OW29047   1.680   5.877   4.494
 9383SOL    HW129048   1.651   5.874   4.398
 9383SOL    HW229049   1.774   5.912   4.499
 9384SOL     OW29050   2.802   6.743   1.728
 9384SOL    HW129051   2.809   6.767   1.632
 9384SOL    HW229052   2.718   6.781   1.767
 9385SOL     OW29053   3.686   0.444   2.914
 9385SOL    HW129054   3.652   0.360   2.872
 9385SOL    HW229055   3.658   0.523   2.859
 9386SOL     OW29056   1.940   6.319   4.964
 9386SOL    HW129057   1.896   6.338   4.875
 9386SOL    HW229058   1.943   6.220   4.978
 9387SOL     OW29059   2.287   1.601   0.149
 9387SOL    HW129060   2.352   1.537   0.190
 9387SOL    HW229061   2.197   1.590   0.190
 9388SOL     OW29062   2.280   5.196   2.828
 9388SOL    HW129063   2.305   5.197   2.924
 9388SOL    HW229064   2.302   5.284   2.786
 9389SOL     OW29065   1.647   6.751   4.474
 9389SOL    HW129066   1.739   6.757   4.436
 9389SOL    HW229067   1.606   6.842   4.479
 9390SOL     OW29068   4.717   4.978   4.533
 9390SOL    HW129069   4.662   4.994   4.451
 9390SOL    HW229070   4.673   4.907   4.589
 9391SOL     OW29071   2.141   1.118   5.005
 9391SOL    HW129072   2.222   1.166   4.971
 9391SOL    HW229073   2.069   1.184   5.027
 9392SOL     OW29074   6.967   0.371   5.615
 9392SOL    HW129075   0.042   0.357   5.602
 9392SOL    HW229076   6.949   0.394   5.710
 9393SOL     OW29077   3.441   0.165   6.018
 9393SOL    HW129078   3.411   0.183   5.924
 9393SOL    HW229079   3.517   0.100   6.017
 9394SOL     OW29080   0.723   1.450   2.262
 9394SOL    HW129081   0.745   1.543   2.235
 9394SOL    HW229082   0.657   1.411   2.198
 9395SOL     OW29083   2.321   1.924   1.166
 9395SOL    HW129084   2.275   1.866   1.233
 9395SOL    HW229085   2.418   1.903   1.164
 9396SOL     OW29086   2.439   5.426   4.240
 9396SOL    HW129087   2.424   5.367   4.161
 9396SOL    HW229088   2.467   5.371   4.318
 9397SOL     OW29089   4.395   0.212   0.024
 9397SOL    HW129090   4.359   0.187   6.957
 9397SOL    HW229091   4.329   0.186   0.095
 9398SOL     OW29092   6.807   0.710   4.812
 9398SOL    HW129093   6.890   0.766   4.813
 9398SOL    HW229094   6.761   0.720   4.724
 9399SOL     OW29095   6.927   1.740   5.746
 9399SOL    HW129096   6.975   1.738   5.833
 9399SOL    HW229097   6.830   1.759   5.762
 9400SOL     OW29098   4.078   1.036   2.165
 9400SOL    HW129099   3.989   0.992   2.157
 9400SOL    HW229100   4.137   0.981   2.225
 9401SOL     OW29101   5.699   0.158   3.536
 9401SOL    HW129102   5.764   0.188   3.605
 9401SOL    HW229103   5.730   0.188   3.446
 9402SOL     OW29104   1.326   5.094   3.630
 9402SOL    HW129105   1.418   5.055   3.632
 9402SOL    HW229106   1.304   5.133   3.720
 9403SOL     OW29107   6.314   1.908   2.827
 9403SOL    HW129108   6.355   1.998   2.815
 9403SOL    HW229109   6.221   1.919   2.862
 9404SOL     OW29110   1.548   3.178   6.816
 9404SOL    HW129111   1.547   3.267   6.862
 9404SOL    HW229112   1.642   3.155   6.792
 9405SOL     OW29113   1.711   5.239   2.604
 9405SOL    HW129114   1.792   5.200   2.559
 9405SOL    HW229115   1.652   5.165   2.636
 9406SOL     OW29116   6.510   3.060   5.565
 9406SOL    HW129117   6.583   3.115   5.525
 9406SOL    HW229118   6.433   3.056   5.501
 9407SOL     OW29119   2.869   5.392   2.894
 9407SOL    HW129120   2.814   5.321   2.937
 9407SOL    HW229121   2.932   5.349   2.828
 9408SOL     OW29122   5.128   2.184   6.397
 9408SOL    HW129123   5.209   2.240   6.413
 9408SOL    HW229124   5.058   2.238   6.351
 9409SOL     OW29125   6.222   5.492   6.931
 9409SOL    HW129126   6.143   5.480   6.872
 9409SOL    HW229127   6.192   5.501   0.003
 9410SOL     OW29128   3.227   0.008   1.636
 9410SOL    HW129129   3.297   6.989   1.579
 9410SOL    HW229130   3.187   6.963   1.697
 9411SOL     OW29131   3.083   3.169   2.086
 9411SOL    HW129132   3.039   3.173   2.176
 9411SOL    HW229133   3.121   3.078   2.072
 9412SOL     OW29134   6.575   2.605   2.218
 9412SOL    HW129135   6.583   2.680   2.284
 9412SOL    HW229136   6.661   2.554   2.214
 9413SOL     OW29137   3.004   6.160   3.901
 9413SOL    HW129138   2.974   6.104   3.979
 9413SOL    HW229139   3.027   6.101   3.824
 9414SOL     OW29140   3.198   0.666   3.335
 9414SOL    HW129141   3.194   0.607   3.416
 9414SOL    HW229142   3.266   0.629   3.271
 9415SOL     OW29143   3.207   6.360   1.772
 9415SOL    HW129144   3.161   6.299   1.707
 9415SOL    HW229145   3.153   6.366   1.856
 9416SOL     OW29146   0.628   2.727   1.148
 9416SOL    HW129147   0.721   2.764   1.145
 9416SOL    HW229148   0.630   2.633   1.180
 9417SOL     OW29149   4.175   0.207   6.209
 9417SOL    HW129150   4.182   0.121   6.260
 9417SOL    HW229151   4.118   0.271   6.260
 9418SOL     OW29152   3.843   6.619   1.075
 9418SOL    HW129153   3.881   6.560   1.147
 9418SOL    HW229154   3.745   6.601   1.065
 9419SOL     OW29155   3.742   5.163   5.836
 9419SOL    HW129156   3.769   5.244   5.888
 9419SOL    HW229157   3.676   5.190   5.765
 9420SOL     OW29158   6.266   3.622   5.560
 9420SOL    HW129159   6.262   3.709   5.510
 9420SOL    HW229160   6.357   3.581   5.549
 9421SOL     OW29161   2.084   6.960   4.246
 9421SOL    HW129162   2.043   0.029   4.243
 9421SOL    HW229163   2.097   6.933   4.341
 9422SOL     OW29164   3.941   5.977   3.295
 9422SOL    HW129165   4.024   5.920   3.293
 9422SOL    HW229166   3.952   6.053   3.230
 9423SOL     OW29167   3.703   0.545   3.930
 9423SOL    HW129168   3.725   0.639   3.905
 9423SOL    HW229169   3.706   0.534   4.029
 9424SOL     OW29170   5.680   1.098   4.547
 9424SOL    HW129171   5.657   1.189   4.582
 9424SOL    HW229172   5.597   1.042   4.544
 9425SOL     OW29173   6.435   3.259   6.639
 9425SOL    HW129174   6.344   3.233   6.671
 9425SOL    HW229175   6.501   3.188   6.664
 9426SOL     OW29176   3.450   1.976   6.405
 9426SOL    HW129177   3.474   2.028   6.487
 9426SOL    HW229178   3.430   2.039   6.330
 9427SOL     OW29179   2.853   4.959   3.530
 9427SOL    HW129180   2.949   4.939   3.511
 9427SOL    HW229181   2.805   4.875   3.555
 9428SOL     OW29182   6.166   0.610   1.550
 9428SOL    HW129183   6.080   0.606   1.602
 9428SOL    HW229184   6.201   0.703   1.551
 9429SOL     OW29185   2.014   3.617   2.400
 9429SOL    HW129186   1.928   3.573   2.375
 9429SOL    HW229187   2.070   3.630   2.318
 9430SOL     OW29188   0.471   4.120   2.676
 9430SOL    HW129189   0.378   4.085   2.662
 9430SOL    HW229190   0.466   4.210   2.721
 9431SOL     OW29191   6.449   4.202   1.235
 9431SOL    HW129192   6.477   4.137   1.165
 9431SOL    HW229193   6.407   4.282   1.192
 9432SOL     OW29194   4.423   0.498   2.806
 9432SOL    HW129195   4.385   0.420   2.856
 9432SOL    HW229196   4.488   0.547   2.864
 9433SOL     OW29197   2.960   5.229   2.677
 9433SOL    HW129198   3.052   5.267   2.668
 9433SOL    HW229199   2.936   5.180   2.593
 9434SOL     OW29200   5.239   5.050   2.795
 9434SOL    HW129201   5.321   4.994   2.792
 9434SOL    HW229202   5.214   5.078   2.702
 9435SOL     OW29203   0.608   2.567   4.695
 9435SOL    HW129204   0.646   2.655   4.666
 9435SOL    HW229205   0.558   2.526   4.619
 9436SOL     OW29206   1.347   2.573   1.761
 9436SOL    HW129207   1.310   2.534   1.677
 9436SOL    HW229208   1.277   2.572   1.833
 9437SOL     OW29209   2.050   5.726   3.083
 9437SOL    HW129210   2.042   5.781   3.166
 9437SOL    HW229211   2.002   5.771   3.008
 9438SOL     OW29212   0.202   0.513   1.853
 9438SOL    HW129213   0.199   0.612   1.867
 9438SOL    HW229214   0.275   0.490   1.789
 9439SOL     OW29215   0.376   3.505   1.350
 9439SOL    HW129216   0.447   3.444   1.385
 9439SOL    HW229217   0.355   3.481   1.255
 9440SOL     OW29218   4.124   4.720   3.625
 9440SOL    HW129219   4.127   4.797   3.688
 9440SOL    HW229220   4.079   4.747   3.540
 9441SOL     OW29221   0.357   3.526   5.178
 9441SOL    HW129222   0.351   3.626   5.174
 9441SOL    HW229223   0.435   3.499   5.234
 9442SOL     OW29224   4.167   2.982   0.323
 9442SOL    HW129225   4.181   3.000   0.226
 9442SOL    HW229226   4.255   2.973   0.369
 9443SOL     OW29227   1.979   5.474   0.499
 9443SOL    HW129228   2.014   5.413   0.571
 9443SOL    HW229229   1.904   5.529   0.536
 9444SOL     OW29230   1.324   3.200   0.088
 9444SOL    HW129231   1.416   3.239   0.096
 9444SOL    HW229232   1.316   3.155   7.022
 9445SOL     OW29233   5.417   3.426   3.434
 9445SOL    HW129234   5.432   3.501   3.369
 9445SOL    HW229235   5.499   3.415   3.490
 9446SOL     OW29236   6.617   5.649   4.185
 9446SOL    HW129237   6.654   5.557   4.192
 9446SOL    HW229238   6.686   5.716   4.212
 9447SOL     OW29239   6.045   3.784   4.795
 9447SOL    HW129240   6.121   3.823   4.846
 9447SOL    HW229241   6.015   3.850   4.725
 9448SOL     OW29242   6.903   0.287   6.821
 9448SOL    HW129243   6.917   0.384   6.799
 9448SOL    HW229244   6.805   0.267   6.821
 9449SOL     OW29245   6.905   6.299   0.276
 9449SOL    HW129246   6.853   6.220   0.308
 9449SOL    HW229247   6.913   6.294   0.176
 9450SOL     OW29248   2.385   5.287   5.193
 9450SOL    HW129249   2.397   5.214   5.126
 9450SOL    HW229250   2.439   5.266   5.275
 9451SOL     OW29251   4.298   6.874   5.753
 9451SOL    HW129252   4.283   6.926   5.669
 9451SOL    HW229253   4.262   6.782   5.743
 9452SOL     OW29254   2.079   4.282   7.010
 9452SOL    HW129255   2.153   4.254   6.949
 9452SOL    HW229256   2.116   4.340   0.060
 9453SOL     OW29257   1.917   4.953   3.408
 9453SOL    HW129258   1.918   4.940   3.508
 9453SOL    HW229259   1.983   4.891   3.366
 9454SOL     OW29260   3.445   3.096   6.808
 9454SOL    HW129261   3.498   3.164   6.858
 9454SOL    HW229262   3.389   3.043   6.871
 9455SOL     OW29263   3.394   1.539   3.429
 9455SOL    HW129264   3.304   1.573   3.456
 9455SOL    HW229265   3.432   1.599   3.359
 9456SOL     OW29266   0.905   2.803   1.136
 9456SOL    HW129267   0.923   2.890   1.182
 9456SOL    HW229268   0.909   2.816   1.037
 9457SOL     OW29269   2.237   3.855   5.326
 9457SOL    HW129270   2.279   3.770   5.358
 9457SOL    HW229271   2.299   3.901   5.262
 9458SOL     OW29272   1.285   3.128   6.861
 9458SOL    HW129273   1.211   3.172   6.809
 9458SOL    HW229274   1.368   3.125   6.805
 9459SOL     OW29275   5.277   4.545   3.389
 9459SOL    HW129276   5.240   4.531   3.297
 9459SOL    HW229277   5.371   4.579   3.382
 9460SOL     OW29278   0.339   2.711   3.874
 9460SOL    HW129279   0.319   2.806   3.896
 9460SOL    HW229280   0.368   2.663   3.957
 9461SOL     OW29281   6.307   1.560   2.407
 9461SOL    HW129282   6.343   1.621   2.477
 9461SOL    HW229283   6.335   1.593   2.316
 9462SOL     OW29284   2.177   3.901   3.430
 9462SOL    HW129285   2.101   3.841   3.405
 9462SOL    HW229286   2.259   3.847   3.444
 9463SOL     OW29287   6.560   0.819   1.851
 9463SOL    HW129288   6.560   0.840   1.753
 9463SOL    HW229289   6.563   0.905   1.903
 9464SOL     OW29290   6.531   0.342   1.216
 9464SOL    HW129291   6.493   0.419   1.267
 9464SOL    HW229292   6.461   0.304   1.155
 9465SOL     OW29293   1.569   4.970   2.707
 9465SOL    HW129294   1.541   4.992   2.800
 9465SOL    HW229295   1.621   4.884   2.707
 9466SOL     OW29296   4.537   4.762   6.157
 9466SOL    HW129297   4.618   4.769   6.099
 9466SOL    HW229298   4.482   4.684   6.127
 9467SOL     OW29299   1.311   3.028   1.909
 9467SOL    HW129300   1.265   3.032   1.998
 9467SOL    HW229301   1.408   3.007   1.922
 9468SOL     OW29302   5.860   3.493   6.168
 9468SOL    HW129303   5.803   3.412   6.150
 9468SOL    HW229304   5.862   3.550   6.086
 9469SOL     OW29305   6.470   5.731   1.995
 9469SOL    HW129306   6.500   5.677   2.074
 9469SOL    HW229307   6.374   5.708   1.974
 9470SOL     OW29308   4.386   3.343   5.660
 9470SOL    HW129309   4.392   3.442   5.648
 9470SOL    HW229310   4.293   3.318   5.689
 9471SOL     OW29311   0.091   2.159   4.767
 9471SOL    HW129312   0.182   2.175   4.729
 9471SOL    HW229313   0.038   2.244   4.766
 9472SOL     OW29314   5.844   3.658   4.912
 9472SOL    HW129315   5.908   3.732   4.889
 9472SOL    HW229316   5.762   3.697   4.953
 9473SOL     OW29317   3.443   5.350   6.288
 9473SOL    HW129318   3.457   5.419   6.217
 9473SOL    HW229319   3.395   5.271   6.250
 9474SOL     OW29320   0.466   2.456   6.873
 9474SOL    HW129321   0.486   2.485   6.967
 9474SOL    HW229322   0.482   2.358   6.864
 9475SOL     OW29323   3.392   3.151   6.226
 9475SOL    HW129324   3.328   3.198   6.287
 9475SOL    HW229325   3.396   3.054   6.249
 9476SOL     OW29326   3.580   4.159   4.439
 9476SOL    HW129327   3.494   4.121   4.403
 9476SOL    HW229328   3.559   4.224   4.512
 9477SOL     OW29329   0.199   3.341   1.534
 9477SOL    HW129330   0.281   3.379   1.491
 9477SOL    HW229331   0.217   3.247   1.562
 9478SOL     OW29332   4.959   3.114   0.239
 9478SOL    HW129333   5.000   3.052   0.172
 9478SOL    HW229334   4.918   3.060   0.313
 9479SOL     OW29335   4.230   6.362   6.833
 9479SOL    HW129336   4.216   6.281   6.776
 9479SOL    HW229337   4.159   6.364   6.905
 9480SOL     OW29338   4.945   3.913   0.938
 9480SOL    HW129339   4.872   3.892   0.874
 9480SOL    HW229340   5.002   3.831   0.952
 9481SOL     OW29341   4.917   3.434   1.976
 9481SOL    HW129342   4.949   3.521   2.015
 9481SOL    HW229343   4.913   3.365   2.048
 9482SOL     OW29344   0.079   0.832   2.914
 9482SOL    HW129345   7.018   0.841   2.968
 9482SOL    HW229346   0.092   0.736   2.890
 9483SOL     OW29347   1.396   1.832   1.781
 9483SOL    HW129348   1.345   1.773   1.718
 9483SOL    HW229349   1.444   1.775   1.848
 9484SOL     OW29350   3.681   1.193   3.355
 9484SOL    HW129351   3.661   1.291   3.358
 9484SOL    HW229352   3.727   1.171   3.269
 9485SOL     OW29353   0.175   0.364   1.088
 9485SOL    HW129354   0.167   0.363   1.188
 9485SOL    HW229355   0.105   0.425   1.050
 9486SOL     OW29356   3.006   6.129   0.838
 9486SOL    HW129357   3.096   6.109   0.877
 9486SOL    HW229358   2.935   6.115   0.908
 9487SOL     OW29359   3.779   3.598   3.403
 9487SOL    HW129360   3.858   3.643   3.361
 9487SOL    HW229361   3.808   3.546   3.482
 9488SOL     OW29362   1.901   6.419   0.886
 9488SOL    HW129363   1.958   6.490   0.927
 9488SOL    HW229364   1.891   6.342   0.949
 9489SOL     OW29365   4.436   4.480   1.694
 9489SOL    HW129366   4.527   4.485   1.653
 9489SOL    HW229367   4.443   4.436   1.784
 9490SOL     OW29368   0.138   5.391   1.228
 9490SOL    HW129369   0.224   5.346   1.250
 9490SOL    HW229370   0.139   5.420   1.132
 9491SOL     OW29371   6.364   4.714   3.916
 9491SOL    HW129372   6.335   4.734   3.822
 9491SOL    HW229373   6.453   4.756   3.933
 9492SOL     OW29374   3.561   2.880   3.260
 9492SOL    HW129375   3.536   2.831   3.176
 9492SOL    HW229376   3.478   2.910   3.306
 9493SOL     OW29377   3.261   5.174   3.675
 9493SOL    HW129378   3.331   5.244   3.665
 9493SOL    HW229379   3.231   5.170   3.770
 9494SOL     OW29380   5.005   4.455   1.600
 9494SOL    HW129381   5.073   4.474   1.671
 9494SOL    HW229382   5.034   4.377   1.546
 9495SOL     OW29383   6.189   1.747   3.226
 9495SOL    HW129384   6.205   1.655   3.263
 9495SOL    HW229385   6.273   1.801   3.233
 9496SOL     OW29386   6.493   4.434   1.518
 9496SOL    HW129387   6.464   4.468   1.607
 9496SOL    HW229388   6.413   4.428   1.457
 9497SOL     OW29389   5.474   6.041   6.548
 9497SOL    HW129390   5.505   6.125   6.505
 9497SOL    HW229391   5.400   6.062   6.612
 9498SOL     OW29392   4.849   6.821   4.571
 9498SOL    HW129393   4.883   6.904   4.614
 9498SOL    HW229394   4.872   6.822   4.473
 9499SOL     OW29395   1.687   5.594   6.411
 9499SOL    HW129396   1.733   5.579   6.323
 9499SOL    HW229397   1.754   5.594   6.485
 9500SOL     OW29398   5.722   0.699   0.872
 9500SOL    HW129399   5.691   0.712   0.967
 9500SOL    HW229400   5.656   0.644   0.822
 9501SOL     OW29401   3.206   1.333   4.468
 9501SOL    HW129402   3.117   1.374   4.485
 9501SOL    HW229403   3.217   1.251   4.523
 9502SOL     OW29404   5.493   2.809   5.087
 9502SOL    HW129405   5.577   2.771   5.125
 9502SOL    HW229406   5.416   2.786   5.148
 9503SOL     OW29407   0.023   1.561   1.698
 9503SOL    HW129408   0.103   1.550   1.758
 9503SOL    HW229409   0.022   1.655   1.662
 9504SOL     OW29410   6.942   2.481   1.203
 9504SOL    HW129411   6.961   2.437   1.115
 9504SOL    HW229412   6.915   2.577   1.187
 9505SOL     OW29413   5.285   4.888   3.253
 9505SOL    HW129414   5.318   4.816   3.314
 9505SOL    HW229415   5.362   4.941   3.218
 9506SOL     OW29416   0.525   2.386   5.874
 9506SOL    HW129417   0.474   2.357   5.793
 9506SOL    HW229418   0.586   2.312   5.903
 9507SOL     OW29419   1.125   2.473   3.595
 9507SOL    HW129420   1.042   2.482   3.650
 9507SOL    HW229421   1.100   2.459   3.499
 9508SOL     OW29422   6.450   3.012   0.668
 9508SOL    HW129423   6.522   2.988   0.733
 9508SOL    HW229424   6.372   2.951   0.680
 9509SOL     OW29425   0.503   0.761   3.935
 9509SOL    HW129426   0.557   0.760   3.851
 9509SOL    HW229427   0.515   0.674   3.984
 9510SOL     OW29428   1.652   3.541   2.574
 9510SOL    HW129429   1.612   3.633   2.568
 9510SOL    HW229430   1.609   3.482   2.506
 9511SOL     OW29431   1.468   0.449   0.960
 9511SOL    HW129432   1.510   0.370   1.005
 9511SOL    HW229433   1.368   0.440   0.964
 9512SOL     OW29434   5.316   1.549   1.498
 9512SOL    HW129435   5.290   1.484   1.427
 9512SOL    HW229436   5.404   1.590   1.475
 9513SOL     OW29437   1.757   3.816   6.193
 9513SOL    HW129438   1.659   3.832   6.208
 9513SOL    HW229439   1.769   3.758   6.113
 9514SOL     OW29440   1.915   5.050   6.372
 9514SOL    HW129441   1.827   5.009   6.345
 9514SOL    HW229442   1.936   5.025   6.466
 9515SOL     OW29443   1.761   5.851   1.548
 9515SOL    HW129444   1.769   5.772   1.487
 9515SOL    HW229445   1.695   5.916   1.511
 9516SOL     OW29446   4.975   4.415   5.349
 9516SOL    HW129447   4.963   4.498   5.295
 9516SOL    HW229448   4.994   4.438   5.444
 9517SOL     OW29449   1.108   4.773   0.785
 9517SOL    HW129450   1.090   4.855   0.840
 9517SOL    HW229451   1.167   4.798   0.708
 9518SOL     OW29452   1.833   1.944   6.869
 9518SOL    HW129453   1.923   1.918   6.834
 9518SOL    HW229454   1.844   1.999   6.952
 9519SOL     OW29455   4.012   3.165   4.397
 9519SOL    HW129456   3.995   3.263   4.396
 9519SOL    HW229457   4.091   3.145   4.455
 9520SOL     OW29458   1.030   1.933   3.276
 9520SOL    HW129459   1.108   1.909   3.332
 9520SOL    HW229460   0.948   1.942   3.333
 9521SOL     OW29461   5.158   5.404   1.577
 9521SOL    HW129462   5.162   5.405   1.477
 9521SOL    HW229463   5.223   5.337   1.612
 9522SOL     OW29464   3.952   4.849   1.137
 9522SOL    HW129465   3.853   4.845   1.124
 9522SOL    HW229466   3.973   4.916   1.209
 9523SOL     OW29467   2.793   4.831   5.328
 9523SOL    HW129468   2.860   4.816   5.255
 9523SOL    HW229469   2.770   4.743   5.370
 9524SOL     OW29470   3.713   3.188   0.663
 9524SOL    HW129471   3.700   3.089   0.664
 9524SOL    HW229472   3.645   3.230   0.603
 9525SOL     OW29473   2.299   2.579   5.767
 9525SOL    HW129474   2.299   2.482   5.743
 9525SOL    HW229475   2.327   2.633   5.688
 9526SOL     OW29476   6.397   4.891   1.277
 9526SOL    HW129477   6.471   4.953   1.303
 9526SOL    HW229478   6.435   4.811   1.231
 9527SOL     OW29479   0.408   0.936   4.812
 9527SOL    HW129480   0.369   0.991   4.739
 9527SOL    HW229481   0.335   0.906   4.874
 9528SOL     OW29482   6.488   1.345   0.701
 9528SOL    HW129483   6.445   1.393   0.624
 9528SOL    HW229484   6.549   1.408   0.749
 9529SOL     OW29485   6.293   3.650   6.421
 9529SOL    HW129486   6.242   3.597   6.353
 9529SOL    HW229487   6.342   3.724   6.374
 9530SOL     OW29488   2.110   3.385   3.198
 9530SOL    HW129489   2.174   3.307   3.196
 9530SOL    HW229490   2.060   3.388   3.112
 9531SOL     OW29491   4.539   5.342   2.886
 9531SOL    HW129492   4.561   5.433   2.850
 9531SOL    HW229493   4.505   5.284   2.813
 9532SOL     OW29494   0.119   6.354   1.131
 9532SOL    HW129495   0.200   6.360   1.072
 9532SOL    HW229496   0.041   6.322   1.078
 9533SOL     OW29497   0.441   5.972   5.138
 9533SOL    HW129498   0.453   5.874   5.154
 9533SOL    HW229499   0.375   6.009   5.204
 9534SOL     OW29500   6.966   4.039   4.698
 9534SOL    HW129501   0.010   4.068   4.630
 9534SOL    HW229502   6.952   3.941   4.692
 9535SOL     OW29503   2.165   0.951   6.725
 9535SOL    HW129504   2.089   0.985   6.781
 9535SOL    HW229505   2.180   1.014   6.649
 9536SOL     OW29506   3.003   3.786   5.920
 9536SOL    HW129507   2.968   3.696   5.890
 9536SOL    HW229508   2.993   3.851   5.845
 9537SOL     OW29509   2.666   6.685   3.900
 9537SOL    HW129510   2.721   6.751   3.849
 9537SOL    HW229511   2.602   6.734   3.959
 9538SOL     OW29512   5.954   1.552   3.639
 9538SOL    HW129513   5.939   1.476   3.702
 9538SOL    HW229514   6.025   1.612   3.674
 9539SOL     OW29515   3.571   3.869   4.827
 9539SOL    HW129516   3.505   3.945   4.829
 9539SOL    HW229517   3.616   3.862   4.916
 9540SOL     OW29518   5.975   3.664   4.528
 9540SOL    HW129519   6.002   3.725   4.603
 9540SOL    HW229520   5.972   3.716   4.443
 9541SOL     OW29521   3.424   0.745   5.775
 9541SOL    HW129522   3.477   0.769   5.856
 9541SOL    HW229523   3.480   0.759   5.693
 9542SOL     OW29524   4.892   4.510   4.739
 9542SOL    HW129525   4.835   4.593   4.740
 9542SOL    HW229526   4.848   4.440   4.684
 9543SOL     OW29527   3.598   0.716   5.992
 9543SOL    HW129528   3.624   0.761   6.078
 9543SOL    HW229529   3.586   0.618   6.008
 9544SOL     OW29530   6.988   2.284   2.863
 9544SOL    HW129531   6.969   2.225   2.941
 9544SOL    HW229532   0.063   2.300   2.855
 9545SOL     OW29533   5.977   5.692   4.407
 9545SOL    HW129534   5.908   5.764   4.419
 9545SOL    HW229535   6.039   5.692   4.485
 9546SOL     OW29536   3.632   2.015   5.274
 9546SOL    HW129537   3.610   2.042   5.368
 9546SOL    HW229538   3.635   2.097   5.216
 9547SOL     OW29539   2.076   6.217   4.334
 9547SOL    HW129540   2.173   6.236   4.344
 9547SOL    HW229541   2.023   6.295   4.367
 9548SOL     OW29542   6.034   5.332   6.339
 9548SOL    HW129543   6.090   5.321   6.257
 9548SOL    HW229544   6.090   5.366   6.414
 9549SOL     OW29545   2.498   2.925   1.346
 9549SOL    HW129546   2.577   2.888   1.394
 9549SOL    HW229547   2.416   2.911   1.402
 9550SOL     OW29548   0.290   1.493   0.378
 9550SOL    HW129549   0.296   1.536   0.469
 9550SOL    HW229550   0.351   1.413   0.375
 9551SOL     OW29551   5.374   1.639   4.502
 9551SOL    HW129552   5.290   1.640   4.556
 9551SOL    HW229553   5.452   1.664   4.560
 9552SOL     OW29554   1.379   0.172   3.861
 9552SOL    HW129555   1.316   0.164   3.783
 9552SOL    HW229556   1.353   0.106   3.932
 9553SOL     OW29557   6.201   3.354   6.025
 9553SOL    HW129558   6.285   3.328   5.978
 9553SOL    HW229559   6.136   3.391   5.959
 9554SOL     OW29560   1.740   6.411   1.336
 9554SOL    HW129561   1.806   6.338   1.316
 9554SOL    HW229562   1.756   6.445   1.429
 9555SOL     OW29563   1.137   0.866   3.243
 9555SOL    HW129564   1.169   0.961   3.241
 9555SOL    HW229565   1.064   0.857   3.311
 9556SOL     OW29566   1.539   3.362   1.674
 9556SOL    HW129567   1.496   3.401   1.593
 9556SOL    HW229568   1.505   3.409   1.756
 9557SOL     OW29569   0.653   6.742   2.434
 9557SOL    HW129570   0.740   6.764   2.391
 9557SOL    HW229571   0.668   6.715   2.529
 9558SOL     OW29572   5.988   6.217   4.839
 9558SOL    HW129573   5.994   6.132   4.786
 9558SOL    HW229574   6.073   6.269   4.827
 9559SOL     OW29575   0.031   4.435   0.862
 9559SOL    HW129576   7.010   4.524   0.873
 9559SOL    HW229577   6.987   4.362   0.878
 9560SOL     OW29578   1.925   1.247   3.382
 9560SOL    HW129579   1.965   1.337   3.401
 9560SOL    HW229580   1.990   1.176   3.408
 9561SOL     OW29581   1.357   6.511   0.208
 9561SOL    HW129582   1.405   6.595   0.183
 9561SOL    HW229583   1.342   6.456   0.126
 9562SOL     OW29584   3.307   0.213   5.465
 9562SOL    HW129585   3.255   0.285   5.512
 9562SOL    HW229586   3.245   0.139   5.439
 9563SOL     OW29587   6.171   6.148   0.892
 9563SOL    HW129588   6.210   6.215   0.828
 9563SOL    HW229589   6.237   6.130   0.965
 9564SOL     OW29590   2.875   0.016   0.661
 9564SOL    HW129591   2.899   6.946   0.688
 9564SOL    HW229592   2.950   0.057   0.610
 9565SOL     OW29593   3.899   0.394   4.776
 9565SOL    HW129594   3.995   0.413   4.757
 9565SOL    HW229595   3.867   0.453   4.849
 9566SOL     OW29596   1.862   5.048   0.079
 9566SOL    HW129597   1.862   5.066   7.004
 9566SOL    HW229598   1.957   5.040   0.110
 9567SOL     OW29599   5.309   5.019   0.492
 9567SOL    HW129600   5.214   5.049   0.484
 9567SOL    HW229601   5.369   5.089   0.452
 9568SOL     OW29602   4.523   2.240   6.918
 9568SOL    HW129603   4.457   2.179   6.963
 9568SOL    HW229604   4.596   2.264   6.981
 9569SOL     OW29605   1.090   1.971   2.553
 9569SOL    HW129606   1.098   2.017   2.464
 9569SOL    HW229607   1.144   2.021   2.621
 9570SOL     OW29608   0.685   2.844   2.258
 9570SOL    HW129609   0.709   2.752   2.227
 9570SOL    HW229610   0.643   2.895   2.182
 9571SOL     OW29611   3.720   4.159   6.104
 9571SOL    HW129612   3.719   4.085   6.037
 9571SOL    HW229613   3.634   4.159   6.155
 9572SOL     OW29614   1.739   4.972   2.082
 9572SOL    HW129615   1.773   5.009   2.168
 9572SOL    HW229616   1.679   5.039   2.038
 9573SOL     OW29617   0.817   1.413   6.791
 9573SOL    HW129618   0.823   1.371   6.701
 9573SOL    HW229619   0.771   1.351   6.855
 9574SOL     OW29620   4.105   3.197   3.787
 9574SOL    HW129621   4.114   3.296   3.780
 9574SOL    HW229622   4.137   3.167   3.877
 9575SOL     OW29623   6.679   1.404   1.383
 9575SOL    HW129624   6.776   1.396   1.356
 9575SOL    HW229625   6.670   1.477   1.451
 9576SOL     OW29626   2.541   0.231   1.973
 9576SOL    HW129627   2.450   0.208   2.008
 9576SOL    HW229628   2.533   0.281   1.887
 9577SOL     OW29629   1.784   0.558   6.250
 9577SOL    HW129630   1.820   0.504   6.174
 9577SOL    HW229631   1.859   0.587   6.309
 9578SOL     OW29632   0.566   4.107   3.858
 9578SOL    HW129633   0.469   4.081   3.863
 9578SOL    HW229634   0.593   4.151   3.944
 9579SOL     OW29635   1.546   5.021   2.983
 9579SOL    HW129636   1.623   5.068   3.025
 9579SOL    HW229637   1.494   4.972   3.053
 9580SOL     OW29638   3.917   3.295   0.811
 9580SOL    HW129639   3.889   3.386   0.839
 9580SOL    HW229640   3.854   3.259   0.742
 9581SOL     OW29641   0.875   5.297   6.430
 9581SOL    HW129642   0.913   5.224   6.485
 9581SOL    HW229643   0.782   5.274   6.402
 9582SOL     OW29644   4.632   5.317   5.835
 9582SOL    HW129645   4.533   5.303   5.835
 9582SOL    HW229646   4.652   5.411   5.807
 9583SOL     OW29647   4.167   4.474   1.134
 9583SOL    HW129648   4.182   4.375   1.140
 9583SOL    HW229649   4.150   4.500   1.039
 9584SOL     OW29650   6.598   6.270   0.115
 9584SOL    HW129651   6.645   6.355   0.138
 9584SOL    HW229652   6.505   6.273   0.151
 9585SOL     OW29653   6.354   0.392   3.970
 9585SOL    HW129654   6.270   0.338   3.964
 9585SOL    HW229655   6.356   0.442   4.056
 9586SOL     OW29656   6.441   4.002   2.591
 9586SOL    HW129657   6.421   3.904   2.597
 9586SOL    HW229658   6.425   4.033   2.497
 9587SOL     OW29659   0.528   0.965   2.071
 9587SOL    HW129660   0.497   1.025   2.144
 9587SOL    HW229661   0.593   0.898   2.108
 9588SOL     OW29662   0.582   1.858   2.141
 9588SOL    HW129663   0.671   1.813   2.149
 9588SOL    HW229664   0.520   1.801   2.086
 9589SOL     OW29665   2.479   5.369   5.984
 9589SOL    HW129666   2.521   5.437   5.923
 9589SOL    HW229667   2.399   5.329   5.938
 9590SOL     OW29668   0.042   3.489   1.700
 9590SOL    HW129669   0.125   3.453   1.657
 9590SOL    HW229670   0.048   3.589   1.704
 9591SOL     OW29671   2.936   5.975   6.526
 9591SOL    HW129672   2.854   6.032   6.531
 9591SOL    HW229673   2.974   5.962   6.617
 9592SOL     OW29674   3.051   4.158   1.234
 9592SOL    HW129675   3.098   4.070   1.240
 9592SOL    HW229676   2.988   4.167   1.312
 9593SOL     OW29677   6.890   0.381   4.884
 9593SOL    HW129678   6.963   0.321   4.851
 9593SOL    HW229679   6.927   0.473   4.900
 9594SOL     OW29680   1.739   6.697   3.071
 9594SOL    HW129681   1.650   6.651   3.065
 9594SOL    HW229682   1.787   6.667   3.153
 9595SOL     OW29683   1.469   4.590   5.507
 9595SOL    HW129684   1.459   4.491   5.496
 9595SOL    HW229685   1.379   4.633   5.508
 9596SOL     OW29686   0.527   5.908   0.039
 9596SOL    HW129687   0.569   5.980   0.094
 9596SOL    HW229688   0.430   5.929   0.024
 9597SOL     OW29689   0.417   4.289   0.849
 9597SOL    HW129690   0.433   4.336   0.936
 9597SOL    HW229691   0.362   4.207   0.866
 9598SOL     OW29692   1.259   3.460   4.907
 9598SOL    HW129693   1.315   3.538   4.934
 9598SOL    HW229694   1.260   3.451   4.807
 9599SOL     OW29695   4.402   0.613   5.556
 9599SOL    HW129696   4.409   0.535   5.494
 9599SOL    HW229697   4.310   0.616   5.595
 9600SOL     OW29698   2.030   6.830   6.995
 9600SOL    HW129699   2.027   6.795   0.065
 9600SOL    HW229700   2.110   6.890   6.984
 9601SOL     OW29701   6.694   3.433   1.011
 9601SOL    HW129702   6.712   3.476   0.923
 9601SOL    HW229703   6.762   3.462   1.078
 9602SOL     OW29704   6.514   5.037   6.893
 9602SOL    HW129705   6.451   5.066   6.965
 9602SOL    HW229706   6.573   5.114   6.867
 9603SOL     OW29707   3.625   1.596   5.444
 9603SOL    HW129708   3.666   1.593   5.535
 9603SOL    HW229709   3.695   1.617   5.377
 9604SOL     OW29710   3.797   0.641   6.939
 9604SOL    HW129711   3.821   0.544   6.938
 9604SOL    HW229712   3.878   0.696   6.920
 9605SOL     OW29713   0.377   4.879   4.067
 9605SOL    HW129714   0.416   4.840   3.983
 9605SOL    HW229715   0.450   4.907   4.128
 9606SOL     OW29716   1.833   6.242   5.683
 9606SOL    HW129717   1.890   6.213   5.606
 9606SOL    HW229718   1.751   6.288   5.648
 9607SOL     OW29719   1.563   1.454   1.846
 9607SOL    HW129720   1.606   1.528   1.795
 9607SOL    HW229721   1.616   1.370   1.837
 9608SOL     OW29722   6.498   6.616   2.359
 9608SOL    HW129723   6.424   6.676   2.329
 9608SOL    HW229724   6.585   6.665   2.353
 9609SOL     OW29725   2.131   3.657   6.365
 9609SOL    HW129726   2.229   3.642   6.362
 9609SOL    HW229727   2.109   3.726   6.434
 9610SOL     OW29728   2.406   5.203   4.016
 9610SOL    HW129729   2.453   5.140   4.077
 9610SOL    HW229730   2.319   5.231   4.057
 9611SOL     OW29731   0.485   6.607   6.852
 9611SOL    HW129732   0.570   6.575   6.894
 9611SOL    HW229733   0.466   6.552   6.771
 9612SOL     OW29734   0.728   3.423   1.963
 9612SOL    HW129735   0.818   3.403   2.000
 9612SOL    HW229736   0.658   3.399   2.029
 9613SOL     OW29737   4.058   6.358   3.406
 9613SOL    HW129738   4.086   6.454   3.407
 9613SOL    HW229739   4.089   6.313   3.490
 9614SOL     OW29740   3.636   2.309   0.909
 9614SOL    HW129741   3.729   2.331   0.881
 9614SOL    HW229742   3.600   2.382   0.967
 9615SOL     OW29743   0.515   6.979   1.803
 9615SOL    HW129744   0.614   6.996   1.806
 9615SOL    HW229745   0.467   0.044   1.799
 9616SOL     OW29746   4.669   3.619   1.310
 9616SOL    HW129747   4.644   3.522   1.311
 9616SOL    HW229748   4.768   3.628   1.299
 9617SOL     OW29749   1.415   3.731   4.415
 9617SOL    HW129750   1.435   3.817   4.367
 9617SOL    HW229751   1.316   3.718   4.418
 9618SOL     OW29752   3.841   6.661   5.941
 9618SOL    HW129753   3.870   6.567   5.960
 9618SOL    HW229754   3.742   6.669   5.952
 9619SOL     OW29755   0.572   6.936   0.391
 9619SOL    HW129756   0.534   6.849   0.422
 9619SOL    HW229757   0.634   6.919   0.314
 9620SOL     OW29758   5.285   2.855   6.898
 9620SOL    HW129759   5.278   2.810   6.809
 9620SOL    HW229760   5.357   2.811   6.952
 9621SOL     OW29761   1.535   0.795   3.310
 9621SOL    HW129762   1.526   0.864   3.382
 9621SOL    HW229763   1.576   0.836   3.229
 9622SOL     OW29764   5.427   1.048   0.448
 9622SOL    HW129765   5.489   1.113   0.491
 9622SOL    HW229766   5.365   1.096   0.387
 9623SOL     OW29767   4.124   5.102   5.120
 9623SOL    HW129768   4.219   5.098   5.152
 9623SOL    HW229769   4.099   5.014   5.079
 9624SOL     OW29770   6.269   4.252   3.791
 9624SOL    HW129771   6.180   4.277   3.754
 9624SOL    HW229772   6.341   4.279   3.728
 9625SOL     OW29773   4.863   5.530   0.014
 9625SOL    HW129774   4.772   5.571   0.017
 9625SOL    HW229775   4.931   5.601   7.017
 9626SOL     OW29776   2.144   6.190   0.170
 9626SOL    HW129777   2.072   6.176   0.238
 9626SOL    HW229778   2.156   6.288   0.154
 9627SOL     OW29779   6.921   3.893   3.924
 9627SOL    HW129780   6.858   3.845   3.986
 9627SOL    HW229781   6.995   3.934   3.977
 9628SOL     OW29782   6.276   4.438   0.411
 9628SOL    HW129783   6.317   4.494   0.339
 9628SOL    HW229784   6.302   4.342   0.399
 9629SOL     OW29785   6.955   6.420   2.748
 9629SOL    HW129786   6.866   6.423   2.704
 9629SOL    HW229787   7.020   6.477   2.696
 9630SOL     OW29788   6.284   6.295   4.870
 9630SOL    HW129789   6.260   6.345   4.787
 9630SOL    HW229790   6.275   6.356   4.949
 9631SOL     OW29791   5.333   1.425   0.202
 9631SOL    HW129792   5.266   1.456   0.134
 9631SOL    HW229793   5.319   1.475   0.288
 9632SOL     OW29794   1.971   5.226   2.167
 9632SOL    HW129795   2.011   5.137   2.145
 9632SOL    HW229796   2.027   5.272   2.236
 9633SOL     OW29797   4.323   4.592   0.232
 9633SOL    HW129798   4.255   4.557   0.297
 9633SOL    HW229799   4.277   4.632   0.153
 9634SOL     OW29800   0.131   6.701   4.296
 9634SOL    HW129801   0.211   6.661   4.252
 9634SOL    HW229802   0.158   6.784   4.345
 9635SOL     OW29803   2.633   4.540   5.483
 9635SOL    HW129804   2.634   4.628   5.530
 9635SOL    HW229805   2.586   4.472   5.540
 9636SOL     OW29806   4.757   1.758   6.041
 9636SOL    HW129807   4.714   1.847   6.025
 9636SOL    HW229808   4.716   1.716   6.122
 9637SOL     OW29809   3.423   2.525   0.210
 9637SOL    HW129810   3.399   2.621   0.223
 9637SOL    HW229811   3.422   2.503   0.113
 9638SOL     OW29812   0.188   3.768   6.250
 9638SOL    HW129813   0.206   3.756   6.347
 9638SOL    HW229814   0.229   3.854   6.218
 9639SOL     OW29815   4.388   1.624   2.350
 9639SOL    HW129816   4.410   1.637   2.253
 9639SOL    HW229817   4.467   1.585   2.397
 9640SOL     OW29818   3.250   1.042   2.951
 9640SOL    HW129819   3.263   1.064   3.047
 9640SOL    HW229820   3.161   0.999   2.938
 9641SOL     OW29821   5.662   5.589   1.483
 9641SOL    HW129822   5.640   5.530   1.561
 9641SOL    HW229823   5.759   5.612   1.485
 9642SOL     OW29824   2.043   5.709   4.779
 9642SOL    HW129825   1.975   5.773   4.743
 9642SOL    HW229826   2.092   5.667   4.703
 9643SOL     OW29827   5.859   4.792   4.128
 9643SOL    HW129828   5.931   4.722   4.127
 9643SOL    HW229829   5.783   4.761   4.184
 9644SOL     OW29830   0.405   5.008   4.485
 9644SOL    HW129831   0.479   5.074   4.473
 9644SOL    HW229832   0.440   4.916   4.469
 9645SOL     OW29833   3.042   4.805   3.907
 9645SOL    HW129834   3.139   4.804   3.883
 9645SOL    HW229835   3.031   4.817   4.006
 9646SOL     OW29836   2.609   4.622   2.138
 9646SOL    HW129837   2.679   4.623   2.067
 9646SOL    HW229838   2.577   4.715   2.154
 9647SOL     OW29839   0.702   5.749   2.289
 9647SOL    HW129840   0.741   5.840   2.303
 9647SOL    HW229841   0.698   5.700   2.376
 9648SOL     OW29842   3.155   1.813   0.136
 9648SOL    HW129843   3.097   1.801   0.217
 9648SOL    HW229844   3.113   1.767   0.058
 9649SOL     OW29845   2.400   4.522   6.940
 9649SOL    HW129846   2.409   4.590   7.013
 9649SOL    HW229847   2.355   4.563   6.861
 9650SOL     OW29848   4.719   4.581   3.008
 9650SOL    HW129849   4.688   4.618   3.096
 9650SOL    HW229850   4.683   4.638   2.934
 9651SOL     OW29851   5.599   1.452   0.781
 9651SOL    HW129852   5.568   1.384   0.847
 9651SOL    HW229853   5.694   1.433   0.755
 9652SOL     OW29854   1.897   4.189   1.512
 9652SOL    HW129855   1.968   4.119   1.517
 9652SOL    HW229856   1.820   4.154   1.457
 9653SOL     OW29857   4.399   5.102   5.189
 9653SOL    HW129858   4.437   5.194   5.178
 9653SOL    HW229859   4.404   5.075   5.285
 9654SOL     OW29860   3.515   3.283   2.599
 9654SOL    HW129861   3.419   3.273   2.575
 9654SOL    HW229862   3.526   3.265   2.697
 9655SOL     OW29863   0.206   1.611   0.652
 9655SOL    HW129864   0.261   1.541   0.698
 9655SOL    HW229865   0.121   1.624   0.703
 9656SOL     OW29866   4.280   1.971   0.987
 9656SOL    HW129867   4.272   1.908   0.909
 9656SOL    HW229868   4.203   1.957   1.049
 9657SOL     OW29869   6.232   2.798   3.422
 9657SOL    HW129870   6.156   2.787   3.358
 9657SOL    HW229871   6.274   2.888   3.409
 9658SOL     OW29872   5.755   2.257   2.405
 9658SOL    HW129873   5.684   2.270   2.336
 9658SOL    HW229874   5.720   2.199   2.478
 9659SOL     OW29875   0.225   2.783   0.201
 9659SOL    HW129876   0.188   2.876   0.198
 9659SOL    HW229877   0.303   2.781   0.263
 9660SOL     OW29878   0.892   6.659   2.256
 9660SOL    HW129879   0.848   6.692   2.172
 9660SOL    HW229880   0.990   6.651   2.242
 9661SOL     OW29881   3.248   6.109   0.954
 9661SOL    HW129882   3.289   6.174   0.890
 9661SOL    HW229883   3.319   6.071   1.012
 9662SOL     OW29884   4.554   2.767   5.360
 9662SOL    HW129885   4.457   2.750   5.378
 9662SOL    HW229886   4.579   2.858   5.393
 9663SOL     OW29887   6.442   0.016   3.098
 9663SOL    HW129888   6.448   0.108   3.060
 9663SOL    HW229889   6.394   6.979   3.034
 9664SOL     OW29890   5.447   6.068   4.733
 9664SOL    HW129891   5.361   6.056   4.782
 9664SOL    HW229892   5.522   6.027   4.785
 9665SOL     OW29893   5.802   6.173   6.775
 9665SOL    HW129894   5.727   6.162   6.710
 9665SOL    HW229895   5.869   6.099   6.762
 9666SOL     OW29896   6.607   3.935   2.253
 9666SOL    HW129897   6.662   4.012   2.284
 9666SOL    HW229898   6.661   3.850   2.263
 9667SOL     OW29899   4.496   3.270   6.264
 9667SOL    HW129900   4.473   3.256   6.168
 9667SOL    HW229901   4.412   3.285   6.317
 9668SOL     OW29902   6.561   0.276   6.070
 9668SOL    HW129903   6.550   0.375   6.083
 9668SOL    HW229904   6.502   0.246   5.994
 9669SOL     OW29905   2.209   0.083   2.679
 9669SOL    HW129906   2.293   0.133   2.659
 9669SOL    HW229907   2.226   0.016   2.751
 9670SOL     OW29908   6.317   4.996   6.412
 9670SOL    HW129909   6.231   5.044   6.433
 9670SOL    HW229910   6.322   4.911   6.465
 9671SOL     OW29911   6.093   4.828   6.998
 9671SOL    HW129912   6.031   4.902   6.971
 9671SOL    HW229913   6.051   4.774   0.048
 9672SOL     OW29914   1.733   5.626   3.967
 9672SOL    HW129915   1.638   5.598   3.956
 9672SOL    HW229916   1.791   5.568   3.909
 9673SOL     OW29917   4.659   3.341   1.457
 9673SOL    HW129918   4.736   3.287   1.424
 9673SOL    HW229919   4.676   3.371   1.550
 9674SOL     OW29920   2.665   6.659   2.835
 9674SOL    HW129921   2.705   6.568   2.829
 9674SOL    HW229922   2.609   6.677   2.754
 9675SOL     OW29923   5.452   2.750   0.077
 9675SOL    HW129924   5.520   2.801   0.129
 9675SOL    HW229925   5.480   2.654   0.070
 9676SOL     OW29926   1.513   3.923   5.747
 9676SOL    HW129927   1.500   3.828   5.720
 9676SOL    HW229928   1.594   3.960   5.700
 9677SOL     OW29929   7.013   5.320   4.922
 9677SOL    HW129930   6.996   5.391   4.854
 9677SOL    HW229931   6.944   5.248   4.912
 9678SOL     OW29932   2.914   3.554   3.510
 9678SOL    HW129933   2.868   3.642   3.502
 9678SOL    HW229934   3.012   3.568   3.524
 9679SOL     OW29935   3.338   1.278   3.529
 9679SOL    HW129936   3.363   1.363   3.483
 9679SOL    HW229937   3.413   1.212   3.521
 9680SOL     OW29938   4.472   1.065   2.895
 9680SOL    HW129939   4.572   1.064   2.896
 9680SOL    HW229940   4.440   1.160   2.891
 9681SOL     OW29941   2.819   1.846   0.547
 9681SOL    HW129942   2.782   1.928   0.591
 9681SOL    HW229943   2.744   1.789   0.514
 9682SOL     OW29944   5.227   4.724   3.674
 9682SOL    HW129945   5.273   4.791   3.616
 9682SOL    HW229946   5.261   4.733   3.768
 9683SOL     OW29947   2.596   5.670   0.978
 9683SOL    HW129948   2.581   5.593   0.916
 9683SOL    HW229949   2.659   5.736   0.937
 9684SOL     OW29950   0.054   3.308   6.298
 9684SOL    HW129951   0.130   3.364   6.264
 9684SOL    HW229952   0.037   3.329   6.394
 9685SOL     OW29953   3.259   4.530   0.827
 9685SOL    HW129954   3.226   4.587   0.751
 9685SOL    HW229955   3.286   4.441   0.791
 9686SOL     OW29956   6.637   1.869   0.413
 9686SOL    HW129957   6.629   1.781   0.367
 9686SOL    HW229958   6.677   1.936   0.350
 9687SOL     OW29959   1.838   0.864   4.450
 9687SOL    HW129960   1.770   0.891   4.518
 9687SOL    HW229961   1.913   0.929   4.450
 9688SOL     OW29962   1.016   3.302   2.683
 9688SOL    HW129963   0.924   3.267   2.701
 9688SOL    HW229964   1.010   3.382   2.623
 9689SOL     OW29965   0.435   4.820   5.991
 9689SOL    HW129966   0.446   4.774   6.079
 9689SOL    HW229967   0.477   4.910   5.994
 9690SOL     OW29968   5.916   5.303   6.915
 9690SOL    HW129969   5.823   5.319   6.947
 9690SOL    HW229970   5.933   5.359   6.834
 9691SOL     OW29971   3.349   5.087   0.614
 9691SOL    HW129972   3.432   5.048   0.575
 9691SOL    HW229973   3.276   5.087   0.546
 9692SOL     OW29974   3.600   5.522   2.503
 9692SOL    HW129975   3.590   5.473   2.417
 9692SOL    HW229976   3.535   5.485   2.570
 9693SOL     OW29977   6.003   4.722   1.997
 9693SOL    HW129978   6.072   4.755   1.934
 9693SOL    HW229979   6.024   4.629   2.024
 9694SOL     OW29980   2.036   0.782   0.402
 9694SOL    HW129981   2.122   0.762   0.355
 9694SOL    HW229982   1.988   0.696   0.421
 9695SOL     OW29983   6.808   3.072   3.122
 9695SOL    HW129984   6.875   3.001   3.101
 9695SOL    HW229985   6.850   3.142   3.180
 9696SOL     OW29986   5.294   3.328   1.259
 9696SOL    HW129987   5.250   3.348   1.172
 9696SOL    HW229988   5.347   3.243   1.252
 9697SOL     OW29989   0.183   5.301   6.924
 9697SOL    HW129990   0.257   5.256   6.874
 9697SOL    HW229991   0.184   5.399   6.904
 9698SOL     OW29992   4.775   1.515   5.929
 9698SOL    HW129993   4.768   1.612   5.952
 9698SOL    HW229994   4.727   1.461   5.998
 9699SOL     OW29995   6.495   5.501   6.886
 9699SOL    HW129996   6.403   5.500   6.924
 9699SOL    HW229997   6.561   5.521   6.958
 9700SOL     OW29998   4.949   5.720   4.822
 9700SOL    HW129999   4.917   5.731   4.917
 9700SOL    HW230000   4.874   5.743   4.760
 9701SOL     OW30001   4.500   5.185   6.104
 9701SOL    HW130002   4.422   5.248   6.102
 9701SOL    HW230003   4.530   5.165   6.011
 9702SOL     OW30004   4.486   0.295   6.414
 9702SOL    HW130005   4.485   0.201   6.379
 9702SOL    HW230006   4.449   0.296   6.507
 9703SOL     OW30007   4.874   3.828   3.866
 9703SOL    HW130008   4.810   3.847   3.791
 9703SOL    HW230009   4.947   3.897   3.866
 9704SOL     OW30010   3.752   0.423   1.745
 9704SOL    HW130011   3.772   0.381   1.657
 9704SOL    HW230012   3.653   0.422   1.761
 9705SOL     OW30013   5.329   4.640   5.868
 9705SOL    HW130014   5.414   4.665   5.822
 9705SOL    HW230015   5.253   4.695   5.832
 9706SOL     OW30016   1.607   3.186   0.348
 9706SOL    HW130017   1.576   3.093   0.331
 9706SOL    HW230018   1.695   3.184   0.396
 9707SOL     OW30019   6.772   4.758   2.428
 9707SOL    HW130020   6.862   4.788   2.461
 9707SOL    HW230021   6.717   4.839   2.403
 9708SOL     OW30022   1.787   1.753   4.030
 9708SOL    HW130023   1.701   1.708   4.005
 9708SOL    HW230024   1.767   1.831   4.089
 9709SOL     OW30025   5.417   6.393   3.018
 9709SOL    HW130026   5.371   6.381   3.106
 9709SOL    HW230027   5.467   6.480   3.018
 9710SOL     OW30028   6.629   1.531   1.624
 9710SOL    HW130029   6.627   1.631   1.628
 9710SOL    HW230030   6.662   1.495   1.712
 9711SOL     OW30031   2.855   5.432   5.934
 9711SOL    HW130032   2.812   5.521   5.951
 9711SOL    HW230033   2.917   5.440   5.855
 9712SOL     OW30034   5.755   3.658   6.575
 9712SOL    HW130035   5.816   3.578   6.572
 9712SOL    HW230036   5.808   3.741   6.559
 9713SOL     OW30037   0.842   4.503   3.657
 9713SOL    HW130038   0.866   4.551   3.742
 9713SOL    HW230039   0.744   4.485   3.656
 9714SOL     OW30040   3.978   6.401   6.555
 9714SOL    HW130041   3.985   6.489   6.602
 9714SOL    HW230042   3.907   6.406   6.485
 9715SOL     OW30043   5.605   4.045   6.230
 9715SOL    HW130044   5.553   3.974   6.184
 9715SOL    HW230045   5.699   4.045   6.197
 9716SOL     OW30046   3.909   4.398   6.967
 9716SOL    HW130047   3.894   4.325   0.011
 9716SOL    HW230048   3.930   4.357   6.878
 9717SOL     OW30049   5.567   6.153   5.889
 9717SOL    HW130050   5.521   6.126   5.804
 9717SOL    HW230051   5.549   6.084   5.959
 9718SOL     OW30052   4.806   3.025   0.451
 9718SOL    HW130053   4.776   2.930   0.447
 9718SOL    HW230054   4.740   3.078   0.504
 9719SOL     OW30055   6.081   1.202   5.726
 9719SOL    HW130056   6.019   1.280   5.731
 9719SOL    HW230057   6.056   1.136   5.797
 9720SOL     OW30058   0.109   5.408   2.153
 9720SOL    HW130059   0.080   5.495   2.113
 9720SOL    HW230060   0.075   5.402   2.248
 9721SOL     OW30061   6.597   1.604   0.829
 9721SOL    HW130062   6.651   1.644   0.755
 9721SOL    HW230063   6.512   1.656   0.840
 9722SOL     OW30064   5.466   0.754   4.322
 9722SOL    HW130065   5.438   0.773   4.227
 9722SOL    HW230066   5.501   0.661   4.329
 9723SOL     OW30067   2.535   6.784   2.601
 9723SOL    HW130068   2.440   6.752   2.608
 9723SOL    HW230069   2.544   6.843   2.520
 9724SOL     OW30070   1.936   4.524   0.280
 9724SOL    HW130071   1.923   4.616   0.243
 9724SOL    HW230072   1.847   4.482   0.296
 9725SOL     OW30073   4.203   5.002   6.255
 9725SOL    HW130074   4.284   4.962   6.298
 9725SOL    HW230075   4.122   4.976   6.307
 9726SOL     OW30076   5.253   1.291   4.648
 9726SOL    HW130077   5.331   1.302   4.587
 9726SOL    HW230078   5.255   1.361   4.719
 9727SOL     OW30079   1.502   3.336   6.473
 9727SOL    HW130080   1.478   3.378   6.560
 9727SOL    HW230081   1.427   3.346   6.408
 9728SOL     OW30082   0.517   0.958   5.620
 9728SOL    HW130083   0.422   0.952   5.651
 9728SOL    HW230084   0.571   0.884   5.661
 9729SOL     OW30085   0.696   3.809   4.083
 9729SOL    HW130086   0.763   3.825   4.011
 9729SOL    HW230087   0.741   3.768   4.163
 9730SOL     OW30088   1.099   3.933   4.191
 9730SOL    HW130089   1.153   3.874   4.131
 9730SOL    HW230090   1.138   4.025   4.193
 9731SOL     OW30091   4.882   4.632   1.087
 9731SOL    HW130092   4.834   4.652   1.173
 9731SOL    HW230093   4.842   4.551   1.045
 9732SOL     OW30094   6.366   5.834   3.239
 9732SOL    HW130095   6.421   5.759   3.277
 9732SOL    HW230096   6.427   5.909   3.213
 9733SOL     OW30097   6.303   5.148   0.658
 9733SOL    HW130098   6.377   5.088   0.626
 9733SOL    HW230099   6.272   5.117   0.748
 9734SOL     OW30100   6.751   1.442   1.863
 9734SOL    HW130101   6.834   1.492   1.842
 9734SOL    HW230102   6.750   1.419   1.961
 9735SOL     OW30103   1.933   4.455   4.305
 9735SOL    HW130104   1.896   4.455   4.212
 9735SOL    HW230105   2.033   4.445   4.301
 9736SOL     OW30106   6.364   1.053   6.863
 9736SOL    HW130107   6.269   1.043   6.834
 9736SOL    HW230108   6.382   0.992   6.940
 9737SOL     OW30109   5.441   2.919   3.524
 9737SOL    HW130110   5.366   2.861   3.493
 9737SOL    HW230111   5.406   3.010   3.546
 9738SOL     OW30112   1.720   0.407   1.343
 9738SOL    HW130113   1.667   0.324   1.362
 9738SOL    HW230114   1.786   0.422   1.416
 9739SOL     OW30115   5.990   4.894   2.191
 9739SOL    HW130116   5.989   4.834   2.111
 9739SOL    HW230117   6.061   4.864   2.255
 9740SOL     OW30118   6.436   1.854   3.260
 9740SOL    HW130119   6.518   1.836   3.205
 9740SOL    HW230120   6.445   1.943   3.304
 9741SOL     OW30121   3.707   0.752   2.402
 9741SOL    HW130122   3.641   0.819   2.438
 9741SOL    HW230123   3.749   0.703   2.478
 9742SOL     OW30124   4.245   0.371   0.776
 9742SOL    HW130125   4.313   0.320   0.829
 9742SOL    HW230126   4.190   0.427   0.837
 9743SOL     OW30127   0.122   2.525   5.302
 9743SOL    HW130128   0.097   2.433   5.273
 9743SOL    HW230129   0.199   2.520   5.367
 9744SOL     OW30130   1.011   7.009   2.934
 9744SOL    HW130131   0.954   0.066   2.952
 9744SOL    HW230132   1.072   6.994   3.012
 9745SOL     OW30133   5.260   3.282   5.961
 9745SOL    HW130134   5.172   3.298   5.917
 9745SOL    HW230135   5.259   3.194   6.008
 9746SOL     OW30136   6.589   0.186   5.574
 9746SOL    HW130137   6.543   0.240   5.645
 9746SOL    HW230138   6.668   0.138   5.614
 9747SOL     OW30139   2.468   0.800   1.750
 9747SOL    HW130140   2.423   0.788   1.838
 9747SOL    HW230141   2.480   0.897   1.731
 9748SOL     OW30142   0.364   1.310   3.502
 9748SOL    HW130143   0.336   1.350   3.415
 9748SOL    HW230144   0.381   1.383   3.568
 9749SOL     OW30145   2.456   0.838   4.791
 9749SOL    HW130146   2.456   0.767   4.720
 9749SOL    HW230147   2.362   0.862   4.813
 9750SOL     OW30148   5.656   4.276   3.298
 9750SOL    HW130149   5.684   4.370   3.282
 9750SOL    HW230150   5.571   4.275   3.351
 9751SOL     OW30151   1.479   0.559   1.302
 9751SOL    HW130152   1.470   0.598   1.394
 9751SOL    HW230153   1.566   0.510   1.294
 9752SOL     OW30154   4.579   2.062   5.408
 9752SOL    HW130155   4.544   2.006   5.482
 9752SOL    HW230156   4.586   2.007   5.325
 9753SOL     OW30157   6.009   5.927   5.868
 9753SOL    HW130158   6.104   5.925   5.836
 9753SOL    HW230159   5.970   6.017   5.848
 9754SOL     OW30160   1.476   1.324   6.152
 9754SOL    HW130161   1.555   1.271   6.181
 9754SOL    HW230162   1.441   1.377   6.229
 9755SOL     OW30163   3.309   3.308   4.265
 9755SOL    HW130164   3.293   3.295   4.363
 9755SOL    HW230165   3.376   3.381   4.252
 9756SOL     OW30166   6.467   3.486   0.714
 9756SOL    HW130167   6.427   3.552   0.778
 9756SOL    HW230168   6.542   3.529   0.664
 9757SOL     OW30169   5.476   3.648   4.003
 9757SOL    HW130170   5.421   3.588   4.061
 9757SOL    HW230171   5.471   3.742   4.037
 9758SOL     OW30172   2.476   6.821   6.935
 9758SOL    HW130173   2.574   6.814   6.952
 9758SOL    HW230174   2.453   6.766   6.855
 9759SOL     OW30175   1.402   0.478   0.211
 9759SOL    HW130176   1.374   0.553   0.270
 9759SOL    HW230177   1.439   0.404   0.266
 9760SOL     OW30178   4.430   2.476   4.834
 9760SOL    HW130179   4.499   2.509   4.899
 9760SOL    HW230180   4.341   2.474   4.879
 9761SOL     OW30181   5.927   1.539   2.877
 9761SOL    HW130182   5.905   1.474   2.805
 9761SOL    HW230183   5.842   1.575   2.917
 9762SOL     OW30184   3.463   1.259   4.376
 9762SOL    HW130185   3.537   1.239   4.441
 9762SOL    HW230186   3.379   1.281   4.426
 9763SOL     OW30187   5.172   2.007   2.058
 9763SOL    HW130188   5.167   1.982   1.962
 9763SOL    HW230189   5.148   2.103   2.069
 9764SOL     OW30190   0.277   2.967   2.663
 9764SOL    HW130191   0.265   2.868   2.657
 9764SOL    HW230192   0.198   3.012   2.623
 9765SOL     OW30193   6.916   1.262   3.826
 9765SOL    HW130194   6.970   1.270   3.742
 9765SOL    HW230195   6.888   1.167   3.838
 9766SOL     OW30196   3.094   0.188   2.353
 9766SOL    HW130197   3.080   0.264   2.290
 9766SOL    HW230198   3.078   0.102   2.305
 9767SOL     OW30199   4.823   0.674   4.740
 9767SOL    HW130200   4.741   0.699   4.689
 9767SOL    HW230201   4.857   0.586   4.705
 9768SOL     OW30202   5.637   1.893   2.767
 9768SOL    HW130203   5.710   1.825   2.766
 9768SOL    HW230204   5.592   1.893   2.857
 9769SOL     OW30205   3.682   1.041   2.634
 9769SOL    HW130206   3.659   1.092   2.717
 9769SOL    HW230207   3.760   1.085   2.589
 9770SOL     OW30208   5.573   0.708   6.660
 9770SOL    HW130209   5.532   0.791   6.622
 9770SOL    HW230210   5.627   0.662   6.590
 9771SOL     OW30211   3.032   5.648   0.234
 9771SOL    HW130212   2.934   5.663   0.220
 9771SOL    HW230213   3.057   5.557   0.201
 9772SOL     OW30214   1.697   6.480   2.790
 9772SOL    HW130215   1.692   6.515   2.697
 9772SOL    HW230216   1.793   6.461   2.813
 9773SOL     OW30217   5.710   5.352   4.452
 9773SOL    HW130218   5.660   5.380   4.534
 9773SOL    HW230219   5.707   5.426   4.385
 9774SOL     OW30220   0.305   4.721   2.511
 9774SOL    HW130221   0.256   4.635   2.523
 9774SOL    HW230222   0.383   4.724   2.574
 9775SOL     OW30223   2.569   0.395   3.131
 9775SOL    HW130224   2.591   0.301   3.105
 9775SOL    HW230225   2.613   0.418   3.218
 9776SOL     OW30226   1.710   4.558   4.558
 9776SOL    HW130227   1.735   4.553   4.655
 9776SOL    HW230228   1.673   4.470   4.529
 9777SOL     OW30229   6.183   5.689   6.557
 9777SOL    HW130230   6.087   5.708   6.537
 9777SOL    HW230231   6.206   5.596   6.527
 9778SOL     OW30232   0.241   0.793   3.896
 9778SOL    HW130233   0.330   0.768   3.934
 9778SOL    HW230234   0.170   0.735   3.937
 9779SOL     OW30235   1.494   1.658   5.323
 9779SOL    HW130236   1.557   1.586   5.294
 9779SOL    HW230237   1.414   1.659   5.263
 9780SOL     OW30238   2.594   1.877   1.144
 9780SOL    HW130239   2.630   1.967   1.167
 9780SOL    HW230240   2.634   1.808   1.204
 9781SOL     OW30241   1.750   4.305   4.439
 9781SOL    HW130242   1.817   4.360   4.389
 9781SOL    HW230243   1.704   4.244   4.375
 9782SOL     OW30244   6.503   1.723   1.299
 9782SOL    HW130245   6.519   1.667   1.380
 9782SOL    HW230246   6.550   1.681   1.221
 9783SOL     OW30247   4.290   2.104   3.289
 9783SOL    HW130248   4.382   2.069   3.307
 9783SOL    HW230249   4.257   2.068   3.201
 9784SOL     OW30250   4.148   1.153   4.203
 9784SOL    HW130251   4.159   1.250   4.224
 9784SOL    HW230252   4.058   1.121   4.232
 9785SOL     OW30253   0.395   3.662   5.754
 9785SOL    HW130254   0.398   3.758   5.729
 9785SOL    HW230255   0.478   3.637   5.803
 9786SOL     OW30256   2.312   4.226   6.894
 9786SOL    HW130257   2.387   4.278   6.852
 9786SOL    HW230258   2.333   4.210   6.990
 9787SOL     OW30259   4.677   4.215   1.761
 9787SOL    HW130260   4.749   4.247   1.823
 9787SOL    HW230261   4.587   4.230   1.802
 9788SOL     OW30262   0.443   0.399   3.767
 9788SOL    HW130263   0.367   0.413   3.703
 9788SOL    HW230264   0.470   0.487   3.806
 9789SOL     OW30265   0.747   5.557   0.959
 9789SOL    HW130266   0.804   5.510   0.891
 9789SOL    HW230267   0.655   5.568   0.923
 9790SOL     OW30268   6.117   4.697   6.747
 9790SOL    HW130269   6.149   4.771   6.807
 9790SOL    HW230270   6.172   4.615   6.762
 9791SOL     OW30271   0.800   0.868   2.697
 9791SOL    HW130272   0.864   0.923   2.644
 9791SOL    HW230273   0.771   0.919   2.778
 9792SOL     OW30274   4.959   5.305   0.966
 9792SOL    HW130275   4.953   5.336   1.061
 9792SOL    HW230276   4.867   5.282   0.932
 9793SOL     OW30277   4.767   5.957   3.525
 9793SOL    HW130278   4.801   5.956   3.431
 9793SOL    HW230279   4.834   5.916   3.586
 9794SOL     OW30280   6.843   4.230   0.877
 9794SOL    HW130281   6.813   4.172   0.953
 9794SOL    HW230282   6.830   4.180   0.791
 9795SOL     OW30283   2.215   1.796   4.562
 9795SOL    HW130284   2.161   1.875   4.533
 9795SOL    HW230285   2.158   1.734   4.616
 9796SOL     OW30286   3.869   2.330   1.521
 9796SOL    HW130287   3.865   2.234   1.493
 9796SOL    HW230288   3.919   2.337   1.607
 9797SOL     OW30289   2.137   5.320   6.266
 9797SOL    HW130290   2.192   5.236   6.267
 9797SOL    HW230291   2.197   5.399   6.272
 9798SOL     OW30292   2.984   7.001   1.363
 9798SOL    HW130293   2.911   7.012   1.296
 9798SOL    HW230294   2.956   0.019   1.450
 9799SOL     OW30295   4.108   3.496   3.842
 9799SOL    HW130296   4.040   3.534   3.779
 9799SOL    HW230297   4.129   3.563   3.913
 9800SOL     OW30298   3.904   6.493   4.653
 9800SOL    HW130299   3.964   6.413   4.644
 9800SOL    HW230300   3.951   6.573   4.616
 9801SOL     OW30301   4.863   3.948   0.469
 9801SOL    HW130302   4.952   3.904   0.454
 9801SOL    HW230303   4.845   3.952   0.567
 9802SOL     OW30304   0.714   3.526   1.183
 9802SOL    HW130305   0.674   3.480   1.262
 9802SOL    HW230306   0.712   3.625   1.197
 9803SOL     OW30307   0.522   2.032   6.644
 9803SOL    HW130308   0.433   2.076   6.640
 9803SOL    HW230309   0.561   2.044   6.735
 9804SOL     OW30310   1.117   6.705   3.014
 9804SOL    HW130311   1.095   6.689   2.918
 9804SOL    HW230312   1.213   6.729   3.023
 9805SOL     OW30313   0.955   0.367   5.294
 9805SOL    HW130314   0.956   0.375   5.194
 9805SOL    HW230315   0.913   0.280   5.321
 9806SOL     OW30316   1.436   1.280   0.685
 9806SOL    HW130317   1.502   1.286   0.759
 9806SOL    HW230318   1.450   1.196   0.634
 9807SOL     OW30319   2.389   3.763   0.141
 9807SOL    HW130320   2.292   3.786   0.142
 9807SOL    HW230321   2.401   3.665   0.126
 9808SOL     OW30322   4.865   1.234   5.819
 9808SOL    HW130323   4.778   1.203   5.856
 9808SOL    HW230324   4.933   1.239   5.893
 9809SOL     OW30325   0.486   2.177   6.911
 9809SOL    HW130326   0.425   2.163   6.989
 9809SOL    HW230327   0.572   2.130   6.927
 9810SOL     OW30328   2.152   3.035   3.509
 9810SOL    HW130329   2.053   3.025   3.520
 9810SOL    HW230330   2.175   3.132   3.497
 9811SOL     OW30331   5.663   4.708   3.583
 9811SOL    HW130332   5.636   4.696   3.679
 9811SOL    HW230333   5.694   4.802   3.569
 9812SOL     OW30334   3.595   2.047   5.675
 9812SOL    HW130335   3.516   1.997   5.639
 9812SOL    HW230336   3.678   1.992   5.663
 9813SOL     OW30337   5.486   0.930   0.027
 9813SOL    HW130338   5.527   0.946   0.117
 9813SOL    HW230339   5.538   0.858   7.004
 9814SOL     OW30340   0.100   0.306   0.444
 9814SOL    HW130341   0.035   0.363   0.495
 9814SOL    HW230342   0.154   0.252   0.508
 9815SOL     OW30343   5.466   3.895   3.429
 9815SOL    HW130344   5.451   3.811   3.482
 9815SOL    HW230345   5.378   3.939   3.411
 9816SOL     OW30346   6.709   1.125   6.577
 9816SOL    HW130347   6.624   1.154   6.621
 9816SOL    HW230348   6.727   1.029   6.598
 9817SOL     OW30349   2.447   6.376   2.823
 9817SOL    HW130350   2.534   6.373   2.871
 9817SOL    HW230351   2.449   6.314   2.745
 9818SOL     OW30352   1.433   0.781   4.930
 9818SOL    HW130353   1.356   0.785   4.994
 9818SOL    HW230354   1.450   0.686   4.905
 9819SOL     OW30355   4.778   2.904   3.878
 9819SOL    HW130356   4.741   2.883   3.969
 9819SOL    HW230357   4.810   2.999   3.876
 9820SOL     OW30358   4.759   3.289   6.239
 9820SOL    HW130359   4.678   3.275   6.296
 9820SOL    HW230360   4.764   3.218   6.169
 9821SOL     OW30361   5.475   0.576   0.486
 9821SOL    HW130362   5.424   0.491   0.474
 9821SOL    HW230363   5.560   0.572   0.433
 9822SOL     OW30364   2.820   5.766   3.681
 9822SOL    HW130365   2.781   5.848   3.724
 9822SOL    HW230366   2.774   5.685   3.715
 9823SOL     OW30367   2.644   0.334   1.070
 9823SOL    HW130368   2.594   0.348   1.155
 9823SOL    HW230369   2.584   0.349   0.992
 9824SOL     OW30370   2.182   5.300   4.135
 9824SOL    HW130371   2.099   5.297   4.080
 9824SOL    HW230372   2.161   5.335   4.227
 9825SOL     OW30373   5.426   6.622   4.319
 9825SOL    HW130374   5.511   6.622   4.373
 9825SOL    HW230375   5.385   6.531   4.322
 9826SOL     OW30376   4.271   5.419   5.309
 9826SOL    HW130377   4.333   5.406   5.232
 9826SOL    HW230378   4.225   5.333   5.329
 9827SOL     OW30379   1.680   4.215   3.870
 9827SOL    HW130380   1.767   4.242   3.828
 9827SOL    HW230381   1.609   4.279   3.840
 9828SOL     OW30382   2.985   2.381   5.376
 9828SOL    HW130383   3.072   2.370   5.327
 9828SOL    HW230384   2.949   2.473   5.360
 9829SOL     OW30385   4.729   5.609   6.550
 9829SOL    HW130386   4.659   5.656   6.496
 9829SOL    HW230387   4.817   5.618   6.504
 9830SOL     OW30388   4.970   1.444   1.904
 9830SOL    HW130389   5.069   1.454   1.897
 9830SOL    HW230390   4.936   1.393   1.825
 9831SOL     OW30391   1.262   4.731   2.737
 9831SOL    HW130392   1.263   4.636   2.706
 9831SOL    HW230393   1.209   4.787   2.673
 9832SOL     OW30394   5.245   5.801   2.960
 9832SOL    HW130395   5.276   5.880   3.012
 9832SOL    HW230396   5.323   5.743   2.937
 9833SOL     OW30397   3.514   3.528   4.211
 9833SOL    HW130398   3.564   3.442   4.199
 9833SOL    HW230399   3.568   3.591   4.265
 9834SOL     OW30400   2.391   4.630   5.372
 9834SOL    HW130401   2.488   4.620   5.396
 9834SOL    HW230402   2.382   4.695   5.296
 9835SOL     OW30403   3.563   3.243   4.568
 9835SOL    HW130404   3.631   3.232   4.495
 9835SOL    HW230405   3.475   3.208   4.537
 9836SOL     OW30406   0.314   3.991   3.745
 9836SOL    HW130407   0.368   3.929   3.688
 9836SOL    HW230408   0.283   3.942   3.827
 9837SOL     OW30409   4.474   0.922   2.260
 9837SOL    HW130410   4.498   0.926   2.163
 9837SOL    HW230411   4.374   0.919   2.269
 9838SOL     OW30412   1.746   6.785   0.299
 9838SOL    HW130413   1.723   6.864   0.356
 9838SOL    HW230414   1.725   6.701   0.349
 9839SOL     OW30415   4.963   6.516   3.984
 9839SOL    HW130416   4.947   6.594   4.045
 9839SOL    HW230417   5.023   6.544   3.909
 9840SOL     OW30418   5.760   1.980   0.773
 9840SOL    HW130419   5.758   1.886   0.805
 9840SOL    HW230420   5.667   2.017   0.770
 9841SOL     OW30421   1.413   4.070   4.881
 9841SOL    HW130422   1.489   4.014   4.850
 9841SOL    HW230423   1.365   4.108   4.802
 9842SOL     OW30424   3.516   3.516   1.619
 9842SOL    HW130425   3.535   3.599   1.671
 9842SOL    HW230426   3.469   3.450   1.678
 9843SOL     OW30427   0.000   0.390   2.411
 9843SOL    HW130428   0.002   0.421   2.316
 9843SOL    HW230429   0.027   0.294   2.415
 9844SOL     OW30430   6.137   1.305   3.628
 9844SOL    HW130431   6.126   1.313   3.529
 9844SOL    HW230432   6.200   1.375   3.661
 9845SOL     OW30433   1.682   2.313   4.185
 9845SOL    HW130434   1.770   2.267   4.176
 9845SOL    HW230435   1.681   2.366   4.270
 9846SOL     OW30436   3.532   2.631   1.361
 9846SOL    HW130437   3.564   2.709   1.414
 9846SOL    HW230438   3.450   2.593   1.403
 9847SOL     OW30439   3.676   2.899   2.662
 9847SOL    HW130440   3.723   2.896   2.574
 9847SOL    HW230441   3.743   2.916   2.735
 9848SOL     OW30442   4.346   4.167   5.536
 9848SOL    HW130443   4.319   4.190   5.629
 9848SOL    HW230444   4.334   4.068   5.521
 9849SOL     OW30445   0.880   6.831   6.544
 9849SOL    HW130446   0.796   6.828   6.489
 9849SOL    HW230447   0.949   6.773   6.503
 9850SOL     OW30448   6.837   0.815   3.871
 9850SOL    HW130449   6.762   0.880   3.860
 9850SOL    HW230450   6.812   0.728   3.828
 9851SOL     OW30451   1.615   0.463   4.372
 9851SOL    HW130452   1.703   0.473   4.326
 9851SOL    HW230453   1.581   0.370   4.359
 9852SOL     OW30454   2.423   2.031   4.515
 9852SOL    HW130455   2.376   2.109   4.473
 9852SOL    HW230456   2.412   1.950   4.457
 9853SOL     OW30457   5.623   3.393   5.617
 9853SOL    HW130458   5.687   3.460   5.655
 9853SOL    HW230459   5.581   3.341   5.691
 9854SOL     OW30460   0.535   6.093   4.166
 9854SOL    HW130461   0.583   6.176   4.136
 9854SOL    HW230462   0.441   6.095   4.129
 9855SOL     OW30463   1.767   3.532   1.486
 9855SOL    HW130464   1.833   3.537   1.560
 9855SOL    HW230465   1.740   3.436   1.471
 9856SOL     OW30466   4.845   4.312   4.109
 9856SOL    HW130467   4.759   4.310   4.059
 9856SOL    HW230468   4.834   4.269   4.198
 9857SOL     OW30469   4.717   2.704   2.670
 9857SOL    HW130470   4.709   2.674   2.575
 9857SOL    HW230471   4.802   2.669   2.709
 9858SOL     OW30472   0.422   6.524   1.102
 9858SOL    HW130473   0.428   6.470   1.186
 9858SOL    HW230474   0.445   6.619   1.122
 9859SOL     OW30475   6.704   5.845   3.049
 9859SOL    HW130476   6.639   5.774   3.021
 9859SOL    HW230477   6.700   5.921   2.983
 9860SOL     OW30478   2.128   2.492   4.679
 9860SOL    HW130479   2.115   2.398   4.709
 9860SOL    HW230480   2.212   2.498   4.624
 9861SOL     OW30481   2.954   0.773   3.170
 9861SOL    HW130482   2.979   0.712   3.245
 9861SOL    HW230483   2.855   0.769   3.155
 9862SOL     OW30484   2.293   3.547   6.746
 9862SOL    HW130485   2.254   3.458   6.726
 9862SOL    HW230486   2.302   3.600   6.661
 9863SOL     OW30487   3.181   5.698   1.174
 9863SOL    HW130488   3.226   5.667   1.257
 9863SOL    HW230489   3.250   5.716   1.104
 9864SOL     OW30490   3.508   0.858   4.244
 9864SOL    HW130491   3.455   0.906   4.314
 9864SOL    HW230492   3.455   0.782   4.208
 9865SOL     OW30493   1.141   6.529   4.311
 9865SOL    HW130494   1.172   6.620   4.281
 9865SOL    HW230495   1.218   6.465   4.306
 9866SOL     OW30496   6.069   4.814   6.218
 9866SOL    HW130497   6.006   4.865   6.158
 9866SOL    HW230498   6.021   4.788   6.302
 9867SOL     OW30499   6.906   1.816   2.099
 9867SOL    HW130500   6.951   1.906   2.100
 9867SOL    HW230501   6.854   1.807   2.014
 9868SOL     OW30502   6.882   2.693   4.486
 9868SOL    HW130503   6.905   2.742   4.402
 9868SOL    HW230504   6.869   2.759   4.560
 9869SOL     OW30505   0.281   2.494   1.713
 9869SOL    HW130506   0.276   2.502   1.613
 9869SOL    HW230507   0.288   2.398   1.739
 9870SOL     OW30508   4.128   5.605   2.863
 9870SOL    HW130509   4.041   5.557   2.855
 9870SOL    HW230510   4.200   5.539   2.887
 9871SOL     OW30511   6.552   4.371   5.741
 9871SOL    HW130512   6.464   4.397   5.782
 9871SOL    HW230513   6.591   4.294   5.791
 9872SOL     OW30514   3.780   5.641   4.503
 9872SOL    HW130515   3.707   5.578   4.530
 9872SOL    HW230516   3.813   5.616   4.411
 9873SOL     OW30517   2.185   2.737   0.828
 9873SOL    HW130518   2.284   2.725   0.822
 9873SOL    HW230519   2.159   2.745   0.924
 9874SOL     OW30520   6.822   2.872   5.387
 9874SOL    HW130521   6.811   2.968   5.362
 9874SOL    HW230522   6.755   2.848   5.457
 9875SOL     OW30523   6.111   5.881   2.657
 9875SOL    HW130524   6.022   5.927   2.652
 9875SOL    HW230525   6.176   5.940   2.705
 9876SOL     OW30526   5.424   0.104   4.570
 9876SOL    HW130527   5.451   0.142   4.658
 9876SOL    HW230528   5.496   0.042   4.537
 9877SOL     OW30529   0.180   4.630   3.959
 9877SOL    HW130530   0.110   4.671   3.901
 9877SOL    HW230531   0.268   4.673   3.940
 9878SOL     OW30532   3.029   3.307   6.154
 9878SOL    HW130533   3.020   3.281   6.250
 9878SOL    HW230534   2.942   3.342   6.120
 9879SOL     OW30535   5.533   5.184   5.892
 9879SOL    HW130536   5.602   5.247   5.927
 9879SOL    HW230537   5.492   5.221   5.808
 9880SOL     OW30538   2.765   1.167   0.691
 9880SOL    HW130539   2.821   1.232   0.743
 9880SOL    HW230540   2.806   1.076   0.696
 9881SOL     OW30541   6.843   1.874   4.717
 9881SOL    HW130542   6.822   1.783   4.682
 9881SOL    HW230543   6.930   1.871   4.767
 9882SOL     OW30544   2.681   3.988   5.807
 9882SOL    HW130545   2.763   4.045   5.796
 9882SOL    HW230546   2.675   3.925   5.730
 9883SOL     OW30547   0.907   6.454   0.643
 9883SOL    HW130548   0.867   6.500   0.563
 9883SOL    HW230549   0.842   6.454   0.718
 9884SOL     OW30550   4.349   1.375   0.493
 9884SOL    HW130551   4.374   1.284   0.524
 9884SOL    HW230552   4.330   1.373   0.395
 9885SOL     OW30553   0.399   3.191   4.579
 9885SOL    HW130554   0.346   3.212   4.497
 9885SOL    HW230555   0.351   3.226   4.660
 9886SOL     OW30556   0.722   5.899   1.369
 9886SOL    HW130557   0.813   5.930   1.340
 9886SOL    HW230558   0.671   5.868   1.289
 9887SOL     OW30559   3.753   6.936   6.734
 9887SOL    HW130560   3.804   6.850   6.730
 9887SOL    HW230561   3.674   6.926   6.794
 9888SOL     OW30562   5.715   4.799   3.206
 9888SOL    HW130563   5.684   4.858   3.132
 9888SOL    HW230564   5.809   4.822   3.231
 9889SOL     OW30565   6.921   4.260   2.010
 9889SOL    HW130566   6.975   4.279   2.092
 9889SOL    HW230567   6.932   4.164   1.985
 9890SOL     OW30568   0.367   2.379   1.229
 9890SOL    HW130569   0.291   2.326   1.192
 9890SOL    HW230570   0.429   2.404   1.155
 9891SOL     OW30571   6.155   4.168   1.655
 9891SOL    HW130572   6.090   4.226   1.604
 9891SOL    HW230573   6.227   4.137   1.594
 9892SOL     OW30574   1.587   5.414   3.148
 9892SOL    HW130575   1.585   5.513   3.158
 9892SOL    HW230576   1.507   5.384   3.095
 9893SOL     OW30577   6.275   6.832   2.264
 9893SOL    HW130578   6.276   6.786   2.175
 9893SOL    HW230579   6.181   6.857   2.287
 9894SOL     OW30580   2.601   1.746   6.086
 9894SOL    HW130581   2.663   1.718   6.013
 9894SOL    HW230582   2.635   1.829   6.130
 9895SOL     OW30583   5.787   2.741   5.527
 9895SOL    HW130584   5.865   2.711   5.582
 9895SOL    HW230585   5.709   2.681   5.544
 9896SOL     OW30586   5.436   1.730   0.791
 9896SOL    HW130587   5.472   1.710   0.700
 9896SOL    HW230588   5.342   1.765   0.782
 9897SOL     OW30589   4.899   0.605   2.916
 9897SOL    HW130590   4.888   0.518   2.965
 9897SOL    HW230591   4.819   0.663   2.932
 9898SOL     OW30592   0.034   4.592   5.496
 9898SOL    HW130593   7.014   4.502   5.498
 9898SOL    HW230594   0.133   4.582   5.503
 9899SOL     OW30595   6.746   6.144   2.659
 9899SOL    HW130596   6.664   6.200   2.647
 9899SOL    HW230597   6.824   6.188   2.616
 9900SOL     OW30598   1.719   2.924   2.954
 9900SOL    HW130599   1.660   2.917   2.874
 9900SOL    HW230600   1.668   2.960   3.031
 9901SOL     OW30601   1.853   1.212   0.172
 9901SOL    HW130602   1.888   1.138   0.114
 9901SOL    HW230603   1.753   1.211   0.169
 9902SOL     OW30604   4.763   3.966   1.133
 9902SOL    HW130605   4.831   3.980   1.061
 9902SOL    HW230606   4.808   3.966   1.222
 9903SOL     OW30607   5.022   6.982   2.177
 9903SOL    HW130608   5.017   6.938   2.088
 9903SOL    HW230609   4.987   0.052   2.171
 9904SOL     OW30610   0.012   3.860   6.550
 9904SOL    HW130611   0.075   3.937   6.554
 9904SOL    HW230612   0.040   3.789   6.615
 9905SOL     OW30613   1.282   6.802   6.540
 9905SOL    HW130614   1.199   6.750   6.559
 9905SOL    HW230615   1.355   6.738   6.513
 9906SOL     OW30616   1.981   3.314   6.910
 9906SOL    HW130617   2.035   3.332   6.828
 9906SOL    HW230618   2.034   3.339   6.991
 9907SOL     OW30619   1.308   0.440   3.534
 9907SOL    HW130620   1.314   0.434   3.435
 9907SOL    HW230621   1.226   0.491   3.560
 9908SOL     OW30622   0.637   3.596   5.860
 9908SOL    HW130623   0.713   3.648   5.820
 9908SOL    HW230624   0.654   3.498   5.846
 9909SOL     OW30625   3.365   0.381   2.590
 9909SOL    HW130626   3.459   0.362   2.561
 9909SOL    HW230627   3.366   0.432   2.676
 9910SOL     OW30628   1.066   5.043   1.635
 9910SOL    HW130629   1.003   4.975   1.675
 9910SOL    HW230630   1.069   5.031   1.536
 9911SOL     OW30631   4.309   5.943   2.139
 9911SOL    HW130632   4.260   5.996   2.208
 9911SOL    HW230633   4.350   5.862   2.181
 9912SOL     OW30634   4.136   0.692   1.295
 9912SOL    HW130635   4.200   0.730   1.228
 9912SOL    HW230636   4.103   0.603   1.263
 9913SOL     OW30637   6.453   3.617   1.576
 9913SOL    HW130638   6.409   3.689   1.523
 9913SOL    HW230639   6.428   3.626   1.673
 9914SOL     OW30640   1.170   0.541   5.370
 9914SOL    HW130641   1.096   0.477   5.347
 9914SOL    HW230642   1.131   0.618   5.421
 9915SOL     OW30643   4.963   2.618   3.539
 9915SOL    HW130644   4.938   2.710   3.569
 9915SOL    HW230645   4.901   2.551   3.579
 9916SOL     OW30646   2.182   2.287   3.445
 9916SOL    HW130647   2.115   2.223   3.484
 9916SOL    HW230648   2.236   2.327   3.519
 9917SOL     OW30649   3.476   3.786   4.572
 9917SOL    HW130650   3.502   3.690   4.565
 9917SOL    HW230651   3.506   3.823   4.660
 9918SOL     OW30652   0.599   2.150   1.898
 9918SOL    HW130653   0.655   2.209   1.840
 9918SOL    HW230654   0.552   2.205   1.967
 9919SOL     OW30655   2.420   5.495   1.392
 9919SOL    HW130656   2.413   5.589   1.427
 9919SOL    HW230657   2.358   5.484   1.314
 9920SOL     OW30658   3.759   6.614   2.241
 9920SOL    HW130659   3.715   6.567   2.164
 9920SOL    HW230660   3.727   6.708   2.246
 9921SOL     OW30661   4.497   6.954   4.646
 9921SOL    HW130662   4.531   6.864   4.617
 9921SOL    HW230663   4.558   0.002   4.611
 9922SOL     OW30664   4.711   4.905   1.058
 9922SOL    HW130665   4.704   4.823   1.114
 9922SOL    HW230666   4.648   4.975   1.093
 9923SOL     OW30667   0.200   2.838   6.796
 9923SOL    HW130668   0.121   2.802   6.746
 9923SOL    HW230669   0.282   2.785   6.772
 9924SOL     OW30670   4.801   1.686   3.405
 9924SOL    HW130671   4.743   1.753   3.450
 9924SOL    HW230672   4.752   1.646   3.327
 9925SOL     OW30673   1.732   4.840   3.920
 9925SOL    HW130674   1.745   4.935   3.948
 9925SOL    HW230675   1.661   4.798   3.977
 9926SOL     OW30676   3.343   2.505   0.682
 9926SOL    HW130677   3.302   2.569   0.747
 9926SOL    HW230678   3.271   2.464   0.626
 9927SOL     OW30679   0.952   1.824   0.687
 9927SOL    HW130680   0.959   1.915   0.726
 9927SOL    HW230681   0.879   1.823   0.618
 9928SOL     OW30682   5.420   3.696   2.809
 9928SOL    HW130683   5.439   3.601   2.831
 9928SOL    HW230684   5.365   3.701   2.725
 9929SOL     OW30685   3.845   4.114   4.782
 9929SOL    HW130686   3.881   4.204   4.758
 9929SOL    HW230687   3.814   4.115   4.877
 9930SOL     OW30688   0.811   0.401   6.654
 9930SOL    HW130689   0.717   0.366   6.660
 9930SOL    HW230690   0.871   0.329   6.621
 9931SOL     OW30691   6.693   5.401   4.347
 9931SOL    HW130692   6.668   5.333   4.279
 9931SOL    HW230693   6.793   5.408   4.353
 9932SOL     OW30694   2.131   1.836   6.847
 9932SOL    HW130695   2.213   1.840   6.904
 9932SOL    HW230696   2.113   1.740   6.822
 9933SOL     OW30697   1.625   1.142   4.405
 9933SOL    HW130698   1.564   1.172   4.332
 9933SOL    HW230699   1.716   1.181   4.391
 9934SOL     OW30700   6.143   1.547   6.809
 9934SOL    HW130701   6.063   1.595   6.847
 9934SOL    HW230702   6.154   1.460   6.856
 9935SOL     OW30703   2.343   0.783   0.553
 9935SOL    HW130704   2.338   0.762   0.455
 9935SOL    HW230705   2.266   0.739   0.600
 9936SOL     OW30706   6.704   5.225   0.079
 9936SOL    HW130707   6.770   5.153   0.060
 9936SOL    HW230708   6.747   5.314   0.063
 9937SOL     OW30709   1.611   1.238   3.265
 9937SOL    HW130710   1.707   1.210   3.273
 9937SOL    HW230711   1.556   1.189   3.332
 9938SOL     OW30712   5.869   6.995   4.124
 9938SOL    HW130713   5.798   7.021   4.189
 9938SOL    HW230714   5.850   0.011   4.034
 9939SOL     OW30715   2.639   2.625   0.772
 9939SOL    HW130716   2.603   2.654   0.684
 9939SOL    HW230717   2.734   2.655   0.782
 9940SOL     OW30718   0.906   0.095   3.469
 9940SOL    HW130719   0.905   0.194   3.481
 9940SOL    HW230720   0.868   0.071   3.379
 9941SOL     OW30721   2.976   5.722   5.475
 9941SOL    HW130722   2.980   5.635   5.523
 9941SOL    HW230723   2.978   5.706   5.376
 9942SOL     OW30724   4.891   5.740   1.831
 9942SOL    HW130725   4.886   5.796   1.914
 9942SOL    HW230726   4.885   5.800   1.751
 9943SOL     OW30727   1.104   4.157   6.807
 9943SOL    HW130728   1.074   4.150   6.712
 9943SOL    HW230729   1.101   4.067   6.850
 9944SOL     OW30730   0.482   5.144   6.611
 9944SOL    HW130731   0.525   5.202   6.542
 9944SOL    HW230732   0.536   5.147   6.695
 9945SOL     OW30733   5.378   4.227   6.938
 9945SOL    HW130734   5.439   4.245   6.861
 9945SOL    HW230735   5.324   4.145   6.920
 9946SOL     OW30736   6.056   0.198   3.081
 9946SOL    HW130737   6.121   0.168   3.151
 9946SOL    HW230738   6.050   0.129   3.009
 9947SOL     OW30739   2.684   1.545   4.606
 9947SOL    HW130740   2.722   1.521   4.695
 9947SOL    HW230741   2.652   1.640   4.607
 9948SOL     OW30742   0.016   5.845   5.144
 9948SOL    HW130743   6.950   5.881   5.171
 9948SOL    HW230744   0.037   5.763   5.197
 9949SOL     OW30745   6.894   5.227   3.934
 9949SOL    HW130746   6.976   5.172   3.943
 9949SOL    HW230747   6.813   5.171   3.954
 9950SOL     OW30748   6.967   5.800   5.713
 9950SOL    HW130749   6.990   5.795   5.810
 9950SOL    HW230750   6.957   5.895   5.685
 9951SOL     OW30751   1.731   2.181   3.068
 9951SOL    HW130752   1.723   2.085   3.041
 9951SOL    HW230753   1.708   2.240   2.990
 9952SOL     OW30754   1.172   3.608   0.645
 9952SOL    HW130755   1.134   3.526   0.603
 9952SOL    HW230756   1.133   3.689   0.601
 9953SOL     OW30757   5.546   2.958   3.851
 9953SOL    HW130758   5.531   3.009   3.766
 9953SOL    HW230759   5.619   3.001   3.903
 9954SOL     OW30760   1.467   6.752   4.773
 9954SOL    HW130761   1.442   6.842   4.737
 9954SOL    HW230762   1.550   6.760   4.829
 9955SOL     OW30763   3.782   3.765   6.599
 9955SOL    HW130764   3.744   3.723   6.681
 9955SOL    HW230765   3.745   3.720   6.518
 9956SOL     OW30766   0.784   3.350   2.359
 9956SOL    HW130767   0.734   3.366   2.444
 9956SOL    HW230768   0.720   3.321   2.288
 9957SOL     OW30769   5.957   0.155   2.330
 9957SOL    HW130770   5.869   0.133   2.288
 9957SOL    HW230771   5.970   0.100   2.412
 9958SOL     OW30772   3.305   6.167   6.046
 9958SOL    HW130773   3.283   6.127   5.958
 9958SOL    HW230774   3.386   6.122   6.084
 9959SOL     OW30775   4.081   3.780   2.502
 9959SOL    HW130776   4.112   3.688   2.475
 9959SOL    HW230777   4.160   3.838   2.520
 9960SOL     OW30778   0.706   6.403   1.210
 9960SOL    HW130779   0.795   6.381   1.251
 9960SOL    HW230780   0.717   6.478   1.145
 9961SOL     OW30781   1.508   4.366   3.104
 9961SOL    HW130782   1.421   4.317   3.100
 9961SOL    HW230783   1.527   4.392   3.199
 9962SOL     OW30784   4.465   0.920   1.975
 9962SOL    HW130785   4.458   1.014   2.008
 9962SOL    HW230786   4.373   0.883   1.961
 9963SOL     OW30787   2.847   2.423   6.044
 9963SOL    HW130788   2.813   2.512   6.075
 9963SOL    HW230789   2.938   2.435   6.004
 9964SOL     OW30790   4.377   5.161   5.840
 9964SOL    HW130791   4.309   5.153   5.913
 9964SOL    HW230792   4.339   5.215   5.765
 9965SOL     OW30793   3.449   4.888   5.151
 9965SOL    HW130794   3.516   4.963   5.141
 9965SOL    HW230795   3.359   4.920   5.121
 9966SOL     OW30796   1.651   4.727   2.010
 9966SOL    HW130797   1.659   4.826   2.018
 9966SOL    HW230798   1.685   4.684   2.094
 9967SOL     OW30799   5.847   4.734   2.393
 9967SOL    HW130800   5.899   4.755   2.310
 9967SOL    HW230801   5.751   4.721   2.370
 9968SOL     OW30802   3.522   6.085   6.227
 9968SOL    HW130803   3.608   6.061   6.181
 9968SOL    HW230804   3.464   6.003   6.234
 9969SOL     OW30805   1.055   3.240   3.905
 9969SOL    HW130806   1.137   3.295   3.919
 9969SOL    HW230807   1.031   3.241   3.807
 9970SOL     OW30808   0.013   4.840   2.512
 9970SOL    HW130809   7.010   4.847   2.608
 9970SOL    HW230810   0.108   4.808   2.505
 9971SOL     OW30811   2.270   3.736   0.709
 9971SOL    HW130812   2.181   3.714   0.748
 9971SOL    HW230813   2.269   3.830   0.674
 9972SOL     OW30814   3.113   4.171   0.670
 9972SOL    HW130815   3.097   4.077   0.699
 9972SOL    HW230816   3.200   4.203   0.707
 9973SOL     OW30817   4.192   1.861   4.307
 9973SOL    HW130818   4.229   1.954   4.311
 9973SOL    HW230819   4.257   1.797   4.348
 9974SOL     OW30820   6.707   3.360   2.979
 9974SOL    HW130821   6.750   3.296   2.916
 9974SOL    HW230822   6.675   3.310   3.060
 9975SOL     OW30823   6.923   4.582   6.524
 9975SOL    HW130824   6.980   4.663   6.537
 9975SOL    HW230825   6.848   4.582   6.590
 9976SOL     OW30826   6.690   4.917   5.042
 9976SOL    HW130827   6.672   4.881   5.133
 9976SOL    HW230828   6.774   4.972   5.043
 9977SOL     OW30829   6.461   4.956   6.188
 9977SOL    HW130830   6.491   5.040   6.145
 9977SOL    HW230831   6.410   4.977   6.272
 9978SOL     OW30832   6.021   1.658   5.116
 9978SOL    HW130833   5.944   1.704   5.071
 9978SOL    HW230834   6.009   1.559   5.108
 9979SOL     OW30835   6.205   4.028   5.909
 9979SOL    HW130836   6.111   4.061   5.903
 9979SOL    HW230837   6.220   3.957   5.839
 9980SOL     OW30838   1.425   1.321   0.200
 9980SOL    HW130839   1.414   1.344   0.104
 9980SOL    HW230840   1.350   1.260   0.228
 9981SOL     OW30841   2.741   1.551   0.292
 9981SOL    HW130842   2.731   1.452   0.280
 9981SOL    HW230843   2.746   1.595   0.202
 9982SOL     OW30844   0.838   1.619   3.734
 9982SOL    HW130845   0.831   1.596   3.832
 9982SOL    HW230846   0.917   1.678   3.719
 9983SOL     OW30847   1.188   0.983   1.664
 9983SOL    HW130848   1.178   0.885   1.644
 9983SOL    HW230849   1.285   1.007   1.661
 9984SOL     OW30850   0.693   0.223   0.188
 9984SOL    HW130851   0.619   0.217   0.255
 9984SOL    HW230852   0.663   0.180   0.103
 9985SOL     OW30853   3.902   0.011   1.294
 9985SOL    HW130854   3.856   6.969   1.233
 9985SOL    HW230855   3.935   0.088   1.240
 9986SOL     OW30856   5.080   4.201   0.063
 9986SOL    HW130857   5.139   4.212   0.143
 9986SOL    HW230858   5.135   4.175   7.007
 9987SOL     OW30859   5.814   1.788   2.119
 9987SOL    HW130860   5.791   1.880   2.149
 9987SOL    HW230861   5.730   1.735   2.105
 9988SOL     OW30862   0.193   4.858   4.386
 9988SOL    HW130863   0.265   4.918   4.421
 9988SOL    HW230864   0.217   4.763   4.407
 9989SOL     OW30865   5.222   3.458   3.644
 9989SOL    HW130866   5.182   3.548   3.660
 9989SOL    HW230867   5.248   3.449   3.547
 9990SOL     OW30868   2.549   0.386   3.510
 9990SOL    HW130869   2.622   0.332   3.553
 9990SOL    HW230870   2.589   0.446   3.441
 9991SOL     OW30871   1.265   3.161   4.857
 9991SOL    HW130872   1.270   3.206   4.946
 9991SOL    HW230873   1.172   3.169   4.821
 9992SOL     OW30874   3.735   3.485   0.903
 9992SOL    HW130875   3.685   3.418   0.958
 9992SOL    HW230876   3.686   3.572   0.905
 9993SOL     OW30877   3.927   6.270   3.095
 9993SOL    HW130878   3.865   6.316   3.032
 9993SOL    HW230879   3.914   6.306   3.187
 9994SOL     OW30880   0.225   4.078   3.389
 9994SOL    HW130881   0.275   4.164   3.405
 9994SOL    HW230882   0.142   4.077   3.446
 9995SOL     OW30883   2.955   0.237   3.152
 9995SOL    HW130884   2.986   0.329   3.127
 9995SOL    HW230885   2.995   0.170   3.090
 9996SOL     OW30886   3.035   2.585   1.243
 9996SOL    HW130887   2.976   2.665   1.248
 9996SOL    HW230888   3.015   2.525   1.321
 9997SOL     OW30889   4.776   1.035   0.896
 9997SOL    HW130890   4.842   1.079   0.834
 9997SOL    HW230891   4.698   1.002   0.843
 9998SOL     OW30892   5.393   3.817   3.045
 9998SOL    HW130893   5.299   3.849   3.051
 9998SOL    HW230894   5.406   3.765   2.960
 9999SOL     OW30895   6.810   5.848   5.337
 9999SOL    HW130896   6.771   5.914   5.272
 9999SOL    HW230897   6.779   5.870   5.429
10000SOL     OW30898   6.010   2.025   6.706
10000SOL    HW130899   6.024   1.976   6.619
10000SOL    HW230900   6.097   2.031   6.754
10001SOL     OW30901   4.444   0.414   1.526
10001SOL    HW130902   4.435   0.477   1.604
10001SOL    HW230903   4.448   0.320   1.560
10002SOL     OW30904   1.401   1.338   2.063
10002SOL    HW130905   1.414   1.239   2.062
10002SOL    HW230906   1.436   1.378   1.978
10003SOL     OW30907   3.321   2.077   2.880
10003SOL    HW130908   3.410   2.123   2.881
10003SOL    HW230909   3.249   2.146   2.886
10004SOL     OW30910   5.117   2.856   4.729
10004SOL    HW130911   5.212   2.848   4.759
10004SOL    HW230912   5.093   2.778   4.671
10005SOL     OW30913   4.128   5.381   3.189
10005SOL    HW130914   4.193   5.341   3.125
10005SOL    HW230915   4.137   5.481   3.187
10006SOL     OW30916   5.366   1.750   5.147
10006SOL    HW130917   5.295   1.820   5.155
10006SOL    HW230918   5.347   1.676   5.212
10007SOL     OW30919   0.614   3.721   4.556
10007SOL    HW130920   0.535   3.676   4.514
10007SOL    HW230921   0.582   3.795   4.616
10008SOL     OW30922   3.999   1.019   2.807
10008SOL    HW130923   4.031   0.999   2.900
10008SOL    HW230924   3.900   1.030   2.807
10009SOL     OW30925   1.743   4.042   1.841
10009SOL    HW130926   1.731   4.054   1.940
10009SOL    HW230927   1.834   4.073   1.814
10010SOL     OW30928   2.127   6.364   0.544
10010SOL    HW130929   2.082   6.293   0.490
10010SOL    HW230930   2.182   6.323   0.616
10011SOL     OW30931   0.438   3.392   6.296
10011SOL    HW130932   0.495   3.387   6.214
10011SOL    HW230933   0.371   3.466   6.286
10012SOL     OW30934   4.941   6.769   2.570
10012SOL    HW130935   4.932   6.866   2.546
10012SOL    HW230936   4.960   6.715   2.488
10013SOL     OW30937   1.948   1.798   4.675
10013SOL    HW130938   1.990   1.859   4.742
10013SOL    HW230939   1.856   1.773   4.706
10014SOL     OW30940   0.027   1.818   1.613
10014SOL    HW130941   6.979   1.886   1.627
10014SOL    HW230942   0.115   1.854   1.644
10015SOL     OW30943   4.036   4.688   0.477
10015SOL    HW130944   4.044   4.603   0.426
10015SOL    HW230945   4.009   4.762   0.415
10016SOL     OW30946   2.088   0.383   4.963
10016SOL    HW130947   2.019   0.328   5.010
10016SOL    HW230948   2.163   0.324   4.933
10017SOL     OW30949   2.135   1.421   2.495
10017SOL    HW130950   2.037   1.405   2.490
10017SOL    HW230951   2.176   1.358   2.561
10018SOL     OW30952   6.608   4.847   5.970
10018SOL    HW130953   6.568   4.893   6.049
10018SOL    HW230954   6.624   4.913   5.897
10019SOL     OW30955   0.583   1.790   3.080
10019SOL    HW130956   0.667   1.783   3.027
10019SOL    HW230957   0.559   1.886   3.092
10020SOL     OW30958   0.593   1.102   1.196
10020SOL    HW130959   0.600   1.118   1.098
10020SOL    HW230960   0.554   1.182   1.241
10021SOL     OW30961   1.271   2.230   2.657
10021SOL    HW130962   1.208   2.229   2.579
10021SOL    HW230963   1.322   2.315   2.657
10022SOL     OW30964   3.886   0.044   0.786
10022SOL    HW130965   3.932   6.992   0.833
10022SOL    HW230966   3.954   0.101   0.740
10023SOL     OW30967   2.207   4.881   5.567
10023SOL    HW130968   2.169   4.817   5.634
10023SOL    HW230969   2.237   4.830   5.486
10024SOL     OW30970   1.980   6.559   1.994
10024SOL    HW130971   1.913   6.633   1.999
10024SOL    HW230972   2.067   6.589   2.032
10025SOL     OW30973   2.083   2.181   1.394
10025SOL    HW130974   2.005   2.149   1.339
10025SOL    HW230975   2.099   2.278   1.375
10026SOL     OW30976   3.626   6.269   3.273
10026SOL    HW130977   3.614   6.221   3.186
10026SOL    HW230978   3.565   6.348   3.276
10027SOL     OW30979   1.299   4.288   5.080
10027SOL    HW130980   1.216   4.330   5.043
10027SOL    HW230981   1.336   4.224   5.013
10028SOL     OW30982   1.346   1.634   2.307
10028SOL    HW130983   1.358   1.595   2.216
10028SOL    HW230984   1.297   1.569   2.365
10029SOL     OW30985   2.394   1.815   4.334
10029SOL    HW130986   2.326   1.770   4.392
10029SOL    HW230987   2.481   1.766   4.341
10030SOL     OW30988   2.270   0.346   4.445
10030SOL    HW130989   2.195   0.283   4.468
10030SOL    HW230990   2.254   0.434   4.490
10031SOL     OW30991   6.009   4.870   3.691
10031SOL    HW130992   6.007   4.965   3.721
10031SOL    HW230993   5.950   4.815   3.751
10032SOL     OW30994   3.966   0.422   5.514
10032SOL    HW130995   3.880   0.398   5.471
10032SOL    HW230996   4.005   0.502   5.469
10033SOL     OW30997   4.598   1.610   4.020
10033SOL    HW130998   4.684   1.565   3.995
10033SOL    HW230999   4.525   1.542   4.024
10034SOL     OW31000   3.765   0.067   4.035
10034SOL    HW131001   3.782   6.992   4.043
10034SOL    HW231002   3.787   0.097   3.943
10035SOL     OW31003   0.189   4.808   2.830
10035SOL    HW131004   0.277   4.855   2.825
10035SOL    HW231005   0.115   4.875   2.834
10036SOL     OW31006   5.815   1.018   1.405
10036SOL    HW131007   5.733   1.054   1.450
10036SOL    HW231008   5.894   1.075   1.428
10037SOL     OW31009   5.750   1.606   1.113
10037SOL    HW131010   5.676   1.546   1.143
10037SOL    HW231011   5.784   1.659   1.190
10038SOL     OW31012   4.333   1.373   6.496
10038SOL    HW131013   4.261   1.442   6.501
10038SOL    HW231014   4.373   1.372   6.404
10039SOL     OW31015   3.986   0.331   5.100
10039SOL    HW131016   4.069   0.369   5.140
10039SOL    HW231017   3.917   0.403   5.091
10040SOL     OW31018   4.137   5.926   6.231
10040SOL    HW131019   4.235   5.933   6.245
10040SOL    HW231020   4.097   5.870   6.304
10041SOL     OW31021   4.378   5.863   6.698
10041SOL    HW131022   4.402   5.826   6.608
10041SOL    HW231023   4.459   5.863   6.756
10042SOL     OW31024   0.968   2.042   4.753
10042SOL    HW131025   0.886   2.091   4.721
10042SOL    HW231026   1.047   2.102   4.745
10043SOL     OW31027   0.345   2.356   4.481
10043SOL    HW131028   0.255   2.398   4.493
10043SOL    HW231029   0.356   2.281   4.546
10044SOL     OW31030   2.830   1.212   4.909
10044SOL    HW131031   2.733   1.212   4.885
10044SOL    HW231032   2.839   1.219   5.008
10045SOL     OW31033   5.014   6.797   3.551
10045SOL    HW131034   5.043   6.799   3.455
10045SOL    HW231035   4.926   6.844   3.561
10046SOL     OW31036   1.756   3.729   1.298
10046SOL    HW131037   1.661   3.733   1.270
10046SOL    HW231038   1.767   3.659   1.369
10047SOL     OW31039   6.580   3.728   5.232
10047SOL    HW131040   6.541   3.650   5.183
10047SOL    HW231041   6.596   3.702   5.328
10048SOL     OW31042   6.190   1.090   3.311
10048SOL    HW131043   6.183   1.076   3.212
10048SOL    HW231044   6.286   1.099   3.337
10049SOL     OW31045   0.016   0.717   6.896
10049SOL    HW131046   0.107   0.679   6.913
10049SOL    HW231047   6.993   0.734   6.982
10050SOL     OW31048   5.554   3.502   5.129
10050SOL    HW131049   5.644   3.467   5.102
10050SOL    HW231050   5.504   3.431   5.178
10051SOL     OW31051   4.998   2.891   5.193
10051SOL    HW131052   5.029   2.943   5.114
10051SOL    HW231053   4.898   2.881   5.189
10052SOL     OW31054   2.015   1.584   2.765
10052SOL    HW131055   2.047   1.652   2.699
10052SOL    HW231056   1.970   1.631   2.841
10053SOL     OW31057   3.338   5.673   2.632
10053SOL    HW131058   3.354   5.616   2.712
10053SOL    HW231059   3.312   5.615   2.554
10054SOL     OW31060   5.281   5.971   6.342
10054SOL    HW131061   5.270   5.873   6.356
10054SOL    HW231062   5.349   6.007   6.406
10055SOL     OW31063   5.562   2.087   4.661
10055SOL    HW131064   5.601   2.119   4.575
10055SOL    HW231065   5.462   2.087   4.654
10056SOL     OW31066   5.428   4.288   3.438
10056SOL    HW131067   5.388   4.198   3.422
10056SOL    HW231068   5.354   4.356   3.447
10057SOL     OW31069   4.214   1.800   5.013
10057SOL    HW131070   4.226   1.719   5.071
10057SOL    HW231071   4.292   1.861   5.024
10058SOL     OW31072   0.048   3.734   4.498
10058SOL    HW131073   0.074   3.820   4.454
10058SOL    HW231074   0.010   3.671   4.430
10059SOL     OW31075   6.312   0.386   1.858
10059SOL    HW131076   6.361   0.426   1.781
10059SOL    HW231077   6.358   0.412   1.943
10060SOL     OW31078   1.509   2.333   1.853
10060SOL    HW131079   1.459   2.246   1.859
10060SOL    HW231080   1.456   2.398   1.799
10061SOL     OW31081   4.626   1.027   3.763
10061SOL    HW131082   4.700   0.961   3.747
10061SOL    HW231083   4.604   1.074   3.678
10062SOL     OW31084   6.149   0.297   4.698
10062SOL    HW131085   6.145   0.370   4.629
10062SOL    HW231086   6.174   0.211   4.654
10063SOL     OW31087   2.659   1.128   4.147
10063SOL    HW131088   2.688   1.034   4.133
10063SOL    HW231089   2.655   1.175   4.059
10064SOL     OW31090   5.059   0.003   6.979
10064SOL    HW131091   5.099   0.010   6.887
10064SOL    HW231092   4.960   0.004   6.972
10065SOL     OW31093   2.873   0.797   2.273
10065SOL    HW131094   2.877   0.854   2.355
10065SOL    HW231095   2.868   0.701   2.300
10066SOL     OW31096   0.531   2.560   4.059
10066SOL    HW131097   0.455   2.600   4.110
10066SOL    HW231098   0.527   2.460   4.067
10067SOL     OW31099   6.853   3.816   5.129
10067SOL    HW131100   6.758   3.812   5.099
10067SOL    HW231101   6.880   3.728   5.168
10068SOL     OW31102   6.892   3.250   3.314
10068SOL    HW131103   6.988   3.225   3.327
10068SOL    HW231104   6.834   3.189   3.369
10069SOL     OW31105   2.446   4.868   2.109
10069SOL    HW131106   2.456   4.881   2.010
10069SOL    HW231107   2.351   4.844   2.130
10070SOL     OW31108   6.797   6.339   4.926
10070SOL    HW131109   6.806   6.245   4.893
10070SOL    HW231110   6.784   6.401   4.848
10071SOL     OW31111   6.298   6.066   4.711
10071SOL    HW131112   6.306   5.988   4.773
10071SOL    HW231113   6.270   6.147   4.763
10072SOL     OW31114   6.899   6.958   4.066
10072SOL    HW131115   6.922   6.870   4.025
10072SOL    HW231116   6.844   6.943   4.149
10073SOL     OW31117   6.049   4.749   5.183
10073SOL    HW131118   6.008   4.753   5.092
10073SOL    HW231119   6.145   4.778   5.177
10074SOL     OW31120   2.298   0.688   5.642
10074SOL    HW131121   2.240   0.690   5.561
10074SOL    HW231122   2.300   0.779   5.684
10075SOL     OW31123   2.057   2.627   2.774
10075SOL    HW131124   2.128   2.557   2.759
10075SOL    HW231125   1.987   2.590   2.835
10076SOL     OW31126   6.207   6.875   4.414
10076SOL    HW131127   6.201   6.865   4.315
10076SOL    HW231128   6.122   6.844   4.457
10077SOL     OW31129   4.193   2.655   6.572
10077SOL    HW131130   4.235   2.735   6.530
10077SOL    HW231131   4.245   2.573   6.548
10078SOL     OW31132   0.439   5.449   3.726
10078SOL    HW131133   0.520   5.459   3.668
10078SOL    HW231134   0.358   5.438   3.668
10079SOL     OW31135   5.405   3.191   3.647
10079SOL    HW131136   5.351   3.260   3.600
10079SOL    HW231137   5.424   3.221   3.741
10080SOL     OW31138   4.508   0.917   5.668
10080SOL    HW131139   4.486   0.842   5.607
10080SOL    HW231140   4.598   0.955   5.644
10081SOL     OW31141   6.969   1.103   0.640
10081SOL    HW131142   6.944   1.090   0.544
10081SOL    HW231143   6.888   1.134   0.691
10082SOL     OW31144   0.380   5.382   1.573
10082SOL    HW131145   0.286   5.397   1.602
10082SOL    HW231146   0.443   5.410   1.646
10083SOL     OW31147   3.725   0.410   3.289
10083SOL    HW131148   3.718   0.507   3.265
10083SOL    HW231149   3.667   0.356   3.228
10084SOL     OW31150   2.178   1.003   5.999
10084SOL    HW131151   2.210   0.984   6.092
10084SOL    HW231152   2.250   1.047   5.947
10085SOL     OW31153   2.316   5.567   0.770
10085SOL    HW131154   2.329   5.492   0.834
10085SOL    HW231155   2.403   5.611   0.751
10086SOL     OW31156   4.733   5.831   2.287
10086SOL    HW131157   4.824   5.804   2.257
10086SOL    HW231158   4.691   5.891   2.218
10087SOL     OW31159   6.924   6.544   4.286
10087SOL    HW131160   6.912   6.467   4.348
10087SOL    HW231161   6.999   6.602   4.319
10088SOL     OW31162   6.413   0.353   2.640
10088SOL    HW131163   6.504   0.356   2.682
10088SOL    HW231164   6.344   0.372   2.709
10089SOL     OW31165   2.839   1.723   2.915
10089SOL    HW131166   2.854   1.642   2.858
10089SOL    HW231167   2.920   1.740   2.971
10090SOL     OW31168   0.621   5.276   1.740
10090SOL    HW131169   0.685   5.347   1.710
10090SOL    HW231170   0.638   5.253   1.836
10091SOL     OW31171   6.882   4.895   6.610
10091SOL    HW131172   6.793   4.856   6.632
10091SOL    HW231173   6.915   4.949   6.688
10092SOL     OW31174   2.136   2.691   5.929
10092SOL    HW131175   2.195   2.741   5.991
10092SOL    HW231176   2.191   2.650   5.856
10093SOL     OW31177   5.524   3.230   5.827
10093SOL    HW131178   5.497   3.167   5.754
10093SOL    HW231179   5.449   3.240   5.892
10094SOL     OW31180   3.651   5.501   1.128
10094SOL    HW131181   3.713   5.466   1.198
10094SOL    HW231182   3.561   5.459   1.138
10095SOL     OW31183   5.772   2.059   4.836
10095SOL    HW131184   5.701   2.079   4.768
10095SOL    HW231185   5.862   2.074   4.794
10096SOL     OW31186   4.275   5.373   2.920
10096SOL    HW131187   4.222   5.311   2.861
10096SOL    HW231188   4.371   5.371   2.892
10097SOL     OW31189   0.942   1.895   0.113
10097SOL    HW131190   1.004   1.911   0.189
10097SOL    HW231191   0.849   1.881   0.147
10098SOL     OW31192   3.143   0.556   5.106
10098SOL    HW131193   3.140   0.476   5.166
10098SOL    HW231194   3.161   0.528   5.012
10099SOL     OW31195   0.334   4.851   1.283
10099SOL    HW131196   0.366   4.900   1.364
10099SOL    HW231197   0.355   4.753   1.293
10100SOL     OW31198   4.468   6.302   5.302
10100SOL    HW131199   4.537   6.258   5.245
10100SOL    HW231200   4.445   6.241   5.378
10101SOL     OW31201   6.302   3.658   1.796
10101SOL    HW131202   6.355   3.712   1.861
10101SOL    HW231203   6.204   3.674   1.812
10102SOL     OW31204   6.800   1.107   1.901
10102SOL    HW131205   6.784   1.034   1.834
10102SOL    HW231206   6.898   1.120   1.913
10103SOL     OW31207   3.820   0.642   5.814
10103SOL    HW131208   3.830   0.702   5.735
10103SOL    HW231209   3.746   0.674   5.872
10104SOL     OW31210   1.667   1.671   4.708
10104SOL    HW131211   1.581   1.619   4.708
10104SOL    HW231212   1.650   1.764   4.741
10105SOL     OW31213   1.444   0.862   6.851
10105SOL    HW131214   1.512   0.800   6.890
10105SOL    HW231215   1.387   0.813   6.785
10106SOL     OW31216   4.145   6.317   0.436
10106SOL    HW131217   4.180   6.322   0.343
10106SOL    HW231218   4.065   6.376   0.445
10107SOL     OW31219   5.728   1.621   5.605
10107SOL    HW131220   5.805   1.684   5.616
10107SOL    HW231221   5.646   1.661   5.646
10108SOL     OW31222   6.929   1.023   0.363
10108SOL    HW131223   6.864   1.099   0.363
10108SOL    HW231224   6.904   0.958   0.291
10109SOL     OW31225   5.829   1.032   0.437
10109SOL    HW131226   5.797   1.018   0.530
10109SOL    HW231227   5.766   0.987   0.373
10110SOL     OW31228   4.971   4.931   4.584
10110SOL    HW131229   4.976   4.831   4.586
10110SOL    HW231230   4.879   4.959   4.555
10111SOL     OW31231   5.656   3.516   3.840
10111SOL    HW131232   5.576   3.570   3.869
10111SOL    HW231233   5.733   3.535   3.901
10112SOL     OW31234   5.740   3.779   3.642
10112SOL    HW131235   5.646   3.782   3.676
10112SOL    HW231236   5.774   3.872   3.627
10113SOL     OW31237   4.240   6.900   6.790
10113SOL    HW131238   4.301   6.859   6.723
10113SOL    HW231239   4.148   6.862   6.779
10114SOL     OW31240   4.300   2.032   1.503
10114SOL    HW131241   4.274   2.078   1.418
10114SOL    HW231242   4.341   1.943   1.482
10115SOL     OW31243   4.038   0.661   5.360
10115SOL    HW131244   4.056   0.643   5.263
10115SOL    HW231245   4.044   0.759   5.377
10116SOL     OW31246   0.352   6.839   0.198
10116SOL    HW131247   0.354   6.830   0.098
10116SOL    HW231248   0.423   6.904   0.226
10117SOL     OW31249   6.705   6.430   6.257
10117SOL    HW131250   6.659   6.504   6.305
10117SOL    HW231251   6.754   6.467   6.178
10118SOL     OW31252   2.184   3.968   2.928
10118SOL    HW131253   2.212   4.038   2.994
10118SOL    HW231254   2.188   3.878   2.971
10119SOL     OW31255   6.916   5.622   4.749
10119SOL    HW131256   6.951   5.633   4.656
10119SOL    HW231257   6.976   5.671   4.813
10120SOL     OW31258   1.952   3.246   4.518
10120SOL    HW131259   1.940   3.336   4.560
10120SOL    HW231260   1.994   3.256   4.427
10121SOL     OW31261   5.810   4.092   6.616
10121SOL    HW131262   5.861   4.029   6.558
10121SOL    HW231263   5.816   4.063   6.711
10122SOL     OW31264   5.694   3.057   2.675
10122SOL    HW131265   5.619   3.079   2.613
10122SOL    HW231266   5.666   2.981   2.734
10123SOL     OW31267   5.756   5.619   1.146
10123SOL    HW131268   5.762   5.671   1.232
10123SOL    HW231269   5.761   5.683   1.069
10124SOL     OW31270   1.083   5.074   0.731
10124SOL    HW131271   0.986   5.060   0.714
10124SOL    HW231272   1.131   5.088   0.644
10125SOL     OW31273   1.698   1.507   2.102
10125SOL    HW131274   1.695   1.421   2.153
10125SOL    HW231275   1.635   1.503   2.025
10126SOL     OW31276   6.718   0.442   0.406
10126SOL    HW131277   6.638   0.421   0.463
10126SOL    HW231278   6.739   0.364   0.348
10127SOL     OW31279   2.644   4.117   0.011
10127SOL    HW131280   2.622   4.209   7.002
10127SOL    HW231281   2.653   4.055   6.956
10128SOL     OW31282   3.019   1.223   6.630
10128SOL    HW131283   3.073   1.156   6.579
10128SOL    HW231284   2.958   1.271   6.568
10129SOL     OW31285   6.465   1.281   3.127
10129SOL    HW131286   6.491   1.188   3.151
10129SOL    HW231287   6.544   1.342   3.134
10130SOL     OW31288   1.229   2.279   1.051
10130SOL    HW131289   1.305   2.334   1.085
10130SOL    HW231290   1.231   2.189   1.095
10131SOL     OW31291   1.761   6.833   4.156
10131SOL    HW131292   1.813   6.833   4.070
10131SOL    HW231293   1.814   6.785   4.226
10132SOL     OW31294   2.969   0.218   3.871
10132SOL    HW131295   2.967   0.174   3.781
10132SOL    HW231296   3.043   0.285   3.874
10133SOL     OW31297   4.500   6.532   0.338
10133SOL    HW131298   4.444   6.588   0.400
10133SOL    HW231299   4.589   6.515   0.380
10134SOL     OW31300   6.316   0.639   2.550
10134SOL    HW131301   6.231   0.660   2.599
10134SOL    HW231302   6.342   0.544   2.568
10135SOL     OW31303   4.895   3.538   3.770
10135SOL    HW131304   4.901   3.638   3.765
10135SOL    HW231305   4.913   3.508   3.864
10136SOL     OW31306   4.717   1.853   2.399
10136SOL    HW131307   4.712   1.778   2.334
10136SOL    HW231308   4.734   1.939   2.350
10137SOL     OW31309   0.147   3.887   4.287
10137SOL    HW131310   0.132   3.796   4.249
10137SOL    HW231311   0.245   3.899   4.307
10138SOL     OW31312   5.751   3.618   0.398
10138SOL    HW131313   5.711   3.693   0.346
10138SOL    HW231314   5.806   3.561   0.336
10139SOL     OW31315   2.910   3.279   3.447
10139SOL    HW131316   2.888   3.232   3.532
10139SOL    HW231317   2.885   3.376   3.456
10140SOL     OW31318   0.134   6.564   6.627
10140SOL    HW131319   0.066   6.588   6.697
10140SOL    HW231320   0.160   6.646   6.576
10141SOL     OW31321   4.520   1.130   5.847
10141SOL    HW131322   4.511   1.041   5.803
10141SOL    HW231323   4.486   1.201   5.785
10142SOL     OW31324   6.141   6.364   5.936
10142SOL    HW131325   6.041   6.357   5.942
10142SOL    HW231326   6.168   6.386   5.842
10143SOL     OW31327   5.652   1.868   0.398
10143SOL    HW131328   5.609   1.856   0.308
10143SOL    HW231329   5.713   1.947   0.395
10144SOL     OW31330   3.907   0.069   6.570
10144SOL    HW131331   3.828   0.111   6.525
10144SOL    HW231332   3.878   7.011   6.619
10145SOL     OW31333   3.070   5.422   3.120
10145SOL    HW131334   3.114   5.481   3.188
10145SOL    HW231335   2.983   5.389   3.155
10146SOL     OW31336   5.083   4.327   4.809
10146SOL    HW131337   5.041   4.310   4.899
10146SOL    HW231338   5.039   4.405   4.766
10147SOL     OW31339   5.169   4.188   6.302
10147SOL    HW131340   5.093   4.250   6.323
10147SOL    HW231341   5.143   4.095   6.328
10148SOL     OW31342   5.025   5.076   6.839
10148SOL    HW131343   5.100   5.025   6.880
10148SOL    HW231344   4.940   5.025   6.850
10149SOL     OW31345   5.468   3.801   1.665
10149SOL    HW131346   5.435   3.710   1.692
10149SOL    HW231347   5.437   3.821   1.572
10150SOL     OW31348   3.790   3.013   1.285
10150SOL    HW131349   3.797   3.113   1.277
10150SOL    HW231350   3.832   2.984   1.371
10151SOL     OW31351   0.924   5.971   0.006
10151SOL    HW131352   0.936   5.878   0.041
10151SOL    HW231353   0.827   5.987   7.008
10152SOL     OW31354   6.588   6.511   3.671
10152SOL    HW131355   6.644   6.576   3.620
10152SOL    HW231356   6.501   6.497   3.623
10153SOL     OW31357   4.226   5.944   3.246
10153SOL    HW131358   4.300   5.913   3.305
10153SOL    HW231359   4.212   6.042   3.259
10154SOL     OW31360   3.708   6.163   4.776
10154SOL    HW131361   3.682   6.176   4.681
10154SOL    HW231362   3.628   6.137   4.830
10155SOL     OW31363   4.540   2.324   6.642
10155SOL    HW131364   4.578   2.415   6.631
10155SOL    HW231365   4.555   2.292   6.736
10156SOL     OW31366   5.108   0.809   2.173
10156SOL    HW131367   5.178   0.738   2.183
10156SOL    HW231368   5.018   0.766   2.160
10157SOL     OW31369   0.092   1.841   0.218
10157SOL    HW131370   0.147   1.763   0.190
10157SOL    HW231371   0.120   1.871   0.309
10158SOL     OW31372   6.626   5.943   0.822
10158SOL    HW131373   6.693   5.892   0.767
10158SOL    HW231374   6.579   6.010   0.763
10159SOL     OW31375   3.014   2.409   1.451
10159SOL    HW131376   2.989   2.387   1.545
10159SOL    HW231377   3.067   2.334   1.412
10160SOL     OW31378   1.448   2.912   2.665
10160SOL    HW131379   1.502   2.994   2.685
10160SOL    HW231380   1.490   2.833   2.708
10161SOL     OW31381   3.690   3.731   0.381
10161SOL    HW131382   3.612   3.720   0.318
10161SOL    HW231383   3.661   3.705   0.473
10162SOL     OW31384   3.575   4.794   0.504
10162SOL    HW131385   3.594   4.891   0.516
10162SOL    HW231386   3.655   4.740   0.529
10163SOL     OW31387   6.986   3.663   0.345
10163SOL    HW131388   0.014   3.631   0.264
10163SOL    HW231389   6.978   3.589   0.410
10164SOL     OW31390   6.296   3.628   4.921
10164SOL    HW131391   6.313   3.720   4.957
10164SOL    HW231392   6.224   3.633   4.850
10165SOL     OW31393   6.750   1.562   3.458
10165SOL    HW131394   6.656   1.594   3.446
10165SOL    HW231395   6.814   1.635   3.436
10166SOL     OW31396   2.735   1.691   1.645
10166SOL    HW131397   2.820   1.736   1.620
10166SOL    HW231398   2.752   1.622   1.715
10167SOL     OW31399   0.906   5.352   0.337
10167SOL    HW131400   0.821   5.312   0.371
10167SOL    HW231401   0.912   5.338   0.238
10168SOL     OW31402   6.465   2.637   6.606
10168SOL    HW131403   6.456   2.548   6.651
10168SOL    HW231404   6.377   2.663   6.567
10169SOL     OW31405   0.583   4.231   3.300
10169SOL    HW131406   0.564   4.230   3.398
10169SOL    HW231407   0.527   4.300   3.255
10170SOL     OW31408   6.746   5.566   6.316
10170SOL    HW131409   6.829   5.512   6.302
10170SOL    HW231410   6.684   5.518   6.377
10171SOL     OW31411   1.212   2.754   5.074
10171SOL    HW131412   1.237   2.753   4.977
10171SOL    HW231413   1.169   2.667   5.098
10172SOL     OW31414   1.043   5.761   4.624
10172SOL    HW131415   1.064   5.761   4.526
10172SOL    HW231416   1.046   5.667   4.658
10173SOL     OW31417   1.562   2.021   0.649
10173SOL    HW131418   1.625   2.021   0.727
10173SOL    HW231419   1.550   1.928   0.616
10174SOL     OW31420   5.596   4.944   2.985
10174SOL    HW131421   5.622   5.012   2.917
10174SOL    HW231422   5.555   4.989   3.065
10175SOL     OW31423   5.073   2.940   2.908
10175SOL    HW131424   5.110   2.922   2.999
10175SOL    HW231425   5.008   3.016   2.913
10176SOL     OW31426   0.127   2.987   5.007
10176SOL    HW131427   0.060   2.937   5.062
10176SOL    HW231428   0.203   2.926   4.984
10177SOL     OW31429   1.959   0.809   1.085
10177SOL    HW131430   1.941   0.741   1.156
10177SOL    HW231431   1.873   0.831   1.037
10178SOL     OW31432   6.783   0.822   0.215
10178SOL    HW131433   6.863   0.778   0.174
10178SOL    HW231434   6.706   0.758   0.214
10179SOL     OW31435   0.498   2.347   6.507
10179SOL    HW131436   0.503   2.443   6.478
10179SOL    HW231437   0.591   2.314   6.527
10180SOL     OW31438   4.116   0.667   6.537
10180SOL    HW131439   4.190   0.631   6.481
10180SOL    HW231440   4.029   0.654   6.489
10181SOL     OW31441   7.012   2.800   1.544
10181SOL    HW131442   0.040   2.715   1.532
10181SOL    HW231443   0.053   2.877   1.546
10182SOL     OW31444   4.518   0.691   0.787
10182SOL    HW131445   4.563   0.680   0.876
10182SOL    HW231446   4.424   0.657   0.792
10183SOL     OW31447   5.874   2.354   5.531
10183SOL    HW131448   5.836   2.373   5.441
10183SOL    HW231449   5.832   2.415   5.598
10184SOL     OW31450   4.434   1.798   6.458
10184SOL    HW131451   4.427   1.891   6.494
10184SOL    HW231452   4.402   1.734   6.527
10185SOL     OW31453   6.192   6.535   3.180
10185SOL    HW131454   6.230   6.581   3.100
10185SOL    HW231455   6.218   6.585   3.263
10186SOL     OW31456   5.238   4.228   4.338
10186SOL    HW131457   5.219   4.133   4.313
10186SOL    HW231458   5.215   4.242   4.435
10187SOL     OW31459   1.093   4.431   6.815
10187SOL    HW131460   1.090   4.331   6.811
10187SOL    HW231461   1.166   4.465   6.755
10188SOL     OW31462   3.697   4.180   6.876
10188SOL    HW131463   3.717   4.123   6.796
10188SOL    HW231464   3.769   4.170   6.944
10189SOL     OW31465   0.362   1.396   6.783
10189SOL    HW131466   0.398   1.434   6.868
10189SOL    HW231467   0.396   1.303   6.771
10190SOL     OW31468   3.751   3.315   1.299
10190SOL    HW131469   3.847   3.321   1.326
10190SOL    HW231470   3.694   3.354   1.371
10191SOL     OW31471   4.500   5.333   6.516
10191SOL    HW131472   4.471   5.239   6.497
10191SOL    HW231473   4.595   5.345   6.487
10192SOL     OW31474   4.329   0.944   5.335
10192SOL    HW131475   4.336   0.982   5.243
10192SOL    HW231476   4.399   0.873   5.347
10193SOL     OW31477   3.662   3.133   2.381
10193SOL    HW131478   3.571   3.171   2.399
10193SOL    HW231479   3.726   3.168   2.449
10194SOL     OW31480   4.862   0.451   5.078
10194SOL    HW131481   4.897   0.374   5.024
10194SOL    HW231482   4.918   0.532   5.060
10195SOL     OW31483   6.951   6.582   0.338
10195SOL    HW131484   6.934   6.485   0.318
10195SOL    HW231485   6.927   6.637   0.259
10196SOL     OW31486   3.743   2.133   4.106
10196SOL    HW131487   3.823   2.138   4.165
10196SOL    HW231488   3.773   2.128   4.010
10197SOL     OW31489   5.383   1.996   4.226
10197SOL    HW131490   5.323   1.944   4.164
10197SOL    HW231491   5.444   1.933   4.274
10198SOL     OW31492   3.577   6.523   2.036
10198SOL    HW131493   3.500   6.575   2.073
10198SOL    HW231494   3.616   6.572   1.958
10199SOL     OW31495   0.842   2.081   0.827
10199SOL    HW131496   0.742   2.079   0.836
10199SOL    HW231497   0.882   2.121   0.909
10200SOL     OW31498   4.626   3.351   5.365
10200SOL    HW131499   4.541   3.303   5.385
10200SOL    HW231500   4.611   3.418   5.293
10201SOL     OW31501   0.808   5.528   0.044
10201SOL    HW131502   0.896   5.555   0.081
10201SOL    HW231503   0.806   5.428   0.031
10202SOL     OW31504   2.690   4.554   0.159
10202SOL    HW131505   2.753   4.610   0.106
10202SOL    HW231506   2.716   4.458   0.153
10203SOL     OW31507   6.635   2.747   2.449
10203SOL    HW131508   6.729   2.781   2.443
10203SOL    HW231509   6.587   2.797   2.522
10204SOL     OW31510   3.898   5.451   6.362
10204SOL    HW131511   3.867   5.478   6.453
10204SOL    HW231512   3.983   5.398   6.370
10205SOL     OW31513   2.998   1.290   2.190
10205SOL    HW131514   3.072   1.328   2.246
10205SOL    HW231515   3.032   1.267   2.099
10206SOL     OW31516   6.650   0.185   6.834
10206SOL    HW131517   6.586   0.202   6.759
10206SOL    HW231518   6.653   0.087   6.855
10207SOL     OW31519   1.280   2.044   0.140
10207SOL    HW131520   1.263   2.123   0.199
10207SOL    HW231521   1.376   2.043   0.113
10208SOL     OW31522   6.248   5.351   3.324
10208SOL    HW131523   6.213   5.414   3.394
10208SOL    HW231524   6.334   5.386   3.288
10209SOL     OW31525   0.201   0.005   6.658
10209SOL    HW131526   0.139   7.011   6.735
10209SOL    HW231527   0.195   0.101   6.633
10210SOL     OW31528   5.281   6.153   0.762
10210SOL    HW131529   5.304   6.076   0.823
10210SOL    HW231530   5.235   6.224   0.814
10211SOL     OW31531   4.115   6.243   4.975
10211SOL    HW131532   4.198   6.200   4.941
10211SOL    HW231533   4.098   6.214   5.069
10212SOL     OW31534   0.037   6.854   5.411
10212SOL    HW131535   0.119   6.797   5.411
10212SOL    HW231536   6.996   6.819   5.480
10213SOL     OW31537   5.483   3.129   2.497
10213SOL    HW131538   5.448   3.071   2.423
10213SOL    HW231539   5.411   3.192   2.525
10214SOL     OW31540   0.720   1.689   1.689
10214SOL    HW131541   0.688   1.752   1.759
10214SOL    HW231542   0.764   1.740   1.615
10215SOL     OW31543   3.337   2.968   3.377
10215SOL    HW131544   3.258   2.984   3.318
10215SOL    HW231545   3.307   2.964   3.472
10216SOL     OW31546   0.884   1.020   1.189
10216SOL    HW131547   0.879   0.920   1.179
10216SOL    HW231548   0.791   1.058   1.191
10217SOL     OW31549   1.967   2.451   3.894
10217SOL    HW131550   1.948   2.356   3.917
10217SOL    HW231551   1.897   2.485   3.830
10218SOL     OW31552   1.506   0.662   1.849
10218SOL    HW131553   1.452   0.657   1.933
10218SOL    HW231554   1.556   0.748   1.847
10219SOL     OW31555   0.797   2.622   2.708
10219SOL    HW131556   0.745   2.612   2.793
10219SOL    HW231557   0.789   2.716   2.675
10220SOL     OW31558   3.865   1.240   1.249
10220SOL    HW131559   3.912   1.264   1.334
10220SOL    HW231560   3.775   1.284   1.247
10221SOL     OW31561   1.942   3.941   4.345
10221SOL    HW131562   2.031   3.927   4.388
10221SOL    HW231563   1.890   3.855   4.349
10222SOL     OW31564   2.361   3.636   5.462
10222SOL    HW131565   2.451   3.597   5.441
10222SOL    HW231566   2.353   3.652   5.560
10223SOL     OW31567   2.452   5.215   0.011
10223SOL    HW131568   2.416   5.305   0.034
10223SOL    HW231569   2.485   5.215   6.940
10224SOL     OW31570   6.338   2.335   5.656
10224SOL    HW131571   6.338   2.388   5.740
10224SOL    HW231572   6.267   2.265   5.660
10225SOL     OW31573   2.185   6.053   6.056
10225SOL    HW131574   2.205   6.057   5.958
10225SOL    HW231575   2.124   5.975   6.074
10226SOL     OW31576   2.241   0.556   6.388
10226SOL    HW131577   2.148   0.546   6.353
10226SOL    HW231578   2.237   0.584   6.484
10227SOL     OW31579   4.887   4.375   0.934
10227SOL    HW131580   4.935   4.289   0.951
10227SOL    HW231581   4.906   4.407   0.841
10228SOL     OW31582   1.090   5.769   1.763
10228SOL    HW131583   1.006   5.790   1.712
10228SOL    HW231584   1.070   5.699   1.832
10229SOL     OW31585   1.839   2.123   4.484
10229SOL    HW131586   1.819   2.219   4.460
10229SOL    HW231587   1.817   2.064   4.406
10230SOL     OW31588   6.348   6.686   3.001
10230SOL    HW131589   6.415   6.668   3.073
10230SOL    HW231590   6.392   6.674   2.912
10231SOL     OW31591   6.286   5.038   5.621
10231SOL    HW131592   6.334   5.124   5.638
10231SOL    HW231593   6.309   4.972   5.693
10232SOL     OW31594   2.791   1.965   4.410
10232SOL    HW131595   2.746   1.906   4.478
10232SOL    HW231596   2.888   1.975   4.433
10233SOL     OW31597   4.479   4.021   5.341
10233SOL    HW131598   4.458   4.084   5.416
10233SOL    HW231599   4.564   3.972   5.363
10234SOL     OW31600   6.154   0.494   6.930
10234SOL    HW131601   6.086   0.493   7.002
10234SOL    HW231602   6.206   0.409   6.930
10235SOL     OW31603   3.459   2.159   0.480
10235SOL    HW131604   3.529   2.157   0.551
10235SOL    HW231605   3.494   2.116   0.397
10236SOL     OW31606   1.446   1.062   1.597
10236SOL    HW131607   1.543   1.039   1.586
10236SOL    HW231608   1.433   1.160   1.584
10237SOL     OW31609   0.205   4.429   0.007
10237SOL    HW131610   0.148   4.348   7.015
10237SOL    HW231611   0.200   4.488   6.949
10238SOL     OW31612   3.785   4.076   2.415
10238SOL    HW131613   3.718   4.027   2.471
10238SOL    HW231614   3.798   4.168   2.451
10239SOL     OW31615   2.066   3.840   5.852
10239SOL    HW131616   2.124   3.769   5.892
10239SOL    HW231617   2.124   3.907   5.806
10240SOL     OW31618   2.007   4.256   2.609
10240SOL    HW131619   1.933   4.269   2.675
10240SOL    HW231620   2.085   4.213   2.655
10241SOL     OW31621   6.672   6.810   3.041
10241SOL    HW131622   6.657   6.887   3.103
10241SOL    HW231623   6.725   6.841   2.962
10242SOL     OW31624   0.110   1.334   1.594
10242SOL    HW131625   0.063   1.251   1.626
10242SOL    HW231626   0.058   1.415   1.622
10243SOL     OW31627   1.376   4.748   2.021
10243SOL    HW131628   1.471   4.720   2.027
10243SOL    HW231629   1.362   4.800   1.936
10244SOL     OW31630   1.759   4.397   0.490
10244SOL    HW131631   1.702   4.464   0.443
10244SOL    HW231632   1.788   4.433   0.578
10245SOL     OW31633   3.040   4.553   0.313
10245SOL    HW131634   3.045   4.474   0.375
10245SOL    HW231635   3.029   4.637   0.366
10246SOL     OW31636   3.221   3.566   3.145
10246SOL    HW131637   3.133   3.519   3.153
10246SOL    HW231638   3.275   3.550   3.227
10247SOL     OW31639   6.898   4.351   5.818
10247SOL    HW131640   6.852   4.432   5.855
10247SOL    HW231641   6.829   4.283   5.792
10248SOL     OW31642   1.639   0.038   3.093
10248SOL    HW131643   1.639   6.965   3.121
10248SOL    HW231644   1.576   0.051   3.016
10249SOL     OW31645   2.998   6.962   0.127
10249SOL    HW131646   3.050   6.878   0.144
10249SOL    HW231647   3.050   7.022   0.066
10250SOL     OW31648   6.563   3.480   1.874
10250SOL    HW131649   6.486   3.461   1.813
10250SOL    HW231650   6.648   3.483   1.821
10251SOL     OW31651   2.261   1.314   4.795
10251SOL    HW131652   2.322   1.350   4.866
10251SOL    HW231653   2.305   1.321   4.706
10252SOL     OW31654   4.261   4.614   7.001
10252SOL    HW131655   4.320   4.534   6.990
10252SOL    HW231656   4.301   4.691   6.953
10253SOL     OW31657   2.836   6.525   0.525
10253SOL    HW131658   2.737   6.529   0.523
10253SOL    HW231659   2.866   6.463   0.597
10254SOL     OW31660   5.004   0.799   5.259
10254SOL    HW131661   4.974   0.748   5.179
10254SOL    HW231662   5.038   0.736   5.329
10255SOL     OW31663   1.538   6.251   1.225
10255SOL    HW131664   1.616   6.306   1.254
10255SOL    HW231665   1.455   6.286   1.267
10256SOL     OW31666   5.963   1.287   2.035
10256SOL    HW131667   5.866   1.298   2.060
10256SOL    HW231668   5.985   1.349   1.960
10257SOL     OW31669   2.433   4.966   4.831
10257SOL    HW131670   2.497   4.954   4.756
10257SOL    HW231671   2.391   4.879   4.854
10258SOL     OW31672   3.324   1.025   3.965
10258SOL    HW131673   3.348   0.963   3.890
10258SOL    HW231674   3.245   0.989   4.014
10259SOL     OW31675   0.872   4.532   3.392
10259SOL    HW131676   0.877   4.438   3.357
10259SOL    HW231677   0.900   4.533   3.488
10260SOL     OW31678   0.998   1.018   3.725
10260SOL    HW131679   0.967   1.044   3.817
10260SOL    HW231680   1.097   1.006   3.725
10261SOL     OW31681   6.884   5.632   3.368
10261SOL    HW131682   6.791   5.610   3.396
10261SOL    HW231683   6.933   5.674   3.443
10262SOL     OW31684   1.873   6.815   5.304
10262SOL    HW131685   1.852   6.890   5.242
10262SOL    HW231686   1.791   6.759   5.317
10263SOL     OW31687   5.458   0.977   6.587
10263SOL    HW131688   5.462   1.037   6.667
10263SOL    HW231689   5.363   0.958   6.564
10264SOL     OW31690   5.803   1.294   6.764
10264SOL    HW131691   5.784   1.196   6.777
10264SOL    HW231692   5.716   1.343   6.757
10265SOL     OW31693   2.464   2.496   2.307
10265SOL    HW131694   2.425   2.522   2.219
10265SOL    HW231695   2.562   2.482   2.298
10266SOL     OW31696   3.452   2.918   3.764
10266SOL    HW131697   3.476   2.895   3.670
10266SOL    HW231698   3.503   2.999   3.793
10267SOL     OW31699   6.201   2.242   6.807
10267SOL    HW131700   6.153   2.281   6.729
10267SOL    HW231701   6.248   2.315   6.857
10268SOL     OW31702   5.866   5.547   2.578
10268SOL    HW131703   5.826   5.514   2.664
10268SOL    HW231704   5.856   5.477   2.508
10269SOL     OW31705   0.556   3.352   0.064
10269SOL    HW131706   0.513   3.440   0.084
10269SOL    HW231707   0.655   3.365   0.058
10270SOL     OW31708   3.247   4.889   2.887
10270SOL    HW131709   3.148   4.897   2.903
10270SOL    HW231710   3.270   4.937   2.802
10271SOL     OW31711   3.528   2.485   6.199
10271SOL    HW131712   3.614   2.440   6.174
10271SOL    HW231713   3.451   2.426   6.174
10272SOL     OW31714   0.849   0.553   4.509
10272SOL    HW131715   0.849   0.453   4.518
10272SOL    HW231716   0.812   0.593   4.593
10273SOL     OW31717   2.907   5.703   2.400
10273SOL    HW131718   2.912   5.623   2.460
10273SOL    HW231719   2.993   5.713   2.351
10274SOL     OW31720   6.954   5.475   4.352
10274SOL    HW131721   7.005   5.558   4.375
10274SOL    HW231722   6.973   5.450   4.257
10275SOL     OW31723   0.794   7.007   1.568
10275SOL    HW131724   0.704   7.013   1.523
10275SOL    HW231725   0.858   6.961   1.507
10276SOL     OW31726   5.711   5.185   5.360
10276SOL    HW131727   5.631   5.198   5.302
10276SOL    HW231728   5.775   5.122   5.316
10277SOL     OW31729   2.172   5.163   3.555
10277SOL    HW131730   2.100   5.104   3.590
10277SOL    HW231731   2.248   5.106   3.522
10278SOL     OW31732   6.852   1.580   4.714
10278SOL    HW131733   6.817   1.487   4.700
10278SOL    HW231734   6.864   1.597   4.812
10279SOL     OW31735   2.769   4.754   3.829
10279SOL    HW131736   2.725   4.840   3.856
10279SOL    HW231737   2.864   4.755   3.859
10280SOL     OW31738   0.287   3.004   0.768
10280SOL    HW131739   0.295   3.023   0.866
10280SOL    HW231740   0.367   3.040   0.720
10281SOL     OW31741   6.045   1.326   2.679
10281SOL    HW131742   6.065   1.268   2.600
10281SOL    HW231743   6.113   1.309   2.751
10282SOL     OW31744   5.437   4.661   4.851
10282SOL    HW131745   5.474   4.605   4.925
10282SOL    HW231746   5.507   4.676   4.781
10283SOL     OW31747   1.006   3.057   0.402
10283SOL    HW131748   1.066   3.064   0.322
10283SOL    HW231749   0.937   3.129   0.398
10284SOL     OW31750   4.723   3.000   5.167
10284SOL    HW131751   4.717   3.095   5.137
10284SOL    HW231752   4.655   2.984   5.238
10285SOL     OW31753   5.456   0.554   2.072
10285SOL    HW131754   5.527   0.529   2.138
10285SOL    HW231755   5.401   0.473   2.051
10286SOL     OW31756   2.740   2.009   3.707
10286SOL    HW131757   2.687   2.088   3.735
10286SOL    HW231758   2.793   1.975   3.784
10287SOL     OW31759   2.265   6.439   1.075
10287SOL    HW131760   2.221   6.389   1.150
10287SOL    HW231761   2.362   6.451   1.096
10288SOL     OW31762   4.647   6.683   3.533
10288SOL    HW131763   4.676   6.689   3.628
10288SOL    HW231764   4.586   6.605   3.522
10289SOL     OW31765   1.526   6.683   1.332
10289SOL    HW131766   1.565   6.708   1.243
10289SOL    HW231767   1.426   6.676   1.324
10290SOL     OW31768   3.277   3.834   2.279
10290SOL    HW131769   3.202   3.776   2.247
10290SOL    HW231770   3.356   3.822   2.218
10291SOL     OW31771   3.728   1.261   2.840
10291SOL    HW131772   3.645   1.317   2.842
10291SOL    HW231773   3.799   1.309   2.789
10292SOL     OW31774   1.359   0.658   5.227
10292SOL    HW131775   1.294   0.617   5.291
10292SOL    HW231776   1.310   0.691   5.146
10293SOL     OW31777   1.868   4.454   3.457
10293SOL    HW131778   1.880   4.374   3.516
10293SOL    HW231779   1.943   4.457   3.390
10294SOL     OW31780   5.827   3.227   2.876
10294SOL    HW131781   5.774   3.189   2.799
10294SOL    HW231782   5.849   3.153   2.940
10295SOL     OW31783   6.213   5.046   6.072
10295SOL    HW131784   6.297   4.994   6.084
10295SOL    HW231785   6.149   5.024   6.145
10296SOL     OW31786   4.903   2.105   0.743
10296SOL    HW131787   4.990   2.057   0.736
10296SOL    HW231788   4.833   2.042   0.778
10297SOL     OW31789   2.255   6.955   6.876
10297SOL    HW131790   2.332   6.893   6.891
10297SOL    HW231791   2.251   6.980   6.779
10298SOL     OW31792   3.008   4.443   1.215
10298SOL    HW131793   2.947   4.383   1.164
10298SOL    HW231794   3.084   4.390   1.252
10299SOL     OW31795   4.762   5.312   3.057
10299SOL    HW131796   4.802   5.222   3.041
10299SOL    HW231797   4.682   5.323   2.998
10300SOL     OW31798   0.999   3.623   3.643
10300SOL    HW131799   0.936   3.550   3.671
10300SOL    HW231800   1.035   3.604   3.552
10301SOL     OW31801   5.479   2.656   4.580
10301SOL    HW131802   5.435   2.658   4.490
10301SOL    HW231803   5.533   2.739   4.592
10302SOL     OW31804   2.139   6.599   4.251
10302SOL    HW131805   2.195   6.583   4.170
10302SOL    HW231806   2.171   6.542   4.327
10303SOL     OW31807   1.901   6.306   2.572
10303SOL    HW131808   1.918   6.404   2.583
10303SOL    HW231809   1.834   6.292   2.499
10304SOL     OW31810   5.500   0.249   1.793
10304SOL    HW131811   5.409   0.259   1.754
10304SOL    HW231812   5.568   0.242   1.720
10305SOL     OW31813   0.746   4.420   0.169
10305SOL    HW131814   0.652   4.403   0.140
10305SOL    HW231815   0.810   4.381   0.102
10306SOL     OW31816   4.783   6.895   6.390
10306SOL    HW131817   4.714   6.833   6.351
10306SOL    HW231818   4.757   6.920   6.483
10307SOL     OW31819   2.293   2.029   5.290
10307SOL    HW131820   2.350   2.049   5.210
10307SOL    HW231821   2.265   2.114   5.333
10308SOL     OW31822   2.163   4.702   3.839
10308SOL    HW131823   2.195   4.609   3.821
10308SOL    HW231824   2.227   4.749   3.899
10309SOL     OW31825   6.461   1.890   5.145
10309SOL    HW131826   6.560   1.890   5.129
10309SOL    HW231827   6.428   1.984   5.145
10310SOL     OW31828   3.222   3.776   1.522
10310SOL    HW131829   3.173   3.776   1.435
10310SOL    HW231830   3.168   3.730   1.592
10311SOL     OW31831   0.700   6.331   0.442
10311SOL    HW131832   0.780   6.381   0.410
10311SOL    HW231833   0.617   6.376   0.409
10312SOL     OW31834   3.135   5.931   1.865
10312SOL    HW131835   3.048   5.886   1.886
10312SOL    HW231836   3.133   5.967   1.773
10313SOL     OW31837   4.966   6.913   1.893
10313SOL    HW131838   4.985   6.890   1.798
10313SOL    HW231839   4.939   7.010   1.899
10314SOL     OW31840   6.422   0.472   2.083
10314SOL    HW131841   6.482   0.414   2.137
10314SOL    HW231842   6.370   0.532   2.144
10315SOL     OW31843   5.575   6.252   4.410
10315SOL    HW131844   5.612   6.342   4.388
10315SOL    HW231845   5.594   6.188   4.335
10316SOL     OW31846   6.643   2.762   4.732
10316SOL    HW131847   6.742   2.776   4.736
10316SOL    HW231848   6.607   2.807   4.651
10317SOL     OW31849   3.384   5.778   5.276
10317SOL    HW131850   3.321   5.855   5.260
10317SOL    HW231851   3.331   5.696   5.299
10318SOL     OW31852   5.508   5.724   6.552
10318SOL    HW131853   5.551   5.634   6.541
10318SOL    HW231854   5.579   5.795   6.549
10319SOL     OW31855   1.353   2.102   5.742
10319SOL    HW131856   1.399   2.149   5.667
10319SOL    HW231857   1.258   2.085   5.717
10320SOL     OW31858   0.609   0.322   3.022
10320SOL    HW131859   0.580   0.401   2.969
10320SOL    HW231860   0.609   0.345   3.119
10321SOL     OW31861   4.096   0.473   2.458
10321SOL    HW131862   4.083   0.519   2.546
10321SOL    HW231863   4.132   0.381   2.473
10322SOL     OW31864   6.236   5.401   6.518
10322SOL    HW131865   6.227   5.323   6.580
10322SOL    HW231866   6.332   5.416   6.496
10323SOL     OW31867   6.250   3.757   5.834
10323SOL    HW131868   6.339   3.712   5.842
10323SOL    HW231869   6.205   3.727   5.750
10324SOL     OW31870   3.165   2.994   2.725
10324SOL    HW131871   3.127   2.943   2.802
10324SOL    HW231872   3.247   2.947   2.691
10325SOL     OW31873   0.100   3.416   3.172
10325SOL    HW131874   0.030   3.479   3.207
10325SOL    HW231875   0.091   3.327   3.218
10326SOL     OW31876   4.217   3.293   0.707
10326SOL    HW131877   4.122   3.277   0.733
10326SOL    HW231878   4.224   3.298   0.607
10327SOL     OW31879   2.619   2.433   1.856
10327SOL    HW131880   2.716   2.439   1.882
10327SOL    HW231881   2.565   2.411   1.937
10328SOL     OW31882   6.457   2.307   1.869
10328SOL    HW131883   6.380   2.284   1.809
10328SOL    HW231884   6.424   2.320   1.962
10329SOL     OW31885   3.520   0.261   3.175
10329SOL    HW131886   3.480   0.221   3.092
10329SOL    HW231887   3.475   0.223   3.256
10330SOL     OW31888   4.122   6.456   2.001
10330SOL    HW131889   4.211   6.487   2.035
10330SOL    HW231890   4.066   6.424   2.077
10331SOL     OW31891   6.750   1.174   4.418
10331SOL    HW131892   6.813   1.099   4.438
10331SOL    HW231893   6.745   1.189   4.320
10332SOL     OW31894   6.397   1.161   1.242
10332SOL    HW131895   6.450   1.213   1.309
10332SOL    HW231896   6.357   1.081   1.285
10333SOL     OW31897   6.575   4.902   4.604
10333SOL    HW131898   6.548   4.920   4.698
10333SOL    HW231899   6.665   4.859   4.603
10334SOL     OW31900   3.325   6.223   4.110
10334SOL    HW131901   3.316   6.211   4.011
10334SOL    HW231902   3.256   6.287   4.143
10335SOL     OW31903   2.980   4.417   6.340
10335SOL    HW131904   2.914   4.491   6.352
10335SOL    HW231905   3.026   4.399   6.427
10336SOL     OW31906   5.858   0.338   2.972
10336SOL    HW131907   5.864   0.416   3.034
10336SOL    HW231908   5.924   0.268   2.999
10337SOL     OW31909   6.973   6.450   5.700
10337SOL    HW131910   0.007   6.375   5.666
10337SOL    HW231911   6.892   6.459   5.641
10338SOL     OW31912   2.168   6.199   1.681
10338SOL    HW131913   2.217   6.252   1.611
10338SOL    HW231914   2.076   6.236   1.691
10339SOL     OW31915   2.681   5.418   6.972
10339SOL    HW131916   2.751   5.351   6.997
10339SOL    HW231917   2.647   5.399   6.880
10340SOL     OW31918   1.292   5.543   1.160
10340SOL    HW131919   1.297   5.578   1.066
10340SOL    HW231920   1.303   5.444   1.159
10341SOL     OW31921   2.022   3.308   2.063
10341SOL    HW131922   2.107   3.357   2.042
10341SOL    HW231923   1.953   3.330   1.994
10342SOL     OW31924   1.352   6.754   5.059
10342SOL    HW131925   1.450   6.773   5.065
10342SOL    HW231926   1.328   6.727   4.966
10343SOL     OW31927   2.558   5.168   0.437
10343SOL    HW131928   2.596   5.158   0.345
10343SOL    HW231929   2.586   5.256   0.475
10344SOL     OW31930   3.997   4.194   1.580
10344SOL    HW131931   4.097   4.196   1.585
10344SOL    HW231932   3.961   4.283   1.609
10345SOL     OW31933   1.818   0.933   6.894
10345SOL    HW131934   1.728   0.966   6.920
10345SOL    HW231935   1.861   0.998   6.832
10346SOL     OW31936   6.052   0.226   1.876
10346SOL    HW131937   6.120   0.287   1.917
10346SOL    HW231938   5.962   0.268   1.881
10347SOL     OW31939   5.359   2.568   2.403
10347SOL    HW131940   5.306   2.633   2.458
10347SOL    HW231941   5.314   2.555   2.315
10348SOL     OW31942   6.223   1.519   0.192
10348SOL    HW131943   6.254   1.437   0.144
10348SOL    HW231944   6.195   1.495   0.285
10349SOL     OW31945   6.219   1.244   1.771
10349SOL    HW131946   6.318   1.258   1.776
10349SOL    HW231947   6.172   1.330   1.791
10350SOL     OW31948   2.274   5.944   5.565
10350SOL    HW131949   2.249   5.847   5.563
10350SOL    HW231950   2.204   5.995   5.615
10351SOL     OW31951   4.753   5.006   6.517
10351SOL    HW131952   4.845   5.030   6.487
10351SOL    HW231953   4.690   5.011   6.439
10352SOL     OW31954   4.737   2.278   0.087
10352SOL    HW131955   4.828   2.273   0.045
10352SOL    HW231956   4.729   2.208   0.158
10353SOL     OW31957   6.601   2.800   5.578
10353SOL    HW131958   6.612   2.745   5.661
10353SOL    HW231959   6.528   2.867   5.593
10354SOL     OW31960   6.245   2.034   2.056
10354SOL    HW131961   6.195   1.984   1.986
10354SOL    HW231962   6.181   2.079   2.118
10355SOL     OW31963   1.609   0.301   2.161
10355SOL    HW131964   1.674   0.346   2.223
10355SOL    HW231965   1.596   0.359   2.080
10356SOL     OW31966   6.681   4.084   5.751
10356SOL    HW131967   6.686   4.132   5.664
10356SOL    HW231968   6.637   3.995   5.738
10357SOL     OW31969   3.241   2.950   6.680
10357SOL    HW131970   3.291   3.036   6.683
10357SOL    HW231971   3.196   2.940   6.591
10358SOL     OW31972   6.058   3.210   3.548
10358SOL    HW131973   6.138   3.191   3.603
10358SOL    HW231974   6.060   3.305   3.518
10359SOL     OW31975   5.737   1.509   1.777
10359SOL    HW131976   5.710   1.605   1.789
10359SOL    HW231977   5.837   1.504   1.767
10360SOL     OW31978   4.675   5.452   1.598
10360SOL    HW131979   4.753   5.391   1.588
10360SOL    HW231980   4.657   5.468   1.695
10361SOL     OW31981   2.897   1.500   2.791
10361SOL    HW131982   2.995   1.486   2.780
10361SOL    HW231983   2.848   1.450   2.719
10362SOL     OW31984   0.126   5.487   3.685
10362SOL    HW131985   0.088   5.580   3.690
10362SOL    HW231986   0.084   5.437   3.609
10363SOL     OW31987   4.533   2.762   0.892
10363SOL    HW131988   4.547   2.695   0.819
10363SOL    HW231989   4.603   2.749   0.963
10364SOL     OW31990   3.438   3.702   1.861
10364SOL    HW131991   3.435   3.734   1.956
10364SOL    HW231992   3.533   3.696   1.831
10365SOL     OW31993   5.095   4.425   5.894
10365SOL    HW131994   5.000   4.411   5.921
10365SOL    HW231995   5.156   4.392   5.967
10366SOL     OW31996   3.805   6.813   4.057
10366SOL    HW131997   3.706   6.828   4.050
10366SOL    HW231998   3.831   6.804   4.153
10367SOL     OW31999   6.810   2.480   2.212
10367SOL    HW132000   6.827   2.405   2.148
10367SOL    HW232001   6.880   2.480   2.284
10368SOL     OW32002   2.590   1.067   2.659
10368SOL    HW132003   2.690   1.069   2.657
10368SOL    HW232004   2.557   1.064   2.753
10369SOL     OW32005   2.663   0.986   5.435
10369SOL    HW132006   2.639   0.893   5.463
10369SOL    HW232007   2.761   0.991   5.414
10370SOL     OW32008   5.737   1.272   5.145
10370SOL    HW132009   5.818   1.321   5.114
10370SOL    HW232010   5.657   1.331   5.134
10371SOL     OW32011   1.936   6.005   4.486
10371SOL    HW132012   1.956   6.076   4.419
10371SOL    HW232013   2.021   5.967   4.522
10372SOL     OW32014   1.580   1.074   6.926
10372SOL    HW132015   1.522   1.002   6.889
10372SOL    HW232016   1.579   1.153   6.865
10373SOL     OW32017   1.610   6.643   5.409
10373SOL    HW132018   1.516   6.675   5.408
10373SOL    HW232019   1.638   6.620   5.316
10374SOL     OW32020   2.939   1.022   3.408
10374SOL    HW132021   2.961   1.120   3.411
10374SOL    HW232022   2.855   1.008   3.357
10375SOL     OW32023   2.379   1.791   6.253
10375SOL    HW132024   2.345   1.885   6.249
10375SOL    HW232025   2.469   1.786   6.209
10376SOL     OW32026   1.171   5.569   3.572
10376SOL    HW132027   1.129   5.480   3.588
10376SOL    HW232028   1.236   5.562   3.496
10377SOL     OW32029   6.765   0.786   3.447
10377SOL    HW132030   6.679   0.790   3.397
10377SOL    HW232031   6.823   0.864   3.422
10378SOL     OW32032   5.551   6.442   5.448
10378SOL    HW132033   5.521   6.528   5.489
10378SOL    HW232034   5.648   6.429   5.466
10379SOL     OW32035   3.538   6.812   4.028
10379SOL    HW132036   3.485   6.897   4.028
10379SOL    HW232037   3.480   6.736   4.058
10380SOL     OW32038   0.739   2.590   5.129
10380SOL    HW132039   0.648   2.607   5.093
10380SOL    HW232040   0.795   2.672   5.116
10381SOL     OW32041   4.234   4.812   0.625
10381SOL    HW132042   4.173   4.741   0.590
10381SOL    HW232043   4.295   4.773   0.694
10382SOL     OW32044   1.787   4.613   1.268
10382SOL    HW132045   1.807   4.709   1.288
10382SOL    HW232046   1.834   4.555   1.335
10383SOL     OW32047   0.774   4.012   0.986
10383SOL    HW132048   0.734   4.048   0.902
10383SOL    HW232049   0.845   4.074   1.018
10384SOL     OW32050   6.886   0.314   1.570
10384SOL    HW132051   6.814   0.251   1.596
10384SOL    HW232052   6.975   0.271   1.584
10385SOL     OW32053   4.236   6.111   5.846
10385SOL    HW132054   4.300   6.127   5.922
10385SOL    HW232055   4.149   6.079   5.883
10386SOL     OW32056   6.675   2.044   5.416
10386SOL    HW132057   6.686   2.125   5.474
10386SOL    HW232058   6.600   1.988   5.451
10387SOL     OW32059   4.296   1.390   2.589
10387SOL    HW132060   4.218   1.444   2.558
10387SOL    HW232061   4.376   1.413   2.534
10388SOL     OW32062   1.833   5.575   2.222
10388SOL    HW132063   1.898   5.548   2.293
10388SOL    HW232064   1.825   5.501   2.155
10389SOL     OW32065   6.691   6.439   1.387
10389SOL    HW132066   6.648   6.397   1.467
10389SOL    HW232067   6.777   6.392   1.367
10390SOL     OW32068   1.765   2.590   1.230
10390SOL    HW132069   1.778   2.516   1.297
10390SOL    HW232070   1.672   2.625   1.237
10391SOL     OW32071   0.258   6.429   3.923
10391SOL    HW132072   0.349   6.455   3.953
10391SOL    HW232073   0.251   6.441   3.824
10392SOL     OW32074   6.677   4.219   5.991
10392SOL    HW132075   6.754   4.189   6.047
10392SOL    HW232076   6.666   4.156   5.914
10393SOL     OW32077   2.578   2.482   3.063
10393SOL    HW132078   2.531   2.565   3.092
10393SOL    HW232079   2.551   2.406   3.123
10394SOL     OW32080   2.298   6.041   4.866
10394SOL    HW132081   2.249   5.955   4.883
10394SOL    HW232082   2.392   6.020   4.836
10395SOL     OW32083   6.953   0.982   3.418
10395SOL    HW132084   7.000   0.981   3.506
10395SOL    HW232085   6.985   1.060   3.364
10396SOL     OW32086   3.460   1.302   3.875
10396SOL    HW132087   3.454   1.217   3.823
10396SOL    HW232088   3.489   1.282   3.969
10397SOL     OW32089   2.640   1.680   4.312
10397SOL    HW132090   2.682   1.630   4.388
10397SOL    HW232091   2.674   1.645   4.225
10398SOL     OW32092   4.836   2.614   0.651
10398SOL    HW132093   4.895   2.688   0.684
10398SOL    HW232094   4.790   2.642   0.567
10399SOL     OW32095   4.560   1.844   4.151
10399SOL    HW132096   4.583   1.751   4.122
10399SOL    HW232097   4.510   1.891   4.078
10400SOL     OW32098   4.160   5.589   0.188
10400SOL    HW132099   4.078   5.643   0.166
10400SOL    HW232100   4.140   5.492   0.179
10401SOL     OW32101   0.194   6.911   2.170
10401SOL    HW132102   0.149   6.825   2.147
10401SOL    HW232103   0.280   6.919   2.119
10402SOL     OW32104   6.611   1.779   5.771
10402SOL    HW132105   6.550   1.701   5.757
10402SOL    HW232106   6.584   1.855   5.713
10403SOL     OW32107   4.279   1.512   2.993
10403SOL    HW132108   4.181   1.512   2.974
10403SOL    HW232109   4.324   1.447   2.931
10404SOL     OW32110   6.657   6.609   4.377
10404SOL    HW132111   6.662   6.560   4.464
10404SOL    HW232112   6.744   6.600   4.329
10405SOL     OW32113   1.124   5.969   4.782
10405SOL    HW132114   1.085   5.890   4.735
10405SOL    HW232115   1.167   5.940   4.867
10406SOL     OW32116   2.238   3.403   5.347
10406SOL    HW132117   2.247   3.492   5.301
10406SOL    HW232118   2.204   3.417   5.440
10407SOL     OW32119   2.561   0.561   6.775
10407SOL    HW132120   2.563   0.644   6.832
10407SOL    HW232121   2.596   0.583   6.684
10408SOL     OW32122   4.398   6.194   1.674
10408SOL    HW132123   4.408   6.095   1.679
10408SOL    HW232124   4.404   6.233   1.766
10409SOL     OW32125   0.375   3.784   0.090
10409SOL    HW132126   0.446   3.855   0.085
10409SOL    HW232127   0.395   3.723   0.166
10410SOL     OW32128   6.018   2.508   1.506
10410SOL    HW132129   6.057   2.469   1.423
10410SOL    HW232130   5.928   2.467   1.523
10411SOL     OW32131   3.692   5.881   4.592
10411SOL    HW132132   3.725   5.789   4.570
10411SOL    HW232133   3.662   5.926   4.508
10412SOL     OW32134   6.619   1.341   0.172
10412SOL    HW132135   6.536   1.291   0.152
10412SOL    HW232136   6.671   1.355   0.088
10413SOL     OW32137   6.735   2.102   1.782
10413SOL    HW132138   6.800   2.146   1.720
10413SOL    HW232139   6.642   2.116   1.749
10414SOL     OW32140   3.850   5.781   6.142
10414SOL    HW132141   3.933   5.807   6.193
10414SOL    HW232142   3.797   5.864   6.122
10415SOL     OW32143   1.756   4.415   4.077
10415SOL    HW132144   1.812   4.463   4.010
10415SOL    HW232145   1.714   4.334   4.035
10416SOL     OW32146   6.387   6.845   5.219
10416SOL    HW132147   6.410   6.918   5.283
10416SOL    HW232148   6.299   6.805   5.244
10417SOL     OW32149   5.157   5.612   4.683
10417SOL    HW132150   5.154   5.514   4.699
10417SOL    HW232151   5.086   5.657   4.738
10418SOL     OW32152   6.581   4.142   6.264
10418SOL    HW132153   6.677   4.151   6.236
10418SOL    HW232154   6.559   4.215   6.329
10419SOL     OW32155   3.472   6.923   5.717
10419SOL    HW132156   3.380   6.957   5.736
10419SOL    HW232157   3.477   6.890   5.623
10420SOL     OW32158   6.756   4.174   4.084
10420SOL    HW132159   6.835   4.219   4.042
10420SOL    HW232160   6.674   4.196   4.032
10421SOL     OW32161   1.814   3.670   4.280
10421SOL    HW132162   1.773   3.695   4.192
10421SOL    HW232163   1.909   3.641   4.265
10422SOL     OW32164   6.776   3.336   5.240
10422SOL    HW132165   6.834   3.417   5.250
10422SOL    HW232166   6.767   3.314   5.143
10423SOL     OW32167   4.962   5.405   5.409
10423SOL    HW132168   4.996   5.323   5.454
10423SOL    HW232169   4.863   5.398   5.395
10424SOL     OW32170   3.668   2.911   0.696
10424SOL    HW132171   3.610   2.874   0.624
10424SOL    HW232172   3.756   2.863   0.696
10425SOL     OW32173   0.787   5.891   2.554
10425SOL    HW132174   0.879   5.881   2.593
10425SOL    HW232175   0.793   5.944   2.470
10426SOL     OW32176   5.466   4.305   6.697
10426SOL    HW132177   5.468   4.235   6.626
10426SOL    HW232178   5.441   4.393   6.656
10427SOL     OW32179   5.043   0.826   0.364
10427SOL    HW132180   5.031   0.918   0.329
10427SOL    HW232181   5.124   0.784   0.323
10428SOL     OW32182   3.218   1.444   3.980
10428SOL    HW132183   3.170   1.505   3.916
10428SOL    HW232184   3.311   1.428   3.946
10429SOL     OW32185   0.421   3.801   3.052
10429SOL    HW132186   0.398   3.878   3.111
10429SOL    HW232187   0.434   3.719   3.108
10430SOL     OW32188   3.490   6.701   4.975
10430SOL    HW132189   3.498   6.648   4.891
10430SOL    HW232190   3.512   6.643   5.053
10431SOL     OW32191   2.792   6.527   4.255
10431SOL    HW132192   2.870   6.586   4.237
10431SOL    HW232193   2.711   6.583   4.271
10432SOL     OW32194   6.348   0.816   4.713
10432SOL    HW132195   6.381   0.726   4.742
10432SOL    HW232196   6.397   0.887   4.762
10433SOL     OW32197   0.599   6.628   2.708
10433SOL    HW132198   0.543   6.706   2.738
10433SOL    HW232199   0.679   6.619   2.767
10434SOL     OW32200   3.111   6.447   3.727
10434SOL    HW132201   3.147   6.540   3.715
10434SOL    HW232202   3.014   6.452   3.750
10435SOL     OW32203   2.075   2.302   5.336
10435SOL    HW132204   2.029   2.318   5.423
10435SOL    HW232205   2.168   2.339   5.340
10436SOL     OW32206   5.864   3.964   4.571
10436SOL    HW132207   5.904   4.056   4.578
10436SOL    HW232208   5.861   3.937   4.474
10437SOL     OW32209   6.118   4.577   5.967
10437SOL    HW132210   6.095   4.564   6.064
10437SOL    HW232211   6.056   4.522   5.911
10438SOL     OW32212   0.988   6.027   5.746
10438SOL    HW132213   1.013   5.993   5.836
10438SOL    HW232214   0.961   6.123   5.752
10439SOL     OW32215   4.915   0.993   4.923
10439SOL    HW132216   4.961   1.022   5.006
10439SOL    HW232217   4.979   0.941   4.866
10440SOL     OW32218   0.327   6.809   6.968
10440SOL    HW132219   0.384   6.888   6.942
10440SOL    HW232220   0.376   6.725   6.946
10441SOL     OW32221   3.080   1.664   1.335
10441SOL    HW132222   3.043   1.756   1.334
10441SOL    HW232223   3.008   1.598   1.312
10442SOL     OW32224   4.211   6.643   5.296
10442SOL    HW132225   4.205   6.737   5.260
10442SOL    HW232226   4.149   6.584   5.245
10443SOL     OW32227   5.113   2.451   3.300
10443SOL    HW132228   5.064   2.521   3.352
10443SOL    HW232229   5.048   2.381   3.270
10444SOL     OW32230   4.189   5.609   2.524
10444SOL    HW132231   4.127   5.679   2.488
10444SOL    HW232232   4.136   5.532   2.560
10445SOL     OW32233   0.577   3.814   3.373
10445SOL    HW132234   0.666   3.818   3.418
10445SOL    HW232235   0.580   3.868   3.288
10446SOL     OW32236   2.282   3.229   6.284
10446SOL    HW132237   2.301   3.294   6.211
10446SOL    HW232238   2.183   3.223   6.298
10447SOL     OW32239   0.204   0.198   2.770
10447SOL    HW132240   0.141   0.242   2.834
10447SOL    HW232241   0.286   0.254   2.759
10448SOL     OW32242   4.263   0.722   1.994
10448SOL    HW132243   4.165   0.732   1.978
10448SOL    HW232244   4.278   0.677   2.082
10449SOL     OW32245   1.929   5.817   6.331
10449SOL    HW132246   2.024   5.845   6.316
10449SOL    HW232247   1.921   5.719   6.317
10450SOL     OW32248   0.144   1.537   6.909
10450SOL    HW132249   0.211   1.480   6.861
10450SOL    HW232250   0.183   1.569   6.996
10451SOL     OW32251   2.012   5.936   2.573
10451SOL    HW132252   2.085   5.894   2.518
10451SOL    HW232253   1.978   5.870   2.639
10452SOL     OW32254   6.502   2.895   2.651
10452SOL    HW132255   6.505   2.994   2.639
10452SOL    HW232256   6.408   2.863   2.637
10453SOL     OW32257   5.804   6.450   1.843
10453SOL    HW132258   5.736   6.378   1.860
10453SOL    HW232259   5.833   6.446   1.748
10454SOL     OW32260   6.028   2.777   0.193
10454SOL    HW132261   6.084   2.785   0.110
10454SOL    HW232262   5.947   2.835   0.185
10455SOL     OW32263   0.278   6.447   3.622
10455SOL    HW132264   0.194   6.481   3.579
10455SOL    HW232265   0.280   6.347   3.616
10456SOL     OW32266   1.093   5.283   0.894
10456SOL    HW132267   1.096   5.209   0.826
10456SOL    HW232268   1.113   5.370   0.849
10457SOL     OW32269   3.620   2.791   0.200
10457SOL    HW132270   3.703   2.735   0.195
10457SOL    HW232271   3.565   2.776   0.118
10458SOL     OW32272   6.163   0.054   5.968
10458SOL    HW132273   6.070   0.018   5.961
10458SOL    HW232274   6.162   0.153   5.959
10459SOL     OW32275   4.447   5.983   1.138
10459SOL    HW132276   4.406   6.073   1.148
10459SOL    HW232277   4.485   5.953   1.225
10460SOL     OW32278   1.219   3.911   1.278
10460SOL    HW132279   1.284   3.835   1.287
10460SOL    HW232280   1.189   3.940   1.369
10461SOL     OW32281   6.089   5.109   5.266
10461SOL    HW132282   6.176   5.079   5.227
10461SOL    HW232283   6.015   5.053   5.229
10462SOL     OW32284   5.151   2.477   2.827
10462SOL    HW132285   5.219   2.405   2.814
10462SOL    HW232286   5.183   2.540   2.898
10463SOL     OW32287   4.476   2.635   6.249
10463SOL    HW132288   4.460   2.674   6.159
10463SOL    HW232289   4.389   2.609   6.291
10464SOL     OW32290   6.488   6.500   2.604
10464SOL    HW132291   6.457   6.550   2.684
10464SOL    HW232292   6.478   6.557   2.522
10465SOL     OW32293   6.083   5.671   0.769
10465SOL    HW132294   6.003   5.731   0.773
10465SOL    HW232295   6.156   5.717   0.718
10466SOL     OW32296   4.486   4.762   5.281
10466SOL    HW132297   4.486   4.763   5.181
10466SOL    HW232298   4.570   4.806   5.314
10467SOL     OW32299   2.353   1.853   0.111
10467SOL    HW132300   2.324   1.759   0.128
10467SOL    HW232301   2.391   1.892   0.195
10468SOL     OW32302   3.831   5.295   3.157
10468SOL    HW132303   3.750   5.331   3.203
10468SOL    HW232304   3.908   5.292   3.220
10469SOL     OW32305   4.035   4.082   5.525
10469SOL    HW132306   3.998   4.140   5.453
10469SOL    HW232307   4.116   4.034   5.490
10470SOL     OW32308   1.488   2.162   3.931
10470SOL    HW132309   1.561   2.230   3.920
10470SOL    HW232310   1.399   2.207   3.916
10471SOL     OW32311   2.485   0.534   0.670
10471SOL    HW132312   2.490   0.485   0.583
10471SOL    HW232313   2.486   0.633   0.652
10472SOL     OW32314   3.683   6.206   0.522
10472SOL    HW132315   3.634   6.119   0.523
10472SOL    HW232316   3.669   6.252   0.610
10473SOL     OW32317   6.182   0.135   6.865
10473SOL    HW132318   6.160   0.199   6.791
10473SOL    HW232319   6.191   0.186   6.951
10474SOL     OW32320   4.414   1.084   3.965
10474SOL    HW132321   4.470   1.043   3.894
10474SOL    HW232322   4.413   1.024   4.046
10475SOL     OW32323   4.356   6.251   1.191
10475SOL    HW132324   4.401   6.330   1.234
10475SOL    HW232325   4.265   6.238   1.232
10476SOL     OW32326   6.456   6.491   6.753
10476SOL    HW132327   6.456   6.509   6.655
10476SOL    HW232328   6.369   6.448   6.778
10477SOL     OW32329   6.462   1.079   4.512
10477SOL    HW132330   6.561   1.092   4.503
10477SOL    HW232331   6.440   1.062   4.608
10478SOL     OW32332   6.701   0.865   0.996
10478SOL    HW132333   6.784   0.891   0.947
10478SOL    HW232334   6.672   0.774   0.967
10479SOL     OW32335   6.802   1.480   2.852
10479SOL    HW132336   6.849   1.562   2.820
10479SOL    HW232337   6.858   1.400   2.830
10480SOL     OW32338   0.845   0.738   2.057
10480SOL    HW132339   0.822   0.779   2.145
10480SOL    HW232340   0.767   0.686   2.022
10481SOL     OW32341   1.978   6.000   4.176
10481SOL    HW132342   2.031   6.066   4.229
10481SOL    HW232343   1.921   6.048   4.110
10482SOL     OW32344   6.666   5.092   3.977
10482SOL    HW132345   6.601   5.063   3.907
10482SOL    HW232346   6.707   5.011   4.019
10483SOL     OW32347   6.495   4.872   0.624
10483SOL    HW132348   6.443   4.788   0.640
10483SOL    HW232349   6.530   4.906   0.711
10484SOL     OW32350   5.838   1.767   1.333
10484SOL    HW132351   5.925   1.792   1.291
10484SOL    HW232352   5.774   1.843   1.324
10485SOL     OW32353   3.130   3.880   0.698
10485SOL    HW132354   3.221   3.861   0.661
10485SOL    HW232355   3.138   3.908   0.794
10486SOL     OW32356   0.191   0.588   0.548
10486SOL    HW132357   0.112   0.537   0.581
10486SOL    HW232358   0.229   0.541   0.468
10487SOL     OW32359   4.680   0.634   1.019
10487SOL    HW132360   4.716   0.540   1.026
10487SOL    HW232361   4.754   0.699   1.037
10488SOL     OW32362   3.083   0.991   5.998
10488SOL    HW132363   3.014   0.930   5.957
10488SOL    HW232364   3.141   0.937   6.059
10489SOL     OW32365   0.589   6.964   5.580
10489SOL    HW132366   0.525   0.010   5.547
10489SOL    HW232367   0.610   6.899   5.507
10490SOL     OW32368   5.733   1.110   1.133
10490SOL    HW132369   5.803   1.142   1.069
10490SOL    HW232370   5.777   1.083   1.219
10491SOL     OW32371   1.950   2.499   0.121
10491SOL    HW132372   2.007   2.445   0.183
10491SOL    HW232373   1.870   2.533   0.170
10492SOL     OW32374   5.943   4.788   6.466
10492SOL    HW132375   5.967   4.693   6.484
10492SOL    HW232376   5.914   4.832   6.551
10493SOL     OW32377   3.562   0.807   1.942
10493SOL    HW132378   3.471   0.813   1.902
10493SOL    HW232379   3.553   0.791   2.041
10494SOL     OW32380   5.331   4.435   6.054
10494SOL    HW132381   5.313   4.514   5.995
10494SOL    HW232382   5.429   4.432   6.075
10495SOL     OW32383   1.349   6.947   0.337
10495SOL    HW132384   1.382   0.016   0.357
10495SOL    HW232385   1.326   6.900   0.423
10496SOL     OW32386   6.726   3.577   5.913
10496SOL    HW132387   6.804   3.632   5.942
10496SOL    HW232388   6.745   3.480   5.931
10497SOL     OW32389   2.312   6.487   2.477
10497SOL    HW132390   2.227   6.437   2.489
10497SOL    HW232391   2.294   6.571   2.426
10498SOL     OW32392   4.379   5.936   0.482
10498SOL    HW132393   4.463   5.941   0.535
10498SOL    HW232394   4.349   5.841   0.475
10499SOL     OW32395   3.713   6.930   1.790
10499SOL    HW132396   3.622   6.965   1.767
10499SOL    HW232397   3.779   6.960   1.722
10500SOL     OW32398   5.948   1.263   6.372
10500SOL    HW132399   5.959   1.269   6.471
10500SOL    HW232400   5.971   1.170   6.342
10501SOL     OW32401   2.114   5.358   2.357
10501SOL    HW132402   2.212   5.343   2.366
10501SOL    HW232403   2.092   5.453   2.379
10502SOL     OW32404   2.781   0.358   1.673
10502SOL    HW132405   2.834   0.443   1.685
10502SOL    HW232406   2.821   0.286   1.730
10503SOL     OW32407   4.147   2.909   0.769
10503SOL    HW132408   4.094   2.960   0.837
10503SOL    HW232409   4.103   2.918   0.680
10504SOL     OW32410   0.370   2.073   5.471
10504SOL    HW132411   0.290   2.014   5.480
10504SOL    HW232412   0.447   2.020   5.436
10505SOL     OW32413   5.584   5.173   0.621
10505SOL    HW132414   5.587   5.271   0.602
10505SOL    HW232415   5.555   5.123   0.539
10506SOL     OW32416   6.976   4.576   0.375
10506SOL    HW132417   0.029   4.623   0.421
10506SOL    HW232418   7.006   4.485   0.348
10507SOL     OW32419   2.434   0.132   0.258
10507SOL    HW132420   2.402   0.047   0.300
10507SOL    HW232421   2.399   0.138   0.165
10508SOL     OW32422   6.374   6.483   4.459
10508SOL    HW132423   6.343   6.405   4.405
10508SOL    HW232424   6.320   6.488   4.543
10509SOL     OW32425   1.150   5.449   4.421
10509SOL    HW132426   1.070   5.501   4.393
10509SOL    HW232427   1.122   5.359   4.453
10510SOL     OW32428   4.414   5.895   6.215
10510SOL    HW132429   4.422   5.865   6.120
10510SOL    HW232430   4.467   5.979   6.228
10511SOL     OW32431   3.839   0.934   2.094
10511SOL    HW132432   3.838   0.890   2.004
10511SOL    HW232433   3.771   0.891   2.154
10512SOL     OW32434   4.015   0.421   6.347
10512SOL    HW132435   3.952   0.438   6.271
10512SOL    HW232436   4.106   0.456   6.324
10513SOL     OW32437   5.937   2.485   4.530
10513SOL    HW132438   5.841   2.510   4.527
10513SOL    HW232439   5.985   2.543   4.596
10514SOL     OW32440   0.743   3.788   1.195
10514SOL    HW132441   0.699   3.860   1.141
10514SOL    HW232442   0.842   3.798   1.188
10515SOL     OW32443   0.747   3.427   3.542
10515SOL    HW132444   0.709   3.334   3.546
10515SOL    HW232445   0.739   3.461   3.448
10516SOL     OW32446   3.853   1.235   0.220
10516SOL    HW132447   3.850   1.152   0.276
10516SOL    HW232448   3.889   1.311   0.275
10517SOL     OW32449   1.266   2.717   2.618
10517SOL    HW132450   1.193   2.717   2.686
10517SOL    HW232451   1.317   2.803   2.624
10518SOL     OW32452   0.611   5.898   6.340
10518SOL    HW132453   0.547   5.917   6.415
10518SOL    HW232454   0.690   5.848   6.375
10519SOL     OW32455   2.613   3.937   6.834
10519SOL    HW132456   2.590   3.841   6.813
10519SOL    HW232457   2.595   3.994   6.754
10520SOL     OW32458   0.565   2.632   6.129
10520SOL    HW132459   0.573   2.731   6.130
10520SOL    HW232460   0.641   2.592   6.180
10521SOL     OW32461   6.355   6.387   2.228
10521SOL    HW132462   6.265   6.427   2.207
10521SOL    HW232463   6.421   6.460   2.243
10522SOL     OW32464   0.781   0.764   5.397
10522SOL    HW132465   0.761   0.709   5.316
10522SOL    HW232466   0.814   0.705   5.470
10523SOL     OW32467   0.212   5.088   3.603
10523SOL    HW132468   0.241   5.106   3.698
10523SOL    HW232469   0.250   5.001   3.573
10524SOL     OW32470   1.919   0.556   4.764
10524SOL    HW132471   1.914   0.639   4.821
10524SOL    HW232472   1.919   0.475   4.823
10525SOL     OW32473   3.650   6.504   6.724
10525SOL    HW132474   3.689   6.413   6.735
10525SOL    HW232475   3.629   6.520   6.627
10526SOL     OW32476   1.606   0.164   4.002
10526SOL    HW132477   1.535   0.153   3.932
10526SOL    HW232478   1.678   0.097   3.987
10527SOL     OW32479   0.284   1.325   5.239
10527SOL    HW132480   0.359   1.322   5.305
10527SOL    HW232481   0.236   1.413   5.248
10528SOL     OW32482   1.420   3.332   6.176
10528SOL    HW132483   1.503   3.279   6.161
10528SOL    HW232484   1.401   3.389   6.096
10529SOL     OW32485   3.293   5.606   3.621
10529SOL    HW132486   3.340   5.529   3.663
10529SOL    HW232487   3.237   5.574   3.544
10530SOL     OW32488   1.558   6.862   6.883
10530SOL    HW132489   1.565   6.929   6.809
10530SOL    HW232490   1.498   6.787   6.855
10531SOL     OW32491   1.434   2.934   4.250
10531SOL    HW132492   1.405   2.995   4.176
10531SOL    HW232493   1.521   2.967   4.288
10532SOL     OW32494   1.286   5.829   5.685
10532SOL    HW132495   1.321   5.878   5.605
10532SOL    HW232496   1.187   5.823   5.680
10533SOL     OW32497   3.079   0.632   4.530
10533SOL    HW132498   3.044   0.560   4.589
10533SOL    HW232499   3.108   0.593   4.443
10534SOL     OW32500   6.921   6.289   1.324
10534SOL    HW132501   7.009   6.329   1.301
10534SOL    HW232502   6.935   6.215   1.391
10535SOL     OW32503   1.096   1.915   1.813
10535SOL    HW132504   1.187   1.875   1.805
10535SOL    HW232505   1.036   1.851   1.860
10536SOL     OW32506   4.283   0.265   3.285
10536SOL    HW132507   4.278   0.181   3.339
10536SOL    HW232508   4.292   0.343   3.346
10537SOL     OW32509   3.747   6.032   3.927
10537SOL    HW132510   3.708   5.961   3.986
10537SOL    HW232511   3.738   6.004   3.831
10538SOL     OW32512   5.164   1.785   0.986
10538SOL    HW132513   5.244   1.838   1.014
10538SOL    HW232514   5.190   1.691   0.968
10539SOL     OW32515   0.524   4.616   0.232
10539SOL    HW132516   0.438   4.659   0.261
10539SOL    HW232517   0.504   4.536   0.175
10540SOL     OW32518   1.586   2.064   5.313
10540SOL    HW132519   1.592   2.164   5.314
10540SOL    HW232520   1.513   2.036   5.251
10541SOL     OW32521   3.456   4.152   2.566
10541SOL    HW132522   3.370   4.103   2.551
10541SOL    HW232523   3.483   4.142   2.662
10542SOL     OW32524   6.780   6.979   5.353
10542SOL    HW132525   6.878   6.997   5.360
10542SOL    HW232526   6.742   6.968   5.445
10543SOL     OW32527   0.312   1.047   4.557
10543SOL    HW132528   0.251   1.114   4.599
10543SOL    HW232529   0.393   1.093   4.522
10544SOL     OW32530   2.743   6.391   1.587
10544SOL    HW132531   2.678   6.343   1.645
10544SOL    HW232532   2.694   6.439   1.514
10545SOL     OW32533   6.822   1.798   2.354
10545SOL    HW132534   6.846   1.850   2.436
10545SOL    HW232535   6.868   1.838   2.275
10546SOL     OW32536   1.943   0.743   0.009
10546SOL    HW132537   1.885   0.690   0.071
10546SOL    HW232538   1.890   0.819   6.994
10547SOL     OW32539   5.575   2.680   2.545
10547SOL    HW132540   5.607   2.727   2.463
10547SOL    HW232541   5.476   2.668   2.540
10548SOL     OW32542   5.438   4.275   4.155
10548SOL    HW132543   5.481   4.364   4.164
10548SOL    HW232544   5.375   4.260   4.232
10549SOL     OW32545   0.804   6.972   2.145
10549SOL    HW132546   0.882   6.955   2.085
10549SOL    HW232547   0.763   0.037   2.122
10550SOL     OW32548   4.369   6.144   3.776
10550SOL    HW132549   4.305   6.077   3.812
10550SOL    HW232550   4.323   6.203   3.710
10551SOL     OW32551   1.169   2.317   6.101
10551SOL    HW132552   1.228   2.336   6.023
10551SOL    HW232553   1.224   2.311   6.185
10552SOL     OW32554   3.025   1.207   6.163
10552SOL    HW132555   2.984   1.140   6.224
10552SOL    HW232556   3.064   1.161   6.083
10553SOL     OW32557   0.695   4.525   2.299
10553SOL    HW132558   0.625   4.543   2.229
10553SOL    HW232559   0.657   4.462   2.367
10554SOL     OW32560   5.142   5.215   0.235
10554SOL    HW132561   5.088   5.273   0.174
10554SOL    HW232562   5.139   5.121   0.202
10555SOL     OW32563   1.948   2.837   0.705
10555SOL    HW132564   1.903   2.842   0.795
10555SOL    HW232565   2.034   2.787   0.714
10556SOL     OW32566   1.771   1.974   5.720
10556SOL    HW132567   1.847   1.917   5.754
10556SOL    HW232568   1.739   1.937   5.632
10557SOL     OW32569   2.278   2.866   3.331
10557SOL    HW132570   2.234   2.912   3.409
10557SOL    HW232571   2.219   2.792   3.299
10558SOL     OW32572   3.784   0.857   3.095
10558SOL    HW132573   3.763   0.952   3.117
10558SOL    HW232574   3.883   0.843   3.097
10559SOL     OW32575   4.966   0.489   1.398
10559SOL    HW132576   4.867   0.495   1.409
10559SOL    HW232577   5.009   0.566   1.446
10560SOL     OW32578   3.771   6.424   2.952
10560SOL    HW132579   3.745   6.493   3.020
10560SOL    HW232580   3.691   6.401   2.896
10561SOL     OW32581   3.054   3.879   1.279
10561SOL    HW132582   2.959   3.910   1.282
10561SOL    HW232583   3.063   3.806   1.212
10562SOL     OW32584   4.855   4.903   0.403
10562SOL    HW132585   4.862   4.835   0.330
10562SOL    HW232586   4.762   4.941   0.403
10563SOL     OW32587   0.139   1.731   3.428
10563SOL    HW132588   0.223   1.695   3.469
10563SOL    HW232589   0.060   1.684   3.466
10564SOL     OW32590   6.020   6.014   2.345
10564SOL    HW132591   6.046   6.046   2.253
10564SOL    HW232592   6.038   5.916   2.352
10565SOL     OW32593   0.894   0.520   5.803
10565SOL    HW132594   0.940   0.608   5.797
10565SOL    HW232595   0.827   0.523   5.878
10566SOL     OW32596   3.434   1.756   6.538
10566SOL    HW132597   3.373   1.680   6.518
10566SOL    HW232598   3.409   1.835   6.482
10567SOL     OW32599   3.269   1.992   4.532
10567SOL    HW132600   3.318   1.905   4.528
10567SOL    HW232601   3.185   1.980   4.586
10568SOL     OW32602   6.541   2.938   1.730
10568SOL    HW132603   6.531   3.012   1.797
10568SOL    HW232604   6.464   2.940   1.667
10569SOL     OW32605   5.203   2.003   1.784
10569SOL    HW132606   5.212   2.100   1.763
10569SOL    HW232607   5.140   1.961   1.719
10570SOL     OW32608   1.597   5.260   3.743
10570SOL    HW132609   1.577   5.162   3.748
10570SOL    HW232610   1.589   5.291   3.649
10571SOL     OW32611   6.752   4.165   5.500
10571SOL    HW132612   6.821   4.238   5.506
10571SOL    HW232613   6.699   4.176   5.416
10572SOL     OW32614   0.318   4.361   3.177
10572SOL    HW132615   0.245   4.293   3.183
10572SOL    HW232616   0.331   4.388   3.082
10573SOL     OW32617   4.536   0.112   5.017
10573SOL    HW132618   4.585   0.027   5.038
10573SOL    HW232619   4.520   0.118   4.919
10574SOL     OW32620   1.643   1.384   4.238
10574SOL    HW132621   1.719   1.344   4.188
10574SOL    HW232622   1.570   1.409   4.174
10575SOL     OW32623   0.438   1.122   3.105
10575SOL    HW132624   0.490   1.055   3.052
10575SOL    HW232625   0.350   1.083   3.132
10576SOL     OW32626   0.080   6.284   4.615
10576SOL    HW132627   0.152   6.290   4.546
10576SOL    HW232628   0.100   6.207   4.677
10577SOL     OW32629   1.785   4.094   0.126
10577SOL    HW132630   1.705   4.152   0.138
10577SOL    HW232631   1.810   4.089   0.030
10578SOL     OW32632   5.036   1.584   2.754
10578SOL    HW132633   5.093   1.542   2.683
10578SOL    HW232634   4.969   1.645   2.712
10579SOL     OW32635   4.378   2.727   1.681
10579SOL    HW132636   4.372   2.629   1.663
10579SOL    HW232637   4.471   2.750   1.710
10580SOL     OW32638   6.213   0.272   0.097
10580SOL    HW132639   6.280   0.215   0.145
10580SOL    HW232640   6.178   0.341   0.160
10581SOL     OW32641   6.515   6.780   3.297
10581SOL    HW132642   6.449   6.853   3.275
10581SOL    HW232643   6.597   6.792   3.242
10582SOL     OW32644   5.778   5.252   6.277
10582SOL    HW132645   5.876   5.263   6.287
10582SOL    HW232646   5.752   5.265   6.181
10583SOL     OW32647   3.897   1.214   4.568
10583SOL    HW132648   3.856   1.131   4.531
10583SOL    HW232649   3.873   1.292   4.510
10584SOL     OW32650   6.417   6.732   1.380
10584SOL    HW132651   6.445   6.693   1.468
10584SOL    HW232652   6.481   6.804   1.353
10585SOL     OW32653   2.143   2.607   5.483
10585SOL    HW132654   2.112   2.518   5.518
10585SOL    HW232655   2.063   2.664   5.464
10586SOL     OW32656   6.365   5.389   5.100
10586SOL    HW132657   6.275   5.430   5.114
10586SOL    HW232658   6.373   5.306   5.156
10587SOL     OW32659   5.991   4.536   0.396
10587SOL    HW132660   6.087   4.560   0.382
10587SOL    HW232661   5.950   4.512   0.308
10588SOL     OW32662   0.954   3.161   4.146
10588SOL    HW132663   0.981   3.175   4.051
10588SOL    HW232664   1.034   3.164   4.205
10589SOL     OW32665   5.861   1.963   4.206
10589SOL    HW132666   5.941   1.961   4.146
10589SOL    HW232667   5.781   1.929   4.156
10590SOL     OW32668   0.445   0.304   1.989
10590SOL    HW132669   0.353   0.282   2.022
10590SOL    HW232670   0.440   0.332   1.893
10591SOL     OW32671   1.525   2.118   7.009
10591SOL    HW132672   1.501   2.206   0.026
10591SOL    HW232673   1.508   2.120   6.910
10592SOL     OW32674   5.376   3.756   2.028
10592SOL    HW132675   5.414   3.664   2.037
10592SOL    HW232676   5.449   3.820   2.007
10593SOL     OW32677   2.561   5.712   0.436
10593SOL    HW132678   2.487   5.755   0.384
10593SOL    HW232679   2.555   5.741   0.531
10594SOL     OW32680   5.102   0.453   2.504
10594SOL    HW132681   5.044   0.483   2.428
10594SOL    HW232682   5.133   0.532   2.556
10595SOL     OW32683   4.322   6.423   6.463
10595SOL    HW132684   4.327   6.512   6.418
10595SOL    HW232685   4.244   6.421   6.526
10596SOL     OW32686   4.176   0.172   0.192
10596SOL    HW132687   4.217   0.095   0.241
10596SOL    HW232688   4.096   0.141   0.140
10597SOL     OW32689   3.557   0.750   5.436
10597SOL    HW132690   3.507   0.694   5.370
10597SOL    HW232691   3.505   0.834   5.453
10598SOL     OW32692   2.872   3.064   0.414
10598SOL    HW132693   2.935   2.987   0.418
10598SOL    HW232694   2.921   3.147   0.386
10599SOL     OW32695   4.829   3.190   5.733
10599SOL    HW132696   4.870   3.107   5.772
10599SOL    HW232697   4.856   3.199   5.637
10600SOL     OW32698   2.392   2.774   0.284
10600SOL    HW132699   2.325   2.710   0.321
10600SOL    HW232700   2.419   2.744   0.192
10601SOL     OW32701   1.888   4.564   5.249
10601SOL    HW132702   1.913   4.523   5.161
10601SOL    HW232703   1.849   4.494   5.308
10602SOL     OW32704   3.361   1.153   1.870
10602SOL    HW132705   3.411   1.198   1.796
10602SOL    HW232706   3.372   1.054   1.863
10603SOL     OW32707   3.234   6.157   2.836
10603SOL    HW132708   3.267   6.077   2.886
10603SOL    HW232709   3.161   6.129   2.773
10604SOL     OW32710   6.170   5.512   5.505
10604SOL    HW132711   6.116   5.428   5.512
10604SOL    HW232712   6.141   5.563   5.423
10605SOL     OW32713   1.465   6.047   0.364
10605SOL    HW132714   1.478   5.967   0.423
10605SOL    HW232715   1.392   6.105   0.402
10606SOL     OW32716   6.706   0.750   2.677
10606SOL    HW132717   6.731   0.670   2.622
10606SOL    HW232718   6.617   0.733   2.721
10607SOL     OW32719   4.167   4.719   5.220
10607SOL    HW132720   4.104   4.770   5.280
10607SOL    HW232721   4.149   4.745   5.125
10608SOL     OW32722   5.045   2.460   5.874
10608SOL    HW132723   5.085   2.460   5.782
10608SOL    HW232724   5.110   2.419   5.938
10609SOL     OW32725   2.412   6.872   0.289
10609SOL    HW132726   2.462   6.812   0.227
10609SOL    HW232727   2.443   6.857   0.382
10610SOL     OW32728   0.765   2.321   5.197
10610SOL    HW132729   0.757   2.421   5.187
10610SOL    HW232730   0.841   2.300   5.258
10611SOL     OW32731   3.712   3.940   5.946
10611SOL    HW132732   3.790   3.881   5.925
10611SOL    HW232733   3.627   3.890   5.929
10612SOL     OW32734   3.289   0.848   4.511
10612SOL    HW132735   3.366   0.791   4.541
10612SOL    HW232736   3.203   0.798   4.527
10613SOL     OW32737   6.246   6.725   4.827
10613SOL    HW132738   6.315   6.718   4.755
10613SOL    HW232739   6.263   6.807   4.882
10614SOL     OW32740   6.139   2.102   4.339
10614SOL    HW132741   6.153   2.041   4.261
10614SOL    HW232742   6.054   2.077   4.386
10615SOL     OW32743   3.660   6.624   5.615
10615SOL    HW132744   3.653   6.658   5.709
10615SOL    HW232745   3.644   6.699   5.551
10616SOL     OW32746   3.348   5.992   0.627
10616SOL    HW132747   3.399   5.965   0.709
10616SOL    HW232748   3.267   5.934   0.618
10617SOL     OW32749   2.307   2.642   1.430
10617SOL    HW132750   2.332   2.594   1.514
10617SOL    HW232751   2.297   2.739   1.449
10618SOL     OW32752   0.297   3.708   6.502
10618SOL    HW132753   0.376   3.647   6.505
10618SOL    HW232754   0.228   3.678   6.568
10619SOL     OW32755   0.146   4.502   2.556
10619SOL    HW132756   0.052   4.471   2.551
10619SOL    HW232757   0.189   4.496   2.466
10620SOL     OW32758   1.673   5.504   4.825
10620SOL    HW132759   1.587   5.555   4.823
10620SOL    HW232760   1.662   5.424   4.884
10621SOL     OW32761   0.988   6.042   2.098
10621SOL    HW132762   0.943   5.958   2.068
10621SOL    HW232763   1.030   6.027   2.188
10622SOL     OW32764   5.044   1.808   1.230
10622SOL    HW132765   5.051   1.773   1.137
10622SOL    HW232766   5.047   1.908   1.228
10623SOL     OW32767   7.012   4.701   4.954
10623SOL    HW132768   6.973   4.648   5.029
10623SOL    HW232769   6.971   4.671   4.868
10624SOL     OW32770   0.274   2.786   4.875
10624SOL    HW132771   0.211   2.739   4.814
10624SOL    HW232772   0.353   2.818   4.824
10625SOL     OW32773   0.596   4.248   0.413
10625SOL    HW132774   0.538   4.234   0.332
10625SOL    HW232775   0.692   4.253   0.385
10626SOL     OW32776   2.730   3.030   0.791
10626SOL    HW132777   2.653   3.003   0.733
10626SOL    HW232778   2.716   3.123   0.824
10627SOL     OW32779   5.211   0.037   0.650
10627SOL    HW132780   5.299   0.001   0.683
10627SOL    HW232781   5.219   0.060   0.553
10628SOL     OW32782   5.011   6.275   0.205
10628SOL    HW132783   5.080   6.318   0.147
10628SOL    HW232784   4.928   6.257   0.151
10629SOL     OW32785   2.597   4.997   5.367
10629SOL    HW132786   2.675   4.936   5.376
10629SOL    HW232787   2.562   4.993   5.273
10630SOL     OW32788   6.682   1.048   3.601
10630SOL    HW132789   6.771   1.004   3.590
10630SOL    HW232790   6.668   1.113   3.526
10631SOL     OW32791   2.391   4.665   4.460
10631SOL    HW132792   2.360   4.588   4.515
10631SOL    HW232793   2.313   4.721   4.434
10632SOL     OW32794   6.228   2.043   3.916
10632SOL    HW132795   6.295   1.973   3.939
10632SOL    HW232796   6.274   2.126   3.886
10633SOL     OW32797   2.882   2.805   1.243
10633SOL    HW132798   2.819   2.784   1.318
10633SOL    HW232799   2.901   2.903   1.242
10634SOL     OW32800   3.334   5.697   0.646
10634SOL    HW132801   3.429   5.703   0.617
10634SOL    HW232802   3.314   5.605   0.680
10635SOL     OW32803   2.961   2.181   1.027
10635SOL    HW132804   3.055   2.204   1.052
10635SOL    HW232805   2.927   2.247   0.959
10636SOL     OW32806   1.301   1.680   1.588
10636SOL    HW132807   1.352   1.664   1.503
10636SOL    HW232808   1.254   1.596   1.615
10637SOL     OW32809   2.545   4.940   6.061
10637SOL    HW132810   2.643   4.919   6.069
10637SOL    HW232811   2.528   5.031   6.100
10638SOL     OW32812   6.872   5.724   2.650
10638SOL    HW132813   6.945   5.790   2.671
10638SOL    HW232814   6.793   5.773   2.614
10639SOL     OW32815   0.684   3.176   3.588
10639SOL    HW132816   0.663   3.109   3.660
10639SOL    HW232817   0.645   3.145   3.501
10640SOL     OW32818   3.890   0.031   5.639
10640SOL    HW132819   3.890   0.008   5.542
10640SOL    HW232820   3.948   6.990   5.688
10641SOL     OW32821   2.459   1.740   1.577
10641SOL    HW132822   2.414   1.805   1.638
10641SOL    HW232823   2.552   1.724   1.609
10642SOL     OW32824   0.352   3.496   2.021
10642SOL    HW132825   0.365   3.594   2.009
10642SOL    HW232826   0.256   3.473   2.009
10643SOL     OW32827   1.835   4.894   5.351
10643SOL    HW132828   1.930   4.863   5.358
10643SOL    HW232829   1.773   4.818   5.370
10644SOL     OW32830   5.519   2.633   3.255
10644SOL    HW132831   5.573   2.664   3.177
10644SOL    HW232832   5.552   2.678   3.338
10645SOL     OW32833   1.410   2.030   5.078
10645SOL    HW132834   1.476   2.080   5.023
10645SOL    HW232835   1.368   1.958   5.023
10646SOL     OW32836   6.535   0.518   6.599
10646SOL    HW132837   6.443   0.537   6.634
10646SOL    HW232838   6.558   0.423   6.617
10647SOL     OW32839   2.749   5.447   5.235
10647SOL    HW132840   2.755   5.418   5.330
10647SOL    HW232841   2.745   5.367   5.176
10648SOL     OW32842   5.624   4.496   6.295
10648SOL    HW132843   5.546   4.552   6.266
10648SOL    HW232844   5.615   4.405   6.255
10649SOL     OW32845   0.086   4.214   3.182
10649SOL    HW132846   0.064   4.220   3.085
10649SOL    HW232847   0.118   4.122   3.204
10650SOL     OW32848   0.896   6.404   3.719
10650SOL    HW132849   0.798   6.408   3.735
10650SOL    HW232850   0.913   6.375   3.625
10651SOL     OW32851   4.558   6.231   6.565
10651SOL    HW132852   4.483   6.273   6.513
10651SOL    HW232853   4.521   6.186   6.646
10652SOL     OW32854   3.560   0.307   6.206
10652SOL    HW132855   3.571   0.257   6.292
10652SOL    HW232856   3.500   0.255   6.145
10653SOL     OW32857   4.544   4.436   4.169
10653SOL    HW132858   4.560   4.414   4.073
10653SOL    HW232859   4.604   4.382   4.227
10654SOL     OW32860   4.676   0.837   0.612
10654SOL    HW132861   4.728   0.756   0.585
10654SOL    HW232862   4.593   0.809   0.660
10655SOL     OW32863   2.630   5.436   0.484
10655SOL    HW132864   2.727   5.417   0.467
10655SOL    HW232865   2.609   5.529   0.455
10656SOL     OW32866   6.323   1.873   2.306
10656SOL    HW132867   6.322   1.878   2.406
10656SOL    HW232868   6.323   1.965   2.267
10657SOL     OW32869   6.718   0.048   6.048
10657SOL    HW132870   6.790   0.035   5.980
10657SOL    HW232871   6.668   0.132   6.028
10658SOL     OW32872   5.776   4.508   4.803
10658SOL    HW132873   5.857   4.549   4.844
10658SOL    HW232874   5.715   4.581   4.771
10659SOL     OW32875   6.603   6.018   1.291
10659SOL    HW132876   6.593   5.934   1.238
10659SOL    HW232877   6.689   6.015   1.342
10660SOL     OW32878   5.413   3.555   0.284
10660SOL    HW132879   5.499   3.583   0.242
10660SOL    HW232880   5.378   3.629   0.342
10661SOL     OW32881   0.915   6.794   2.568
10661SOL    HW132882   0.943   6.861   2.499
10661SOL    HW232883   0.889   6.842   2.652
10662SOL     OW32884   5.552   0.946   3.429
10662SOL    HW132885   5.596   1.025   3.472
10662SOL    HW232886   5.487   0.905   3.493
10663SOL     OW32887   1.092   1.041   1.929
10663SOL    HW132888   1.113   1.000   1.840
10663SOL    HW232889   0.999   1.016   1.956
10664SOL     OW32890   0.755   4.792   5.287
10664SOL    HW132891   0.702   4.813   5.205
10664SOL    HW232892   0.705   4.822   5.368
10665SOL     OW32893   0.882   1.242   0.612
10665SOL    HW132894   0.803   1.302   0.627
10665SOL    HW232895   0.955   1.293   0.567
10666SOL     OW32896   3.108   4.236   0.980
10666SOL    HW132897   3.101   4.227   1.079
10666SOL    HW232898   3.066   4.322   0.951
10667SOL     OW32899   3.948   3.244   5.447
10667SOL    HW132900   3.850   3.258   5.456
10667SOL    HW232901   3.967   3.148   5.429
10668SOL     OW32902   1.449   1.122   5.088
10668SOL    HW132903   1.405   1.196   5.137
10668SOL    HW232904   1.403   1.109   4.999
10669SOL     OW32905   5.879   6.085   0.874
10669SOL    HW132906   5.861   6.179   0.844
10669SOL    HW232907   5.976   6.074   0.894
10670SOL     OW32908   5.299   4.113   5.156
10670SOL    HW132909   5.281   4.068   5.243
10670SOL    HW232910   5.391   4.153   5.157
10671SOL     OW32911   2.693   2.406   3.426
10671SOL    HW132912   2.627   2.345   3.382
10671SOL    HW232913   2.785   2.372   3.410
10672SOL     OW32914   6.159   2.883   0.403
10672SOL    HW132915   6.099   2.827   0.345
10672SOL    HW232916   6.172   2.973   0.360
10673SOL     OW32917   1.073   1.503   6.823
10673SOL    HW132918   0.984   1.457   6.820
10673SOL    HW232919   1.063   1.593   6.866
10674SOL     OW32920   3.364   3.806   0.870
10674SOL    HW132921   3.275   3.849   0.885
10674SOL    HW232922   3.352   3.716   0.830
10675SOL     OW32923   2.170   0.008   6.622
10675SOL    HW132924   2.175   6.938   6.587
10675SOL    HW232925   2.077   0.043   6.610
10676SOL     OW32926   6.121   6.770   5.604
10676SOL    HW132927   6.135   6.869   5.601
10676SOL    HW232928   6.058   6.743   5.531
10677SOL     OW32929   0.480   0.599   2.465
10677SOL    HW132930   0.383   0.610   2.487
10677SOL    HW232931   0.493   0.518   2.407
10678SOL     OW32932   3.930   5.451   2.918
10678SOL    HW132933   3.930   5.410   3.009
10678SOL    HW232934   3.869   5.530   2.916
10679SOL     OW32935   5.371   5.030   6.545
10679SOL    HW132936   5.373   5.115   6.599
10679SOL    HW232937   5.461   5.014   6.506
10680SOL     OW32938   2.989   1.869   3.567
10680SOL    HW132939   2.891   1.872   3.589
10680SOL    HW232940   3.012   1.778   3.534
10681SOL     OW32941   0.698   4.074   7.007
10681SOL    HW132942   0.690   4.026   6.920
10681SOL    HW232943   0.784   4.126   7.009
10682SOL     OW32944   1.641   1.923   4.202
10682SOL    HW132945   1.667   1.871   4.283
10682SOL    HW232946   1.554   1.970   4.219
10683SOL     OW32947   3.326   1.850   4.141
10683SOL    HW132948   3.341   1.944   4.170
10683SOL    HW232949   3.367   1.836   4.051
10684SOL     OW32950   5.422   4.441   1.126
10684SOL    HW132951   5.357   4.428   1.050
10684SOL    HW232952   5.512   4.407   1.098
10685SOL     OW32953   0.564   5.613   2.908
10685SOL    HW132954   0.547   5.712   2.907
10685SOL    HW232955   0.627   5.589   2.835
10686SOL     OW32956   1.381   4.722   6.449
10686SOL    HW132957   1.289   4.684   6.459
10686SOL    HW232958   1.431   4.670   6.379
10687SOL     OW32959   6.942   5.452   1.917
10687SOL    HW132960   6.979   5.545   1.915
10687SOL    HW232961   6.990   5.398   1.985
10688SOL     OW32962   6.493   3.890   3.058
10688SOL    HW132963   6.462   3.984   3.044
10688SOL    HW232964   6.426   3.841   3.115
10689SOL     OW32965   0.727   6.688   3.911
10689SOL    HW132966   0.810   6.650   3.951
10689SOL    HW232967   0.737   6.694   3.812
10690SOL     OW32968   0.193   5.963   3.019
10690SOL    HW132969   0.102   5.962   3.061
10690SOL    HW232970   0.195   5.901   2.941
10691SOL     OW32971   1.122   1.154   2.323
10691SOL    HW132972   1.156   1.247   2.333
10691SOL    HW232973   1.198   1.092   2.308
10692SOL     OW32974   3.503   4.932   2.519
10692SOL    HW132975   3.432   4.998   2.541
10692SOL    HW232976   3.562   4.969   2.448
10693SOL     OW32977   2.407   0.044   1.324
10693SOL    HW132978   2.413   0.026   1.226
10693SOL    HW232979   2.378   0.139   1.338
10694SOL     OW32980   4.756   6.355   1.115
10694SOL    HW132981   4.810   6.437   1.132
10694SOL    HW232982   4.707   6.330   1.199
10695SOL     OW32983   5.547   2.360   2.898
10695SOL    HW132984   5.611   2.382   2.824
10695SOL    HW232985   5.472   2.305   2.862
10696SOL     OW32986   6.720   3.784   3.292
10696SOL    HW132987   6.747   3.787   3.388
10696SOL    HW232988   6.699   3.876   3.260
10697SOL     OW32989   0.259   5.790   4.561
10697SOL    HW132990   0.321   5.728   4.513
10697SOL    HW232991   0.273   5.781   4.660
10698SOL     OW32992   4.200   6.353   4.283
10698SOL    HW132993   4.290   6.331   4.244
10698SOL    HW232994   4.177   6.286   4.353
10699SOL     OW32995   4.255   2.384   1.779
10699SOL    HW132996   4.157   2.404   1.785
10699SOL    HW232997   4.288   2.403   1.687
10700SOL     OW32998   0.739   6.880   0.845
10700SOL    HW132999   0.836   6.898   0.854
10700SOL    HW233000   0.693   6.900   0.931
10701SOL     OW33001   3.532   5.600   0.338
10701SOL    HW133002   3.580   5.652   0.409
10701SOL    HW233003   3.593   5.583   0.261
10702SOL     OW33004   6.234   2.156   2.725
10702SOL    HW133005   6.178   2.239   2.725
10702SOL    HW233006   6.177   2.078   2.751
10703SOL     OW33007   3.025   3.136   4.068
10703SOL    HW133008   3.095   3.087   4.120
10703SOL    HW233009   2.945   3.152   4.126
10704SOL     OW33010   5.844   5.491   1.976
10704SOL    HW133011   5.898   5.573   1.994
10704SOL    HW233012   5.869   5.453   1.886
10705SOL     OW33013   6.971   4.312   2.573
10705SOL    HW133014   7.021   4.245   2.518
10705SOL    HW233015   6.919   4.264   2.643
10706SOL     OW33016   4.642   6.281   2.110
10706SOL    HW133017   4.689   6.366   2.135
10706SOL    HW233018   4.555   6.275   2.159
10707SOL     OW33019   0.718   6.639   4.249
10707SOL    HW133020   0.777   6.567   4.286
10707SOL    HW233021   0.638   6.597   4.205
10708SOL     OW33022   4.255   0.588   2.238
10708SOL    HW133023   4.330   0.645   2.270
10708SOL    HW233024   4.213   0.541   2.316
10709SOL     OW33025   6.078   0.388   5.098
10709SOL    HW133026   6.137   0.397   5.018
10709SOL    HW233027   5.983   0.404   5.071
10710SOL     OW33028   0.663   6.304   4.028
10710SOL    HW133029   0.685   6.251   3.947
10710SOL    HW233030   0.609   6.384   4.002
10711SOL     OW33031   1.611   6.792   3.813
10711SOL    HW133032   1.575   6.806   3.905
10711SOL    HW233033   1.667   6.871   3.787
10712SOL     OW33034   3.253   1.210   1.455
10712SOL    HW133035   3.228   1.252   1.368
10712SOL    HW233036   3.284   1.280   1.519
10713SOL     OW33037   0.940   4.060   2.190
10713SOL    HW133038   0.865   4.123   2.170
10713SOL    HW233039   1.026   4.110   2.195
10714SOL     OW33040   5.757   3.082   5.620
10714SOL    HW133041   5.809   3.041   5.546
10714SOL    HW233042   5.762   3.181   5.614
10715SOL     OW33043   4.824   6.831   2.813
10715SOL    HW133044   4.725   6.842   2.799
10715SOL    HW233045   4.867   6.804   2.727
10716SOL     OW33046   6.459   2.439   3.954
10716SOL    HW133047   6.414   2.508   4.011
10716SOL    HW233048   6.425   2.445   3.861
10717SOL     OW33049   0.628   2.497   0.576
10717SOL    HW133050   0.552   2.438   0.548
10717SOL    HW233051   0.603   2.546   0.659
10718SOL     OW33052   6.938   4.219   6.757
10718SOL    HW133053   6.862   4.153   6.757
10718SOL    HW233054   6.976   4.226   6.849
10719SOL     OW33055   4.773   5.902   0.814
10719SOL    HW133056   4.747   5.814   0.854
10719SOL    HW233057   4.871   5.902   0.795
10720SOL     OW33058   7.021   2.991   5.585
10720SOL    HW133059   0.013   2.902   5.628
10720SOL    HW233060   6.962   2.981   5.505
10721SOL     OW33061   5.666   3.158   5.169
10721SOL    HW133062   5.602   3.204   5.230
10721SOL    HW233063   5.631   3.163   5.075
10722SOL     OW33064   0.143   2.935   0.513
10722SOL    HW133065   0.112   2.858   0.457
10722SOL    HW233066   0.225   2.908   0.563
10723SOL     OW33067   6.717   4.369   6.725
10723SOL    HW133068   6.800   4.314   6.721
10723SOL    HW233069   6.672   4.368   6.636
10724SOL     OW33070   3.671   0.180   6.448
10724SOL    HW133071   3.596   0.149   6.505
10724SOL    HW233072   3.722   0.252   6.495
10725SOL     OW33073   0.105   5.073   3.945
10725SOL    HW133074   0.106   5.000   4.014
10725SOL    HW233075   0.200   5.098   3.924
10726SOL     OW33076   6.019   6.411   5.170
10726SOL    HW133077   5.954   6.456   5.109
10726SOL    HW233078   6.111   6.416   5.130
10727SOL     OW33079   1.601   4.807   4.219
10727SOL    HW133080   1.686   4.788   4.267
10727SOL    HW233081   1.599   4.903   4.190
10728SOL     OW33082   6.084   6.469   2.192
10728SOL    HW133083   6.068   6.568   2.189
10728SOL    HW233084   6.031   6.430   2.267
10729SOL     OW33085   6.523   0.829   3.300
10729SOL    HW133086   6.468   0.894   3.351
10729SOL    HW233087   6.564   0.874   3.221
10730SOL     OW33088   2.781   6.961   1.040
10730SOL    HW133089   2.801   7.019   0.961
10730SOL    HW233090   2.754   7.018   1.118
10731SOL     OW33091   2.083   5.856   6.657
10731SOL    HW133092   2.110   5.760   6.657
10731SOL    HW233093   2.139   5.906   6.590
10732SOL     OW33094   5.491   0.130   2.353
10732SOL    HW133095   5.394   0.122   2.376
10732SOL    HW233096   5.527   0.040   2.329
10733SOL     OW33097   5.663   2.667   6.818
10733SOL    HW133098   5.624   2.650   6.727
10733SOL    HW233099   5.637   2.592   6.879
10734SOL     OW33100   1.519   0.592   6.199
10734SOL    HW133101   1.478   0.682   6.187
10734SOL    HW233102   1.607   0.602   6.245
10735SOL     OW33103   1.180   4.217   2.360
10735SOL    HW133104   1.252   4.223   2.430
10735SOL    HW233105   1.221   4.230   2.270
10736SOL     OW33106   0.842   1.355   3.887
10736SOL    HW133107   0.906   1.431   3.891
10736SOL    HW233108   0.797   1.354   3.797
10737SOL     OW33109   0.684   1.995   6.913
10737SOL    HW133110   0.652   1.910   6.956
10737SOL    HW233111   0.755   1.974   6.846
10738SOL     OW33112   3.031   0.185   1.690
10738SOL    HW133113   3.039   0.267   1.633
10738SOL    HW233114   3.101   0.118   1.663
10739SOL     OW33115   0.631   0.957   2.948
10739SOL    HW133116   0.651   0.904   3.030
10739SOL    HW233117   0.548   0.923   2.905
10740SOL     OW33118   1.547   5.008   6.027
10740SOL    HW133119   1.581   4.933   6.085
10740SOL    HW233120   1.581   5.095   6.063
10741SOL     OW33121   1.460   1.438   3.477
10741SOL    HW133122   1.479   1.533   3.455
10741SOL    HW233123   1.387   1.404   3.417
10742SOL     OW33124   6.145   0.426   2.285
10742SOL    HW133125   6.173   0.337   2.249
10742SOL    HW233126   6.217   0.493   2.267
10743SOL     OW33127   2.494   2.611   3.788
10743SOL    HW133128   2.574   2.553   3.776
10743SOL    HW233129   2.506   2.696   3.737
10744SOL     OW33130   3.318   1.687   2.615
10744SOL    HW133131   3.337   1.685   2.517
10744SOL    HW233132   3.265   1.769   2.638
10745SOL     OW33133   1.260   4.804   0.560
10745SOL    HW133134   1.278   4.884   0.503
10745SOL    HW233135   1.344   4.776   0.606
10746SOL     OW33136   1.864   4.514   0.715
10746SOL    HW133137   1.846   4.545   0.808
10746SOL    HW233138   1.955   4.545   0.686
10747SOL     OW33139   5.182   1.526   3.305
10747SOL    HW133140   5.281   1.533   3.318
10747SOL    HW233141   5.163   1.500   3.210
10748SOL     OW33142   5.935   6.941   1.167
10748SOL    HW133143   5.838   6.919   1.154
10748SOL    HW233144   5.943   7.019   1.229
10749SOL     OW33145   0.217   5.097   2.933
10749SOL    HW133146   0.124   5.070   2.959
10749SOL    HW233147   0.216   5.136   2.841
10750SOL     OW33148   5.043   5.178   4.489
10750SOL    HW133149   5.067   5.169   4.392
10750SOL    HW233150   5.058   5.090   4.534
10751SOL     OW33151   0.725   3.895   5.359
10751SOL    HW133152   0.707   3.802   5.329
10751SOL    HW233153   0.678   3.959   5.298
10752SOL     OW33154   5.916   3.905   6.459
10752SOL    HW133155   5.993   3.967   6.443
10752SOL    HW233156   5.892   3.859   6.374
10753SOL     OW33157   5.964   0.215   3.674
10753SOL    HW133158   6.035   0.168   3.621
10753SOL    HW233159   5.965   0.313   3.652
10754SOL     OW33160   1.950   1.720   3.232
10754SOL    HW133161   1.930   1.655   3.305
10754SOL    HW233162   1.887   1.798   3.238
10755SOL     OW33163   6.939   1.386   0.834
10755SOL    HW133164   6.992   1.311   0.873
10755SOL    HW233165   6.926   1.370   0.736
10756SOL     OW33166   6.325   3.717   0.763
10756SOL    HW133167   6.306   3.743   0.858
10756SOL    HW233168   6.241   3.685   0.720
10757SOL     OW33169   0.009   3.901   0.463
10757SOL    HW133170   6.958   3.967   0.457
10757SOL    HW233171   7.002   3.814   0.424
10758SOL     OW33172   1.573   6.174   5.135
10758SOL    HW133173   1.608   6.246   5.195
10758SOL    HW233174   1.605   6.085   5.169
10759SOL     OW33175   1.815   3.427   6.714
10759SOL    HW133176   1.817   3.340   6.665
10759SOL    HW233177   1.802   3.410   6.811
10760SOL     OW33178   6.931   0.209   1.262
10760SOL    HW133179   6.978   0.132   1.217
10760SOL    HW233180   6.867   0.174   1.330
10761SOL     OW33181   0.750   1.561   6.231
10761SOL    HW133182   0.687   1.635   6.255
10761SOL    HW233183   0.815   1.594   6.163
10762SOL     OW33184   4.364   1.064   5.097
10762SOL    HW133185   4.338   1.149   5.052
10762SOL    HW233186   4.398   0.999   5.029
10763SOL     OW33187   4.938   6.220   0.951
10763SOL    HW133188   5.020   6.248   1.002
10763SOL    HW233189   4.857   6.233   1.008
10764SOL     OW33190   5.708   1.809   6.325
10764SOL    HW133191   5.619   1.778   6.293
10764SOL    HW233192   5.740   1.885   6.268
10765SOL     OW33193   5.582   2.358   1.105
10765SOL    HW133194   5.487   2.385   1.122
10765SOL    HW233195   5.634   2.437   1.072
10766SOL     OW33196   2.761   3.516   0.353
10766SOL    HW133197   2.753   3.580   0.430
10766SOL    HW233198   2.757   3.567   0.267
10767SOL     OW33199   1.356   0.741   0.679
10767SOL    HW133200   1.445   0.696   0.689
10767SOL    HW233201   1.361   0.833   0.717
10768SOL     OW33202   5.591   5.474   0.298
10768SOL    HW133203   5.685   5.462   0.266
10768SOL    HW233204   5.545   5.543   0.242
10769SOL     OW33205   2.514   5.400   4.954
10769SOL    HW133206   2.488   5.416   5.049
10769SOL    HW233207   2.445   5.344   4.908
10770SOL     OW33208   5.708   0.077   4.654
10770SOL    HW133209   5.718   0.051   4.750
10770SOL    HW233210   5.796   0.108   4.618
10771SOL     OW33211   4.863   0.127   5.502
10771SOL    HW133212   4.850   0.152   5.406
10771SOL    HW233213   4.805   0.185   5.559
10772SOL     OW33214   6.089   6.829   4.154
10772SOL    HW133215   6.013   6.893   4.155
10772SOL    HW233216   6.055   6.735   4.157
10773SOL     OW33217   6.802   4.939   6.889
10773SOL    HW133218   6.861   4.961   6.967
10773SOL    HW233219   6.708   4.967   6.910
10774SOL     OW33220   1.619   1.929   0.166
10774SOL    HW133221   1.589   1.980   0.086
10774SOL    HW233222   1.693   1.979   0.212
10775SOL     OW33223   1.091   3.815   0.496
10775SOL    HW133224   1.169   3.867   0.461
10775SOL    HW233225   1.056   3.755   0.424
10776SOL     OW33226   1.197   6.192   0.907
10776SOL    HW133227   1.195   6.277   0.853
10776SOL    HW233228   1.215   6.115   0.846
10777SOL     OW33229   4.147   0.178   3.945
10777SOL    HW133230   4.049   0.170   3.927
10777SOL    HW233231   4.187   0.245   3.884
10778SOL     OW33232   5.467   0.110   4.854
10778SOL    HW133233   5.525   0.103   4.936
10778SOL    HW233234   5.438   0.018   4.827
10779SOL     OW33235   6.671   4.796   3.096
10779SOL    HW133236   6.748   4.749   3.053
10779SOL    HW233237   6.598   4.731   3.115
10780SOL     OW33238   1.295   6.539   2.685
10780SOL    HW133239   1.258   6.568   2.597
10780SOL    HW233240   1.374   6.479   2.669
10781SOL     OW33241   3.940   1.512   3.987
10781SOL    HW133242   3.853   1.465   3.999
10781SOL    HW233243   3.924   1.609   3.967
10782SOL     OW33244   6.305   2.469   3.361
10782SOL    HW133245   6.302   2.546   3.424
10782SOL    HW233246   6.333   2.501   3.270
10783SOL     OW33247   1.348   3.301   3.155
10783SOL    HW133248   1.262   3.250   3.147
10783SOL    HW233249   1.393   3.276   3.241
10784SOL     OW33250   2.481   6.716   1.858
10784SOL    HW133251   2.431   6.736   1.942
10784SOL    HW233252   2.469   6.619   1.834
10785SOL     OW33253   1.374   4.556   1.671
10785SOL    HW133254   1.406   4.643   1.633
10785SOL    HW233255   1.286   4.570   1.716
10786SOL     OW33256   5.375   3.251   1.787
10786SOL    HW133257   5.388   3.342   1.747
10786SOL    HW233258   5.459   3.198   1.777
10787SOL     OW33259   3.425   1.773   4.876
10787SOL    HW133260   3.524   1.761   4.877
10787SOL    HW233261   3.402   1.854   4.822
10788SOL     OW33262   2.417   4.634   0.163
10788SOL    HW133263   2.510   4.605   0.184
10788SOL    HW233264   2.352   4.571   0.205
10789SOL     OW33265   5.450   1.908   1.016
10789SOL    HW133266   5.473   1.832   0.956
10789SOL    HW233267   5.476   1.994   0.973
10790SOL     OW33268   0.637   0.730   4.442
10790SOL    HW133269   0.711   0.663   4.437
10790SOL    HW233270   0.557   0.688   4.485
10791SOL     OW33271   0.745   1.120   1.632
10791SOL    HW133272   0.723   1.119   1.730
10791SOL    HW233273   0.844   1.128   1.621
10792SOL     OW33274   3.102   3.072   1.746
10792SOL    HW133275   3.136   3.013   1.819
10792SOL    HW233276   3.178   3.098   1.686
10793SOL     OW33277   5.475   2.509   4.006
10793SOL    HW133278   5.480   2.465   3.917
10793SOL    HW233279   5.531   2.458   4.072
10794SOL     OW33280   3.375   3.848   2.531
10794SOL    HW133281   3.336   3.845   2.439
10794SOL    HW233282   3.301   3.848   2.598
10795SOL     OW33283   6.126   4.110   3.995
10795SOL    HW133284   6.205   4.055   4.023
10795SOL    HW233285   6.149   4.159   3.911
10796SOL     OW33286   3.652   6.179   6.503
10796SOL    HW133287   3.691   6.102   6.453
10796SOL    HW233288   3.642   6.257   6.443
10797SOL     OW33289   4.248   2.708   0.926
10797SOL    HW133290   4.185   2.763   0.869
10797SOL    HW233291   4.342   2.733   0.904
10798SOL     OW33292   1.914   0.052   0.550
10798SOL    HW133293   1.880   0.104   0.628
10798SOL    HW233294   1.980   7.007   0.581
10799SOL     OW33295   3.620   1.718   1.764
10799SOL    HW133296   3.568   1.680   1.841
10799SOL    HW233297   3.600   1.815   1.756
10800SOL     OW33298   1.212   6.769   6.951
10800SOL    HW133299   1.189   6.798   0.021
10800SOL    HW233300   1.194   6.844   6.888
10801SOL     OW33301   1.013   0.097   4.943
10801SOL    HW133302   0.975   0.005   4.956
10801SOL    HW233303   1.052   0.104   4.851
10802SOL     OW33304   2.042   3.376   4.823
10802SOL    HW133305   1.986   3.326   4.889
10802SOL    HW233306   2.128   3.326   4.808
10803SOL     OW33307   4.751   4.574   5.032
10803SOL    HW133308   4.812   4.571   4.953
10803SOL    HW233309   4.664   4.616   5.005
10804SOL     OW33310   6.842   4.326   1.578
10804SOL    HW133311   6.767   4.275   1.620
10804SOL    HW233312   6.806   4.400   1.522
10805SOL     OW33313   3.383   6.415   6.871
10805SOL    HW133314   3.422   6.354   6.803
10805SOL    HW233315   3.434   6.408   6.957
10806SOL     OW33316   5.367   4.481   0.039
10806SOL    HW133317   5.376   4.408   6.994
10806SOL    HW233318   5.357   4.441   0.130
10807SOL     OW33319   3.205   6.844   3.387
10807SOL    HW133320   3.272   6.877   3.321
10807SOL    HW233321   3.216   6.746   3.399
10808SOL     OW33322   0.162   3.935   6.989
10808SOL    HW133323   0.242   3.879   7.012
10808SOL    HW233324   0.177   3.979   6.901
10809SOL     OW33325   2.807   6.854   3.737
10809SOL    HW133326   2.837   6.886   3.647
10809SOL    HW233327   2.800   6.932   3.799
10810SOL     OW33328   1.262   0.974   5.625
10810SOL    HW133329   1.219   1.044   5.683
10810SOL    HW233330   1.359   0.967   5.647
10811SOL     OW33331   4.757   5.213   5.048
10811SOL    HW133332   4.808   5.291   5.011
10811SOL    HW233333   4.814   5.131   5.042
10812SOL     OW33334   0.617   3.374   2.586
10812SOL    HW133335   0.646   3.461   2.625
10812SOL    HW233336   0.638   3.300   2.651
10813SOL     OW33337   1.872   6.189   6.875
10813SOL    HW133338   1.877   6.165   6.778
10813SOL    HW233339   1.806   6.130   6.920
10814SOL     OW33340   1.872   6.960   6.389
10814SOL    HW133341   1.914   0.007   6.446
10814SOL    HW233342   1.780   6.991   6.361
10815SOL     OW33343   4.910   5.187   3.348
10815SOL    HW133344   4.949   5.182   3.256
10815SOL    HW233345   4.881   5.280   3.367
10816SOL     OW33346   1.440   1.244   2.411
10816SOL    HW133347   1.457   1.243   2.509
10816SOL    HW233348   1.365   1.307   2.390
10817SOL     OW33349   5.229   6.838   2.859
10817SOL    HW133350   5.247   6.792   2.946
10817SOL    HW233351   5.290   6.917   2.849
10818SOL     OW33352   4.891   4.006   5.567
10818SOL    HW133353   4.907   4.068   5.490
10818SOL    HW233354   4.972   4.002   5.625
10819SOL     OW33355   6.949   4.685   6.896
10819SOL    HW133356   6.861   4.654   6.933
10819SOL    HW233357   6.937   4.776   6.856
10820SOL     OW33358   6.156   6.334   3.942
10820SOL    HW133359   6.202   6.420   3.921
10820SOL    HW233360   6.103   6.304   3.862
10821SOL     OW33361   5.137   6.165   2.042
10821SOL    HW133362   5.216   6.119   2.084
10821SOL    HW233363   5.106   6.112   1.963
10822SOL     OW33364   1.474   2.663   3.152
10822SOL    HW133365   1.570   2.637   3.142
10822SOL    HW233366   1.441   2.637   3.243
10823SOL     OW33367   1.350   5.222   1.643
10823SOL    HW133368   1.403   5.139   1.656
10823SOL    HW233369   1.380   5.292   1.708
10824SOL     OW33370   4.982   0.078   4.176
10824SOL    HW133371   5.049   0.050   4.107
10824SOL    HW233372   4.904   0.121   4.131
10825SOL     OW33373   2.779   0.600   0.735
10825SOL    HW133374   2.763   0.596   0.636
10825SOL    HW233375   2.707   0.655   0.778
10826SOL     OW33376   0.249   3.784   3.914
10826SOL    HW133377   0.335   3.734   3.909
10826SOL    HW233378   0.174   3.724   3.887
10827SOL     OW33379   5.606   3.902   4.621
10827SOL    HW133380   5.705   3.916   4.613
10827SOL    HW233381   5.559   3.990   4.617
10828SOL     OW33382   1.052   5.814   2.613
10828SOL    HW133383   1.033   5.764   2.697
10828SOL    HW233384   1.069   5.749   2.539
10829SOL     OW33385   3.686   2.417   0.304
10829SOL    HW133386   3.599   2.461   0.280
10829SOL    HW233387   3.761   2.479   0.281
10830SOL     OW33388   4.608   1.598   3.227
10830SOL    HW133389   4.692   1.618   3.177
10830SOL    HW233390   4.531   1.644   3.183
10831SOL     OW33391   4.488   5.713   1.966
10831SOL    HW133392   4.474   5.801   1.922
10831SOL    HW233393   4.400   5.672   1.988
10832SOL     OW33394   0.116   1.926   0.738
10832SOL    HW133395   0.094   1.848   0.797
10832SOL    HW233396   0.031   1.963   0.699
10833SOL     OW33397   1.536   0.900   4.045
10833SOL    HW133398   1.519   0.820   3.988
10833SOL    HW233399   1.609   0.880   4.110
10834SOL     OW33400   0.974   1.949   6.128
10834SOL    HW133401   0.913   2.027   6.122
10834SOL    HW233402   1.069   1.980   6.121
10835SOL     OW33403   5.565   1.887   1.286
10835SOL    HW133404   5.564   1.868   1.188
10835SOL    HW233405   5.485   1.942   1.310
10836SOL     OW33406   6.091   1.157   5.006
10836SOL    HW133407   6.088   1.064   5.044
10836SOL    HW233408   6.060   1.155   4.911
10837SOL     OW33409   0.608   4.946   0.276
10837SOL    HW133410   0.516   4.918   0.301
10837SOL    HW233411   0.609   4.978   0.181
10838SOL     OW33412   5.730   6.845   4.329
10838SOL    HW133413   5.665   6.856   4.405
10838SOL    HW233414   5.699   6.772   4.269
10839SOL     OW33415   3.280   3.113   0.630
10839SOL    HW133416   3.243   3.117   0.723
10839SOL    HW233417   3.268   3.021   0.593
10840SOL     OW33418   4.261   6.061   1.493
10840SOL    HW133419   4.217   6.010   1.567
10840SOL    HW233420   4.304   6.144   1.532
10841SOL     OW33421   3.867   6.686   6.692
10841SOL    HW133422   3.927   6.634   6.753
10841SOL    HW233423   3.772   6.658   6.706
10842SOL     OW33424   6.043   3.405   0.830
10842SOL    HW133425   6.033   3.420   0.731
10842SOL    HW233426   6.124   3.349   0.847
10843SOL     OW33427   0.793   1.657   2.120
10843SOL    HW133428   0.891   1.676   2.128
10843SOL    HW233429   0.775   1.614   2.032
10844SOL     OW33430   0.500   6.547   4.018
10844SOL    HW133431   0.559   6.614   3.973
10844SOL    HW233432   0.449   6.591   4.092
10845SOL     OW33433   2.369   0.923   0.946
10845SOL    HW133434   2.404   1.011   0.912
10845SOL    HW233435   2.277   0.907   0.910
10846SOL     OW33436   4.644   3.125   0.658
10846SOL    HW133437   4.566   3.070   0.688
10846SOL    HW233438   4.719   3.115   0.724
10847SOL     OW33439   3.126   1.937   6.304
10847SOL    HW133440   3.043   1.990   6.316
10847SOL    HW233441   3.197   1.971   6.366
10848SOL     OW33442   3.466   2.170   6.605
10848SOL    HW133443   3.480   2.202   6.699
10848SOL    HW233444   3.432   2.246   6.549
10849SOL     OW33445   3.107   4.876   3.453
10849SOL    HW133446   3.173   4.871   3.378
10849SOL    HW233447   3.155   4.880   3.540
10850SOL     OW33448   4.826   6.024   6.750
10850SOL    HW133449   4.811   6.122   6.737
10850SOL    HW233450   4.886   5.990   6.678
10851SOL     OW33451   2.753   3.023   6.578
10851SOL    HW133452   2.671   3.047   6.631
10851SOL    HW233453   2.816   2.973   6.636
10852SOL     OW33454   0.054   6.670   5.816
10852SOL    HW133455   0.139   6.676   5.763
10852SOL    HW233456   0.014   6.579   5.803
10853SOL     OW33457   3.837   1.909   5.672
10853SOL    HW133458   3.915   1.877   5.618
10853SOL    HW233459   3.865   1.988   5.726
10854SOL     OW33460   6.226   0.015   5.539
10854SOL    HW133461   6.287   0.046   5.466
10854SOL    HW233462   6.146   0.076   5.543
10855SOL     OW33463   3.073   6.348   2.547
10855SOL    HW133464   3.033   6.439   2.558
10855SOL    HW233465   3.044   6.289   2.623
10856SOL     OW33466   5.616   1.556   2.128
10856SOL    HW133467   5.640   1.477   2.072
10856SOL    HW233468   5.519   1.551   2.153
10857SOL     OW33469   5.338   2.626   3.747
10857SOL    HW133470   5.421   2.571   3.739
10857SOL    HW233471   5.263   2.569   3.781
10858SOL     OW33472   1.459   2.719   6.514
10858SOL    HW133473   1.450   2.701   6.416
10858SOL    HW233474   1.394   2.790   6.541
10859SOL     OW33475   2.451   4.381   4.204
10859SOL    HW133476   2.414   4.319   4.135
10859SOL    HW233477   2.428   4.348   4.295
10860SOL     OW33478   6.402   1.181   5.650
10860SOL    HW133479   6.310   1.218   5.652
10860SOL    HW233480   6.410   1.108   5.717
10861SOL     OW33481   3.886   3.016   2.010
10861SOL    HW133482   3.793   3.051   2.023
10861SOL    HW233483   3.943   3.045   2.086
10862SOL     OW33484   2.445   1.285   6.855
10862SOL    HW133485   2.400   1.207   6.898
10862SOL    HW233486   2.387   1.366   6.861
10863SOL     OW33487   3.768   0.643   2.025
10863SOL    HW133488   3.845   0.629   1.963
10863SOL    HW233489   3.695   0.692   1.977
10864SOL     OW33490   2.550   4.598   0.992
10864SOL    HW133491   2.558   4.680   1.050
10864SOL    HW233492   2.465   4.550   1.016
10865SOL     OW33493   5.487   2.375   3.769
10865SOL    HW133494   5.586   2.373   3.760
10865SOL    HW233495   5.445   2.343   3.683
10866SOL     OW33496   6.337   3.866   0.992
10866SOL    HW133497   6.293   3.909   1.070
10866SOL    HW233498   6.414   3.923   0.961
10867SOL     OW33499   2.755   3.849   0.410
10867SOL    HW133500   2.686   3.826   0.479
10867SOL    HW233501   2.711   3.854   0.320
10868SOL     OW33502   2.181   1.470   3.205
10868SOL    HW133503   2.134   1.545   3.252
10868SOL    HW233504   2.188   1.491   3.107
10869NA      NA33505   0.386   2.498   6.031
10870NA      NA33506   4.326   4.574   5.298
10871NA      NA33507   2.229   4.361   2.214
10872NA      NA33508   5.105   4.559   3.576
10873NA      NA33509   4.402   2.397   5.157
10874NA      NA33510   3.443   4.414   1.484
10875NA      NA33511   0.718   4.531   0.356
10876NA      NA33512   3.871   4.013   1.682
10877NA      NA33513   5.033   4.787   0.967
10878NA      NA33514   3.668   0.131   5.719
10879NA      NA33515   6.098   5.495   0.923
10880NA      NA33516   1.692   0.815   5.780
10881NA      NA33517   4.578   5.092   2.154
10882NA      NA33518   3.838   2.887   1.076
   7.02319   7.02319   7.02319
