Generated by trjconv : CNT in water t= 365.00000
33518
    1C        C    1   2.842   2.766   4.745
    1C        C    2   2.899   2.719   4.865
    1C        C    3   2.841   2.766   4.984
    1C        C    4   2.850   2.777   4.259
    1C        C    5   2.903   2.728   4.380
    1C        C    6   2.845   2.771   4.502
    1C        C    7   3.008   2.635   4.626
    1C        C    8   2.892   2.715   4.624
    1C        C    9   3.076   2.596   4.744
    1C        C   10   3.007   2.628   4.862
    1C        C   11   3.183   2.496   4.978
    1C        C   12   3.059   2.561   4.974
    1C        C   13   2.851   2.773   3.774
    1C        C   14   2.900   2.722   3.896
    1C        C   15   2.849   2.776   4.016
    1C        C   16   3.018   2.646   4.139
    1C        C   17   2.904   2.729   4.137
    1C        C   18   3.081   2.612   4.261
    1C        C   19   3.017   2.644   4.383
    1C        C   20   3.207   2.556   4.504
    1C        C   21   3.073   2.602   4.505
    1C        C   22   3.280   2.534   4.623
    1C        C   23   3.207   2.540   4.744
    1C        C   24   3.412   2.477   4.862
    1C        C   25   3.271   2.502   4.865
    1C        C   26   3.491   2.482   4.977
    1C        C   27   2.850   2.770   3.281
    1C        C   28   2.904   2.726   3.404
    1C        C   29   2.855   2.774   3.527
    1C        C   30   3.017   2.643   3.651
    1C        C   31   2.905   2.728   3.651
    1C        C   32   3.079   2.607   3.773
    1C        C   33   3.016   2.642   3.895
    1C        C   34   3.207   2.551   4.016
    1C        C   35   3.078   2.608   4.018
    1C        C   36   3.276   2.532   4.138
    1C        C   37   3.212   2.559   4.261
    1C        C   38   3.416   2.514   4.378
    1C        C   39   3.277   2.533   4.383
    1C        C   40   3.487   2.508   4.501
    1C        C   41   3.418   2.506   4.624
    1C        C   42   3.632   2.476   4.743
    1C        C   43   3.490   2.478   4.743
    1C        C   44   3.704   2.484   4.865
    1C        C   45   3.630   2.476   4.984
    1C        C   46   2.842   2.759   2.793
    1C        C   47   2.896   2.714   2.915
    1C        C   48   2.844   2.762   3.038
    1C        C   49   3.021   2.642   3.159
    1C        C   50   2.902   2.719   3.159
    1C        C   51   3.079   2.605   3.282
    1C        C   52   3.016   2.639   3.404
    1C        C   53   3.205   2.550   3.527
    1C        C   54   3.075   2.603   3.528
    1C        C   55   3.274   2.530   3.649
    1C        C   56   3.210   2.556   3.772
    1C        C   57   3.416   2.506   3.892
    1C        C   58   3.277   2.533   3.894
    1C        C   59   3.486   2.501   4.015
    1C        C   60   3.415   2.505   4.137
    1C        C   61   3.629   2.493   4.257
    1C        C   62   3.487   2.497   4.258
    1C        C   63   3.700   2.509   4.378
    1C        C   64   3.628   2.504   4.499
    1C        C   65   3.833   2.546   4.619
    1C        C   66   3.698   2.503   4.622
    1C        C   67   3.903   2.561   4.740
    1C        C   68   3.840   2.521   4.860
    1C        C   69   4.050   2.583   4.976
    1C        C   70   3.918   2.538   4.975
    1C        C   71   2.820   2.731   2.306
    1C        C   72   2.879   2.690   2.427
    1C        C   73   2.831   2.742   2.549
    1C        C   74   3.010   2.630   2.669
    1C        C   75   2.890   2.705   2.672
    1C        C   76   3.076   2.600   2.790
    1C        C   77   3.012   2.635   2.912
    1C        C   78   3.206   2.551   3.035
    1C        C   79   3.075   2.604   3.034
    1C        C   80   3.275   2.532   3.157
    1C        C   81   3.209   2.549   3.280
    1C        C   82   3.412   2.504   3.403
    1C        C   83   3.273   2.530   3.405
    1C        C   84   3.482   2.493   3.525
    1C        C   85   3.412   2.499   3.648
    1C        C   86   3.625   2.497   3.767
    1C        C   87   3.484   2.490   3.770
    1C        C   88   3.694   2.509   3.890
    1C        C   89   3.627   2.503   4.014
    1C        C   90   3.836   2.543   4.134
    1C        C   91   3.700   2.506   4.136
    1C        C   92   3.904   2.568   4.255
    1C        C   93   3.836   2.546   4.378
    1C        C   94   4.029   2.635   4.496
    1C        C   95   3.904   2.570   4.499
    1C        C   96   4.091   2.666   4.620
    1C        C   97   4.031   2.623   4.740
    1C        C   98   4.188   2.766   4.859
    1C        C   99   4.099   2.653   4.861
    1C        C  100   4.216   2.837   4.976
    1C        C  101   2.831   2.738   2.067
    1C        C  102   2.992   2.593   2.188
    1C        C  103   2.880   2.683   2.186
    1C        C  104   3.065   2.573   2.309
    1C        C  105   3.000   2.616   2.426
    1C        C  106   3.199   2.537   2.550
    1C        C  107   3.068   2.589   2.547
    1C        C  108   3.273   2.523   2.670
    1C        C  109   3.207   2.548   2.793
    1C        C  110   3.412   2.493   2.916
    1C        C  111   3.274   2.522   2.915
    1C        C  112   3.485   2.496   3.037
    1C        C  113   3.414   2.506   3.159
    1C        C  114   3.625   2.493   3.280
    1C        C  115   3.484   2.495   3.281
    1C        C  116   3.692   2.505   3.404
    1C        C  117   3.623   2.495   3.527
    1C        C  118   3.834   2.541   3.645
    1C        C  119   3.697   2.506   3.646
    1C        C  120   3.899   2.564   3.768
    1C        C  121   3.830   2.547   3.890
    1C        C  122   4.025   2.636   4.010
    1C        C  123   3.898   2.574   4.011
    1C        C  124   4.088   2.670   4.132
    1C        C  125   4.031   2.630   4.255
    1C        C  126   4.200   2.763   4.375
    1C        C  127   4.092   2.672   4.375
    1C        C  128   4.245   2.817   4.497
    1C        C  129   4.195   2.762   4.618
    1C        C  130   4.331   2.928   4.739
    1C        C  131   4.245   2.815   4.738
    1C        C  132   4.362   2.995   4.859
    1C        C  133   4.283   2.959   4.969
    1C        C  134   3.172   2.468   2.079
    1C        C  135   3.038   2.507   2.084
    1C        C  136   3.259   2.475   2.189
    1C        C  137   3.195   2.517   2.308
    1C        C  138   3.405   2.483   2.428
    1C        C  139   3.265   2.503   2.430
    1C        C  140   3.481   2.487   2.547
    1C        C  141   3.412   2.498   2.670
    1C        C  142   3.622   2.494   2.789
    1C        C  143   3.481   2.488   2.792
    1C        C  144   3.694   2.503   2.911
    1C        C  145   3.626   2.494   3.034
    1C        C  146   3.831   2.532   3.156
    1C        C  147   3.695   2.493   3.157
    1C        C  148   3.897   2.558   3.278
    1C        C  149   3.830   2.538   3.401
    1C        C  150   4.025   2.628   3.521
    1C        C  151   3.900   2.562   3.521
    1C        C  152   4.082   2.669   3.644
    1C        C  153   4.022   2.635   3.767
    1C        C  154   4.190   2.769   3.887
    1C        C  155   4.081   2.679   3.887
    1C        C  156   4.240   2.817   4.010
    1C        C  157   4.195   2.762   4.132
    1C        C  158   4.340   2.920   4.253
    1C        C  159   4.252   2.809   4.252
    1C        C  160   4.376   2.984   4.373
    1C        C  161   4.328   2.931   4.495
    1C        C  162   4.432   3.116   4.617
    1C        C  163   4.366   2.991   4.617
    1C        C  164   4.463   3.185   4.736
    1C        C  165   4.431   3.118   4.856
    1C        C  166   4.508   3.319   4.972
    1C        C  167   4.474   3.184   4.972
    1C        C  168   3.472   2.427   2.072
    1C        C  169   3.398   2.451   2.188
    1C        C  170   3.616   2.467   2.306
    1C        C  171   3.474   2.464   2.306
    1C        C  172   3.692   2.487   2.423
    1C        C  173   3.622   2.488   2.546
    1C        C  174   3.829   2.537   2.666
    1C        C  175   3.694   2.495   2.668
    1C        C  176   3.894   2.561   2.789
    1C        C  177   3.832   2.533   2.912
    1C        C  178   4.026   2.616   3.031
    1C        C  179   3.899   2.554   3.034
    1C        C  180   4.085   2.657   3.153
    1C        C  181   4.023   2.620   3.275
    1C        C  182   4.193   2.749   3.397
    1C        C  183   4.084   2.658   3.397
    1C        C  184   4.242   2.805   3.516
    1C        C  185   4.193   2.756   3.639
    1C        C  186   4.335   2.914   3.762
    1C        C  187   4.244   2.806   3.762
    1C        C  188   4.373   2.977   3.883
    1C        C  189   4.334   2.922   4.007
    1C        C  190   4.443   3.104   4.127
    1C        C  191   4.377   2.979   4.130
    1C        C  192   4.470   3.171   4.249
    1C        C  193   4.445   3.107   4.373
    1C        C  194   4.505   3.312   4.491
    1C        C  195   4.470   3.175   4.494
    1C        C  196   4.524   3.387   4.610
    1C        C  197   4.507   3.320   4.733
    1C        C  198   4.558   3.531   4.850
    1C        C  199   4.532   3.390   4.854
    1C        C  200   4.584   3.618   4.960
    1C        C  201   3.612   2.420   2.072
    1C        C  202   3.827   2.505   2.183
    1C        C  203   3.690   2.461   2.184
    1C        C  204   3.900   2.536   2.301
    1C        C  205   3.829   2.520   2.422
    1C        C  206   4.023   2.613   2.543
    1C        C  207   3.896   2.551   2.542
    1C        C  208   4.082   2.655   2.664
    1C        C  209   4.021   2.624   2.788
    1C        C  210   4.194   2.747   2.906
    1C        C  211   4.083   2.659   2.909
    1C        C  212   4.246   2.795   3.029
    1C        C  213   4.195   2.746   3.151
    1C        C  214   4.327   2.910   3.271
    1C        C  215   4.243   2.797   3.274
    1C        C  216   4.369   2.970   3.392
    1C        C  217   4.332   2.915   3.517
    1C        C  218   4.428   3.102   3.637
    1C        C  219   4.371   2.973   3.639
    1C        C  220   4.461   3.166   3.759
    1C        C  221   4.439   3.101   3.882
    1C        C  222   4.498   3.305   4.003
    1C        C  223   4.467   3.168   4.004
    1C        C  224   4.516   3.377   4.124
    1C        C  225   4.504   3.308   4.246
    1C        C  226   4.519   3.520   4.366
    1C        C  227   4.511   3.379   4.368
    1C        C  228   4.517   3.594   4.487
    1C        C  229   4.526   3.528   4.611
    1C        C  230   4.493   3.740   4.724
    1C        C  231   4.532   3.603   4.730
    1C        C  232   4.489   3.816   4.843
    1C        C  233   4.546   3.753   4.954
    1C        C  234   4.018   2.609   2.061
    1C        C  235   3.895   2.544   2.068
    1C        C  236   4.085   2.645   2.178
    1C        C  237   4.023   2.607   2.299
    1C        C  238   4.201   2.727   2.419
    1C        C  239   4.086   2.644   2.420
    1C        C  240   4.250   2.782   2.540
    1C        C  241   4.196   2.738   2.662
    1C        C  242   4.330   2.906   2.783
    1C        C  243   4.246   2.792   2.783
    1C        C  244   4.371   2.963   2.905
    1C        C  245   4.337   2.903   3.028
    1C        C  246   4.435   3.093   3.147
    1C        C  247   4.370   2.968   3.149
    1C        C  248   4.455   3.161   3.269
    1C        C  249   4.428   3.098   3.392
    1C        C  250   4.499   3.300   3.512
    1C        C  251   4.456   3.165   3.514
    1C        C  252   4.504   3.370   3.634
    1C        C  253   4.500   3.302   3.759
    1C        C  254   4.518   3.515   3.879
    1C        C  255   4.510   3.374   3.880
    1C        C  256   4.514   3.589   3.999
    1C        C  257   4.514   3.519   4.122
    1C        C  258   4.484   3.729   4.242
    1C        C  259   4.512   3.591   4.243
    1C        C  260   4.462   3.800   4.362
    1C        C  261   4.487   3.732   4.483
    1C        C  262   4.423   3.939   4.603
    1C        C  263   4.475   3.808   4.601
    1C        C  264   4.397   4.008   4.723
    1C        C  265   4.428   3.944   4.845
    1C        C  266   4.317   4.127   4.954
    1C        C  267   4.389   4.008   4.963
    1C        C  268   4.256   2.778   2.058
    1C        C  269   4.193   2.737   2.176
    1C        C  270   4.343   2.887   2.297
    1C        C  271   4.254   2.776   2.297
    1C        C  272   4.374   2.956   2.416
    1C        C  273   4.337   2.894   2.538
    1C        C  274   4.438   3.083   2.659
    1C        C  275   4.375   2.956   2.658
    1C        C  276   4.467   3.150   2.779
    1C        C  277   4.438   3.088   2.903
    1C        C  278   4.502   3.292   3.023
    1C        C  279   4.465   3.156   3.024
    1C        C  280   4.513   3.364   3.145
    1C        C  281   4.498   3.296   3.268
    1C        C  282   4.514   3.509   3.389
    1C        C  283   4.509   3.368   3.388
    1C        C  284   4.511   3.581   3.511
    1C        C  285   4.510   3.511   3.633
    1C        C  286   4.485   3.722   3.753
    1C        C  287   4.508   3.582   3.755
    1C        C  288   4.468   3.791   3.874
    1C        C  289   4.489   3.728   3.999
    1C        C  290   4.419   3.931   4.117
    1C        C  291   4.471   3.799   4.120
    1C        C  292   4.396   4.001   4.237
    1C        C  293   4.422   3.936   4.360
    1C        C  294   4.324   4.127   4.477
    1C        C  295   4.393   4.003   4.481
    1C        C  296   4.287   4.190   4.598
    1C        C  297   4.324   4.131   4.720
    1C        C  298   4.195   4.312   4.838
    1C        C  299   4.274   4.192   4.838
    1C        C  300   4.164   4.401   4.946
    1C        C  301   4.349   2.881   2.059
    1C        C  302   4.466   3.065   2.175
    1C        C  303   4.398   2.939   2.177
    1C        C  304   4.476   3.142   2.294
    1C        C  305   4.440   3.081   2.416
    1C        C  306   4.511   3.283   2.536
    1C        C  307   4.466   3.149   2.537
    1C        C  308   4.515   3.356   2.656
    1C        C  309   4.501   3.287   2.779
    1C        C  310   4.525   3.500   2.899
    1C        C  311   4.518   3.359   2.899
    1C        C  312   4.525   3.573   3.019
    1C        C  313   4.516   3.505   3.143
    1C        C  314   4.493   3.716   3.263
    1C        C  315   4.509   3.576   3.265
    1C        C  316   4.472   3.785   3.384
    1C        C  317   4.490   3.721   3.509
    1C        C  318   4.426   3.925   3.627
    1C        C  319   4.474   3.791   3.630
    1C        C  320   4.395   3.988   3.750
    1C        C  321   4.424   3.925   3.873
    1C        C  322   4.315   4.111   3.988
    1C        C  323   4.394   3.993   3.993
    1C        C  324   4.274   4.168   4.111
    1C        C  325   4.323   4.122   4.235
    1C        C  326   4.183   4.285   4.352
    1C        C  327   4.280   4.182   4.355
    1C        C  328   4.137   4.341   4.473
    1C        C  329   4.190   4.293   4.595
    1C        C  330   4.025   4.435   4.713
    1C        C  331   4.139   4.351   4.713
    1C        C  332   3.970   4.494   4.829
    1C        C  333   4.050   4.481   4.943
    1C        C  334   4.558   3.262   2.065
    1C        C  335   4.530   3.125   2.061
    1C        C  336   4.532   3.348   2.173
    1C        C  337   4.511   3.280   2.294
    1C        C  338   4.534   3.494   2.409
    1C        C  339   4.526   3.353   2.414
    1C        C  340   4.523   3.566   2.530
    1C        C  341   4.514   3.497   2.653
    1C        C  342   4.496   3.707   2.773
    1C        C  343   4.517   3.568   2.775
    1C        C  344   4.480   3.780   2.893
    1C        C  345   4.500   3.712   3.015
    1C        C  346   4.426   3.911   3.136
    1C        C  347   4.479   3.780   3.137
    1C        C  348   4.394   3.976   3.257
    1C        C  349   4.423   3.918   3.382
    1C        C  350   4.316   4.102   3.501
    1C        C  351   4.393   3.983   3.503
    1C        C  352   4.276   4.163   3.621
    1C        C  353   4.319   4.108   3.744
    1C        C  354   4.168   4.258   3.865
    1C        C  355   4.274   4.165   3.865
    1C        C  356   4.118   4.309   3.987
    1C        C  357   4.175   4.270   4.110
    1C        C  358   4.008   4.405   4.229
    1C        C  359   4.125   4.325   4.230
    1C        C  360   3.950   4.447   4.351
    1C        C  361   4.019   4.421   4.471
    1C        C  362   3.826   4.512   4.592
    1C        C  363   3.957   4.461   4.591
    1C        C  364   3.761   4.548   4.713
    1C        C  365   3.838   4.545   4.830
    1C        C  366   3.627   4.597   4.951
    1C        C  367   3.764   4.578   4.945
    1C        C  368   4.515   3.562   2.052
    1C        C  369   4.525   3.489   2.171
    1C        C  370   4.511   3.707   2.287
    1C        C  371   4.524   3.567   2.288
    1C        C  372   4.491   3.776   2.409
    1C        C  373   4.501   3.706   2.531
    1C        C  374   4.424   3.907   2.646
    1C        C  375   4.477   3.776   2.651
    1C        C  376   4.394   3.972   2.768
    1C        C  377   4.428   3.911   2.891
    1C        C  378   4.321   4.094   3.011
    1C        C  379   4.396   3.974   3.013
    1C        C  380   4.276   4.153   3.131
    1C        C  381   4.320   4.097   3.253
    1C        C  382   4.179   4.255   3.376
    1C        C  383   4.278   4.155   3.375
    1C        C  384   4.126   4.307   3.496
    1C        C  385   4.178   4.265   3.620
    1C        C  386   4.004   4.388   3.740
    1C        C  387   4.120   4.308   3.742
    1C        C  388   3.940   4.426   3.861
    1C        C  389   4.004   4.392   3.982
    1C        C  390   3.815   4.485   4.104
    1C        C  391   3.946   4.431   4.105
    1C        C  392   3.748   4.508   4.227
    1C        C  393   3.817   4.496   4.349
    1C        C  394   3.614   4.549   4.475
    1C        C  395   3.753   4.526   4.472
    1C        C  396   3.544   4.566   4.596
    1C        C  397   3.620   4.565   4.715
    1C        C  398   3.411   4.547   4.840
    1C        C  399   3.550   4.575   4.836
    1C        C  400   3.341   4.509   4.956
    1C        C  401   4.505   3.701   2.048
    1C        C  402   4.452   3.911   2.165
    1C        C  403   4.497   3.777   2.165
    1C        C  404   4.412   3.973   2.286
    1C        C  405   4.444   3.909   2.408
    1C        C  406   4.322   4.092   2.524
    1C        C  407   4.403   3.977   2.525
    1C        C  408   4.272   4.145   2.646
    1C        C  409   4.314   4.089   2.768
    1C        C  410   4.175   4.250   2.887
    1C        C  411   4.272   4.147   2.890
    1C        C  412   4.122   4.293   3.010
    1C        C  413   4.173   4.249   3.135
    1C        C  414   4.000   4.374   3.254
    1C        C  415   4.120   4.301   3.255
    1C        C  416   3.938   4.407   3.377
    1C        C  417   4.004   4.378   3.498
    1C        C  418   3.808   4.469   3.618
    1C        C  419   3.939   4.416   3.618
    1C        C  420   3.741   4.499   3.739
    1C        C  421   3.809   4.477   3.861
    1C        C  422   3.604   4.525   3.987
    1C        C  423   3.743   4.500   3.984
    1C        C  424   3.537   4.538   4.110
    1C        C  425   3.609   4.532   4.231
    1C        C  426   3.400   4.549   4.354
    1C        C  427   3.541   4.550   4.354
    1C        C  428   3.332   4.539   4.477
    1C        C  429   3.403   4.557   4.598
    1C        C  430   3.196   4.517   4.719
    1C        C  431   3.335   4.545   4.721
    1C        C  432   3.123   4.495   4.839
    1C        C  433   3.203   4.498   4.955
    1C        C  434   4.382   4.119   2.049
    1C        C  435   4.453   3.998   2.055
    1C        C  436   4.302   4.158   2.161
    1C        C  437   4.332   4.090   2.282
    1C        C  438   4.181   4.247   2.401
    1C        C  439   4.283   4.148   2.401
    1C        C  440   4.121   4.291   2.520
    1C        C  441   4.174   4.246   2.643
    1C        C  442   4.001   4.370   2.763
    1C        C  443   4.121   4.296   2.765
    1C        C  444   3.943   4.404   2.887
    1C        C  445   4.004   4.370   3.010
    1C        C  446   3.809   4.463   3.129
    1C        C  447   3.937   4.402   3.131
    1C        C  448   3.745   4.490   3.252
    1C        C  449   3.808   4.463   3.376
    1C        C  450   3.603   4.526   3.495
    1C        C  451   3.740   4.490   3.496
    1C        C  452   3.534   4.538   3.618
    1C        C  453   3.604   4.534   3.741
    1C        C  454   3.394   4.544   3.864
    1C        C  455   3.536   4.542   3.864
    1C        C  456   3.328   4.537   3.988
    1C        C  457   3.395   4.545   4.112
    1C        C  458   3.187   4.512   4.237
    1C        C  459   3.326   4.538   4.235
    1C        C  460   3.122   4.489   4.360
    1C        C  461   3.193   4.512   4.480
    1C        C  462   2.994   4.433   4.601
    1C        C  463   3.123   4.490   4.601
    1C        C  464   2.927   4.404   4.722
    1C        C  465   2.989   4.445   4.844
    1C        C  466   2.798   4.337   4.956
    1C        C  467   2.905   4.427   4.959
    1C        C  468   4.122   4.279   2.041
    1C        C  469   4.185   4.241   2.160
    1C        C  470   4.002   4.362   2.277
    1C        C  471   4.123   4.288   2.279
    1C        C  472   3.939   4.402   2.398
    1C        C  473   4.000   4.364   2.520
    1C        C  474   3.810   4.461   2.642
    1C        C  475   3.938   4.401   2.641
    1C        C  476   3.742   4.480   2.764
    1C        C  477   3.813   4.459   2.884
    1C        C  478   3.607   4.515   3.007
    1C        C  479   3.745   4.487   3.005
    1C        C  480   3.536   4.523   3.129
    1C        C  481   3.606   4.515   3.251
    1C        C  482   3.393   4.532   3.373
    1C        C  483   3.534   4.529   3.372
    1C        C  484   3.324   4.529   3.496
    1C        C  485   3.393   4.540   3.619
    1C        C  486   3.186   4.506   3.745
    1C        C  487   3.323   4.538   3.742
    1C        C  488   3.123   4.481   3.869
    1C        C  489   3.190   4.503   3.991
    1C        C  490   3.001   4.413   4.116
    1C        C  491   3.123   4.484   4.114
    1C        C  492   2.938   4.382   4.239
    1C        C  493   2.995   4.427   4.360
    1C        C  494   2.825   4.300   4.483
    1C        C  495   2.931   4.393   4.481
    1C        C  496   2.769   4.255   4.605
    1C        C  497   2.819   4.312   4.724
    1C        C  498   2.664   4.161   4.842
    1C        C  499   2.753   4.270   4.841
    1C        C  500   2.598   4.112   4.955
    1C        C  501   4.004   4.352   2.040
    1C        C  502   3.810   4.456   2.152
    1C        C  503   3.935   4.391   2.156
    1C        C  504   3.743   4.482   2.274
    1C        C  505   3.807   4.451   2.396
    1C        C  506   3.604   4.509   2.521
    1C        C  507   3.741   4.474   2.519
    1C        C  508   3.531   4.515   2.641
    1C        C  509   3.603   4.505   2.763
    1C        C  510   3.393   4.518   2.886
    1C        C  511   3.534   4.516   2.885
    1C        C  512   3.323   4.523   3.008
    1C        C  513   3.395   4.526   3.130
    1C        C  514   3.185   4.493   3.254
    1C        C  515   3.322   4.523   3.251
    1C        C  516   3.117   4.473   3.377
    1C        C  517   3.186   4.498   3.497
    1C        C  518   2.995   4.418   3.625
    1C        C  519   3.121   4.482   3.622
    1C        C  520   2.938   4.377   3.747
    1C        C  521   2.998   4.416   3.870
    1C        C  522   2.837   4.281   3.996
    1C        C  523   2.943   4.374   3.993
    1C        C  524   2.787   4.231   4.119
    1C        C  525   2.832   4.289   4.240
    1C        C  526   2.696   4.129   4.363
    1C        C  527   2.784   4.239   4.363
    1C        C  528   2.651   4.073   4.484
    1C        C  529   2.687   4.140   4.603
    1C        C  530   2.589   3.952   4.732
    1C        C  531   2.641   4.085   4.725
    1C        C  532   2.540   3.897   4.853
    1C        C  533   2.526   3.992   4.960
    1C        C  534   3.615   4.555   2.040
    1C        C  535   3.746   4.505   2.038
    1C        C  536   3.533   4.535   2.155
    1C        C  537   3.604   4.511   2.276
    1C        C  538   3.393   4.521   2.400
    1C        C  539   3.534   4.518   2.398
    1C        C  540   3.319   4.515   2.520
    1C        C  541   3.390   4.519   2.642
    1C        C  542   3.182   4.483   2.762
    1C        C  543   3.319   4.515   2.765
    1C        C  544   3.120   4.465   2.888
    1C        C  545   3.185   4.490   3.010
    1C        C  546   2.992   4.404   3.135
    1C        C  547   3.117   4.470   3.132
    1C        C  548   2.934   4.367   3.259
    1C        C  549   2.990   4.409   3.381
    1C        C  550   2.829   4.280   3.504
    1C        C  551   2.932   4.376   3.505
    1C        C  552   2.785   4.228   3.628
    1C        C  553   2.835   4.281   3.750
    1C        C  554   2.701   4.120   3.874
    1C        C  555   2.788   4.231   3.873
    1C        C  556   2.661   4.062   3.996
    1C        C  557   2.701   4.119   4.119
    1C        C  558   2.600   3.936   4.246
    1C        C  559   2.662   4.062   4.242
    1C        C  560   2.567   3.873   4.368
    1C        C  561   2.591   3.945   4.487
    1C        C  562   2.531   3.745   4.613
    1C        C  563   2.568   3.882   4.611
    1C        C  564   2.517   3.678   4.737
    1C        C  565   2.518   3.756   4.855
    1C        C  566   2.526   3.542   4.979
    1C        C  567   2.524   3.681   4.974
    1C        C  568   3.325   4.476   2.041
    1C        C  569   3.392   4.518   2.156
    1C        C  570   3.183   4.476   2.278
    1C        C  571   3.320   4.515   2.279
    1C        C  572   3.112   4.460   2.399
    1C        C  573   3.181   4.486   2.519
    1C        C  574   2.988   4.397   2.648
    1C        C  575   3.114   4.461   2.641
    1C        C  576   2.930   4.362   2.772
    1C        C  577   2.991   4.407   2.891
    1C        C  578   2.824   4.275   3.014
    1C        C  579   2.932   4.366   3.013
    1C        C  580   2.776   4.225   3.137
    1C        C  581   2.825   4.278   3.259
    1C        C  582   2.696   4.114   3.384
    1C        C  583   2.779   4.228   3.383
    1C        C  584   2.667   4.051   3.507
    1C        C  585   2.701   4.114   3.629
    1C        C  586   2.599   3.932   3.756
    1C        C  587   2.662   4.059   3.752
    1C        C  588   2.573   3.868   3.880
    1C        C  589   2.604   3.933   4.001
    1C        C  590   2.534   3.733   4.125
    1C        C  591   2.581   3.867   4.124
    1C        C  592   2.522   3.666   4.249
    1C        C  593   2.531   3.736   4.371
    1C        C  594   2.505   3.528   4.498
    1C        C  595   2.520   3.669   4.495
    1C        C  596   2.509   3.460   4.621
    1C        C  597   2.511   3.536   4.740
    1C        C  598   2.532   3.325   4.861
    1C        C  599   2.531   3.466   4.861
    1C        C  600   2.533   3.245   4.976
    1C        C  601   3.192   4.438   2.042
    1C        C  602   2.977   4.403   2.159
    1C        C  603   3.113   4.449   2.157
    1C        C  604   2.917   4.365   2.282
    1C        C  605   2.985   4.398   2.401
    1C        C  606   2.820   4.271   2.526
    1C        C  607   2.927   4.363   2.525
    1C        C  608   2.773   4.218   2.648
    1C        C  609   2.823   4.270   2.770
    1C        C  610   2.690   4.107   2.893
    1C        C  611   2.776   4.219   2.893
    1C        C  612   2.653   4.050   3.017
    1C        C  613   2.695   4.109   3.139
    1C        C  614   2.594   3.926   3.264
    1C        C  615   2.658   4.052   3.263
    1C        C  616   2.574   3.862   3.388
    1C        C  617   2.601   3.925   3.512
    1C        C  618   2.532   3.728   3.637
    1C        C  619   2.573   3.863   3.636
    1C        C  620   2.518   3.662   3.761
    1C        C  621   2.532   3.732   3.882
    1C        C  622   2.495   3.523   4.008
    1C        C  623   2.514   3.663   4.004
    1C        C  624   2.503   3.452   4.130
    1C        C  625   2.513   3.525   4.251
    1C        C  626   2.526   3.318   4.376
    1C        C  627   2.509   3.458   4.375
    1C        C  628   2.550   3.248   4.497
    1C        C  629   2.531   3.320   4.617
    1C        C  630   2.594   3.119   4.741
    1C        C  631   2.544   3.252   4.740
    1C        C  632   2.615   3.048   4.862
    1C        C  633   2.557   3.107   4.978
    1C        C  634   2.781   4.302   2.053
    1C        C  635   2.889   4.392   2.047
    1C        C  636   2.744   4.232   2.168
    1C        C  637   2.804   4.278   2.287
    1C        C  638   2.678   4.105   2.408
    1C        C  639   2.761   4.220   2.408
    1C        C  640   2.647   4.041   2.530
    1C        C  641   2.692   4.102   2.650
    1C        C  642   2.594   3.915   2.774
    1C        C  643   2.653   4.044   2.772
    1C        C  644   2.570   3.852   2.898
    1C        C  645   2.595   3.922   3.018
    1C        C  646   2.529   3.724   3.148
    1C        C  647   2.569   3.859   3.142
    1C        C  648   2.514   3.654   3.270
    1C        C  649   2.532   3.727   3.390
    1C        C  650   2.510   3.519   3.518
    1C        C  651   2.517   3.660   3.514
    1C        C  652   2.513   3.449   3.641
    1C        C  653   2.506   3.521   3.762
    1C        C  654   2.531   3.314   3.886
    1C        C  655   2.502   3.452   3.886
    1C        C  656   2.544   3.248   4.010
    1C        C  657   2.522   3.312   4.134
    1C        C  658   2.587   3.111   4.258
    1C        C  659   2.535   3.243   4.257
    1C        C  660   2.614   3.043   4.379
    1C        C  661   2.592   3.114   4.500
    1C        C  662   2.712   2.937   4.624
    1C        C  663   2.632   3.054   4.621
    1C        C  664   2.746   2.871   4.744
    1C        C  665   2.694   2.928   4.864
    1C        C  666   2.742   2.863   4.979
    1C        C  667   2.676   4.023   2.053
    1C        C  668   2.679   4.107   2.166
    1C        C  669   2.593   3.909   2.289
    1C        C  670   2.647   4.041   2.286
    1C        C  671   2.561   3.844   2.410
    1C        C  672   2.588   3.913   2.530
    1C        C  673   2.517   3.715   2.657
    1C        C  674   2.561   3.849   2.654
    1C        C  675   2.505   3.649   2.781
    1C        C  676   2.529   3.717   2.903
    1C        C  677   2.510   3.510   3.029
    1C        C  678   2.519   3.651   3.028
    1C        C  679   2.513   3.440   3.152
    1C        C  680   2.509   3.513   3.273
    1C        C  681   2.528   3.306   3.398
    1C        C  682   2.510   3.446   3.397
    1C        C  683   2.552   3.241   3.521
    1C        C  684   2.537   3.310   3.643
    1C        C  685   2.600   3.109   3.772
    1C        C  686   2.551   3.242   3.766
    1C        C  687   2.635   3.050   3.895
    1C        C  688   2.604   3.120   4.014
    1C        C  689   2.707   2.936   4.140
    1C        C  690   2.634   3.056   4.137
    1C        C  691   2.756   2.882   4.262
    1C        C  692   2.706   2.936   4.383
    1C        C  693   2.754   2.878   4.503
    1C        C  694   2.629   3.891   2.055
    1C        C  695   2.524   3.703   2.176
    1C        C  696   2.579   3.833   2.172
    1C        C  697   2.506   3.634   2.297
    1C        C  698   2.525   3.707   2.416
    1C        C  699   2.489   3.499   2.543
    1C        C  700   2.502   3.640   2.538
    1C        C  701   2.504   3.433   2.667
    1C        C  702   2.503   3.508   2.787
    1C        C  703   2.523   3.295   2.907
    1C        C  704   2.509   3.436   2.909
    1C        C  705   2.546   3.230   3.031
    1C        C  706   2.540   3.302   3.152
    1C        C  707   2.595   3.102   3.278
    1C        C  708   2.548   3.235   3.277
    1C        C  709   2.634   3.047   3.402
    1C        C  710   2.605   3.110   3.526
    1C        C  711   2.714   2.931   3.647
    1C        C  712   2.634   3.048   3.649
    1C        C  713   2.755   2.877   3.771
    1C        C  714   2.713   2.933   3.894
    1C        C  715   2.757   2.883   4.019
    1C        C  716   2.452   3.499   2.062
    1C        C  717   2.489   3.634   2.059
    1C        C  718   2.472   3.420   2.180
    1C        C  719   2.484   3.493   2.301
    1C        C  720   2.515   3.286   2.424
    1C        C  721   2.482   3.423   2.424
    1C        C  722   2.537   3.220   2.546
    1C        C  723   2.523   3.293   2.666
    1C        C  724   2.587   3.091   2.791
    1C        C  725   2.532   3.221   2.787
    1C        C  726   2.619   3.030   2.914
    1C        C  727   2.588   3.095   3.035
    1C        C  728   2.699   2.917   3.157
    1C        C  729   2.616   3.031   3.158
    1C        C  730   2.749   2.868   3.280
    1C        C  731   2.712   2.929   3.402
    1C        C  732   2.756   2.875   3.524
    1C        C  733   2.481   3.193   2.071
    1C        C  734   2.481   3.277   2.183
    1C        C  735   2.577   3.082   2.302
    1C        C  736   2.519   3.212   2.303
    1C        C  737   2.608   3.018   2.425
    1C        C  738   2.584   3.086   2.546
    1C        C  739   2.691   2.905   2.666
    1C        C  740   2.617   3.026   2.669
    1C        C  741   2.735   2.853   2.789
    1C        C  742   2.700   2.913   2.911
    1C        C  743   2.747   2.865   3.035
    1C        C  744   2.540   3.067   2.073
    1C        C  745   2.683   2.893   2.183
    1C        C  746   2.606   3.011   2.183
    1C        C  747   2.725   2.837   2.305
    1C        C  748   2.680   2.897   2.425
    1C        C  749   2.733   2.844   2.545
    1C        C  750   2.735   2.838   2.065
    1C        C  751   3.668   2.325   1.973
    1C        O  752   3.703   2.212   2.015
    1C        O  753   3.698   2.366   1.842
    1C        C  754   4.607   3.047   1.962
    1C        O  755   4.567   3.059   1.842
    1C        O  756   4.746   3.055   1.971
    1C        C  757   4.442   4.214   1.952
    1C        O  758   4.527   4.301   1.983
    1C        O  759   4.403   4.213   1.818
    1C        C  760   3.591   4.679   1.963
    1C        O  761   3.580   4.797   2.005
    1C        O  762   3.588   4.667   1.823
    1C        C  763   2.876   4.508   1.956
    1C        O  764   2.885   4.479   1.833
    1C        O  765   2.829   4.635   1.992
    1C        C  766   2.326   3.478   1.988
    1C        O  767   2.324   3.461   1.863
    1C        O  768   2.197   3.449   2.035
    1C        C  769   4.695   3.593   5.056
    1C        O  770   4.676   3.563   5.177
    1C        O  771   4.826   3.591   5.007
    1C        C  772   4.260   4.436   5.053
    1C        O  773   4.241   4.399   5.172
    1C        O  774   4.383   4.496   5.021
    1C        C  775   4.140   2.509   5.067
    1C        O  776   4.188   2.398   5.031
    1C        O  777   4.137   2.537   5.204
    1C        C  778   2.893   4.537   5.057
    1C        O  779   2.851   4.649   5.017
    1C        O  780   2.920   4.502   5.190
    1C        C  781   2.468   3.035   5.072
    1C        O  782   2.358   2.994   5.026
    1C        O  783   2.473   3.067   5.208
    1C        C  784   2.397   4.007   5.030
    1C        O  785   2.298   4.052   4.966
    1C        O  786   2.383   4.011   5.169
    1C        C  787   2.938   2.435   2.002
    1C        O  788   2.929   2.454   1.878
    1C        O  789   2.879   2.313   2.033
    1C        C  790   3.184   2.366   5.050
    1C        O  791   3.135   2.263   4.998
    1C        O  792   3.147   2.369   5.185
    1C        H  793   4.247   3.031   5.040
    1C        H  794   4.184   2.803   5.072
    1C        H  795   4.484   3.128   5.062
    1C        H  796   4.528   3.362   5.068
    1C        H  797   4.575   3.813   5.037
    1C        H  798   4.396   3.955   5.055
    1C        H  799   4.263   4.145   5.045
    1C        H  800   4.042   4.558   5.018
    1C        H  801   3.813   4.572   5.040
    1C        H  802   3.589   4.673   5.016
    1C        H  803   3.396   4.468   5.038
    1C        H  804   3.161   4.452   5.042
    1C        H  805   3.876   2.541   5.073
    1C        H  806   3.674   2.436   5.073
    1C        H  807   2.994   2.541   5.056
    1C        H  808   3.441   2.515   5.066
    1C        H  809   2.847   2.709   5.074
    1C        H  810   2.745   2.925   5.066
    1C        H  811   2.508   3.292   5.069
    1C        H  812   2.524   3.492   5.074
    1C        H  813   2.505   3.733   5.066
    1C        H  814   2.664   4.098   5.038
    1C        H  815   2.755   4.313   5.051
    1C        H  816   2.674   2.845   1.977
    1C        H  817   2.865   2.692   1.977
    1C        H  818   3.200   2.400   2.000
    1C        H  819   3.428   2.461   1.980
    1C        H  820   3.831   2.576   1.988
    1C        H  821   4.069   2.617   1.967
    1C        H  822   4.258   2.725   1.965
    1C        H  823   4.375   2.929   1.967
    1C        H  824   4.628   3.301   1.995
    1C        H  825   4.502   3.510   1.960
    1C        H  826   4.487   3.746   1.952
    1C        H  827   3.810   4.549   1.963
    1C        H  828   3.996   4.415   1.954
    1C        H  829   4.137   4.215   1.956
    1C        H  830   4.522   3.979   1.975
    1C        H  831   2.686   3.820   1.998
    1C        H  832   2.730   4.050   1.965
    1C        H  833   2.717   4.296   1.968
    1C        H  834   3.375   4.454   1.949
    1C        H  835   3.168   4.348   1.990
    1C        H  836   2.549   3.016   1.979
    1C        H  837   2.453   3.231   1.975
    1C        H  838   2.462   3.689   1.970
    2V3OU   H29  839   2.800   3.544   3.899
    2V3OU   C27  840   2.787   3.505   4.003
    2V3OU   H27  841   2.738   3.575   4.075
    2V3OU   H28  842   2.736   3.405   4.002
    2V3OU   O11  843   2.916   3.471   4.054
    2V3OU   C15  844   2.926   3.401   4.173
    2V3OU   C13  845   3.054   3.374   4.224
    2V3OU   C14  846   3.082   3.270   4.314
    2V3OU   C16  847   2.983   3.186   4.362
    2V3OU    H6  848   2.995   3.100   4.430
    2V3OU   C12  849   3.221   3.233   4.350
    2V3OU    O2  850   3.246   3.118   4.393
    2V3OU   C10  851   3.329   3.309   4.286
    2V3OU    C8  852   3.461   3.267   4.294
    2V3OU   O10  853   3.493   3.148   4.352
    2V3OU   H26  854   3.404   3.116   4.373
    2V3OU    C6  855   3.566   3.347   4.237
    2V3OU    C5  856   3.536   3.467   4.174
    2V3OU    C4  857   3.704   3.295   4.222
    2V3OU    H4  858   3.725   3.225   4.309
    2V3OU    H5  859   3.712   3.229   4.131
    2V3OU    C2  860   3.818   3.397   4.221
    2V3OU    O6  861   3.807   3.469   4.344
    2V3OU   H21  862   3.758   3.548   4.314
    2V3OU    C3  863   3.777   3.496   4.112
    2V3OU    H2  864   3.856   3.575   4.102
    2V3OU    H3  865   3.779   3.437   4.017
    2V3OU   C25  866   3.953   3.328   4.206
    2V3OU    O7  867   4.004   3.295   4.099
    2V3OU   C26  868   4.025   3.286   4.333
    2V3OU   H22  869   4.058   3.380   4.384
    2V3OU   H23  870   4.117   3.227   4.307
    2V3OU    O8  871   3.954   3.208   4.426
    2V3OU   H24  872   3.915   3.268   4.491
    2V3OU    C1  873   3.641   3.562   4.123
    2V3OU    H1  874   3.622   3.620   4.028
    2V3OU    O3  875   3.659   3.655   4.231
    2V3OU   C19  876   3.618   3.789   4.207
    2V3OU    H9  877   3.523   3.803   4.147
    2V3OU    O4  878   3.717   3.847   4.124
    2V3OU   C20  879   3.847   3.870   4.177
    2V3OU   H10  880   3.898   3.769   4.184
    2V3OU   C24  881   3.607   3.854   4.345
    2V3OU   H16  882   3.539   3.786   4.402
    2V3OU   H17  883   3.557   3.954   4.336
    2V3OU   C23  884   3.747   3.871   4.405
    2V3OU   H15  885   3.790   3.766   4.420
    2V3OU    N1  886   3.736   3.948   4.527
    2V3OU   H19  887   3.805   3.914   4.591
    2V3OU   H20  888   3.645   3.925   4.561
    2V3OU   C21  889   3.845   3.947   4.309
    2V3OU   H11  890   3.949   3.921   4.345
    2V3OU    O5  891   3.823   4.087   4.311
    2V3OU   H18  892   3.787   4.111   4.398
    2V3OU   C22  893   3.916   3.949   4.066
    2V3OU   H12  894   3.863   4.046   4.047
    2V3OU   H13  895   3.910   3.895   3.968
    2V3OU   H14  896   4.025   3.960   4.088
    2V3OU   C11  897   3.159   3.472   4.191
    2V3OU    O1  898   3.135   3.587   4.149
    2V3OU    C9  899   3.298   3.429   4.217
    2V3OU    C7  900   3.399   3.504   4.157
    2V3OU    O9  901   3.383   3.612   4.072
    2V3OU   H25  902   3.287   3.628   4.074
    2V3OU   C17  903   2.828   3.317   4.229
    2V3OU    H7  904   2.728   3.360   4.228
    2V3OU   C18  905   2.853   3.217   4.322
    2V3OU    H8  906   2.785   3.178   4.399
    3SOL     OW  907   2.917   4.477   5.485
    3SOL    HW1  908   2.894   4.470   5.388
    3SOL    HW2  909   2.995   4.419   5.506
    4SOL     OW  910   6.895   0.053   0.238
    4SOL    HW1  911   6.902   0.103   0.151
    4SOL    HW2  912   6.800   0.056   0.270
    5SOL     OW  913   5.121   1.549   2.409
    5SOL    HW1  914   5.083   1.616   2.345
    5SOL    HW2  915   5.167   1.597   2.484
    6SOL     OW  916   5.393   2.087   2.999
    6SOL    HW1  917   5.380   2.079   2.900
    6SOL    HW2  918   5.438   2.173   3.020
    7SOL     OW  919   0.921   4.194   4.736
    7SOL    HW1  920   0.960   4.129   4.670
    7SOL    HW2  921   0.875   4.144   4.808
    8SOL     OW  922   2.469   2.544   5.263
    8SOL    HW1  923   2.448   2.619   5.201
    8SOL    HW2  924   2.509   2.579   5.347
    9SOL     OW  925   6.466   1.641   5.952
    9SOL    HW1  926   6.486   1.650   5.854
    9SOL    HW2  927   6.511   1.714   6.002
   10SOL     OW  928   3.743   5.145   4.052
   10SOL    HW1  929   3.655   5.179   4.083
   10SOL    HW2  930   3.814   5.213   4.069
   11SOL     OW  931   2.124   0.490   0.037
   11SOL    HW1  932   2.213   0.536   0.043
   11SOL    HW2  933   2.065   0.522   0.112
   12SOL     OW  934   2.470   4.578   3.776
   12SOL    HW1  935   2.416   4.650   3.821
   12SOL    HW2  936   2.567   4.598   3.785
   13SOL     OW  937   3.764   6.345   2.931
   13SOL    HW1  938   3.861   6.366   2.935
   13SOL    HW2  939   3.723   6.361   3.022
   14SOL     OW  940   4.501   5.005   5.754
   14SOL    HW1  941   4.437   4.986   5.680
   14SOL    HW2  942   4.527   4.919   5.798
   15SOL     OW  943   0.041   6.199   6.718
   15SOL    HW1  944   0.087   6.136   6.781
   15SOL    HW2  945   6.965   6.175   6.712
   16SOL     OW  946   5.324   2.678   6.243
   16SOL    HW1  947   5.304   2.651   6.149
   16SOL    HW2  948   5.245   2.657   6.301
   17SOL     OW  949   6.114   0.400   5.999
   17SOL    HW1  950   6.146   0.485   6.041
   17SOL    HW2  951   6.188   0.333   6.001
   18SOL     OW  952   3.275   1.589   5.014
   18SOL    HW1  953   3.191   1.550   5.051
   18SOL    HW2  954   3.338   1.609   5.089
   19SOL     OW  955   0.515   2.155   2.620
   19SOL    HW1  956   0.423   2.116   2.622
   19SOL    HW2  957   0.515   2.237   2.563
   20SOL     OW  958   5.894   1.658   5.600
   20SOL    HW1  959   5.881   1.715   5.681
   20SOL    HW2  960   5.807   1.649   5.551
   21SOL     OW  961   3.153   6.719   2.416
   21SOL    HW1  962   3.198   6.796   2.462
   21SOL    HW2  963   3.054   6.730   2.422
   22SOL     OW  964   1.139   6.025   5.638
   22SOL    HW1  965   1.163   5.928   5.642
   22SOL    HW2  966   1.202   6.073   5.577
   23SOL     OW  967   4.450   4.920   2.223
   23SOL    HW1  968   4.387   4.930   2.299
   23SOL    HW2  969   4.419   4.976   2.146
   24SOL     OW  970   3.745   0.457   1.806
   24SOL    HW1  971   3.652   0.420   1.803
   24SOL    HW2  972   3.810   0.382   1.795
   25SOL     OW  973   3.104   0.025   4.023
   25SOL    HW1  974   3.033   0.048   3.956
   25SOL    HW2  975   3.189   0.072   3.999
   26SOL     OW  976   1.412   2.090   0.067
   26SOL    HW1  977   1.329   2.055   0.024
   26SOL    HW2  978   1.389   2.163   0.131
   27SOL     OW  979   0.956   1.235   2.465
   27SOL    HW1  980   0.958   1.234   2.365
   27SOL    HW2  981   0.923   1.147   2.499
   28SOL     OW  982   1.115   0.652   4.602
   28SOL    HW1  983   1.153   0.565   4.636
   28SOL    HW2  984   1.117   0.720   4.675
   29SOL     OW  985   5.988   1.105   1.148
   29SOL    HW1  986   6.030   1.187   1.108
   29SOL    HW2  987   5.902   1.130   1.192
   30SOL     OW  988   3.747   0.614   5.085
   30SOL    HW1  989   3.774   0.536   5.028
   30SOL    HW2  990   3.784   0.698   5.045
   31SOL     OW  991   0.114   2.056   5.108
   31SOL    HW1  992   0.206   2.061   5.146
   31SOL    HW2  993   0.115   2.000   5.025
   32SOL     OW  994   1.422   1.643   2.093
   32SOL    HW1  995   1.417   1.602   2.184
   32SOL    HW2  996   1.337   1.690   2.072
   33SOL     OW  997   0.214   3.756   5.454
   33SOL    HW1  998   0.227   3.743   5.356
   33SOL    HW2  999   0.206   3.854   5.474
   34SOL     OW 1000   2.347   5.330   4.990
   34SOL    HW1 1001   2.281   5.296   4.924
   34SOL    HW2 1002   2.371   5.424   4.969
   35SOL     OW 1003   3.799   2.035   5.622
   35SOL    HW1 1004   3.792   2.016   5.720
   35SOL    HW2 1005   3.802   1.948   5.572
   36SOL     OW 1006   5.088   1.399   4.142
   36SOL    HW1 1007   5.048   1.321   4.094
   36SOL    HW2 1008   5.174   1.424   4.098
   37SOL     OW 1009   1.928   1.262   3.853
   37SOL    HW1 1010   1.907   1.321   3.931
   37SOL    HW2 1011   1.882   1.298   3.771
   38SOL     OW 1012   2.212   4.489   1.686
   38SOL    HW1 1013   2.153   4.455   1.759
   38SOL    HW2 1014   2.170   4.571   1.645
   39SOL     OW 1015   6.030   4.430   6.498
   39SOL    HW1 1016   6.000   4.343   6.535
   39SOL    HW2 1017   6.127   4.443   6.518
   40SOL     OW 1018   3.388   0.126   6.102
   40SOL    HW1 1019   3.392   0.225   6.118
   40SOL    HW2 1020   3.319   0.105   6.033
   41SOL     OW 1021   6.090   4.076   2.691
   41SOL    HW1 1022   6.107   4.019   2.610
   41SOL    HW2 1023   6.070   4.016   2.769
   42SOL     OW 1024   2.759   6.730   4.666
   42SOL    HW1 1025   2.800   6.725   4.575
   42SOL    HW2 1026   2.688   6.660   4.674
   43SOL     OW 1027   3.752   6.780   4.629
   43SOL    HW1 1028   3.832   6.810   4.682
   43SOL    HW2 1029   3.719   6.856   4.573
   44SOL     OW 1030   5.902   2.972   5.121
   44SOL    HW1 1031   5.851   2.933   5.045
   44SOL    HW2 1032   5.928   2.900   5.185
   45SOL     OW 1033   4.365   5.788   2.083
   45SOL    HW1 1034   4.268   5.807   2.073
   45SOL    HW2 1035   4.394   5.724   2.011
   46SOL     OW 1036   0.694   2.808   4.460
   46SOL    HW1 1037   0.665   2.787   4.367
   46SOL    HW2 1038   0.793   2.826   4.461
   47SOL     OW 1039   5.547   4.288   1.430
   47SOL    HW1 1040   5.526   4.254   1.339
   47SOL    HW2 1041   5.463   4.318   1.475
   48SOL     OW 1042   0.378   2.978   6.823
   48SOL    HW1 1043   0.360   3.066   6.780
   48SOL    HW2 1044   0.331   2.975   6.912
   49SOL     OW 1045   5.064   2.994   0.785
   49SOL    HW1 1046   4.969   2.962   0.790
   49SOL    HW2 1047   5.126   2.918   0.803
   50SOL     OW 1048   6.129   1.446   6.017
   50SOL    HW1 1049   6.094   1.474   5.927
   50SOL    HW2 1050   6.227   1.428   6.010
   51SOL     OW 1051   2.511   5.201   2.587
   51SOL    HW1 1052   2.480   5.212   2.492
   51SOL    HW2 1053   2.503   5.105   2.614
   52SOL     OW 1054   5.689   2.526   1.112
   52SOL    HW1 1055   5.655   2.459   1.179
   52SOL    HW2 1056   5.611   2.571   1.068
   53SOL     OW 1057   4.871   0.259   3.278
   53SOL    HW1 1058   4.911   0.255   3.186
   53SOL    HW2 1059   4.775   0.231   3.274
   54SOL     OW 1060   5.811   6.686   0.609
   54SOL    HW1 1061   5.757   6.617   0.560
   54SOL    HW2 1062   5.801   6.774   0.564
   55SOL     OW 1063   1.936   2.404   6.229
   55SOL    HW1 1064   1.892   2.456   6.156
   55SOL    HW2 1065   2.031   2.436   6.239
   56SOL     OW 1066   1.709   1.467   0.804
   56SOL    HW1 1067   1.752   1.380   0.782
   56SOL    HW2 1068   1.751   1.539   0.748
   57SOL     OW 1069   3.661   0.494   6.772
   57SOL    HW1 1070   3.625   0.509   6.679
   57SOL    HW2 1071   3.585   0.484   6.836
   58SOL     OW 1072   0.589   1.213   6.396
   58SOL    HW1 1073   0.510   1.183   6.449
   58SOL    HW2 1074   0.572   1.305   6.359
   59SOL     OW 1075   6.241   3.204   6.222
   59SOL    HW1 1076   6.270   3.160   6.307
   59SOL    HW2 1077   6.178   3.144   6.173
   60SOL     OW 1078   5.792   1.385   3.571
   60SOL    HW1 1079   5.764   1.450   3.500
   60SOL    HW2 1080   5.723   1.313   3.580
   61SOL     OW 1081   0.515   1.181   4.432
   61SOL    HW1 1082   0.603   1.136   4.416
   61SOL    HW2 1083   0.454   1.163   4.355
   62SOL     OW 1084   0.983   1.382   1.921
   62SOL    HW1 1085   0.894   1.341   1.942
   62SOL    HW2 1086   1.037   1.318   1.866
   63SOL     OW 1087   4.073   7.017   4.168
   63SOL    HW1 1088   3.988   6.992   4.123
   63SOL    HW2 1089   4.149   6.966   4.128
   64SOL     OW 1090   1.329   3.635   6.670
   64SOL    HW1 1091   1.317   3.631   6.769
   64SOL    HW2 1092   1.293   3.551   6.629
   65SOL     OW 1093   6.946   6.834   5.843
   65SOL    HW1 1094   6.853   6.858   5.868
   65SOL    HW2 1095   7.004   6.916   5.844
   66SOL     OW 1096   3.006   0.399   2.899
   66SOL    HW1 1097   3.081   0.353   2.852
   66SOL    HW2 1098   2.950   0.448   2.832
   67SOL     OW 1099   0.446   2.734   6.699
   67SOL    HW1 1100   0.409   2.812   6.749
   67SOL    HW2 1101   0.545   2.742   6.692
   68SOL     OW 1102   7.010   1.553   5.921
   68SOL    HW1 1103   0.019   1.636   5.874
   68SOL    HW2 1104   6.982   1.576   6.015
   69SOL     OW 1105   1.684   4.654   6.155
   69SOL    HW1 1106   1.699   4.643   6.057
   69SOL    HW2 1107   1.729   4.737   6.187
   70SOL     OW 1108   5.360   3.887   4.920
   70SOL    HW1 1109   5.438   3.868   4.861
   70SOL    HW2 1110   5.392   3.915   5.011
   71SOL     OW 1111   4.869   2.016   4.374
   71SOL    HW1 1112   4.857   1.922   4.403
   71SOL    HW2 1113   4.843   2.025   4.278
   72SOL     OW 1114   0.091   0.974   2.856
   72SOL    HW1 1115   0.131   0.898   2.908
   72SOL    HW2 1116   7.019   0.950   2.828
   73SOL     OW 1117   3.172   0.342   0.091
   73SOL    HW1 1118   3.264   0.309   0.111
   73SOL    HW2 1119   3.173   0.442   0.084
   74SOL     OW 1120   2.121   1.845   6.247
   74SOL    HW1 1121   2.100   1.831   6.344
   74SOL    HW2 1122   2.054   1.907   6.207
   75SOL     OW 1123   4.580   1.912   1.386
   75SOL    HW1 1124   4.540   1.822   1.401
   75SOL    HW2 1125   4.632   1.939   1.467
   76SOL     OW 1126   2.831   4.618   5.970
   76SOL    HW1 1127   2.828   4.563   5.887
   76SOL    HW2 1128   2.810   4.713   5.948
   77SOL     OW 1129   2.127   5.391   4.398
   77SOL    HW1 1130   2.219   5.370   4.431
   77SOL    HW2 1131   2.061   5.380   4.472
   78SOL     OW 1132   4.024   1.045   0.809
   78SOL    HW1 1133   3.942   1.100   0.796
   78SOL    HW2 1134   4.069   1.072   0.894
   79SOL     OW 1135   2.147   5.930   2.024
   79SOL    HW1 1136   2.223   5.984   2.059
   79SOL    HW2 1137   2.175   5.882   1.940
   80SOL     OW 1138   4.934   1.937   4.871
   80SOL    HW1 1139   4.988   1.995   4.932
   80SOL    HW2 1140   4.956   1.957   4.776
   81SOL     OW 1141   1.867   0.490   0.541
   81SOL    HW1 1142   1.794   0.552   0.572
   81SOL    HW2 1143   1.946   0.499   0.602
   82SOL     OW 1144   0.469   6.312   2.364
   82SOL    HW1 1145   0.566   6.328   2.386
   82SOL    HW2 1146   0.433   6.239   2.421
   83SOL     OW 1147   6.874   1.887   5.903
   83SOL    HW1 1148   6.859   1.962   5.838
   83SOL    HW2 1149   6.959   1.840   5.880
   84SOL     OW 1150   5.937   3.272   3.605
   84SOL    HW1 1151   5.941   3.187   3.658
   84SOL    HW2 1152   6.010   3.333   3.635
   85SOL     OW 1153   1.667   6.768   3.752
   85SOL    HW1 1154   1.667   6.868   3.758
   85SOL    HW2 1155   1.597   6.731   3.813
   86SOL     OW 1156   6.238   1.059   6.798
   86SOL    HW1 1157   6.225   0.963   6.770
   86SOL    HW2 1158   6.156   1.112   6.774
   87SOL     OW 1159   4.293   4.380   0.002
   87SOL    HW1 1160   4.351   4.375   0.083
   87SOL    HW2 1161   4.278   4.476   6.999
   88SOL     OW 1162   2.830   2.110   5.749
   88SOL    HW1 1163   2.732   2.111   5.729
   88SOL    HW2 1164   2.850   2.175   5.822
   89SOL     OW 1165   3.080   3.803   1.927
   89SOL    HW1 1166   3.103   3.885   1.875
   89SOL    HW2 1167   3.026   3.741   1.871
   90SOL     OW 1168   4.478   4.520   2.873
   90SOL    HW1 1169   4.480   4.572   2.958
   90SOL    HW2 1170   4.475   4.583   2.795
   91SOL     OW 1171   6.191   6.061   5.834
   91SOL    HW1 1172   6.201   6.143   5.890
   91SOL    HW2 1173   6.135   6.082   5.754
   92SOL     OW 1174   5.034   3.806   0.327
   92SOL    HW1 1175   4.986   3.809   0.240
   92SOL    HW2 1176   5.042   3.711   0.358
   93SOL     OW 1177   3.339   3.620   1.055
   93SOL    HW1 1178   3.253   3.651   1.015
   93SOL    HW2 1179   3.324   3.593   1.150
   94SOL     OW 1180   2.416   6.848   6.843
   94SOL    HW1 1181   2.473   6.853   6.924
   94SOL    HW2 1182   2.464   6.796   6.771
   95SOL     OW 1183   0.726   0.356   4.352
   95SOL    HW1 1184   0.690   0.432   4.298
   95SOL    HW2 1185   0.792   0.390   4.419
   96SOL     OW 1186   5.158   5.076   0.021
   96SOL    HW1 1187   5.217   5.155   0.041
   96SOL    HW2 1188   5.199   5.022   6.968
   97SOL     OW 1189   2.048   4.783   5.319
   97SOL    HW1 1190   1.995   4.785   5.235
   97SOL    HW2 1191   2.091   4.693   5.329
   98SOL     OW 1192   0.849   2.922   1.581
   98SOL    HW1 1193   0.814   2.877   1.499
   98SOL    HW2 1194   0.944   2.893   1.597
   99SOL     OW 1195   3.653   3.719   2.974
   99SOL    HW1 1196   3.655   3.626   2.937
   99SOL    HW2 1197   3.583   3.773   2.926
  100SOL     OW 1198   6.751   0.274   3.935
  100SOL    HW1 1199   6.834   0.300   3.885
  100SOL    HW2 1200   6.775   0.219   4.015
  101SOL     OW 1201   1.188   4.897   2.482
  101SOL    HW1 1202   1.162   4.994   2.477
  101SOL    HW2 1203   1.191   4.869   2.578
  102SOL     OW 1204   2.336   6.193   2.318
  102SOL    HW1 1205   2.360   6.119   2.254
  102SOL    HW2 1206   2.241   6.220   2.302
  103SOL     OW 1207   1.547   1.206   2.087
  103SOL    HW1 1208   1.591   1.239   2.004
  103SOL    HW2 1209   1.472   1.268   2.111
  104SOL     OW 1210   1.416   4.795   2.107
  104SOL    HW1 1211   1.383   4.752   2.191
  104SOL    HW2 1212   1.470   4.876   2.130
  105SOL     OW 1213   5.266   1.179   6.549
  105SOL    HW1 1214   5.318   1.124   6.485
  105SOL    HW2 1215   5.275   1.142   6.641
  106SOL     OW 1216   5.057   5.233   1.802
  106SOL    HW1 1217   5.076   5.207   1.707
  106SOL    HW2 1218   4.961   5.218   1.822
  107SOL     OW 1219   6.330   0.966   0.265
  107SOL    HW1 1220   6.332   1.043   0.329
  107SOL    HW2 1221   6.296   0.998   0.177
  108SOL     OW 1222   2.759   0.062   4.601
  108SOL    HW1 1223   2.698   7.010   4.572
  108SOL    HW2 1224   2.720   0.109   4.679
  109SOL     OW 1225   3.177   0.722   2.724
  109SOL    HW1 1226   3.180   0.671   2.810
  109SOL    HW2 1227   3.122   0.673   2.658
  110SOL     OW 1228   2.487   4.509   5.174
  110SOL    HW1 1229   2.570   4.550   5.212
  110SOL    HW2 1230   2.411   4.573   5.184
  111SOL     OW 1231   6.735   1.329   2.561
  111SOL    HW1 1232   6.690   1.376   2.637
  111SOL    HW2 1233   6.803   1.265   2.597
  112SOL     OW 1234   4.260   6.119   6.565
  112SOL    HW1 1235   4.254   6.217   6.549
  112SOL    HW2 1236   4.170   6.084   6.591
  113SOL     OW 1237   6.692   5.142   2.809
  113SOL    HW1 1238   6.646   5.223   2.772
  113SOL    HW2 1239   6.624   5.071   2.830
  114SOL     OW 1240   0.957   4.850   3.157
  114SOL    HW1 1241   1.017   4.784   3.202
  114SOL    HW2 1242   0.988   4.943   3.180
  115SOL     OW 1243   5.683   1.524   3.354
  115SOL    HW1 1244   5.709   1.487   3.265
  115SOL    HW2 1245   5.602   1.582   3.344
  116SOL     OW 1246   0.208   6.122   1.138
  116SOL    HW1 1247   0.191   6.056   1.212
  116SOL    HW2 1248   0.176   6.083   1.051
  117SOL     OW 1249   2.697   1.661   0.119
  117SOL    HW1 1250   2.645   1.627   0.041
  117SOL    HW2 1251   2.736   1.751   0.097
  118SOL     OW 1252   1.452   1.292   3.245
  118SOL    HW1 1253   1.421   1.358   3.313
  118SOL    HW2 1254   1.542   1.319   3.210
  119SOL     OW 1255   0.340   6.871   0.286
  119SOL    HW1 1256   0.371   6.778   0.264
  119SOL    HW2 1257   0.406   6.937   0.252
  120SOL     OW 1258   4.757   0.197   4.841
  120SOL    HW1 1259   4.672   0.158   4.876
  120SOL    HW2 1260   4.834   0.163   4.896
  121SOL     OW 1261   1.096   3.798   0.167
  121SOL    HW1 1262   1.062   3.857   0.094
  121SOL    HW2 1263   1.179   3.750   0.135
  122SOL     OW 1264   1.057   4.492   0.179
  122SOL    HW1 1265   1.056   4.397   0.149
  122SOL    HW2 1266   1.135   4.507   0.240
  123SOL     OW 1267   1.433   0.791   1.412
  123SOL    HW1 1268   1.475   0.714   1.460
  123SOL    HW2 1269   1.467   0.793   1.317
  124SOL     OW 1270   3.279   2.611   0.327
  124SOL    HW1 1271   3.184   2.581   0.321
  124SOL    HW2 1272   3.293   2.690   0.267
  125SOL     OW 1273   3.122   2.578   6.639
  125SOL    HW1 1274   3.190   2.615   6.702
  125SOL    HW2 1275   3.078   2.654   6.590
  126SOL     OW 1276   3.061   3.342   3.352
  126SOL    HW1 1277   3.105   3.305   3.270
  126SOL    HW2 1278   2.998   3.415   3.326
  127SOL     OW 1279   6.731   6.092   5.394
  127SOL    HW1 1280   6.638   6.095   5.356
  127SOL    HW2 1281   6.726   6.069   5.491
  128SOL     OW 1282   4.806   3.936   2.336
  128SOL    HW1 1283   4.710   3.909   2.340
  128SOL    HW2 1284   4.818   4.006   2.265
  129SOL     OW 1285   2.039   5.191   1.080
  129SOL    HW1 1286   2.083   5.224   1.163
  129SOL    HW2 1287   2.106   5.188   1.006
  130SOL     OW 1288   6.053   1.542   4.095
  130SOL    HW1 1289   6.050   1.640   4.075
  130SOL    HW2 1290   5.960   1.504   4.090
  131SOL     OW 1291   6.396   0.989   4.091
  131SOL    HW1 1292   6.384   1.088   4.083
  131SOL    HW2 1293   6.345   0.943   4.018
  132SOL     OW 1294   3.559   4.044   1.613
  132SOL    HW1 1295   3.477   4.032   1.555
  132SOL    HW2 1296   3.531   4.077   1.703
  133SOL     OW 1297   5.205   1.153   3.440
  133SOL    HW1 1298   5.123   1.209   3.449
  133SOL    HW2 1299   5.264   1.192   3.369
  134SOL     OW 1300   6.918   0.835   2.290
  134SOL    HW1 1301   6.865   0.753   2.314
  134SOL    HW2 1302   7.011   0.809   2.266
  135SOL     OW 1303   4.894   3.432   4.584
  135SOL    HW1 1304   4.861   3.435   4.678
  135SOL    HW2 1305   4.883   3.340   4.547
  136SOL     OW 1306   2.407   6.049   4.981
  136SOL    HW1 1307   2.348   5.987   5.031
  136SOL    HW2 1308   2.501   6.014   4.982
  137SOL     OW 1309   4.187   1.134   4.482
  137SOL    HW1 1310   4.270   1.152   4.534
  137SOL    HW2 1311   4.211   1.105   4.390
  138SOL     OW 1312   0.662   5.794   3.580
  138SOL    HW1 1313   0.576   5.763   3.540
  138SOL    HW2 1314   0.724   5.716   3.588
  139SOL     OW 1315   2.144   5.449   6.755
  139SOL    HW1 1316   2.068   5.508   6.728
  139SOL    HW2 1317   2.210   5.443   6.680
  140SOL     OW 1318   1.755   0.069   3.152
  140SOL    HW1 1319   1.661   0.049   3.128
  140SOL    HW2 1320   1.770   0.050   3.249
  141SOL     OW 1321   6.577   3.518   0.403
  141SOL    HW1 1322   6.666   3.482   0.376
  141SOL    HW2 1323   6.590   3.596   0.465
  142SOL     OW 1324   1.672   4.352   1.640
  142SOL    HW1 1325   1.699   4.438   1.683
  142SOL    HW2 1326   1.753   4.298   1.618
  143SOL     OW 1327   5.725   6.630   1.417
  143SOL    HW1 1328   5.809   6.683   1.404
  143SOL    HW2 1329   5.748   6.536   1.442
  144SOL     OW 1330   3.203   4.997   3.938
  144SOL    HW1 1331   3.137   5.059   3.897
  144SOL    HW2 1332   3.172   4.970   4.029
  145SOL     OW 1333   0.732   4.540   2.401
  145SOL    HW1 1334   0.693   4.460   2.448
  145SOL    HW2 1335   0.831   4.527   2.391
  146SOL     OW 1336   5.743   1.236   5.769
  146SOL    HW1 1337   5.777   1.272   5.682
  146SOL    HW2 1338   5.659   1.185   5.754
  147SOL     OW 1339   5.020   1.430   4.766
  147SOL    HW1 1340   4.991   1.521   4.738
  147SOL    HW2 1341   4.940   1.371   4.775
  148SOL     OW 1342   1.373   4.609   1.540
  148SOL    HW1 1343   1.429   4.568   1.468
  148SOL    HW2 1344   1.428   4.620   1.623
  149SOL     OW 1345   2.414   2.279   5.193
  149SOL    HW1 1346   2.470   2.216   5.248
  149SOL    HW2 1347   2.429   2.372   5.225
  150SOL     OW 1348   3.913   1.609   5.412
  150SOL    HW1 1349   3.879   1.520   5.443
  150SOL    HW2 1350   4.006   1.600   5.378
  151SOL     OW 1351   4.329   1.823   0.992
  151SOL    HW1 1352   4.261   1.811   0.920
  151SOL    HW2 1353   4.409   1.870   0.954
  152SOL     OW 1354   0.252   1.678   6.782
  152SOL    HW1 1355   0.286   1.660   6.690
  152SOL    HW2 1356   0.251   1.776   6.799
  153SOL     OW 1357   3.004   1.166   3.309
  153SOL    HW1 1358   3.091   1.138   3.349
  153SOL    HW2 1359   2.993   1.124   3.219
  154SOL     OW 1360   6.494   2.232   0.653
  154SOL    HW1 1361   6.417   2.295   0.661
  154SOL    HW2 1362   6.474   2.149   0.705
  155SOL     OW 1363   0.061   0.224   1.811
  155SOL    HW1 1364   0.052   0.302   1.749
  155SOL    HW2 1365   7.005   0.223   1.875
  156SOL     OW 1366   5.764   1.240   0.554
  156SOL    HW1 1367   5.803   1.281   0.637
  156SOL    HW2 1368   5.695   1.302   0.516
  157SOL     OW 1369   5.788   3.301   0.149
  157SOL    HW1 1370   5.736   3.291   0.064
  157SOL    HW2 1371   5.886   3.305   0.127
  158SOL     OW 1372   1.216   2.318   2.321
  158SOL    HW1 1373   1.244   2.411   2.295
  158SOL    HW2 1374   1.272   2.287   2.397
  159SOL     OW 1375   4.950   4.959   0.799
  159SOL    HW1 1376   4.903   4.888   0.851
  159SOL    HW2 1377   4.886   5.035   0.781
  160SOL     OW 1378   6.706   0.146   0.862
  160SOL    HW1 1379   6.801   0.117   0.859
  160SOL    HW2 1380   6.678   0.160   0.957
  161SOL     OW 1381   1.183   6.719   1.067
  161SOL    HW1 1382   1.264   6.776   1.085
  161SOL    HW2 1383   1.133   6.757   0.989
  162SOL     OW 1384   2.407   6.215   0.222
  162SOL    HW1 1385   2.353   6.272   0.160
  162SOL    HW2 1386   2.347   6.145   0.262
  163SOL     OW 1387   6.919   4.989   2.913
  163SOL    HW1 1388   6.837   5.014   2.862
  163SOL    HW2 1389   6.930   4.889   2.911
  164SOL     OW 1390   1.675   2.016   3.232
  164SOL    HW1 1391   1.630   2.099   3.265
  164SOL    HW2 1392   1.609   1.940   3.233
  165SOL     OW 1393   0.007   5.221   2.251
  165SOL    HW1 1394   0.029   5.284   2.177
  165SOL    HW2 1395   6.929   5.210   2.257
  166SOL     OW 1396   6.301   4.011   1.161
  166SOL    HW1 1397   6.359   4.092   1.146
  166SOL    HW2 1398   6.351   3.944   1.215
  167SOL     OW 1399   5.421   1.652   6.794
  167SOL    HW1 1400   5.359   1.573   6.801
  167SOL    HW2 1401   5.445   1.667   6.698
  168SOL     OW 1402   4.058   3.140   1.854
  168SOL    HW1 1403   4.083   3.206   1.924
  168SOL    HW2 1404   4.140   3.108   1.807
  169SOL     OW 1405   6.360   2.720   0.399
  169SOL    HW1 1406   6.405   2.740   0.312
  169SOL    HW2 1407   6.275   2.670   0.382
  170SOL     OW 1408   0.913   6.123   3.096
  170SOL    HW1 1409   1.012   6.129   3.080
  170SOL    HW2 1410   0.894   6.047   3.158
  171SOL     OW 1411   1.633   3.011   0.150
  171SOL    HW1 1412   1.650   3.073   0.073
  171SOL    HW2 1413   1.665   3.055   0.235
  172SOL     OW 1414   5.692   2.390   1.864
  172SOL    HW1 1415   5.642   2.475   1.877
  172SOL    HW2 1416   5.701   2.342   1.952
  173SOL     OW 1417   5.867   1.036   5.156
  173SOL    HW1 1418   5.804   1.042   5.078
  173SOL    HW2 1419   5.868   0.941   5.190
  174SOL     OW 1420   5.141   5.011   5.439
  174SOL    HW1 1421   5.166   4.968   5.352
  174SOL    HW2 1422   5.153   4.945   5.513
  175SOL     OW 1423   2.439   0.812   0.666
  175SOL    HW1 1424   2.347   0.830   0.630
  175SOL    HW2 1425   2.507   0.840   0.598
  176SOL     OW 1426   4.964   4.886   3.116
  176SOL    HW1 1427   4.876   4.867   3.073
  176SOL    HW2 1428   4.950   4.943   3.197
  177SOL     OW 1429   5.138   1.990   5.292
  177SOL    HW1 1430   5.162   1.941   5.208
  177SOL    HW2 1431   5.054   2.042   5.277
  178SOL     OW 1432   2.428   5.608   5.031
  178SOL    HW1 1433   2.451   5.700   5.064
  178SOL    HW2 1434   2.329   5.596   5.033
  179SOL     OW 1435   4.202   5.912   0.476
  179SOL    HW1 1436   4.191   5.828   0.529
  179SOL    HW2 1437   4.271   5.970   0.520
  180SOL     OW 1438   3.410   0.021   0.988
  180SOL    HW1 1439   3.504   7.011   1.000
  180SOL    HW2 1440   3.385   0.083   1.063
  181SOL     OW 1441   2.896   2.364   5.270
  181SOL    HW1 1442   2.874   2.284   5.215
  181SOL    HW2 1443   2.987   2.398   5.245
  182SOL     OW 1444   5.302   3.319   0.905
  182SOL    HW1 1445   5.246   3.336   0.987
  182SOL    HW2 1446   5.349   3.403   0.880
  183SOL     OW 1447   4.167   2.275   4.405
  183SOL    HW1 1448   4.202   2.194   4.358
  183SOL    HW2 1449   4.072   2.258   4.433
  184SOL     OW 1450   0.852   6.385   3.040
  184SOL    HW1 1451   0.894   6.399   2.950
  184SOL    HW2 1452   0.869   6.292   3.070
  185SOL     OW 1453   1.130   1.737   4.361
  185SOL    HW1 1454   1.041   1.783   4.363
  185SOL    HW2 1455   1.176   1.759   4.275
  186SOL     OW 1456   5.772   6.083   4.105
  186SOL    HW1 1457   5.870   6.101   4.092
  186SOL    HW2 1458   5.756   6.053   4.199
  187SOL     OW 1459   4.461   5.456   2.689
  187SOL    HW1 1460   4.553   5.493   2.703
  187SOL    HW2 1461   4.399   5.497   2.756
  188SOL     OW 1462   1.541   2.265   3.261
  188SOL    HW1 1463   1.490   2.295   3.342
  188SOL    HW2 1464   1.555   2.343   3.200
  189SOL     OW 1465   6.322   5.165   6.487
  189SOL    HW1 1466   6.410   5.210   6.501
  189SOL    HW2 1467   6.302   5.161   6.389
  190SOL     OW 1468   6.135   5.239   6.680
  190SOL    HW1 1469   6.189   5.201   6.605
  190SOL    HW2 1470   6.192   5.248   6.761
  191SOL     OW 1471   6.854   1.326   5.835
  191SOL    HW1 1472   6.895   1.286   5.753
  191SOL    HW2 1473   6.878   1.423   5.841
  192SOL     OW 1474   0.538   3.995   1.653
  192SOL    HW1 1475   0.634   4.014   1.673
  192SOL    HW2 1476   0.527   3.976   1.555
  193SOL     OW 1477   3.622   4.386   5.860
  193SOL    HW1 1478   3.524   4.390   5.882
  193SOL    HW2 1479   3.653   4.291   5.868
  194SOL     OW 1480   3.908   6.946   1.631
  194SOL    HW1 1481   3.951   6.963   1.542
  194SOL    HW2 1482   3.970   6.974   1.704
  195SOL     OW 1483   2.895   0.911   2.628
  195SOL    HW1 1484   2.968   0.946   2.569
  195SOL    HW2 1485   2.867   0.981   2.693
  196SOL     OW 1486   2.479   1.061   6.571
  196SOL    HW1 1487   2.452   0.967   6.588
  196SOL    HW2 1488   2.573   1.063   6.538
  197SOL     OW 1489   2.120   5.894   6.376
  197SOL    HW1 1490   2.100   5.923   6.282
  197SOL    HW2 1491   2.039   5.908   6.432
  198SOL     OW 1492   4.742   5.876   0.858
  198SOL    HW1 1493   4.677   5.800   0.851
  198SOL    HW2 1494   4.735   5.917   0.949
  199SOL     OW 1495   6.888   1.667   2.229
  199SOL    HW1 1496   6.856   1.572   2.226
  199SOL    HW2 1497   6.809   1.728   2.231
  200SOL     OW 1498   1.497   3.285   2.214
  200SOL    HW1 1499   1.402   3.285   2.183
  200SOL    HW2 1500   1.516   3.201   2.264
  201SOL     OW 1501   2.665   0.722   6.430
  201SOL    HW1 1502   2.719   0.641   6.412
  201SOL    HW2 1503   2.652   0.774   6.345
  202SOL     OW 1504   5.002   6.997   4.902
  202SOL    HW1 1505   5.037   0.052   4.955
  202SOL    HW2 1506   5.061   6.981   4.823
  203SOL     OW 1507   5.066   2.488   5.761
  203SOL    HW1 1508   5.024   2.470   5.850
  203SOL    HW2 1509   5.092   2.402   5.718
  204SOL     OW 1510   1.001   0.148   0.266
  204SOL    HW1 1511   1.099   0.131   0.261
  204SOL    HW2 1512   0.956   0.105   0.188
  205SOL     OW 1513   0.933   1.542   1.072
  205SOL    HW1 1514   0.923   1.572   1.167
  205SOL    HW2 1515   1.000   1.468   1.068
  206SOL     OW 1516   0.520   4.691   1.378
  206SOL    HW1 1517   0.560   4.633   1.307
  206SOL    HW2 1518   0.441   4.645   1.418
  207SOL     OW 1519   4.128   0.516   5.336
  207SOL    HW1 1520   4.028   0.519   5.341
  207SOL    HW2 1521   4.157   0.536   5.243
  208SOL     OW 1522   4.985   4.835   5.964
  208SOL    HW1 1523   5.044   4.875   6.034
  208SOL    HW2 1524   4.985   4.735   5.975
  209SOL     OW 1525   0.543   5.797   5.832
  209SOL    HW1 1526   0.634   5.765   5.860
  209SOL    HW2 1527   0.488   5.818   5.913
  210SOL     OW 1528   4.399   2.235   2.138
  210SOL    HW1 1529   4.319   2.242   2.078
  210SOL    HW2 1530   4.455   2.317   2.128
  211SOL     OW 1531   0.914   0.595   2.940
  211SOL    HW1 1532   0.903   0.693   2.921
  211SOL    HW2 1533   0.976   0.555   2.873
  212SOL     OW 1534   1.701   5.005   2.687
  212SOL    HW1 1535   1.765   4.974   2.757
  212SOL    HW2 1536   1.747   5.004   2.598
  213SOL     OW 1537   5.013   1.054   6.374
  213SOL    HW1 1538   4.940   1.119   6.352
  213SOL    HW2 1539   5.079   1.098   6.435
  214SOL     OW 1540   1.861   5.887   2.964
  214SOL    HW1 1541   1.918   5.870   3.044
  214SOL    HW2 1542   1.854   5.986   2.948
  215SOL     OW 1543   3.922   3.690   1.711
  215SOL    HW1 1544   3.861   3.765   1.687
  215SOL    HW2 1545   3.892   3.606   1.666
  216SOL     OW 1546   1.313   0.143   5.507
  216SOL    HW1 1547   1.275   0.071   5.448
  216SOL    HW2 1548   1.282   0.232   5.474
  217SOL     OW 1549   1.608   3.044   4.168
  217SOL    HW1 1550   1.653   3.084   4.248
  217SOL    HW2 1551   1.677   3.023   4.098
  218SOL     OW 1552   2.014   2.475   4.915
  218SOL    HW1 1553   2.072   2.445   4.839
  218SOL    HW2 1554   2.063   2.545   4.968
  219SOL     OW 1555   3.417   4.005   6.403
  219SOL    HW1 1556   3.457   4.077   6.346
  219SOL    HW2 1557   3.399   4.040   6.495
  220SOL     OW 1558   2.658   5.747   0.023
  220SOL    HW1 1559   2.597   5.827   0.031
  220SOL    HW2 1560   2.613   5.667   0.062
  221SOL     OW 1561   5.403   3.886   3.416
  221SOL    HW1 1562   5.450   3.882   3.504
  221SOL    HW2 1563   5.388   3.982   3.391
  222SOL     OW 1564   1.676   5.512   5.486
  222SOL    HW1 1565   1.601   5.578   5.486
  222SOL    HW2 1566   1.723   5.515   5.398
  223SOL     OW 1567   0.654   3.481   1.477
  223SOL    HW1 1568   0.745   3.493   1.516
  223SOL    HW2 1569   0.631   3.559   1.419
  224SOL     OW 1570   3.043   2.176   3.076
  224SOL    HW1 1571   3.026   2.103   3.141
  224SOL    HW2 1572   3.141   2.181   3.056
  225SOL     OW 1573   5.958   0.966   6.685
  225SOL    HW1 1574   5.916   0.941   6.598
  225SOL    HW2 1575   5.915   1.049   6.720
  226SOL     OW 1576   0.225   0.176   0.239
  226SOL    HW1 1577   0.169   0.109   0.289
  226SOL    HW2 1578   0.201   0.268   0.268
  227SOL     OW 1579   1.084   4.306   3.350
  227SOL    HW1 1580   1.020   4.252   3.296
  227SOL    HW2 1581   1.047   4.319   3.442
  228SOL     OW 1582   3.740   0.320   4.559
  228SOL    HW1 1583   3.664   0.269   4.519
  228SOL    HW2 1584   3.823   0.303   4.507
  229SOL     OW 1585   6.067   6.066   1.605
  229SOL    HW1 1586   6.044   6.158   1.575
  229SOL    HW2 1587   6.028   6.050   1.696
  230SOL     OW 1588   2.021   4.479   3.773
  230SOL    HW1 1589   2.073   4.455   3.691
  230SOL    HW2 1590   2.074   4.542   3.829
  231SOL     OW 1591   6.147   2.700   6.028
  231SOL    HW1 1592   6.057   2.719   6.067
  231SOL    HW2 1593   6.137   2.663   5.936
  232SOL     OW 1594   1.211   3.560   6.293
  232SOL    HW1 1595   1.258   3.579   6.207
  232SOL    HW2 1596   1.189   3.646   6.339
  233SOL     OW 1597   1.956   0.788   5.103
  233SOL    HW1 1598   1.965   0.688   5.094
  233SOL    HW2 1599   2.045   0.828   5.121
  234SOL     OW 1600   2.790   5.169   6.376
  234SOL    HW1 1601   2.710   5.228   6.390
  234SOL    HW2 1602   2.868   5.225   6.350
  235SOL     OW 1603   3.752   3.234   2.998
  235SOL    HW1 1604   3.835   3.192   2.961
  235SOL    HW2 1605   3.682   3.164   3.012
  236SOL     OW 1606   6.394   2.860   6.651
  236SOL    HW1 1607   6.395   2.764   6.678
  236SOL    HW2 1608   6.315   2.905   6.692
  237SOL     OW 1609   0.432   6.776   0.929
  237SOL    HW1 1610   0.504   6.723   0.885
  237SOL    HW2 1611   0.356   6.715   0.953
  238SOL     OW 1612   5.974   3.116   1.516
  238SOL    HW1 1613   5.939   3.074   1.432
  238SOL    HW2 1614   6.019   3.046   1.572
  239SOL     OW 1615   6.248   5.660   6.938
  239SOL    HW1 1616   6.151   5.637   6.925
  239SOL    HW2 1617   6.258   5.759   6.950
  240SOL     OW 1618   0.725   3.415   5.928
  240SOL    HW1 1619   0.683   3.467   5.854
  240SOL    HW2 1620   0.791   3.473   5.976
  241SOL     OW 1621   0.806   0.732   3.549
  241SOL    HW1 1622   0.766   0.722   3.458
  241SOL    HW2 1623   0.739   0.705   3.619
  242SOL     OW 1624   1.377   3.109   5.347
  242SOL    HW1 1625   1.348   3.094   5.252
  242SOL    HW2 1626   1.475   3.096   5.354
  243SOL     OW 1627   4.738   0.007   6.163
  243SOL    HW1 1628   4.773   0.100   6.152
  243SOL    HW2 1629   4.678   0.003   6.244
  244SOL     OW 1630   4.555   2.616   4.246
  244SOL    HW1 1631   4.464   2.575   4.236
  244SOL    HW2 1632   4.599   2.621   4.157
  245SOL     OW 1633   6.713   2.736   4.597
  245SOL    HW1 1634   6.624   2.723   4.554
  245SOL    HW2 1635   6.718   2.828   4.637
  246SOL     OW 1636   5.214   4.061   3.567
  246SOL    HW1 1637   5.286   4.109   3.517
  246SOL    HW2 1638   5.253   3.987   3.621
  247SOL     OW 1639   2.831   1.639   2.860
  247SOL    HW1 1640   2.744   1.590   2.873
  247SOL    HW2 1641   2.835   1.675   2.767
  248SOL     OW 1642   4.650   2.194   4.518
  248SOL    HW1 1643   4.647   2.201   4.419
  248SOL    HW2 1644   4.695   2.275   4.556
  249SOL     OW 1645   2.950   6.822   5.061
  249SOL    HW1 1646   2.973   6.807   4.964
  249SOL    HW2 1647   2.869   6.769   5.084
  250SOL     OW 1648   5.539   1.776   5.773
  250SOL    HW1 1649   5.590   1.846   5.723
  250SOL    HW2 1650   5.496   1.817   5.854
  251SOL     OW 1651   4.214   3.309   6.177
  251SOL    HW1 1652   4.195   3.257   6.094
  251SOL    HW2 1653   4.151   3.280   6.249
  252SOL     OW 1654   0.379   1.256   5.427
  252SOL    HW1 1655   0.286   1.292   5.435
  252SOL    HW2 1656   0.387   1.173   5.482
  253SOL     OW 1657   1.805   4.037   0.975
  253SOL    HW1 1658   1.888   4.084   0.942
  253SOL    HW2 1659   1.725   4.091   0.950
  254SOL     OW 1660   6.375   2.742   4.315
  254SOL    HW1 1661   6.464   2.765   4.276
  254SOL    HW2 1662   6.387   2.706   4.408
  255SOL     OW 1663   3.156   2.181   3.702
  255SOL    HW1 1664   3.232   2.246   3.702
  255SOL    HW2 1665   3.189   2.090   3.724
  256SOL     OW 1666   6.456   5.267   6.855
  256SOL    HW1 1667   6.534   5.329   6.851
  256SOL    HW2 1668   6.390   5.302   6.922
  257SOL     OW 1669   3.358   5.527   5.925
  257SOL    HW1 1670   3.418   5.519   6.005
  257SOL    HW2 1671   3.397   5.594   5.861
  258SOL     OW 1672   4.778   4.142   5.088
  258SOL    HW1 1673   4.753   4.123   4.993
  258SOL    HW2 1674   4.860   4.198   5.091
  259SOL     OW 1675   1.548   2.966   2.677
  259SOL    HW1 1676   1.574   3.062   2.691
  259SOL    HW2 1677   1.629   2.908   2.691
  260SOL     OW 1678   4.847   0.695   6.920
  260SOL    HW1 1679   4.831   0.794   6.924
  260SOL    HW2 1680   4.896   0.673   6.836
  261SOL     OW 1681   0.898   3.408   1.656
  261SOL    HW1 1682   0.907   3.335   1.724
  261SOL    HW2 1683   0.873   3.494   1.702
  262SOL     OW 1684   1.088   3.685   2.566
  262SOL    HW1 1685   1.126   3.704   2.475
  262SOL    HW2 1686   1.100   3.765   2.624
  263SOL     OW 1687   0.356   1.985   4.410
  263SOL    HW1 1688   0.372   2.083   4.425
  263SOL    HW2 1689   0.287   1.952   4.475
  264SOL     OW 1690   0.478   3.289   5.296
  264SOL    HW1 1691   0.408   3.353   5.265
  264SOL    HW2 1692   0.451   3.196   5.274
  265SOL     OW 1693   4.716   4.154   4.076
  265SOL    HW1 1694   4.627   4.130   4.115
  265SOL    HW2 1695   4.771   4.200   4.145
  266SOL     OW 1696   3.246   2.044   6.948
  266SOL    HW1 1697   3.307   2.105   6.896
  266SOL    HW2 1698   3.184   2.100   7.003
  267SOL     OW 1699   1.848   2.600   0.426
  267SOL    HW1 1700   1.904   2.566   0.500
  267SOL    HW2 1701   1.752   2.575   0.441
  268SOL     OW 1702   4.490   4.509   4.489
  268SOL    HW1 1703   4.488   4.412   4.515
  268SOL    HW2 1704   4.432   4.561   4.552
  269SOL     OW 1705   1.465   1.682   6.535
  269SOL    HW1 1706   1.401   1.605   6.527
  269SOL    HW2 1707   1.495   1.710   6.444
  270SOL     OW 1708   5.331   1.032   2.345
  270SOL    HW1 1709   5.409   1.071   2.294
  270SOL    HW2 1710   5.321   1.081   2.432
  271SOL     OW 1711   2.281   1.112   1.049
  271SOL    HW1 1712   2.310   1.126   0.954
  271SOL    HW2 1713   2.331   1.033   1.087
  272SOL     OW 1714   3.870   5.486   4.354
  272SOL    HW1 1715   3.957   5.441   4.334
  272SOL    HW2 1716   3.825   5.441   4.431
  273SOL     OW 1717   1.334   5.379   5.117
  273SOL    HW1 1718   1.303   5.413   5.028
  273SOL    HW2 1719   1.280   5.422   5.190
  274SOL     OW 1720   5.218   2.832   3.662
  274SOL    HW1 1721   5.306   2.790   3.684
  274SOL    HW2 1722   5.198   2.818   3.565
  275SOL     OW 1723   0.704   6.024   6.190
  275SOL    HW1 1724   0.669   5.933   6.213
  275SOL    HW2 1725   0.673   6.090   6.258
  276SOL     OW 1726   0.103   5.343   3.798
  276SOL    HW1 1727   0.096   5.295   3.885
  276SOL    HW2 1728   0.193   5.388   3.793
  277SOL     OW 1729   2.918   0.915   5.327
  277SOL    HW1 1730   2.878   0.929   5.236
  277SOL    HW2 1731   3.014   0.889   5.318
  278SOL     OW 1732   5.127   4.659   2.718
  278SOL    HW1 1733   5.086   4.628   2.632
  278SOL    HW2 1734   5.073   4.623   2.795
  279SOL     OW 1735   6.982   3.359   3.711
  279SOL    HW1 1736   0.059   3.349   3.723
  279SOL    HW2 1737   6.941   3.272   3.685
  280SOL     OW 1738   4.938   6.372   3.906
  280SOL    HW1 1739   4.933   6.388   3.808
  280SOL    HW2 1740   5.020   6.320   3.928
  281SOL     OW 1741   4.029   5.738   3.859
  281SOL    HW1 1742   3.967   5.697   3.926
  281SOL    HW2 1743   4.122   5.706   3.876
  282SOL     OW 1744   4.214   1.366   5.696
  282SOL    HW1 1745   4.286   1.299   5.713
  282SOL    HW2 1746   4.251   1.443   5.645
  283SOL     OW 1747   6.068   0.278   5.148
  283SOL    HW1 1748   6.011   0.196   5.154
  283SOL    HW2 1749   6.101   0.289   5.054
  284SOL     OW 1750   0.365   4.833   4.632
  284SOL    HW1 1751   0.412   4.750   4.663
  284SOL    HW2 1752   0.296   4.808   4.564
  285SOL     OW 1753   5.587   6.837   0.278
  285SOL    HW1 1754   5.525   6.884   0.215
  285SOL    HW2 1755   5.606   6.745   0.243
  286SOL     OW 1756   3.309   5.293   5.023
  286SOL    HW1 1757   3.293   5.263   5.117
  286SOL    HW2 1758   3.365   5.224   4.976
  287SOL     OW 1759   1.748   5.914   6.322
  287SOL    HW1 1760   1.678   5.980   6.350
  287SOL    HW2 1761   1.779   5.937   6.230
  288SOL     OW 1762   4.443   0.695   1.293
  288SOL    HW1 1763   4.522   0.645   1.327
  288SOL    HW2 1764   4.366   0.684   1.356
  289SOL     OW 1765   1.314   5.613   5.678
  289SOL    HW1 1766   1.243   5.683   5.669
  289SOL    HW2 1767   1.362   5.603   5.591
  290SOL     OW 1768   4.321   0.571   3.028
  290SOL    HW1 1769   4.361   0.519   2.953
  290SOL    HW2 1770   4.241   0.620   2.995
  291SOL     OW 1771   4.176   0.887   3.908
  291SOL    HW1 1772   4.172   0.916   4.004
  291SOL    HW2 1773   4.209   0.793   3.902
  292SOL     OW 1774   3.850   0.427   3.792
  292SOL    HW1 1775   3.799   0.419   3.706
  292SOL    HW2 1776   3.930   0.368   3.788
  293SOL     OW 1777   4.382   6.583   2.511
  293SOL    HW1 1778   4.327   6.514   2.464
  293SOL    HW2 1779   4.326   6.664   2.530
  294SOL     OW 1780   5.543   6.629   5.879
  294SOL    HW1 1781   5.463   6.666   5.831
  294SOL    HW2 1782   5.530   6.532   5.897
  295SOL     OW 1783   1.168   2.337   5.073
  295SOL    HW1 1784   1.117   2.280   5.138
  295SOL    HW2 1785   1.242   2.283   5.033
  296SOL     OW 1786   6.222   1.624   1.420
  296SOL    HW1 1787   6.290   1.567   1.374
  296SOL    HW2 1788   6.262   1.713   1.442
  297SOL     OW 1789   5.361   5.411   3.752
  297SOL    HW1 1790   5.305   5.468   3.693
  297SOL    HW2 1791   5.307   5.378   3.829
  298SOL     OW 1792   4.611   0.549   0.791
  298SOL    HW1 1793   4.562   0.508   0.714
  298SOL    HW2 1794   4.644   0.476   0.852
  299SOL     OW 1795   3.310   1.874   0.355
  299SOL    HW1 1796   3.355   1.935   0.290
  299SOL    HW2 1797   3.256   1.807   0.304
  300SOL     OW 1798   3.100   1.371   2.254
  300SOL    HW1 1799   3.122   1.309   2.178
  300SOL    HW2 1800   3.110   1.322   2.341
  301SOL     OW 1801   5.222   6.478   1.424
  301SOL    HW1 1802   5.246   6.531   1.343
  301SOL    HW2 1803   5.211   6.539   1.503
  302SOL     OW 1804   6.962   6.595   1.530
  302SOL    HW1 1805   6.870   6.601   1.492
  302SOL    HW2 1806   6.969   6.655   1.610
  303SOL     OW 1807   5.896   5.834   2.404
  303SOL    HW1 1808   5.865   5.776   2.328
  303SOL    HW2 1809   5.850   5.923   2.398
  304SOL     OW 1810   1.498   6.970   6.025
  304SOL    HW1 1811   1.558   0.020   6.060
  304SOL    HW2 1812   1.461   6.998   5.936
  305SOL     OW 1813   1.344   3.338   1.402
  305SOL    HW1 1814   1.318   3.322   1.497
  305SOL    HW2 1815   1.337   3.436   1.382
  306SOL     OW 1816   0.208   1.040   2.097
  306SOL    HW1 1817   0.286   1.075   2.150
  306SOL    HW2 1818   0.191   0.944   2.121
  307SOL     OW 1819   3.302   3.466   0.704
  307SOL    HW1 1820   3.371   3.517   0.755
  307SOL    HW2 1821   3.282   3.379   0.750
  308SOL     OW 1822   5.593   1.874   4.574
  308SOL    HW1 1823   5.625   1.781   4.555
  308SOL    HW2 1824   5.672   1.933   4.589
  309SOL     OW 1825   0.848   0.079   0.043
  309SOL    HW1 1826   0.817   0.099   6.971
  309SOL    HW2 1827   0.880   7.005   0.048
  310SOL     OW 1828   5.895   6.420   4.363
  310SOL    HW1 1829   5.973   6.475   4.393
  310SOL    HW2 1830   5.898   6.331   4.409
  311SOL     OW 1831   2.709   4.923   2.506
  311SOL    HW1 1832   2.695   5.001   2.445
  311SOL    HW2 1833   2.650   4.932   2.586
  312SOL     OW 1834   4.557   2.457   3.783
  312SOL    HW1 1835   4.476   2.410   3.747
  312SOL    HW2 1836   4.638   2.402   3.764
  313SOL     OW 1837   3.440   3.520   2.373
  313SOL    HW1 1838   3.348   3.559   2.375
  313SOL    HW2 1839   3.452   3.469   2.288
  314SOL     OW 1840   1.869   5.876   5.457
  314SOL    HW1 1841   1.936   5.827   5.401
  314SOL    HW2 1842   1.875   5.845   5.551
  315SOL     OW 1843   6.834   1.210   2.978
  315SOL    HW1 1844   6.802   1.305   2.978
  315SOL    HW2 1845   6.872   1.188   3.067
  316SOL     OW 1846   4.584   1.892   5.154
  316SOL    HW1 1847   4.663   1.935   5.198
  316SOL    HW2 1848   4.522   1.963   5.119
  317SOL     OW 1849   1.457   1.584   1.774
  317SOL    HW1 1850   1.367   1.541   1.783
  317SOL    HW2 1851   1.493   1.605   1.865
  318SOL     OW 1852   6.905   6.824   6.383
  318SOL    HW1 1853   6.906   6.833   6.284
  318SOL    HW2 1854   6.811   6.830   6.416
  319SOL     OW 1855   0.115   2.489   3.131
  319SOL    HW1 1856   0.067   2.540   3.059
  319SOL    HW2 1857   0.189   2.435   3.091
  320SOL     OW 1858   5.973   2.240   6.924
  320SOL    HW1 1859   5.921   2.323   6.940
  320SOL    HW2 1860   5.993   2.196   7.012
  321SOL     OW 1861   3.682   3.324   0.291
  321SOL    HW1 1862   3.779   3.303   0.306
  321SOL    HW2 1863   3.671   3.422   0.279
  322SOL     OW 1864   3.586   2.817   5.168
  322SOL    HW1 1865   3.551   2.867   5.247
  322SOL    HW2 1866   3.532   2.841   5.087
  323SOL     OW 1867   0.810   2.516   3.912
  323SOL    HW1 1868   0.845   2.424   3.897
  323SOL    HW2 1869   0.824   2.571   3.830
  324SOL     OW 1870   2.460   6.827   3.625
  324SOL    HW1 1871   2.418   6.916   3.642
  324SOL    HW2 1872   2.389   6.757   3.620
  325SOL     OW 1873   1.374   3.634   2.539
  325SOL    HW1 1874   1.377   3.727   2.576
  325SOL    HW2 1875   1.349   3.570   2.612
  326SOL     OW 1876   2.058   4.202   6.279
  326SOL    HW1 1877   2.042   4.253   6.195
  326SOL    HW2 1878   1.972   4.165   6.313
  327SOL     OW 1879   2.569   4.694   2.474
  327SOL    HW1 1880   2.623   4.777   2.482
  327SOL    HW2 1881   2.587   4.651   2.385
  328SOL     OW 1882   2.399   4.520   1.419
  328SOL    HW1 1883   2.347   4.512   1.503
  328SOL    HW2 1884   2.435   4.612   1.410
  329SOL     OW 1885   2.822   3.985   6.971
  329SOL    HW1 1886   2.894   4.054   6.963
  329SOL    HW2 1887   2.737   4.029   7.002
  330SOL     OW 1888   4.186   5.954   0.022
  330SOL    HW1 1889   4.092   5.989   0.022
  330SOL    HW2 1890   4.244   6.014   6.989
  331SOL     OW 1891   5.224   4.781   1.020
  331SOL    HW1 1892   5.287   4.736   0.957
  331SOL    HW2 1893   5.199   4.871   0.983
  332SOL     OW 1894   5.766   1.976   3.782
  332SOL    HW1 1895   5.864   1.956   3.794
  332SOL    HW2 1896   5.746   1.986   3.685
  333SOL     OW 1897   3.859   0.909   5.267
  333SOL    HW1 1898   3.885   1.002   5.241
  333SOL    HW2 1899   3.914   0.880   5.345
  334SOL     OW 1900   3.583   2.769   1.540
  334SOL    HW1 1901   3.550   2.711   1.615
  334SOL    HW2 1902   3.534   2.747   1.456
  335SOL     OW 1903   4.627   0.050   6.512
  335SOL    HW1 1904   4.568   0.056   6.592
  335SOL    HW2 1905   4.571   0.045   6.430
  336SOL     OW 1906   3.166   1.888   2.448
  336SOL    HW1 1907   3.185   1.968   2.391
  336SOL    HW2 1908   3.230   1.885   2.525
  337SOL     OW 1909   1.595   2.255   6.018
  337SOL    HW1 1910   1.574   2.217   5.928
  337SOL    HW2 1911   1.558   2.196   6.090
  338SOL     OW 1912   3.853   3.369   0.784
  338SOL    HW1 1913   3.899   3.309   0.719
  338SOL    HW2 1914   3.797   3.315   0.846
  339SOL     OW 1915   4.429   4.923   4.180
  339SOL    HW1 1916   4.481   4.905   4.097
  339SOL    HW2 1917   4.428   4.841   4.238
  340SOL     OW 1918   5.124   3.534   5.130
  340SOL    HW1 1919   5.208   3.542   5.077
  340SOL    HW2 1920   5.061   3.607   5.103
  341SOL     OW 1921   5.879   5.801   4.487
  341SOL    HW1 1922   5.905   5.712   4.525
  341SOL    HW2 1923   5.789   5.793   4.443
  342SOL     OW 1924   4.635   3.227   0.820
  342SOL    HW1 1925   4.701   3.284   0.772
  342SOL    HW2 1926   4.679   3.184   0.899
  343SOL     OW 1927   0.104   6.178   2.532
  343SOL    HW1 1928   0.181   6.132   2.575
  343SOL    HW2 1929   0.021   6.123   2.544
  344SOL     OW 1930   0.858   2.126   2.185
  344SOL    HW1 1931   0.947   2.137   2.141
  344SOL    HW2 1932   0.864   2.152   2.281
  345SOL     OW 1933   6.800   1.964   3.905
  345SOL    HW1 1934   6.732   1.976   3.977
  345SOL    HW2 1935   6.779   2.026   3.830
  346SOL     OW 1936   1.602   0.285   2.348
  346SOL    HW1 1937   1.606   0.238   2.436
  346SOL    HW2 1938   1.561   0.376   2.360
  347SOL     OW 1939   2.684   5.756   6.495
  347SOL    HW1 1940   2.589   5.768   6.524
  347SOL    HW2 1941   2.742   5.739   6.575
  348SOL     OW 1942   4.405   5.317   3.094
  348SOL    HW1 1943   4.412   5.369   3.179
  348SOL    HW2 1944   4.493   5.320   3.046
  349SOL     OW 1945   6.848   4.114   2.370
  349SOL    HW1 1946   6.906   4.165   2.434
  349SOL    HW2 1947   6.822   4.027   2.411
  350SOL     OW 1948   3.077   3.013   0.129
  350SOL    HW1 1949   3.124   3.101   0.119
  350SOL    HW2 1950   2.978   3.027   0.122
  351SOL     OW 1951   3.050   3.330   0.505
  351SOL    HW1 1952   3.140   3.368   0.479
  351SOL    HW2 1953   3.047   3.315   0.603
  352SOL     OW 1954   3.944   6.520   3.878
  352SOL    HW1 1955   3.844   6.532   3.878
  352SOL    HW2 1956   3.970   6.462   3.800
  353SOL     OW 1957   3.166   0.255   6.244
  353SOL    HW1 1958   3.252   0.283   6.200
  353SOL    HW2 1959   3.151   0.158   6.230
  354SOL     OW 1960   4.881   2.693   0.371
  354SOL    HW1 1961   4.940   2.747   0.430
  354SOL    HW2 1962   4.926   2.676   0.284
  355SOL     OW 1963   1.844   3.227   2.417
  355SOL    HW1 1964   1.823   3.165   2.492
  355SOL    HW2 1965   1.760   3.272   2.386
  356SOL     OW 1966   1.922   0.657   4.487
  356SOL    HW1 1967   1.862   0.727   4.447
  356SOL    HW2 1968   1.912   0.657   4.586
  357SOL     OW 1969   0.695   5.927   4.574
  357SOL    HW1 1970   0.793   5.932   4.555
  357SOL    HW2 1971   0.680   5.931   4.673
  358SOL     OW 1972   4.577   6.503   0.650
  358SOL    HW1 1973   4.565   6.567   0.574
  358SOL    HW2 1974   4.496   6.504   0.709
  359SOL     OW 1975   3.385   0.705   1.698
  359SOL    HW1 1976   3.471   0.683   1.653
  359SOL    HW2 1977   3.309   0.664   1.647
  360SOL     OW 1978   1.466   4.277   4.490
  360SOL    HW1 1979   1.523   4.271   4.572
  360SOL    HW2 1980   1.479   4.195   4.434
  361SOL     OW 1981   6.795   6.234   2.905
  361SOL    HW1 1982   6.816   6.209   2.999
  361SOL    HW2 1983   6.834   6.324   2.884
  362SOL     OW 1984   3.516   3.757   0.726
  362SOL    HW1 1985   3.541   3.853   0.743
  362SOL    HW2 1986   3.417   3.747   0.732
  363SOL     OW 1987   6.221   4.410   3.003
  363SOL    HW1 1988   6.186   4.383   2.914
  363SOL    HW2 1989   6.226   4.330   3.063
  364SOL     OW 1990   0.714   4.841   6.417
  364SOL    HW1 1991   0.719   4.934   6.454
  364SOL    HW2 1992   0.657   4.784   6.477
  365SOL     OW 1993   4.231   1.247   1.421
  365SOL    HW1 1994   4.301   1.279   1.485
  365SOL    HW2 1995   4.177   1.175   1.463
  366SOL     OW 1996   5.318   2.416   7.003
  366SOL    HW1 1997   5.285   2.403   0.075
  366SOL    HW2 1998   5.242   2.404   6.939
  367SOL     OW 1999   5.750   2.332   6.134
  367SOL    HW1 2000   5.732   2.276   6.053
  367SOL    HW2 2001   5.669   2.334   6.193
  368SOL     OW 2002   6.850   2.309   5.567
  368SOL    HW1 2003   6.857   2.241   5.640
  368SOL    HW2 2004   6.881   2.269   5.481
  369SOL     OW 2005   5.841   4.504   2.889
  369SOL    HW1 2006   5.796   4.544   2.969
  369SOL    HW2 2007   5.876   4.414   2.912
  370SOL     OW 2008   0.970   1.941   3.907
  370SOL    HW1 2009   0.882   1.963   3.949
  370SOL    HW2 2010   0.974   1.843   3.887
  371SOL     OW 2011   2.092   4.142   6.727
  371SOL    HW1 2012   2.100   4.210   6.801
  371SOL    HW2 2013   2.126   4.181   6.642
  372SOL     OW 2014   1.678   0.025   5.316
  372SOL    HW1 2015   1.688   6.962   5.262
  372SOL    HW2 2016   1.767   0.067   5.329
  373SOL     OW 2017   5.161   6.273   5.148
  373SOL    HW1 2018   5.240   6.316   5.105
  373SOL    HW2 2019   5.153   6.306   5.242
  374SOL     OW 2020   2.482   2.091   2.980
  374SOL    HW1 2021   2.571   2.058   3.012
  374SOL    HW2 2022   2.471   2.068   2.883
  375SOL     OW 2023   0.763   4.697   4.243
  375SOL    HW1 2024   0.786   4.705   4.340
  375SOL    HW2 2025   0.664   4.708   4.231
  376SOL     OW 2026   1.444   2.074   5.269
  376SOL    HW1 2027   1.388   2.156   5.262
  376SOL    HW2 2028   1.394   1.996   5.231
  377SOL     OW 2029   2.033   2.490   6.922
  377SOL    HW1 2030   1.973   2.474   7.001
  377SOL    HW2 2031   1.978   2.490   6.838
  378SOL     OW 2032   3.714   1.578   6.764
  378SOL    HW1 2033   3.743   1.605   6.673
  378SOL    HW2 2034   3.717   1.658   6.825
  379SOL     OW 2035   5.067   2.610   6.891
  379SOL    HW1 2036   5.063   2.512   6.874
  379SOL    HW2 2037   5.159   2.635   6.921
  380SOL     OW 2038   3.389   1.159   0.839
  380SOL    HW1 2039   3.472   1.213   0.831
  380SOL    HW2 2040   3.374   1.108   0.754
  381SOL     OW 2041   1.455   4.026   4.326
  381SOL    HW1 2042   1.511   3.972   4.389
  381SOL    HW2 2043   1.373   3.975   4.302
  382SOL     OW 2044   5.768   0.743   7.020
  382SOL    HW1 2045   5.811   0.659   0.031
  382SOL    HW2 2046   5.750   0.736   6.922
  383SOL     OW 2047   4.278   3.238   0.395
  383SOL    HW1 2048   4.257   3.185   0.313
  383SOL    HW2 2049   4.377   3.245   0.406
  384SOL     OW 2050   0.109   5.283   4.318
  384SOL    HW1 2051   0.041   5.330   4.374
  384SOL    HW2 2052   0.175   5.237   4.376
  385SOL     OW 2053   3.483   6.211   6.100
  385SOL    HW1 2054   3.546   6.244   6.030
  385SOL    HW2 2055   3.470   6.113   6.090
  386SOL     OW 2056   3.775   0.254   4.043
  386SOL    HW1 2057   3.757   0.329   4.107
  386SOL    HW2 2058   3.846   0.283   3.979
  387SOL     OW 2059   1.008   5.500   1.881
  387SOL    HW1 2060   0.937   5.440   1.845
  387SOL    HW2 2061   1.027   5.475   1.977
  388SOL     OW 2062   1.653   2.046   6.538
  388SOL    HW1 2063   1.659   2.053   6.637
  388SOL    HW2 2064   1.723   1.982   6.505
  389SOL     OW 2065   3.363   3.292   1.977
  389SOL    HW1 2066   3.430   3.337   2.036
  389SOL    HW2 2067   3.388   3.196   1.965
  390SOL     OW 2068   3.133   0.736   3.566
  390SOL    HW1 2069   3.064   0.762   3.499
  390SOL    HW2 2070   3.222   0.727   3.521
  391SOL     OW 2071   2.116   2.687   6.419
  391SOL    HW1 2072   2.153   2.630   6.492
  391SOL    HW2 2073   2.113   2.636   6.333
  392SOL     OW 2074   1.464   3.879   0.153
  392SOL    HW1 2075   1.474   3.833   0.241
  392SOL    HW2 2076   1.514   3.966   0.155
  393SOL     OW 2077   0.082   4.672   5.466
  393SOL    HW1 2078   0.071   4.751   5.526
  393SOL    HW2 2079   7.015   4.626   5.454
  394SOL     OW 2080   0.297   0.913   6.853
  394SOL    HW1 2081   0.228   0.984   6.837
  394SOL    HW2 2082   0.274   0.831   6.801
  395SOL     OW 2083   4.900   4.082   3.251
  395SOL    HW1 2084   4.877   3.989   3.226
  395SOL    HW2 2085   4.990   4.105   3.214
  396SOL     OW 2086   4.136   3.790   1.855
  396SOL    HW1 2087   4.193   3.857   1.807
  396SOL    HW2 2088   4.070   3.751   1.790
  397SOL     OW 2089   3.948   2.271   5.588
  397SOL    HW1 2090   3.920   2.302   5.498
  397SOL    HW2 2091   3.890   2.194   5.617
  398SOL     OW 2092   0.634   6.538   2.177
  398SOL    HW1 2093   0.732   6.530   2.193
  398SOL    HW2 2094   0.587   6.461   2.221
  399SOL     OW 2095   4.995   6.653   2.783
  399SOL    HW1 2096   4.912   6.659   2.727
  399SOL    HW2 2097   5.042   6.567   2.763
  400SOL     OW 2098   6.329   6.256   5.347
  400SOL    HW1 2099   6.391   6.310   5.291
  400SOL    HW2 2100   6.317   6.299   5.437
  401SOL     OW 2101   4.895   0.818   5.285
  401SOL    HW1 2102   4.947   0.847   5.365
  401SOL    HW2 2103   4.920   0.724   5.261
  402SOL     OW 2104   6.043   0.104   3.000
  402SOL    HW1 2105   6.087   0.194   3.001
  402SOL    HW2 2106   6.100   0.040   2.950
  403SOL     OW 2107   4.165   2.150   5.086
  403SOL    HW1 2108   4.106   2.113   5.158
  403SOL    HW2 2109   4.130   2.238   5.056
  404SOL     OW 2110   1.779   6.256   4.315
  404SOL    HW1 2111   1.759   6.158   4.326
  404SOL    HW2 2112   1.731   6.291   4.235
  405SOL     OW 2113   1.630   3.752   1.861
  405SOL    HW1 2114   1.547   3.698   1.874
  405SOL    HW2 2115   1.612   3.826   1.797
  406SOL     OW 2116   0.471   3.881   4.066
  406SOL    HW1 2117   0.547   3.940   4.040
  406SOL    HW2 2118   0.459   3.810   3.996
  407SOL     OW 2119   1.921   0.399   3.551
  407SOL    HW1 2120   1.825   0.394   3.580
  407SOL    HW2 2121   1.970   0.463   3.611
  408SOL     OW 2122   0.890   1.327   3.259
  408SOL    HW1 2123   0.853   1.313   3.167
  408SOL    HW2 2124   0.827   1.385   3.312
  409SOL     OW 2125   6.229   2.970   0.851
  409SOL    HW1 2126   6.258   2.918   0.932
  409SOL    HW2 2127   6.295   3.043   0.833
  410SOL     OW 2128   2.063   0.213   0.013
  410SOL    HW1 2129   1.968   0.201   7.005
  410SOL    HW2 2130   2.084   0.310   0.022
  411SOL     OW 2131   5.961   6.836   6.567
  411SOL    HW1 2132   5.873   6.804   6.531
  411SOL    HW2 2133   5.988   6.781   6.645
  412SOL     OW 2134   5.106   6.712   3.866
  412SOL    HW1 2135   5.164   6.732   3.944
  412SOL    HW2 2136   5.013   6.694   3.897
  413SOL     OW 2137   5.302   5.260   1.951
  413SOL    HW1 2138   5.211   5.245   1.913
  413SOL    HW2 2139   5.341   5.173   1.981
  414SOL     OW 2140   3.694   4.965   3.834
  414SOL    HW1 2141   3.775   4.907   3.841
  414SOL    HW2 2142   3.705   5.044   3.894
  415SOL     OW 2143   1.080   6.298   6.601
  415SOL    HW1 2144   1.018   6.280   6.525
  415SOL    HW2 2145   1.106   6.211   6.643
  416SOL     OW 2146   5.122   5.494   4.184
  416SOL    HW1 2147   5.200   5.508   4.246
  416SOL    HW2 2148   5.125   5.401   4.147
  417SOL     OW 2149   2.215   5.265   0.883
  417SOL    HW1 2150   2.224   5.311   0.794
  417SOL    HW2 2151   2.295   5.285   0.939
  418SOL     OW 2152   4.119   5.829   1.717
  418SOL    HW1 2153   4.024   5.827   1.746
  418SOL    HW2 2154   4.167   5.750   1.754
  419SOL     OW 2155   1.867   0.100   1.264
  419SOL    HW1 2156   1.915   0.100   1.176
  419SOL    HW2 2157   1.773   0.069   1.251
  420SOL     OW 2158   6.073   2.200   0.679
  420SOL    HW1 2159   6.138   2.176   0.752
  420SOL    HW2 2160   6.014   2.274   0.709
  421SOL     OW 2161   6.780   4.739   6.035
  421SOL    HW1 2162   6.861   4.770   5.985
  421SOL    HW2 2163   6.807   4.670   6.103
  422SOL     OW 2164   5.333   4.539   0.602
  422SOL    HW1 2165   5.351   4.558   0.505
  422SOL    HW2 2166   5.234   4.541   0.618
  423SOL     OW 2167   0.848   2.881   0.025
  423SOL    HW1 2168   0.935   2.849   0.060
  423SOL    HW2 2169   0.798   2.929   0.097
  424SOL     OW 2170   2.803   3.499   1.408
  424SOL    HW1 2171   2.869   3.427   1.428
  424SOL    HW2 2172   2.851   3.585   1.390
  425SOL     OW 2173   6.482   1.345   2.018
  425SOL    HW1 2174   6.426   1.268   1.988
  425SOL    HW2 2175   6.452   1.428   1.970
  426SOL     OW 2176   4.633   2.660   3.978
  426SOL    HW1 2177   4.600   2.587   3.918
  426SOL    HW2 2178   4.620   2.748   3.933
  427SOL     OW 2179   5.340   5.238   2.839
  427SOL    HW1 2180   5.370   5.143   2.836
  427SOL    HW2 2181   5.365   5.283   2.753
  428SOL     OW 2182   4.382   0.376   4.666
  428SOL    HW1 2183   4.468   0.354   4.621
  428SOL    HW2 2184   4.390   0.362   4.764
  429SOL     OW 2185   2.992   3.705   1.302
  429SOL    HW1 2186   3.051   3.689   1.223
  429SOL    HW2 2187   3.028   3.781   1.355
  430SOL     OW 2188   6.996   0.065   3.904
  430SOL    HW1 2189   6.950   6.998   3.913
  430SOL    HW2 2190   0.071   0.051   3.882
  431SOL     OW 2191   4.094   6.988   0.958
  431SOL    HW1 2192   4.101   6.891   0.934
  431SOL    HW2 2193   4.134   0.022   0.885
  432SOL     OW 2194   6.628   1.758   1.493
  432SOL    HW1 2195   6.639   1.721   1.585
  432SOL    HW2 2196   6.717   1.782   1.455
  433SOL     OW 2197   3.327   6.233   4.432
  433SOL    HW1 2198   3.352   6.301   4.363
  433SOL    HW2 2199   3.228   6.235   4.447
  434SOL     OW 2200   3.624   5.849   1.941
  434SOL    HW1 2201   3.635   5.867   2.039
  434SOL    HW2 2202   3.551   5.782   1.928
  435SOL     OW 2203   4.887   2.246   5.458
  435SOL    HW1 2204   4.817   2.312   5.485
  435SOL    HW2 2205   4.869   2.159   5.503
  436SOL     OW 2206   3.361   6.132   0.946
  436SOL    HW1 2207   3.331   6.201   1.013
  436SOL    HW2 2208   3.416   6.176   0.876
  437SOL     OW 2209   0.935   0.083   6.583
  437SOL    HW1 2210   0.972   0.054   6.494
  437SOL    HW2 2211   1.010   0.109   6.644
  438SOL     OW 2212   2.144   3.028   2.072
  438SOL    HW1 2213   2.073   3.059   2.009
  438SOL    HW2 2214   2.207   2.967   2.023
  439SOL     OW 2215   5.795   4.541   3.325
  439SOL    HW1 2216   5.829   4.621   3.374
  439SOL    HW2 2217   5.859   4.465   3.336
  440SOL     OW 2218   1.264   1.116   5.014
  440SOL    HW1 2219   1.267   1.067   5.100
  440SOL    HW2 2220   1.355   1.150   4.991
  441SOL     OW 2221   1.397   2.715   4.035
  441SOL    HW1 2222   1.352   2.782   3.977
  441SOL    HW2 2223   1.337   2.691   4.112
  442SOL     OW 2224   2.535   4.914   6.616
  442SOL    HW1 2225   2.587   4.830   6.603
  442SOL    HW2 2226   2.570   4.985   6.554
  443SOL     OW 2227   0.037   4.321   4.029
  443SOL    HW1 2228   0.032   4.418   4.053
  443SOL    HW2 2229   0.105   4.277   4.087
  444SOL     OW 2230   5.398   2.175   5.955
  444SOL    HW1 2231   5.326   2.105   5.951
  444SOL    HW2 2232   5.486   2.130   5.973
  445SOL     OW 2233   1.182   5.103   3.000
  445SOL    HW1 2234   1.193   5.080   2.904
  445SOL    HW2 2235   1.100   5.159   3.012
  446SOL     OW 2236   4.038   4.825   3.680
  446SOL    HW1 2237   4.005   4.810   3.774
  446SOL    HW2 2238   4.117   4.767   3.663
  447SOL     OW 2239   0.695   2.914   6.836
  447SOL    HW1 2240   0.605   2.954   6.852
  447SOL    HW2 2241   0.751   2.924   6.917
  448SOL     OW 2242   3.227   0.898   4.399
  448SOL    HW1 2243   3.222   0.803   4.370
  448SOL    HW2 2244   3.291   0.906   4.476
  449SOL     OW 2245   4.228   0.836   4.463
  449SOL    HW1 2246   4.235   0.737   4.480
  449SOL    HW2 2247   4.187   0.881   4.542
  450SOL     OW 2248   1.243   5.790   3.978
  450SOL    HW1 2249   1.235   5.876   3.929
  450SOL    HW2 2250   1.339   5.760   3.978
  451SOL     OW 2251   2.177   2.042   3.588
  451SOL    HW1 2252   2.081   2.067   3.583
  451SOL    HW2 2253   2.233   2.125   3.599
  452SOL     OW 2254   6.301   6.509   1.196
  452SOL    HW1 2255   6.227   6.529   1.132
  452SOL    HW2 2256   6.342   6.595   1.226
  453SOL     OW 2257   3.659   0.966   5.068
  453SOL    HW1 2258   3.740   0.934   5.118
  453SOL    HW2 2259   3.685   1.042   5.008
  454SOL     OW 2260   6.557   4.772   6.229
  454SOL    HW1 2261   6.503   4.856   6.225
  454SOL    HW2 2262   6.613   4.764   6.147
  455SOL     OW 2263   5.820   2.844   3.288
  455SOL    HW1 2264   5.904   2.814   3.333
  455SOL    HW2 2265   5.815   2.944   3.290
  456SOL     OW 2266   5.380   6.668   4.461
  456SOL    HW1 2267   5.296   6.679   4.407
  456SOL    HW2 2268   5.444   6.609   4.411
  457SOL     OW 2269   1.805   3.700   3.425
  457SOL    HW1 2270   1.863   3.694   3.343
  457SOL    HW2 2271   1.862   3.697   3.507
  458SOL     OW 2272   4.121   5.429   3.620
  458SOL    HW1 2273   4.134   5.330   3.615
  458SOL    HW2 2274   4.032   5.449   3.661
  459SOL     OW 2275   1.904   0.142   5.293
  459SOL    HW1 2276   1.967   0.177   5.223
  459SOL    HW2 2277   1.912   0.199   5.375
  460SOL     OW 2278   1.700   0.022   3.758
  460SOL    HW1 2279   1.673   0.069   3.674
  460SOL    HW2 2280   1.679   0.079   3.837
  461SOL     OW 2281   5.904   6.890   5.760
  461SOL    HW1 2282   5.951   6.956   5.701
  461SOL    HW2 2283   5.971   6.832   5.806
  462SOL     OW 2284   3.347   2.701   6.285
  462SOL    HW1 2285   3.272   2.648   6.326
  462SOL    HW2 2286   3.367   2.665   6.194
  463SOL     OW 2287   6.563   5.634   3.190
  463SOL    HW1 2288   6.540   5.702   3.259
  463SOL    HW2 2289   6.500   5.643   3.113
  464SOL     OW 2290   1.918   2.559   5.989
  464SOL    HW1 2291   1.821   2.548   5.965
  464SOL    HW2 2292   1.949   2.649   5.958
  465SOL     OW 2293   0.858   2.711   5.145
  465SOL    HW1 2294   0.825   2.660   5.225
  465SOL    HW2 2295   0.785   2.771   5.112
  466SOL     OW 2296   1.244   5.743   3.165
  466SOL    HW1 2297   1.297   5.667   3.126
  466SOL    HW2 2298   1.302   5.824   3.172
  467SOL     OW 2299   1.693   1.350   0.322
  467SOL    HW1 2300   1.751   1.298   0.259
  467SOL    HW2 2301   1.640   1.417   0.271
  468SOL     OW 2302   3.632   6.354   0.022
  468SOL    HW1 2303   3.655   6.412   0.100
  468SOL    HW2 2304   3.709   6.293   0.003
  469SOL     OW 2305   3.135   4.198   0.284
  469SOL    HW1 2306   3.195   4.138   0.232
  469SOL    HW2 2307   3.190   4.271   0.326
  470SOL     OW 2308   4.409   0.170   2.150
  470SOL    HW1 2309   4.326   0.175   2.095
  470SOL    HW2 2310   4.453   0.082   2.136
  471SOL     OW 2311   2.191   2.298   4.023
  471SOL    HW1 2312   2.132   2.379   4.012
  471SOL    HW2 2313   2.142   2.217   3.990
  472SOL     OW 2314   5.280   3.552   6.428
  472SOL    HW1 2315   5.242   3.555   6.336
  472SOL    HW2 2316   5.267   3.461   6.467
  473SOL     OW 2317   1.263   2.988   2.450
  473SOL    HW1 2318   1.336   3.017   2.512
  473SOL    HW2 2319   1.297   2.989   2.356
  474SOL     OW 2320   5.393   5.529   4.222
  474SOL    HW1 2321   5.415   5.513   4.126
  474SOL    HW2 2322   5.440   5.463   4.280
  475SOL     OW 2323   5.683   0.632   6.468
  475SOL    HW1 2324   5.778   0.619   6.440
  475SOL    HW2 2325   5.629   0.662   6.389
  476SOL     OW 2326   6.658   3.578   3.341
  476SOL    HW1 2327   6.728   3.612   3.403
  476SOL    HW2 2328   6.693   3.577   3.248
  477SOL     OW 2329   1.763   4.627   4.097
  477SOL    HW1 2330   1.811   4.699   4.146
  477SOL    HW2 2331   1.782   4.538   4.139
  478SOL     OW 2332   3.250   0.340   1.710
  478SOL    HW1 2333   3.217   0.417   1.657
  478SOL    HW2 2334   3.173   0.294   1.754
  479SOL     OW 2335   4.095   2.103   6.032
  479SOL    HW1 2336   4.042   2.179   5.994
  479SOL    HW2 2337   4.187   2.135   6.056
  480SOL     OW 2338   2.454   1.421   6.893
  480SOL    HW1 2339   2.432   1.362   6.815
  480SOL    HW2 2340   2.516   1.494   6.863
  481SOL     OW 2341   1.839   0.450   0.211
  481SOL    HW1 2342   1.871   0.356   0.198
  481SOL    HW2 2343   1.806   0.461   0.305
  482SOL     OW 2344   4.576   5.050   3.220
  482SOL    HW1 2345   4.545   5.142   3.242
  482SOL    HW2 2346   4.573   5.036   3.121
  483SOL     OW 2347   6.742   1.429   2.173
  483SOL    HW1 2348   6.681   1.399   2.101
  483SOL    HW2 2349   6.706   1.401   2.262
  484SOL     OW 2350   1.459   3.322   5.035
  484SOL    HW1 2351   1.423   3.409   5.000
  484SOL    HW2 2352   1.508   3.338   5.120
  485SOL     OW 2353   3.868   5.136   2.734
  485SOL    HW1 2354   3.941   5.199   2.761
  485SOL    HW2 2355   3.908   5.051   2.699
  486SOL     OW 2356   6.886   1.855   0.399
  486SOL    HW1 2357   6.899   1.792   0.322
  486SOL    HW2 2358   6.840   1.937   0.367
  487SOL     OW 2359   1.481   0.805   1.143
  487SOL    HW1 2360   1.506   0.708   1.152
  487SOL    HW2 2361   1.447   0.823   1.051
  488SOL     OW 2362   0.425   1.231   2.563
  488SOL    HW1 2363   0.360   1.223   2.638
  488SOL    HW2 2364   0.470   1.320   2.567
  489SOL     OW 2365   2.901   6.346   6.234
  489SOL    HW1 2366   2.924   6.249   6.226
  489SOL    HW2 2367   2.890   6.385   6.143
  490SOL     OW 2368   6.445   5.836   3.358
  490SOL    HW1 2369   6.462   5.933   3.339
  490SOL    HW2 2370   6.494   5.809   3.440
  491SOL     OW 2371   0.390   3.280   2.418
  491SOL    HW1 2372   0.453   3.225   2.363
  491SOL    HW2 2373   0.309   3.226   2.440
  492SOL     OW 2374   2.400   0.701   5.699
  492SOL    HW1 2375   2.379   0.632   5.630
  492SOL    HW2 2376   2.455   0.774   5.658
  493SOL     OW 2377   4.926   5.944   5.148
  493SOL    HW1 2378   5.014   5.986   5.169
  493SOL    HW2 2379   4.887   5.905   5.232
  494SOL     OW 2380   6.961   0.799   6.904
  494SOL    HW1 2381   0.004   0.728   6.875
  494SOL    HW2 2382   6.872   0.759   6.921
  495SOL     OW 2383   5.147   6.109   3.661
  495SOL    HW1 2384   5.155   6.132   3.564
  495SOL    HW2 2385   5.194   6.022   3.678
  496SOL     OW 2386   5.264   3.936   1.716
  496SOL    HW1 2387   5.309   3.953   1.804
  496SOL    HW2 2388   5.332   3.925   1.645
  497SOL     OW 2389   3.350   1.123   4.234
  497SOL    HW1 2390   3.398   1.177   4.302
  497SOL    HW2 2391   3.311   1.042   4.277
  498SOL     OW 2392   1.964   3.905   1.575
  498SOL    HW1 2393   2.034   3.924   1.507
  498SOL    HW2 2394   2.002   3.917   1.667
  499SOL     OW 2395   2.607   0.092   4.286
  499SOL    HW1 2396   2.682   0.059   4.228
  499SOL    HW2 2397   2.599   0.191   4.278
  500SOL     OW 2398   0.347   3.580   4.454
  500SOL    HW1 2399   0.359   3.488   4.417
  500SOL    HW2 2400   0.331   3.575   4.553
  501SOL     OW 2401   2.679   5.715   0.393
  501SOL    HW1 2402   2.588   5.726   0.352
  501SOL    HW2 2403   2.669   5.709   0.492
  502SOL     OW 2404   6.997   3.739   0.186
  502SOL    HW1 2405   7.003   3.819   0.127
  502SOL    HW2 2406   6.953   3.664   0.137
  503SOL     OW 2407   6.336   5.610   6.518
  503SOL    HW1 2408   6.300   5.703   6.508
  503SOL    HW2 2409   6.259   5.546   6.523
  504SOL     OW 2410   1.650   5.704   2.861
  504SOL    HW1 2411   1.717   5.730   2.930
  504SOL    HW2 2412   1.678   5.739   2.772
  505SOL     OW 2413   3.019   6.379   5.171
  505SOL    HW1 2414   2.995   6.475   5.160
  505SOL    HW2 2415   2.967   6.324   5.106
  506SOL     OW 2416   1.801   5.195   4.875
  506SOL    HW1 2417   1.889   5.204   4.922
  506SOL    HW2 2418   1.727   5.221   4.937
  507SOL     OW 2419   3.588   6.603   3.108
  507SOL    HW1 2420   3.626   6.638   3.194
  507SOL    HW2 2421   3.561   6.508   3.120
  508SOL     OW 2422   0.042   3.821   2.210
  508SOL    HW1 2423   0.105   3.791   2.281
  508SOL    HW2 2424   6.970   3.792   2.234
  509SOL     OW 2425   3.314   1.046   1.744
  509SOL    HW1 2426   3.327   0.964   1.687
  509SOL    HW2 2427   3.238   1.030   1.807
  510SOL     OW 2428   6.146   4.687   0.039
  510SOL    HW1 2429   6.183   4.605   7.016
  510SOL    HW2 2430   6.100   4.744   6.992
  511SOL     OW 2431   0.724   1.207   5.749
  511SOL    HW1 2432   0.740   1.176   5.655
  511SOL    HW2 2433   0.634   1.177   5.780
  512SOL     OW 2434   6.283   2.459   6.911
  512SOL    HW1 2435   6.190   2.485   6.886
  512SOL    HW2 2436   6.348   2.515   6.860
  513SOL     OW 2437   6.249   6.152   3.421
  513SOL    HW1 2438   6.221   6.245   3.398
  513SOL    HW2 2439   6.197   6.087   3.366
  514SOL     OW 2440   6.512   2.453   3.993
  514SOL    HW1 2441   6.442   2.502   4.044
  514SOL    HW2 2442   6.469   2.383   3.935
  515SOL     OW 2443   1.666   0.890   6.933
  515SOL    HW1 2444   1.657   0.844   0.000
  515SOL    HW2 2445   1.606   0.970   6.932
  516SOL     OW 2446   2.418   4.850   1.722
  516SOL    HW1 2447   2.474   4.771   1.745
  516SOL    HW2 2448   2.418   4.915   1.798
  517SOL     OW 2449   4.443   5.360   2.439
  517SOL    HW1 2450   4.483   5.269   2.429
  517SOL    HW2 2451   4.469   5.399   2.527
  518SOL     OW 2452   2.343   2.563   2.764
  518SOL    HW1 2453   2.271   2.503   2.731
  518SOL    HW2 2454   2.431   2.516   2.760
  519SOL     OW 2455   0.694   1.055   4.592
  519SOL    HW1 2456   0.775   1.021   4.543
  519SOL    HW2 2457   0.715   1.144   4.633
  520SOL     OW 2458   6.303   4.399   0.020
  520SOL    HW1 2459   6.258   4.421   6.954
  520SOL    HW2 2460   6.335   4.304   0.018
  521SOL     OW 2461   6.769   3.934   5.472
  521SOL    HW1 2462   6.770   3.933   5.572
  521SOL    HW2 2463   6.786   3.841   5.438
  522SOL     OW 2464   3.293   2.816   5.061
  522SOL    HW1 2465   3.297   2.877   4.982
  522SOL    HW2 2466   3.255   2.728   5.033
  523SOL     OW 2467   0.525   5.221   1.547
  523SOL    HW1 2468   0.576   5.285   1.605
  523SOL    HW2 2469   0.454   5.177   1.601
  524SOL     OW 2470   0.396   1.340   1.147
  524SOL    HW1 2471   0.456   1.269   1.184
  524SOL    HW2 2472   0.301   1.312   1.157
  525SOL     OW 2473   1.570   3.231   6.405
  525SOL    HW1 2474   1.660   3.188   6.406
  525SOL    HW2 2475   1.519   3.199   6.325
  526SOL     OW 2476   4.551   5.973   4.586
  526SOL    HW1 2477   4.640   5.950   4.626
  526SOL    HW2 2478   4.484   5.904   4.611
  527SOL     OW 2479   6.426   2.873   6.957
  527SOL    HW1 2480   6.438   2.779   6.989
  527SOL    HW2 2481   6.512   2.907   6.920
  528SOL     OW 2482   1.032   1.145   3.409
  528SOL    HW1 2483   1.078   1.201   3.479
  528SOL    HW2 2484   0.984   1.204   3.345
  529SOL     OW 2485   1.262   6.688   3.742
  529SOL    HW1 2486   1.292   6.736   3.660
  529SOL    HW2 2487   1.210   6.606   3.716
  530SOL     OW 2488   3.302   2.932   4.821
  530SOL    HW1 2489   3.389   2.929   4.772
  530SOL    HW2 2490   3.226   2.940   4.755
  531SOL     OW 2491   0.574   0.415   2.837
  531SOL    HW1 2492   0.665   0.374   2.825
  531SOL    HW2 2493   0.531   0.429   2.748
  532SOL     OW 2494   1.269   2.345   6.893
  532SOL    HW1 2495   1.328   2.394   6.957
  532SOL    HW2 2496   1.191   2.307   6.941
  533SOL     OW 2497   4.768   0.296   3.702
  533SOL    HW1 2498   4.851   0.241   3.694
  533SOL    HW2 2499   4.733   0.315   3.610
  534SOL     OW 2500   5.119   6.117   2.540
  534SOL    HW1 2501   5.193   6.168   2.583
  534SOL    HW2 2502   5.070   6.177   2.476
  535SOL     OW 2503   0.798   3.644   4.733
  535SOL    HW1 2504   0.766   3.734   4.761
  535SOL    HW2 2505   0.807   3.585   4.813
  536SOL     OW 2506   6.814   5.102   1.559
  536SOL    HW1 2507   6.826   5.067   1.651
  536SOL    HW2 2508   6.774   5.031   1.501
  537SOL     OW 2509   2.000   6.439   3.919
  537SOL    HW1 2510   1.987   6.537   3.933
  537SOL    HW2 2511   2.088   6.422   3.875
  538SOL     OW 2512   1.114   4.234   2.560
  538SOL    HW1 2513   1.190   4.288   2.524
  538SOL    HW2 2514   1.086   4.271   2.649
  539SOL     OW 2515   0.884   6.484   0.876
  539SOL    HW1 2516   0.889   6.454   0.971
  539SOL    HW2 2517   0.915   6.579   0.869
  540SOL     OW 2518   1.102   0.537   2.760
  540SOL    HW1 2519   1.154   0.601   2.703
  540SOL    HW2 2520   1.037   0.487   2.703
  541SOL     OW 2521   4.025   6.309   4.320
  541SOL    HW1 2522   4.057   6.353   4.236
  541SOL    HW2 2523   3.925   6.312   4.323
  542SOL     OW 2524   6.541   0.321   0.260
  542SOL    HW1 2525   6.611   0.392   0.255
  542SOL    HW2 2526   6.583   0.233   0.280
  543SOL     OW 2527   1.652   4.367   5.771
  543SOL    HW1 2528   1.695   4.449   5.808
  543SOL    HW2 2529   1.708   4.331   5.696
  544SOL     OW 2530   2.748   4.068   0.590
  544SOL    HW1 2531   2.786   3.998   0.650
  544SOL    HW2 2532   2.699   4.024   0.514
  545SOL     OW 2533   2.599   0.300   2.952
  545SOL    HW1 2534   2.563   0.310   2.859
  545SOL    HW2 2535   2.528   0.328   3.018
  546SOL     OW 2536   1.601   3.384   0.932
  546SOL    HW1 2537   1.562   3.297   0.902
  546SOL    HW2 2538   1.576   3.456   0.867
  547SOL     OW 2539   2.981   1.563   0.026
  547SOL    HW1 2540   2.969   1.618   0.108
  547SOL    HW2 2541   2.991   1.467   0.051
  548SOL     OW 2542   3.625   2.902   2.765
  548SOL    HW1 2543   3.672   2.980   2.724
  548SOL    HW2 2544   3.529   2.903   2.740
  549SOL     OW 2545   4.622   3.438   1.238
  549SOL    HW1 2546   4.611   3.527   1.283
  549SOL    HW2 2547   4.693   3.445   1.167
  550SOL     OW 2548   6.086   4.397   3.501
  550SOL    HW1 2549   6.042   4.351   3.424
  550SOL    HW2 2550   6.151   4.465   3.466
  551SOL     OW 2551   1.205   0.602   1.391
  551SOL    HW1 2552   1.292   0.649   1.389
  551SOL    HW2 2553   1.206   0.533   1.464
  552SOL     OW 2554   4.829   4.789   6.948
  552SOL    HW1 2555   4.846   4.866   6.887
  552SOL    HW2 2556   4.812   4.706   6.894
  553SOL     OW 2557   1.862   6.498   2.174
  553SOL    HW1 2558   1.782   6.439   2.163
  553SOL    HW2 2559   1.877   6.551   2.090
  554SOL     OW 2560   5.530   6.795   5.462
  554SOL    HW1 2561   5.593   6.793   5.384
  554SOL    HW2 2562   5.582   6.785   5.547
  555SOL     OW 2563   2.352   5.306   2.809
  555SOL    HW1 2564   2.279   5.294   2.742
  555SOL    HW2 2565   2.439   5.279   2.768
  556SOL     OW 2566   5.468   2.685   3.684
  556SOL    HW1 2567   5.517   2.763   3.724
  556SOL    HW2 2568   5.525   2.642   3.614
  557SOL     OW 2569   0.469   4.796   0.274
  557SOL    HW1 2570   0.456   4.813   0.371
  557SOL    HW2 2571   0.484   4.698   0.259
  558SOL     OW 2572   3.023   3.517   4.644
  558SOL    HW1 2573   3.001   3.425   4.678
  558SOL    HW2 2574   3.122   3.525   4.630
  559SOL     OW 2575   6.666   5.455   6.772
  559SOL    HW1 2576   6.726   5.460   6.691
  559SOL    HW2 2577   6.618   5.542   6.782
  560SOL     OW 2578   4.532   5.638   0.555
  560SOL    HW1 2579   4.446   5.591   0.540
  560SOL    HW2 2580   4.602   5.600   0.494
  561SOL     OW 2581   6.045   0.885   0.123
  561SOL    HW1 2582   6.080   0.884   0.029
  561SOL    HW2 2583   6.046   0.791   0.159
  562SOL     OW 2584   4.920   0.617   5.802
  562SOL    HW1 2585   4.956   0.626   5.709
  562SOL    HW2 2586   4.980   0.666   5.865
  563SOL     OW 2587   2.215   0.168   2.899
  563SOL    HW1 2588   2.255   0.117   2.823
  563SOL    HW2 2589   2.204   0.108   2.978
  564SOL     OW 2590   2.882   1.813   6.637
  564SOL    HW1 2591   2.925   1.772   6.717
  564SOL    HW2 2592   2.832   1.895   6.664
  565SOL     OW 2593   3.669   3.349   5.860
  565SOL    HW1 2594   3.616   3.431   5.839
  565SOL    HW2 2595   3.628   3.271   5.813
  566SOL     OW 2596   6.051   4.102   4.558
  566SOL    HW1 2597   6.143   4.129   4.586
  566SOL    HW2 2598   5.997   4.185   4.538
  567SOL     OW 2599   3.808   4.070   2.427
  567SOL    HW1 2600   3.774   4.163   2.435
  567SOL    HW2 2601   3.734   4.005   2.444
  568SOL     OW 2602   3.580   2.305   0.263
  568SOL    HW1 2603   3.581   2.381   0.198
  568SOL    HW2 2604   3.647   2.236   0.234
  569SOL     OW 2605   1.322   3.388   0.120
  569SOL    HW1 2606   1.415   3.371   0.153
  569SOL    HW2 2607   1.258   3.384   0.197
  570SOL     OW 2608   2.172   6.362   6.594
  570SOL    HW1 2609   2.206   6.400   6.680
  570SOL    HW2 2610   2.157   6.263   6.604
  571SOL     OW 2611   3.004   0.048   2.791
  571SOL    HW1 2612   2.906   0.068   2.786
  571SOL    HW2 2613   3.056   0.130   2.767
  572SOL     OW 2614   2.270   4.834   5.918
  572SOL    HW1 2615   2.304   4.740   5.910
  572SOL    HW2 2616   2.308   4.889   5.843
  573SOL     OW 2617   4.760   1.184   5.278
  573SOL    HW1 2618   4.856   1.155   5.278
  573SOL    HW2 2619   4.708   1.130   5.344
  574SOL     OW 2620   2.684   2.352   3.771
  574SOL    HW1 2621   2.778   2.319   3.780
  574SOL    HW2 2622   2.623   2.296   3.827
  575SOL     OW 2623   5.856   2.991   0.254
  575SOL    HW1 2624   5.831   3.085   0.228
  575SOL    HW2 2625   5.954   2.977   0.236
  576SOL     OW 2626   1.138   2.176   2.643
  576SOL    HW1 2627   1.169   2.256   2.696
  576SOL    HW2 2628   1.039   2.180   2.631
  577SOL     OW 2629   2.029   1.116   3.496
  577SOL    HW1 2630   2.013   1.048   3.425
  577SOL    HW2 2631   2.058   1.202   3.455
  578SOL     OW 2632   6.800   4.321   3.327
  578SOL    HW1 2633   6.773   4.264   3.405
  578SOL    HW2 2634   6.819   4.263   3.248
  579SOL     OW 2635   2.189   3.539   1.465
  579SOL    HW1 2636   2.195   3.617   1.527
  579SOL    HW2 2637   2.278   3.522   1.423
  580SOL     OW 2638   0.466   4.744   6.735
  580SOL    HW1 2639   0.559   4.732   6.769
  580SOL    HW2 2640   0.437   4.661   6.687
  581SOL     OW 2641   3.121   3.412   1.857
  581SOL    HW1 2642   3.189   3.366   1.915
  581SOL    HW2 2643   3.029   3.385   1.886
  582SOL     OW 2644   5.823   5.005   2.307
  582SOL    HW1 2645   5.861   5.096   2.323
  582SOL    HW2 2646   5.839   4.948   2.387
  583SOL     OW 2647   2.403   5.451   6.282
  583SOL    HW1 2648   2.335   5.509   6.325
  583SOL    HW2 2649   2.376   5.433   6.187
  584SOL     OW 2650   1.376   4.534   6.261
  584SOL    HW1 2651   1.406   4.546   6.166
  584SOL    HW2 2652   1.298   4.593   6.280
  585SOL     OW 2653   5.885   2.752   6.037
  585SOL    HW1 2654   5.878   2.730   5.940
  585SOL    HW2 2655   5.889   2.852   6.047
  586SOL     OW 2656   3.339   0.705   6.372
  586SOL    HW1 2657   3.257   0.658   6.338
  586SOL    HW2 2658   3.313   0.795   6.408
  587SOL     OW 2659   2.722   2.412   5.031
  587SOL    HW1 2660   2.686   2.475   5.100
  587SOL    HW2 2661   2.658   2.337   5.017
  588SOL     OW 2662   2.405   5.071   0.815
  588SOL    HW1 2663   2.487   5.127   0.821
  588SOL    HW2 2664   2.324   5.129   0.814
  589SOL     OW 2665   3.696   5.442   1.528
  589SOL    HW1 2666   3.617   5.450   1.588
  589SOL    HW2 2667   3.673   5.388   1.447
  590SOL     OW 2668   5.766   2.753   1.362
  590SOL    HW1 2669   5.820   2.677   1.327
  590SOL    HW2 2670   5.735   2.732   1.454
  591SOL     OW 2671   4.140   5.994   4.011
  591SOL    HW1 2672   4.205   6.012   3.938
  591SOL    HW2 2673   4.074   5.924   3.982
  592SOL     OW 2674   3.941   0.413   1.256
  592SOL    HW1 2675   4.032   0.452   1.244
  592SOL    HW2 2676   3.948   0.315   1.274
  593SOL     OW 2677   4.792   2.330   3.754
  593SOL    HW1 2678   4.820   2.411   3.805
  593SOL    HW2 2679   4.844   2.251   3.787
  594SOL     OW 2680   4.724   1.910   6.492
  594SOL    HW1 2681   4.627   1.887   6.484
  594SOL    HW2 2682   4.768   1.902   6.403
  595SOL     OW 2683   5.363   0.133   3.615
  595SOL    HW1 2684   5.453   0.097   3.594
  595SOL    HW2 2685   5.302   0.119   3.536
  596SOL     OW 2686   1.658   4.057   2.099
  596SOL    HW1 2687   1.584   4.084   2.037
  596SOL    HW2 2688   1.628   3.979   2.154
  597SOL     OW 2689   4.413   6.834   5.709
  597SOL    HW1 2690   4.438   6.737   5.702
  597SOL    HW2 2691   4.345   6.846   5.780
  598SOL     OW 2692   3.274   3.921   6.841
  598SOL    HW1 2693   3.259   3.854   6.767
  598SOL    HW2 2694   3.264   3.875   6.929
  599SOL     OW 2695   2.046   6.381   3.124
  599SOL    HW1 2696   2.079   6.432   3.045
  599SOL    HW2 2697   2.092   6.413   3.206
  600SOL     OW 2698   1.178   0.815   1.110
  600SOL    HW1 2699   1.163   0.892   1.173
  600SOL    HW2 2700   1.107   0.747   1.125
  601SOL     OW 2701   3.446   6.705   4.298
  601SOL    HW1 2702   3.482   6.631   4.241
  601SOL    HW2 2703   3.451   6.677   4.394
  602SOL     OW 2704   1.261   2.553   0.241
  602SOL    HW1 2705   1.192   2.550   0.314
  602SOL    HW2 2706   1.280   2.649   0.218
  603SOL     OW 2707   4.163   1.664   3.500
  603SOL    HW1 2708   4.221   1.738   3.465
  603SOL    HW2 2709   4.101   1.634   3.428
  604SOL     OW 2710   0.804   3.805   1.497
  604SOL    HW1 2711   0.868   3.787   1.571
  604SOL    HW2 2712   0.811   3.901   1.469
  605SOL     OW 2713   6.990   5.474   3.385
  605SOL    HW1 2714   6.922   5.416   3.429
  605SOL    HW2 2715   6.945   5.552   3.342
  606SOL     OW 2716   5.069   0.248   5.751
  606SOL    HW1 2717   5.090   0.158   5.791
  606SOL    HW2 2718   4.980   0.279   5.785
  607SOL     OW 2719   5.281   0.753   5.694
  607SOL    HW1 2720   5.249   0.769   5.788
  607SOL    HW2 2721   5.252   0.661   5.665
  608SOL     OW 2722   4.159   6.219   7.003
  608SOL    HW1 2723   4.192   6.291   6.942
  608SOL    HW2 2724   4.187   6.240   0.076
  609SOL     OW 2725   3.339   3.381   3.743
  609SOL    HW1 2726   3.305   3.373   3.837
  609SOL    HW2 2727   3.363   3.291   3.709
  610SOL     OW 2728   5.159   2.272   2.271
  610SOL    HW1 2729   5.105   2.344   2.228
  610SOL    HW2 2730   5.198   2.306   2.357
  611SOL     OW 2731   1.747   0.411   6.465
  611SOL    HW1 2732   1.757   0.463   6.550
  611SOL    HW2 2733   1.677   0.454   6.408
  612SOL     OW 2734   4.031   6.078   5.821
  612SOL    HW1 2735   4.113   6.100   5.874
  612SOL    HW2 2736   4.007   5.982   5.835
  613SOL     OW 2737   4.246   6.873   5.342
  613SOL    HW1 2738   4.344   6.883   5.360
  613SOL    HW2 2739   4.194   6.928   5.408
  614SOL     OW 2740   5.773   4.389   1.071
  614SOL    HW1 2741   5.763   4.304   1.020
  614SOL    HW2 2742   5.861   4.389   1.119
  615SOL     OW 2743   0.922   1.901   1.079
  615SOL    HW1 2744   0.840   1.844   1.092
  615SOL    HW2 2745   0.923   1.936   0.985
  616SOL     OW 2746   6.095   1.782   2.790
  616SOL    HW1 2747   6.167   1.774   2.721
  616SOL    HW2 2748   6.006   1.786   2.745
  617SOL     OW 2749   6.906   3.416   6.688
  617SOL    HW1 2750   6.883   3.445   6.595
  617SOL    HW2 2751   6.858   3.330   6.708
  618SOL     OW 2752   6.666   3.440   0.699
  618SOL    HW1 2753   6.624   3.353   0.673
  618SOL    HW2 2754   6.607   3.515   0.669
  619SOL     OW 2755   4.226   6.904   6.889
  619SOL    HW1 2756   4.312   6.901   6.940
  619SOL    HW2 2757   4.173   6.984   6.918
  620SOL     OW 2758   5.742   2.841   0.901
  620SOL    HW1 2759   5.693   2.906   0.843
  620SOL    HW2 2760   5.840   2.849   0.886
  621SOL     OW 2761   1.580   0.181   5.545
  621SOL    HW1 2762   1.601   0.100   5.490
  621SOL    HW2 2763   1.481   0.190   5.553
  622SOL     OW 2764   0.230   1.480   5.165
  622SOL    HW1 2765   0.318   1.521   5.189
  622SOL    HW2 2766   0.245   1.386   5.132
  623SOL     OW 2767   0.192   6.590   5.556
  623SOL    HW1 2768   0.104   6.552   5.526
  623SOL    HW2 2769   0.252   6.599   5.477
  624SOL     OW 2770   6.498   0.743   0.665
  624SOL    HW1 2771   6.481   0.788   0.753
  624SOL    HW2 2772   6.416   0.747   0.609
  625SOL     OW 2773   1.796   2.218   1.308
  625SOL    HW1 2774   1.717   2.248   1.255
  625SOL    HW2 2775   1.768   2.144   1.370
  626SOL     OW 2776   0.480   5.812   2.660
  626SOL    HW1 2777   0.460   5.750   2.737
  626SOL    HW2 2778   0.396   5.830   2.610
  627SOL     OW 2779   6.652   6.368   0.861
  627SOL    HW1 2780   6.691   6.383   0.770
  627SOL    HW2 2781   6.725   6.371   0.929
  628SOL     OW 2782   5.759   4.084   5.138
  628SOL    HW1 2783   5.802   4.170   5.113
  628SOL    HW2 2784   5.801   4.009   5.087
  629SOL     OW 2785   0.758   1.154   6.734
  629SOL    HW1 2786   0.787   1.201   6.650
  629SOL    HW2 2787   0.665   1.120   6.722
  630SOL     OW 2788   0.491   2.493   0.539
  630SOL    HW1 2789   0.496   2.428   0.615
  630SOL    HW2 2790   0.500   2.443   0.452
  631SOL     OW 2791   3.872   1.527   4.457
  631SOL    HW1 2792   3.794   1.545   4.516
  631SOL    HW2 2793   3.956   1.533   4.510
  632SOL     OW 2794   4.595   2.339   0.416
  632SOL    HW1 2795   4.552   2.410   0.361
  632SOL    HW2 2796   4.685   2.317   0.379
  633SOL     OW 2797   3.405   4.331   6.819
  633SOL    HW1 2798   3.488   4.377   6.789
  633SOL    HW2 2799   3.327   4.394   6.812
  634SOL     OW 2800   3.230   3.645   2.664
  634SOL    HW1 2801   3.310   3.600   2.703
  634SOL    HW2 2802   3.247   3.664   2.567
  635SOL     OW 2803   4.741   6.460   0.052
  635SOL    HW1 2804   4.817   6.489   7.014
  635SOL    HW2 2805   4.754   6.499   0.144
  636SOL     OW 2806   2.727   6.974   5.913
  636SOL    HW1 2807   2.788   6.897   5.933
  636SOL    HW2 2808   2.635   6.954   5.947
  637SOL     OW 2809   0.014   2.759   2.440
  637SOL    HW1 2810   0.009   2.851   2.402
  637SOL    HW2 2811   6.948   2.713   2.426
  638SOL     OW 2812   5.719   3.782   3.632
  638SOL    HW1 2813   5.773   3.757   3.712
  638SOL    HW2 2814   5.750   3.729   3.553
  639SOL     OW 2815   4.824   4.487   3.100
  639SOL    HW1 2816   4.771   4.403   3.092
  639SOL    HW2 2817   4.787   4.543   3.174
  640SOL     OW 2818   6.711   4.760   3.047
  640SOL    HW1 2819   6.646   4.818   2.998
  640SOL    HW2 2820   6.749   4.692   2.985
  641SOL     OW 2821   0.746   4.798   4.937
  641SOL    HW1 2822   0.728   4.892   4.909
  641SOL    HW2 2823   0.719   4.736   4.864
  642SOL     OW 2824   1.447   3.194   4.426
  642SOL    HW1 2825   1.491   3.106   4.415
  642SOL    HW2 2826   1.436   3.213   4.524
  643SOL     OW 2827   6.166   0.540   6.637
  643SOL    HW1 2828   6.137   0.606   6.707
  643SOL    HW2 2829   6.264   0.551   6.620
  644SOL     OW 2830   1.218   0.439   4.892
  644SOL    HW1 2831   1.249   0.377   4.965
  644SOL    HW2 2832   1.131   0.406   4.855
  645SOL     OW 2833   3.194   5.679   4.422
  645SOL    HW1 2834   3.244   5.607   4.374
  645SOL    HW2 2835   3.249   5.711   4.500
  646SOL     OW 2836   3.809   0.462   4.807
  646SOL    HW1 2837   3.908   0.457   4.823
  646SOL    HW2 2838   3.786   0.409   4.726
  647SOL     OW 2839   5.863   1.951   4.692
  647SOL    HW1 2840   5.866   2.038   4.643
  647SOL    HW2 2841   5.956   1.917   4.706
  648SOL     OW 2842   6.489   4.208   3.617
  648SOL    HW1 2843   6.445   4.198   3.528
  648SOL    HW2 2844   6.529   4.300   3.624
  649SOL     OW 2845   2.235   3.475   0.673
  649SOL    HW1 2846   2.143   3.449   0.644
  649SOL    HW2 2847   2.267   3.413   0.744
  650SOL     OW 2848   6.391   4.937   0.512
  650SOL    HW1 2849   6.394   4.898   0.604
  650SOL    HW2 2850   6.374   4.864   0.446
  651SOL     OW 2851   1.551   0.620   5.932
  651SOL    HW1 2852   1.475   0.594   5.991
  651SOL    HW2 2853   1.518   0.632   5.838
  652SOL     OW 2854   4.599   6.838   2.916
  652SOL    HW1 2855   4.582   6.769   2.846
  652SOL    HW2 2856   4.600   6.929   2.874
  653SOL     OW 2857   0.373   6.079   0.158
  653SOL    HW1 2858   0.402   6.094   0.064
  653SOL    HW2 2859   0.290   6.024   0.159
  654SOL     OW 2860   0.335   6.405   6.394
  654SOL    HW1 2861   0.297   6.482   6.446
  654SOL    HW2 2862   0.429   6.425   6.368
  655SOL     OW 2863   6.744   5.502   1.979
  655SOL    HW1 2864   6.645   5.498   1.992
  655SOL    HW2 2865   6.776   5.596   1.993
  656SOL     OW 2866   1.872   6.506   0.150
  656SOL    HW1 2867   1.864   6.526   0.052
  656SOL    HW2 2868   1.782   6.511   0.192
  657SOL     OW 2869   2.972   4.236   1.002
  657SOL    HW1 2870   2.918   4.321   1.005
  657SOL    HW2 2871   3.052   4.246   1.062
  658SOL     OW 2872   1.377   3.915   5.370
  658SOL    HW1 2873   1.306   3.980   5.343
  658SOL    HW2 2874   1.450   3.916   5.303
  659SOL     OW 2875   2.530   6.488   4.944
  659SOL    HW1 2876   2.609   6.429   4.958
  659SOL    HW2 2877   2.446   6.438   4.965
  660SOL     OW 2878   4.525   4.719   3.079
  660SOL    HW1 2879   4.586   4.713   3.158
  660SOL    HW2 2880   4.549   4.799   3.024
  661SOL     OW 2881   4.864   3.808   4.450
  661SOL    HW1 2882   4.888   3.790   4.355
  661SOL    HW2 2883   4.843   3.722   4.496
  662SOL     OW 2884   4.370   0.939   5.818
  662SOL    HW1 2885   4.443   0.994   5.779
  662SOL    HW2 2886   4.376   0.942   5.918
  663SOL     OW 2887   0.357   4.332   0.557
  663SOL    HW1 2888   0.451   4.329   0.524
  663SOL    HW2 2889   0.324   4.239   0.573
  664SOL     OW 2890   1.649   5.484   6.677
  664SOL    HW1 2891   1.667   5.397   6.631
  664SOL    HW2 2892   1.556   5.482   6.716
  665SOL     OW 2893   4.148   5.411   0.655
  665SOL    HW1 2894   4.101   5.465   0.724
  665SOL    HW2 2895   4.141   5.314   0.679
  666SOL     OW 2896   4.534   2.321   1.019
  666SOL    HW1 2897   4.563   2.346   0.926
  666SOL    HW2 2898   4.434   2.320   1.023
  667SOL     OW 2899   6.878   4.002   4.060
  667SOL    HW1 2900   6.894   4.097   4.034
  667SOL    HW2 2901   6.935   3.979   4.139
  668SOL     OW 2902   5.007   5.845   6.766
  668SOL    HW1 2903   4.915   5.839   6.728
  668SOL    HW2 2904   5.041   5.938   6.758
  669SOL     OW 2905   3.042   6.053   2.954
  669SOL    HW1 2906   3.070   5.970   2.905
  669SOL    HW2 2907   3.078   6.133   2.906
  670SOL     OW 2908   3.159   2.921   1.769
  670SOL    HW1 2909   3.120   2.829   1.760
  670SOL    HW2 2910   3.092   2.981   1.813
  671SOL     OW 2911   2.525   6.063   6.815
  671SOL    HW1 2912   2.478   5.986   6.772
  671SOL    HW2 2913   2.617   6.071   6.778
  672SOL     OW 2914   0.678   4.230   1.962
  672SOL    HW1 2915   0.722   4.177   1.889
  672SOL    HW2 2916   0.678   4.327   1.938
  673SOL     OW 2917   5.210   0.059   1.188
  673SOL    HW1 2918   5.216   6.996   1.133
  673SOL    HW2 2919   5.114   0.085   1.197
  674SOL     OW 2920   6.608   3.249   4.270
  674SOL    HW1 2921   6.513   3.223   4.286
  674SOL    HW2 2922   6.612   3.310   4.191
  675SOL     OW 2923   0.385   1.015   5.202
  675SOL    HW1 2924   0.430   1.036   5.289
  675SOL    HW2 2925   0.363   0.918   5.198
  676SOL     OW 2926   3.066   4.809   3.409
  676SOL    HW1 2927   3.163   4.826   3.391
  676SOL    HW2 2928   3.018   4.794   3.323
  677SOL     OW 2929   5.783   1.160   6.216
  677SOL    HW1 2930   5.785   1.186   6.312
  677SOL    HW2 2931   5.797   1.241   6.159
  678SOL     OW 2932   1.505   1.412   5.323
  678SOL    HW1 2933   1.570   1.341   5.295
  678SOL    HW2 2934   1.498   1.480   5.250
  679SOL     OW 2935   4.737   1.263   4.173
  679SOL    HW1 2936   4.681   1.246   4.254
  679SOL    HW2 2937   4.820   1.313   4.199
  680SOL     OW 2938   5.864   5.337   6.023
  680SOL    HW1 2939   5.832   5.408   6.085
  680SOL    HW2 2940   5.811   5.338   5.939
  681SOL     OW 2941   6.339   0.344   1.085
  681SOL    HW1 2942   6.328   0.244   1.087
  681SOL    HW2 2943   6.435   0.366   1.067
  682SOL     OW 2944   1.780   6.793   6.780
  682SOL    HW1 2945   1.866   6.756   6.815
  682SOL    HW2 2946   1.799   6.858   6.706
  683SOL     OW 2947   3.519   0.784   6.200
  683SOL    HW1 2948   3.459   0.751   6.273
  683SOL    HW2 2949   3.479   0.866   6.158
  684SOL     OW 2950   6.164   1.137   6.396
  684SOL    HW1 2951   6.230   1.160   6.468
  684SOL    HW2 2952   6.109   1.218   6.375
  685SOL     OW 2953   5.063   6.389   5.368
  685SOL    HW1 2954   4.986   6.419   5.311
  685SOL    HW2 2955   5.094   6.465   5.425
  686SOL     OW 2956   5.655   3.395   2.776
  686SOL    HW1 2957   5.633   3.478   2.828
  686SOL    HW2 2958   5.577   3.371   2.718
  687SOL     OW 2959   6.874   2.663   5.044
  687SOL    HW1 2960   6.847   2.700   5.133
  687SOL    HW2 2961   6.955   2.711   5.011
  688SOL     OW 2962   1.411   3.472   0.703
  688SOL    HW1 2963   1.333   3.533   0.709
  688SOL    HW2 2964   1.379   3.378   0.691
  689SOL     OW 2965   0.734   4.325   5.512
  689SOL    HW1 2966   0.741   4.268   5.430
  689SOL    HW2 2967   0.809   4.392   5.512
  690SOL     OW 2968   0.685   3.210   3.644
  690SOL    HW1 2969   0.586   3.206   3.659
  690SOL    HW2 2970   0.704   3.233   3.549
  691SOL     OW 2971   2.157   1.554   6.425
  691SOL    HW1 2972   2.122   1.648   6.425
  691SOL    HW2 2973   2.082   1.490   6.412
  692SOL     OW 2974   3.337   6.356   3.742
  692SOL    HW1 2975   3.435   6.338   3.739
  692SOL    HW2 2976   3.316   6.417   3.819
  693SOL     OW 2977   6.410   1.401   2.952
  693SOL    HW1 2978   6.348   1.454   2.894
  693SOL    HW2 2979   6.387   1.416   3.048
  694SOL     OW 2980   3.106   6.025   2.434
  694SOL    HW1 2981   3.056   6.111   2.433
  694SOL    HW2 2982   3.192   6.036   2.484
  695SOL     OW 2983   4.372   5.067   6.125
  695SOL    HW1 2984   4.347   5.101   6.216
  695SOL    HW2 2985   4.454   5.010   6.132
  696SOL     OW 2986   3.390   5.273   1.664
  696SOL    HW1 2987   3.458   5.287   1.737
  696SOL    HW2 2988   3.346   5.185   1.677
  697SOL     OW 2989   1.641   2.492   4.712
  697SOL    HW1 2990   1.564   2.507   4.774
  697SOL    HW2 2991   1.642   2.562   4.641
  698SOL     OW 2992   5.555   0.154   5.847
  698SOL    HW1 2993   5.498   0.178   5.926
  698SOL    HW2 2994   5.649   0.184   5.863
  699SOL     OW 2995   0.575   4.114   0.196
  699SOL    HW1 2996   0.546   4.094   0.289
  699SOL    HW2 2997   0.654   4.057   0.172
  700SOL     OW 2998   3.232   1.767   4.102
  700SOL    HW1 2999   3.320   1.740   4.142
  700SOL    HW2 3000   3.238   1.861   4.070
  701SOL     OW 3001   0.051   4.164   5.589
  701SOL    HW1 3002   0.028   4.163   5.491
  701SOL    HW2 3003   0.128   4.226   5.605
  702SOL     OW 3004   5.623   6.172   5.519
  702SOL    HW1 3005   5.671   6.245   5.568
  702SOL    HW2 3006   5.691   6.111   5.477
  703SOL     OW 3007   4.108   3.953   6.501
  703SOL    HW1 3008   4.189   4.000   6.535
  703SOL    HW2 3009   4.027   4.010   6.518
  704SOL     OW 3010   1.648   1.706   6.258
  704SOL    HW1 3011   1.715   1.663   6.198
  704SOL    HW2 3012   1.694   1.754   6.332
  705SOL     OW 3013   5.163   0.027   3.781
  705SOL    HW1 3014   5.241   0.072   3.738
  705SOL    HW2 3015   5.139   6.967   3.728
  706SOL     OW 3016   4.357   2.109   3.218
  706SOL    HW1 3017   4.332   2.206   3.224
  706SOL    HW2 3018   4.278   2.057   3.186
  707SOL     OW 3019   4.470   0.387   2.579
  707SOL    HW1 3020   4.423   0.314   2.529
  707SOL    HW2 3021   4.551   0.416   2.529
  708SOL     OW 3022   4.367   0.421   1.556
  708SOL    HW1 3023   4.359   0.516   1.526
  708SOL    HW2 3024   4.405   0.419   1.649
  709SOL     OW 3025   1.382   5.561   0.534
  709SOL    HW1 3026   1.400   5.498   0.458
  709SOL    HW2 3027   1.423   5.525   0.618
  710SOL     OW 3028   3.991   3.114   2.647
  710SOL    HW1 3029   3.996   3.046   2.574
  710SOL    HW2 3030   3.958   3.070   2.731
  711SOL     OW 3031   0.784   1.869   5.950
  711SOL    HW1 3032   0.722   1.838   6.021
  711SOL    HW2 3033   0.867   1.907   5.992
  712SOL     OW 3034   2.340   4.023   0.508
  712SOL    HW1 3035   2.352   4.061   0.599
  712SOL    HW2 3036   2.409   3.952   0.491
  713SOL     OW 3037   3.164   3.268   0.171
  713SOL    HW1 3038   3.234   3.303   0.108
  713SOL    HW2 3039   3.183   3.303   0.263
  714SOL     OW 3040   6.595   5.179   4.981
  714SOL    HW1 3041   6.652   5.242   5.034
  714SOL    HW2 3042   6.534   5.129   5.042
  715SOL     OW 3043   5.526   5.946   0.779
  715SOL    HW1 3044   5.556   5.896   0.861
  715SOL    HW2 3045   5.476   6.028   0.807
  716SOL     OW 3046   0.988   6.788   0.862
  716SOL    HW1 3047   0.921   6.853   0.897
  716SOL    HW2 3048   1.036   6.828   0.784
  717SOL     OW 3049   5.710   5.000   6.118
  717SOL    HW1 3050   5.623   4.965   6.081
  717SOL    HW2 3051   5.697   5.027   6.213
  718SOL     OW 3052   4.885   1.950   5.521
  718SOL    HW1 3053   4.957   1.884   5.541
  718SOL    HW2 3054   4.819   1.950   5.597
  719SOL     OW 3055   6.466   2.546   1.026
  719SOL    HW1 3056   6.485   2.509   0.935
  719SOL    HW2 3057   6.552   2.557   1.076
  720SOL     OW 3058   3.850   1.070   5.940
  720SOL    HW1 3059   3.941   1.092   5.905
  720SOL    HW2 3060   3.803   1.009   5.876
  721SOL     OW 3061   1.645   0.041   4.277
  721SOL    HW1 3062   1.678   6.972   4.250
  721SOL    HW2 3063   1.716   0.089   4.329
  722SOL     OW 3064   3.033   0.029   5.221
  722SOL    HW1 3065   3.037   6.972   5.159
  722SOL    HW2 3066   2.983   0.103   5.177
  723SOL     OW 3067   2.065   3.337   2.635
  723SOL    HW1 3068   2.024   3.329   2.544
  723SOL    HW2 3069   2.115   3.253   2.656
  724SOL     OW 3070   1.569   1.867   4.564
  724SOL    HW1 3071   1.534   1.945   4.615
  724SOL    HW2 3072   1.525   1.861   4.475
  725SOL     OW 3073   2.749   5.321   1.554
  725SOL    HW1 3074   2.746   5.335   1.653
  725SOL    HW2 3075   2.719   5.405   1.508
  726SOL     OW 3076   3.818   4.302   0.962
  726SOL    HW1 3077   3.861   4.273   0.876
  726SOL    HW2 3078   3.864   4.260   1.039
  727SOL     OW 3079   4.982   5.357   5.923
  727SOL    HW1 3080   4.986   5.414   5.842
  727SOL    HW2 3081   4.965   5.262   5.897
  728SOL     OW 3082   0.297   3.473   5.215
  728SOL    HW1 3083   0.201   3.448   5.223
  728SOL    HW2 3084   0.305   3.568   5.188
  729SOL     OW 3085   2.140   1.234   0.173
  729SOL    HW1 3086   2.073   1.230   0.247
  729SOL    HW2 3087   2.182   1.144   0.161
  730SOL     OW 3088   5.761   0.319   3.483
  730SOL    HW1 3089   5.835   0.252   3.495
  730SOL    HW2 3090   5.749   0.338   3.385
  731SOL     OW 3091   6.179   3.663   6.079
  731SOL    HW1 3092   6.254   3.598   6.068
  731SOL    HW2 3093   6.179   3.726   6.001
  732SOL     OW 3094   0.817   3.268   1.052
  732SOL    HW1 3095   0.889   3.338   1.053
  732SOL    HW2 3096   0.730   3.311   1.024
  733SOL     OW 3097   5.885   4.221   4.881
  733SOL    HW1 3098   5.800   4.215   4.829
  733SOL    HW2 3099   5.896   4.314   4.917
  734SOL     OW 3100   6.890   4.503   2.518
  734SOL    HW1 3101   6.867   4.593   2.557
  734SOL    HW2 3102   6.810   4.444   2.521
  735SOL     OW 3103   3.582   3.141   0.840
  735SOL    HW1 3104   3.611   3.182   0.754
  735SOL    HW2 3105   3.534   3.055   0.823
  736SOL     OW 3106   6.518   6.259   2.535
  736SOL    HW1 3107   6.446   6.206   2.491
  736SOL    HW2 3108   6.558   6.323   2.470
  737SOL     OW 3109   4.188   2.115   6.759
  737SOL    HW1 3110   4.163   2.021   6.735
  737SOL    HW2 3111   4.127   2.179   6.711
  738SOL     OW 3112   2.233   4.010   2.511
  738SOL    HW1 3113   2.158   3.951   2.482
  738SOL    HW2 3114   2.264   4.065   2.433
  739SOL     OW 3115   4.035   6.674   4.677
  739SOL    HW1 3116   4.080   6.585   4.667
  739SOL    HW2 3117   4.065   6.735   4.605
  740SOL     OW 3118   4.773   6.584   0.297
  740SOL    HW1 3119   4.780   6.502   0.355
  740SOL    HW2 3120   4.704   6.646   0.335
  741SOL     OW 3121   2.202   6.322   3.501
  741SOL    HW1 3122   2.220   6.390   3.572
  741SOL    HW2 3123   2.200   6.367   3.412
  742SOL     OW 3124   2.258   6.504   1.804
  742SOL    HW1 3125   2.182   6.514   1.739
  742SOL    HW2 3126   2.344   6.526   1.758
  743SOL     OW 3127   1.587   3.875   4.534
  743SOL    HW1 3128   1.595   3.778   4.514
  743SOL    HW2 3129   1.673   3.908   4.574
  744SOL     OW 3130   5.736   0.028   6.205
  744SOL    HW1 3131   5.808   0.050   6.139
  744SOL    HW2 3132   5.735   0.097   6.278
  745SOL     OW 3133   0.878   4.771   4.487
  745SOL    HW1 3134   0.913   4.699   4.547
  745SOL    HW2 3135   0.953   4.808   4.432
  746SOL     OW 3136   0.761   5.242   6.192
  746SOL    HW1 3137   0.789   5.173   6.125
  746SOL    HW2 3138   0.746   5.329   6.146
  747SOL     OW 3139   4.552   5.674   4.966
  747SOL    HW1 3140   4.461   5.667   4.925
  747SOL    HW2 3141   4.559   5.762   5.014
  748SOL     OW 3142   3.630   5.361   2.833
  748SOL    HW1 3143   3.569   5.390   2.907
  748SOL    HW2 3144   3.671   5.442   2.791
  749SOL     OW 3145   6.397   3.650   4.828
  749SOL    HW1 3146   6.318   3.687   4.781
  749SOL    HW2 3147   6.405   3.691   4.918
  750SOL     OW 3148   2.253   3.123   0.630
  750SOL    HW1 3149   2.314   3.090   0.557
  750SOL    HW2 3150   2.305   3.182   0.692
  751SOL     OW 3151   3.793   1.860   6.102
  751SOL    HW1 3152   3.819   1.766   6.079
  751SOL    HW2 3153   3.859   1.898   6.166
  752SOL     OW 3154   4.174   2.457   1.744
  752SOL    HW1 3155   4.081   2.480   1.717
  752SOL    HW2 3156   4.214   2.394   1.677
  753SOL     OW 3157   1.913   3.172   4.254
  753SOL    HW1 3158   1.870   3.239   4.193
  753SOL    HW2 3159   1.854   3.156   4.333
  754SOL     OW 3160   5.332   2.663   6.710
  754SOL    HW1 3161   5.281   2.748   6.695
  754SOL    HW2 3162   5.305   2.595   6.642
  755SOL     OW 3163   1.511   5.656   6.132
  755SOL    HW1 3164   1.446   5.588   6.165
  755SOL    HW2 3165   1.469   5.709   6.058
  756SOL     OW 3166   3.801   0.017   0.961
  756SOL    HW1 3167   3.783   0.110   0.928
  756SOL    HW2 3168   3.884   0.017   1.017
  757SOL     OW 3169   0.062   6.287   3.123
  757SOL    HW1 3170   0.107   6.249   3.042
  757SOL    HW2 3171   7.003   6.231   3.146
  758SOL     OW 3172   4.193   0.686   2.003
  758SOL    HW1 3173   4.233   0.732   1.923
  758SOL    HW2 3174   4.109   0.640   1.976
  759SOL     OW 3175   0.370   0.624   0.650
  759SOL    HW1 3176   0.275   0.637   0.680
  759SOL    HW2 3177   0.378   0.650   0.554
  760SOL     OW 3178   4.231   0.573   6.186
  760SOL    HW1 3179   4.191   0.538   6.271
  760SOL    HW2 3180   4.330   0.585   6.198
  761SOL     OW 3181   5.596   3.710   5.634
  761SOL    HW1 3182   5.633   3.638   5.692
  761SOL    HW2 3183   5.579   3.791   5.690
  762SOL     OW 3184   1.787   0.096   4.847
  762SOL    HW1 3185   1.723   0.040   4.899
  762SOL    HW2 3186   1.762   0.094   4.751
  763SOL     OW 3187   3.710   4.849   6.574
  763SOL    HW1 3188   3.788   4.911   6.585
  763SOL    HW2 3189   3.705   4.789   6.654
  764SOL     OW 3190   4.329   0.569   3.700
  764SOL    HW1 3191   4.291   0.519   3.778
  764SOL    HW2 3192   4.421   0.600   3.723
  765SOL     OW 3193   1.416   5.922   1.653
  765SOL    HW1 3194   1.325   5.926   1.694
  765SOL    HW2 3195   1.410   5.943   1.555
  766SOL     OW 3196   1.019   2.478   0.897
  766SOL    HW1 3197   0.931   2.524   0.883
  766SOL    HW2 3198   1.090   2.547   0.913
  767SOL     OW 3199   6.372   5.686   2.980
  767SOL    HW1 3200   6.361   5.656   2.886
  767SOL    HW2 3201   6.397   5.783   2.982
  768SOL     OW 3202   2.557   6.652   2.500
  768SOL    HW1 3203   2.502   6.605   2.431
  768SOL    HW2 3204   2.654   6.634   2.484
  769SOL     OW 3205   3.364   0.988   4.598
  769SOL    HW1 3206   3.386   1.074   4.552
  769SOL    HW2 3207   3.449   0.939   4.618
  770SOL     OW 3208   1.758   4.362   3.084
  770SOL    HW1 3209   1.803   4.412   3.010
  770SOL    HW2 3210   1.787   4.400   3.172
  771SOL     OW 3211   2.794   5.896   2.675
  771SOL    HW1 3212   2.802   5.993   2.654
  771SOL    HW2 3213   2.715   5.881   2.735
  772SOL     OW 3214   6.647   5.115   0.540
  772SOL    HW1 3215   6.562   5.090   0.495
  772SOL    HW2 3216   6.717   5.135   0.470
  773SOL     OW 3217   0.048   4.094   3.395
  773SOL    HW1 3218   0.121   4.058   3.453
  773SOL    HW2 3219   6.987   4.108   3.450
  774SOL     OW 3220   1.089   1.467   2.462
  774SOL    HW1 3221   1.043   1.553   2.481
  774SOL    HW2 3222   1.036   1.391   2.499
  775SOL     OW 3223   0.998   1.800   3.316
  775SOL    HW1 3224   0.986   1.709   3.278
  775SOL    HW2 3225   1.095   1.816   3.334
  776SOL     OW 3226   6.675   0.919   5.686
  776SOL    HW1 3227   6.672   1.018   5.700
  776SOL    HW2 3228   6.719   0.898   5.598
  777SOL     OW 3229   3.217   5.698   1.095
  777SOL    HW1 3230   3.124   5.724   1.066
  777SOL    HW2 3231   3.254   5.769   1.155
  778SOL     OW 3232   3.567   1.814   2.814
  778SOL    HW1 3233   3.503   1.796   2.889
  778SOL    HW2 3234   3.660   1.819   2.851
  779SOL     OW 3235   0.528   2.031   2.901
  779SOL    HW1 3236   0.585   2.063   2.977
  779SOL    HW2 3237   0.527   2.101   2.829
  780SOL     OW 3238   6.189   3.594   4.046
  780SOL    HW1 3239   6.187   3.694   4.034
  780SOL    HW2 3240   6.134   3.551   3.974
  781SOL     OW 3241   5.307   1.929   6.294
  781SOL    HW1 3242   5.344   2.017   6.321
  781SOL    HW2 3243   5.373   1.857   6.315
  782SOL     OW 3244   0.619   3.607   6.850
  782SOL    HW1 3245   0.634   3.692   6.902
  782SOL    HW2 3246   0.578   3.630   6.761
  783SOL     OW 3247   4.164   4.761   0.970
  783SOL    HW1 3248   4.128   4.671   0.943
  783SOL    HW2 3249   4.103   4.801   1.038
  784SOL     OW 3250   5.339   6.517   6.536
  784SOL    HW1 3251   5.406   6.590   6.552
  784SOL    HW2 3252   5.299   6.489   6.623
  785SOL     OW 3253   6.820   2.959   3.065
  785SOL    HW1 3254   6.727   2.985   3.039
  785SOL    HW2 3255   6.822   2.940   3.163
  786SOL     OW 3256   1.470   1.343   1.084
  786SOL    HW1 3257   1.492   1.251   1.116
  786SOL    HW2 3258   1.551   1.401   1.091
  787SOL     OW 3259   2.753   1.050   6.515
  787SOL    HW1 3260   2.738   1.082   6.421
  787SOL    HW2 3261   2.809   0.967   6.514
  788SOL     OW 3262   2.958   2.000   5.047
  788SOL    HW1 3263   3.021   2.053   5.103
  788SOL    HW2 3264   2.865   2.014   5.079
  789SOL     OW 3265   5.192   3.970   0.910
  789SOL    HW1 3266   5.290   3.957   0.920
  789SOL    HW2 3267   5.157   3.911   0.837
  790SOL     OW 3268   2.515   0.719   3.933
  790SOL    HW1 3269   2.506   0.793   3.999
  790SOL    HW2 3270   2.433   0.715   3.876
  791SOL     OW 3271   3.327   6.265   3.022
  791SOL    HW1 3272   3.279   6.287   3.107
  791SOL    HW2 3273   3.420   6.304   3.026
  792SOL     OW 3274   0.365   0.765   1.854
  792SOL    HW1 3275   0.375   0.860   1.824
  792SOL    HW2 3276   0.297   0.719   1.798
  793SOL     OW 3277   4.503   6.267   2.711
  793SOL    HW1 3278   4.454   6.251   2.625
  793SOL    HW2 3279   4.590   6.312   2.693
  794SOL     OW 3280   2.877   3.386   5.004
  794SOL    HW1 3281   2.778   3.387   5.017
  794SOL    HW2 3282   2.905   3.296   4.968
  795SOL     OW 3283   3.440   5.960   5.114
  795SOL    HW1 3284   3.392   6.031   5.166
  795SOL    HW2 3285   3.448   5.990   5.019
  796SOL     OW 3286   1.110   2.212   6.297
  796SOL    HW1 3287   1.208   2.227   6.314
  796SOL    HW2 3288   1.071   2.161   6.374
  797SOL     OW 3289   5.024   2.462   2.181
  797SOL    HW1 3290   4.995   2.527   2.111
  797SOL    HW2 3291   4.944   2.430   2.232
  798SOL     OW 3292   5.167   6.929   1.472
  798SOL    HW1 3293   5.113   7.005   1.510
  798SOL    HW2 3294   5.110   6.876   1.409
  799SOL     OW 3295   6.092   1.477   4.366
  799SOL    HW1 3296   6.176   1.496   4.418
  799SOL    HW2 3297   6.106   1.503   4.270
  800SOL     OW 3298   5.754   0.881   2.427
  800SOL    HW1 3299   5.793   0.942   2.358
  800SOL    HW2 3300   5.669   0.920   2.462
  801SOL     OW 3301   2.068   3.459   3.787
  801SOL    HW1 3302   2.064   3.413   3.699
  801SOL    HW2 3303   2.012   3.542   3.784
  802SOL     OW 3304   4.628   0.501   1.151
  802SOL    HW1 3305   4.543   0.546   1.122
  802SOL    HW2 3306   4.666   0.449   1.075
  803SOL     OW 3307   0.272   5.587   4.885
  803SOL    HW1 3308   0.263   5.489   4.864
  803SOL    HW2 3309   0.368   5.612   4.885
  804SOL     OW 3310   6.076   6.285   6.855
  804SOL    HW1 3311   6.105   6.307   6.761
  804SOL    HW2 3312   6.000   6.220   6.852
  805SOL     OW 3313   3.145   1.837   5.238
  805SOL    HW1 3314   3.191   1.916   5.199
  805SOL    HW2 3315   3.046   1.852   5.236
  806SOL     OW 3316   4.556   1.202   4.405
  806SOL    HW1 3317   4.485   1.265   4.373
  806SOL    HW2 3318   4.535   1.172   4.498
  807SOL     OW 3319   0.706   1.578   4.470
  807SOL    HW1 3320   0.659   1.647   4.414
  807SOL    HW2 3321   0.639   1.510   4.502
  808SOL     OW 3322   4.599   3.578   6.482
  808SOL    HW1 3323   4.631   3.508   6.417
  808SOL    HW2 3324   4.519   3.543   6.531
  809SOL     OW 3325   0.704   4.782   1.545
  809SOL    HW1 3326   0.714   4.882   1.542
  809SOL    HW2 3327   0.652   4.752   1.465
  810SOL     OW 3328   3.486   2.697   1.121
  810SOL    HW1 3329   3.570   2.713   1.172
  810SOL    HW2 3330   3.507   2.646   1.037
  811SOL     OW 3331   3.903   5.870   4.217
  811SOL    HW1 3332   3.967   5.928   4.267
  811SOL    HW2 3333   3.948   5.786   4.190
  812SOL     OW 3334   0.824   1.602   1.309
  812SOL    HW1 3335   0.829   1.672   1.380
  812SOL    HW2 3336   0.838   1.512   1.350
  813SOL     OW 3337   3.980   5.152   4.308
  813SOL    HW1 3338   3.931   5.137   4.394
  813SOL    HW2 3339   3.997   5.250   4.295
  814SOL     OW 3340   5.712   6.191   3.150
  814SOL    HW1 3341   5.740   6.270   3.204
  814SOL    HW2 3342   5.617   6.168   3.171
  815SOL     OW 3343   0.107   3.070   3.276
  815SOL    HW1 3344   0.100   3.027   3.186
  815SOL    HW2 3345   0.028   3.131   3.290
  816SOL     OW 3346   0.082   6.569   0.037
  816SOL    HW1 3347   0.176   6.583   0.005
  816SOL    HW2 3348   0.033   6.512   6.992
  817SOL     OW 3349   2.435   4.069   1.631
  817SOL    HW1 3350   2.428   4.082   1.532
  817SOL    HW2 3351   2.448   4.157   1.676
  818SOL     OW 3352   6.321   3.068   1.729
  818SOL    HW1 3353   6.338   3.068   1.828
  818SOL    HW2 3354   6.355   3.153   1.689
  819SOL     OW 3355   5.620   3.411   3.170
  819SOL    HW1 3356   5.593   3.368   3.084
  819SOL    HW2 3357   5.542   3.411   3.233
  820SOL     OW 3358   2.813   2.570   6.433
  820SOL    HW1 3359   2.813   2.554   6.334
  820SOL    HW2 3360   2.907   2.566   6.467
  821SOL     OW 3361   2.218   3.939   0.883
  821SOL    HW1 3362   2.241   3.858   0.937
  821SOL    HW2 3363   2.140   3.918   0.824
  822SOL     OW 3364   1.138   4.613   4.860
  822SOL    HW1 3365   1.219   4.660   4.893
  822SOL    HW2 3366   1.082   4.582   4.937
  823SOL     OW 3367   4.611   4.152   6.707
  823SOL    HW1 3368   4.685   4.100   6.664
  823SOL    HW2 3369   4.622   4.249   6.688
  824SOL     OW 3370   5.270   1.097   5.190
  824SOL    HW1 3371   5.316   1.020   5.147
  824SOL    HW2 3372   5.284   1.179   5.136
  825SOL     OW 3373   1.322   3.828   1.244
  825SOL    HW1 3374   1.225   3.810   1.232
  825SOL    HW2 3375   1.375   3.763   1.189
  826SOL     OW 3376   5.401   3.109   6.850
  826SOL    HW1 3377   5.313   3.107   6.898
  826SOL    HW2 3378   5.468   3.059   6.904
  827SOL     OW 3379   3.505   5.926   6.096
  827SOL    HW1 3380   3.531   5.882   6.009
  827SOL    HW2 3381   3.420   5.885   6.128
  828SOL     OW 3382   5.676   6.768   5.683
  828SOL    HW1 3383   5.643   6.713   5.760
  828SOL    HW2 3384   5.767   6.804   5.704
  829SOL     OW 3385   3.176   4.035   4.158
  829SOL    HW1 3386   3.176   4.084   4.245
  829SOL    HW2 3387   3.097   3.973   4.154
  830SOL     OW 3388   5.047   4.813   6.374
  830SOL    HW1 3389   5.135   4.826   6.328
  830SOL    HW2 3390   5.050   4.857   6.464
  831SOL     OW 3391   6.430   1.380   5.437
  831SOL    HW1 3392   6.387   1.291   5.423
  831SOL    HW2 3393   6.375   1.434   5.501
  832SOL     OW 3394   2.715   1.340   1.047
  832SOL    HW1 3395   2.659   1.321   0.966
  832SOL    HW2 3396   2.782   1.410   1.025
  833SOL     OW 3397   0.319   5.044   6.380
  833SOL    HW1 3398   0.405   5.043   6.329
  833SOL    HW2 3399   0.339   5.041   6.478
  834SOL     OW 3400   2.836   3.175   0.933
  834SOL    HW1 3401   2.894   3.189   0.852
  834SOL    HW2 3402   2.879   3.109   0.994
  835SOL     OW 3403   3.207   0.332   4.306
  835SOL    HW1 3404   3.238   0.248   4.349
  835SOL    HW2 3405   3.147   0.310   4.228
  836SOL     OW 3406   3.499   6.844   6.932
  836SOL    HW1 3407   3.521   6.750   6.958
  836SOL    HW2 3408   3.499   6.852   6.833
  837SOL     OW 3409   5.484   6.477   6.912
  837SOL    HW1 3410   5.416   6.415   6.950
  837SOL    HW2 3411   5.445   6.568   6.903
  838SOL     OW 3412   1.156   0.057   5.155
  838SOL    HW1 3413   1.202   6.989   5.155
  838SOL    HW2 3414   1.221   0.128   5.179
  839SOL     OW 3415   2.651   2.254   1.912
  839SOL    HW1 3416   2.617   2.333   1.861
  839SOL    HW2 3417   2.733   2.280   1.963
  840SOL     OW 3418   5.899   0.080   5.987
  840SOL    HW1 3419   5.863   0.000   5.939
  840SOL    HW2 3420   5.943   0.141   5.922
  841SOL     OW 3421   4.741   4.973   0.495
  841SOL    HW1 3422   4.755   5.033   0.574
  841SOL    HW2 3423   4.820   4.912   0.486
  842SOL     OW 3424   4.906   4.839   4.254
  842SOL    HW1 3425   4.984   4.852   4.316
  842SOL    HW2 3426   4.828   4.891   4.287
  843SOL     OW 3427   3.711   1.569   6.472
  843SOL    HW1 3428   3.641   1.503   6.447
  843SOL    HW2 3429   3.687   1.659   6.436
  844SOL     OW 3430   5.066   6.868   0.988
  844SOL    HW1 3431   4.966   6.870   0.992
  844SOL    HW2 3432   5.097   6.924   0.911
  845SOL     OW 3433   6.005   3.306   4.909
  845SOL    HW1 3434   5.992   3.401   4.938
  845SOL    HW2 3435   6.103   3.288   4.897
  846SOL     OW 3436   3.267   1.482   0.206
  846SOL    HW1 3437   3.318   1.482   0.292
  846SOL    HW2 3438   3.172   1.457   0.224
  847SOL     OW 3439   0.377   3.696   0.167
  847SOL    HW1 3440   0.346   3.643   0.087
  847SOL    HW2 3441   0.392   3.634   0.244
  848SOL     OW 3442   6.347   1.234   6.592
  848SOL    HW1 3443   6.338   1.177   6.673
  848SOL    HW2 3444   6.295   1.319   6.605
  849SOL     OW 3445   1.001   4.601   5.758
  849SOL    HW1 3446   1.040   4.545   5.831
  849SOL    HW2 3447   0.977   4.543   5.681
  850SOL     OW 3448   5.331   1.342   3.958
  850SOL    HW1 3449   5.304   1.254   3.996
  850SOL    HW2 3450   5.259   1.375   3.897
  851SOL     OW 3451   0.168   1.218   1.488
  851SOL    HW1 3452   0.111   1.139   1.513
  851SOL    HW2 3453   0.141   1.297   1.543
  852SOL     OW 3454   2.049   2.489   0.592
  852SOL    HW1 3455   2.108   2.408   0.599
  852SOL    HW2 3456   2.094   2.558   0.536
  853SOL     OW 3457   1.825   4.266   2.189
  853SOL    HW1 3458   1.783   4.183   2.153
  853SOL    HW2 3459   1.761   4.342   2.181
  854SOL     OW 3460   4.753   5.906   2.661
  854SOL    HW1 3461   4.740   5.972   2.587
  854SOL    HW2 3462   4.851   5.890   2.675
  855SOL     OW 3463   6.996   0.147   0.843
  855SOL    HW1 3464   6.995   0.148   0.743
  855SOL    HW2 3465   0.026   0.227   0.876
  856SOL     OW 3466   1.700   2.008   5.229
  856SOL    HW1 3467   1.603   2.022   5.249
  856SOL    HW2 3468   1.752   2.086   5.264
  857SOL     OW 3469   5.811   4.707   1.441
  857SOL    HW1 3470   5.751   4.690   1.519
  857SOL    HW2 3471   5.836   4.803   1.438
  858SOL     OW 3472   2.675   4.401   1.391
  858SOL    HW1 3473   2.577   4.409   1.406
  858SOL    HW2 3474   2.699   4.305   1.378
  859SOL     OW 3475   4.826   5.029   6.806
  859SOL    HW1 3476   4.790   5.121   6.816
  859SOL    HW2 3477   4.923   5.033   6.782
  860SOL     OW 3478   4.380   4.519   1.301
  860SOL    HW1 3479   4.396   4.512   1.203
  860SOL    HW2 3480   4.356   4.613   1.325
  861SOL     OW 3481   2.273   0.509   5.001
  861SOL    HW1 3482   2.292   0.597   4.958
  861SOL    HW2 3483   2.347   0.445   4.980
  862SOL     OW 3484   6.781   4.819   5.382
  862SOL    HW1 3485   6.846   4.864   5.443
  862SOL    HW2 3486   6.803   4.722   5.376
  863SOL     OW 3487   1.214   1.014   0.397
  863SOL    HW1 3488   1.217   0.927   0.347
  863SOL    HW2 3489   1.127   1.020   0.447
  864SOL     OW 3490   5.115   4.344   3.921
  864SOL    HW1 3491   5.170   4.380   3.845
  864SOL    HW2 3492   5.040   4.408   3.941
  865SOL     OW 3493   1.724   6.555   5.242
  865SOL    HW1 3494   1.645   6.533   5.299
  865SOL    HW2 3495   1.736   6.483   5.173
  866SOL     OW 3496   2.007   2.764   1.180
  866SOL    HW1 3497   1.958   2.847   1.152
  866SOL    HW2 3498   2.098   2.789   1.212
  867SOL     OW 3499   4.151   2.874   1.105
  867SOL    HW1 3500   4.226   2.810   1.085
  867SOL    HW2 3501   4.071   2.849   1.051
  868SOL     OW 3502   5.863   6.246   1.324
  868SOL    HW1 3503   5.926   6.321   1.306
  868SOL    HW2 3504   5.807   6.268   1.404
  869SOL     OW 3505   0.101   5.427   3.132
  869SOL    HW1 3506   0.089   5.338   3.089
  869SOL    HW2 3507   0.046   5.432   3.215
  870SOL     OW 3508   5.803   3.606   0.181
  870SOL    HW1 3509   5.710   3.605   0.145
  870SOL    HW2 3510   5.830   3.513   0.206
  871SOL     OW 3511   5.688   3.596   2.021
  871SOL    HW1 3512   5.711   3.684   2.064
  871SOL    HW2 3513   5.606   3.559   2.064
  872SOL     OW 3514   6.141   4.167   4.213
  872SOL    HW1 3515   6.088   4.095   4.257
  872SOL    HW2 3516   6.099   4.190   4.125
  873SOL     OW 3517   5.369   0.347   3.843
  873SOL    HW1 3518   5.378   0.263   3.896
  873SOL    HW2 3519   5.421   0.340   3.759
  874SOL     OW 3520   1.486   4.614   5.268
  874SOL    HW1 3521   1.506   4.627   5.171
  874SOL    HW2 3522   1.561   4.651   5.323
  875SOL     OW 3523   4.379   3.693   1.332
  875SOL    HW1 3524   4.478   3.692   1.317
  875SOL    HW2 3525   4.359   3.733   1.421
  876SOL     OW 3526   0.558   5.516   3.356
  876SOL    HW1 3527   0.470   5.493   3.397
  876SOL    HW2 3528   0.547   5.533   3.259
  877SOL     OW 3529   3.544   4.837   0.035
  877SOL    HW1 3530   3.639   4.857   0.057
  877SOL    HW2 3531   3.495   4.813   0.120
  878SOL     OW 3532   4.269   6.283   6.257
  878SOL    HW1 3533   4.234   6.310   6.167
  878SOL    HW2 3534   4.210   6.212   6.295
  879SOL     OW 3535   3.615   2.054   2.179
  879SOL    HW1 3536   3.655   2.121   2.117
  879SOL    HW2 3537   3.520   2.037   2.153
  880SOL     OW 3538   2.989   4.645   0.175
  880SOL    HW1 3539   2.971   4.697   0.091
  880SOL    HW2 3540   2.999   4.548   0.152
  881SOL     OW 3541   4.040   4.488   5.326
  881SOL    HW1 3542   4.116   4.451   5.272
  881SOL    HW2 3543   4.069   4.498   5.421
  882SOL     OW 3544   1.446   1.203   4.008
  882SOL    HW1 3545   1.450   1.103   4.020
  882SOL    HW2 3546   1.415   1.245   4.093
  883SOL     OW 3547   4.762   5.514   4.953
  883SOL    HW1 3548   4.686   5.578   4.961
  883SOL    HW2 3549   4.749   5.455   4.873
  884SOL     OW 3550   0.331   3.656   1.685
  884SOL    HW1 3551   0.390   3.576   1.676
  884SOL    HW2 3552   0.244   3.630   1.726
  885SOL     OW 3553   5.380   5.844   6.718
  885SOL    HW1 3554   5.350   5.914   6.783
  885SOL    HW2 3555   5.480   5.836   6.723
  886SOL     OW 3556   4.268   0.336   0.376
  886SOL    HW1 3557   4.291   0.411   0.439
  886SOL    HW2 3558   4.179   0.353   0.335
  887SOL     OW 3559   4.417   6.680   4.700
  887SOL    HW1 3560   4.488   6.613   4.676
  887SOL    HW2 3561   4.458   6.751   4.759
  888SOL     OW 3562   6.248   6.537   3.681
  888SOL    HW1 3563   6.224   6.559   3.775
  888SOL    HW2 3564   6.301   6.452   3.678
  889SOL     OW 3565   0.582   6.502   6.284
  889SOL    HW1 3566   0.593   6.552   6.199
  889SOL    HW2 3567   0.650   6.533   6.351
  890SOL     OW 3568   2.783   4.874   2.163
  890SOL    HW1 3569   2.777   4.886   2.064
  890SOL    HW2 3570   2.754   4.782   2.188
  891SOL     OW 3571   5.652   3.678   1.429
  891SOL    HW1 3572   5.677   3.702   1.523
  891SOL    HW2 3573   5.554   3.660   1.424
  892SOL     OW 3574   3.702   3.948   0.429
  892SOL    HW1 3575   3.749   4.009   0.365
  892SOL    HW2 3576   3.603   3.951   0.411
  893SOL     OW 3577   2.682   1.163   1.854
  893SOL    HW1 3578   2.732   1.147   1.769
  893SOL    HW2 3579   2.585   1.179   1.834
  894SOL     OW 3580   1.934   3.798   4.028
  894SOL    HW1 3581   2.026   3.836   4.033
  894SOL    HW2 3582   1.932   3.710   4.076
  895SOL     OW 3583   2.039   6.284   4.946
  895SOL    HW1 3584   2.128   6.322   4.972
  895SOL    HW2 3585   2.009   6.218   5.014
  896SOL     OW 3586   5.313   5.922   2.796
  896SOL    HW1 3587   5.305   5.844   2.733
  896SOL    HW2 3588   5.409   5.947   2.806
  897SOL     OW 3589   5.164   1.096   0.338
  897SOL    HW1 3590   5.192   1.016   0.392
  897SOL    HW2 3591   5.185   1.179   0.390
  898SOL     OW 3592   4.083   6.154   3.362
  898SOL    HW1 3593   4.092   6.059   3.394
  898SOL    HW2 3594   4.009   6.159   3.295
  899SOL     OW 3595   0.605   5.038   7.017
  899SOL    HW1 3596   0.608   5.076   0.088
  899SOL    HW2 3597   0.601   4.938   0.001
  900SOL     OW 3598   5.107   6.079   1.512
  900SOL    HW1 3599   5.046   6.063   1.590
  900SOL    HW2 3600   5.157   5.996   1.491
  901SOL     OW 3601   0.187   1.297   4.814
  901SOL    HW1 3602   0.244   1.242   4.754
  901SOL    HW2 3603   0.187   1.258   4.906
  902SOL     OW 3604   0.544   1.496   6.031
  902SOL    HW1 3605   0.599   1.413   6.045
  902SOL    HW2 3606   0.506   1.496   5.939
  903SOL     OW 3607   6.533   3.789   6.753
  903SOL    HW1 3608   6.555   3.838   6.669
  903SOL    HW2 3609   6.601   3.718   6.770
  904SOL     OW 3610   1.796   2.403   4.231
  904SOL    HW1 3611   1.805   2.345   4.150
  904SOL    HW2 3612   1.783   2.345   4.312
  905SOL     OW 3613   4.697   3.004   6.227
  905SOL    HW1 3614   4.709   2.914   6.185
  905SOL    HW2 3615   4.614   3.003   6.283
  906SOL     OW 3616   0.584   3.919   6.361
  906SOL    HW1 3617   0.510   3.982   6.338
  906SOL    HW2 3618   0.582   3.841   6.299
  907SOL     OW 3619   5.747   3.068   3.768
  907SOL    HW1 3620   5.840   3.050   3.736
  907SOL    HW2 3621   5.699   3.125   3.701
  908SOL     OW 3622   1.484   6.593   3.870
  908SOL    HW1 3623   1.407   6.647   3.838
  908SOL    HW2 3624   1.458   6.497   3.876
  909SOL     OW 3625   2.477   1.093   1.345
  909SOL    HW1 3626   2.436   1.074   1.434
  909SOL    HW2 3627   2.449   1.022   1.279
  910SOL     OW 3628   2.497   0.515   0.466
  910SOL    HW1 3629   2.460   0.598   0.426
  910SOL    HW2 3630   2.573   0.482   0.409
  911SOL     OW 3631   6.392   5.325   1.527
  911SOL    HW1 3632   6.346   5.384   1.462
  911SOL    HW2 3633   6.433   5.380   1.600
  912SOL     OW 3634   6.745   0.383   5.240
  912SOL    HW1 3635   6.668   0.408   5.299
  912SOL    HW2 3636   6.769   0.460   5.181
  913SOL     OW 3637   2.262   0.489   3.777
  913SOL    HW1 3638   2.210   0.411   3.742
  913SOL    HW2 3639   2.343   0.503   3.720
  914SOL     OW 3640   2.626   5.661   5.686
  914SOL    HW1 3641   2.636   5.760   5.685
  914SOL    HW2 3642   2.567   5.634   5.763
  915SOL     OW 3643   0.991   3.487   1.119
  915SOL    HW1 3644   0.972   3.479   1.217
  915SOL    HW2 3645   1.080   3.529   1.105
  916SOL     OW 3646   1.472   2.521   2.734
  916SOL    HW1 3647   1.557   2.467   2.734
  916SOL    HW2 3648   1.394   2.460   2.749
  917SOL     OW 3649   4.257   0.799   1.776
  917SOL    HW1 3650   4.205   0.807   1.691
  917SOL    HW2 3651   4.353   0.784   1.755
  918SOL     OW 3652   2.481   5.984   0.068
  918SOL    HW1 3653   2.467   6.035   7.003
  918SOL    HW2 3654   2.473   6.047   0.145
  919SOL     OW 3655   0.884   6.028   1.942
  919SOL    HW1 3656   0.819   5.957   1.916
  919SOL    HW2 3657   0.928   6.065   1.860
  920SOL     OW 3658   1.722   0.336   2.723
  920SOL    HW1 3659   1.663   0.380   2.791
  920SOL    HW2 3660   1.675   0.258   2.684
  921SOL     OW 3661   5.092   4.791   3.822
  921SOL    HW1 3662   5.122   4.738   3.743
  921SOL    HW2 3663   4.993   4.803   3.819
  922SOL     OW 3664   3.589   2.521   6.611
  922SOL    HW1 3665   3.578   2.571   6.525
  922SOL    HW2 3666   3.503   2.474   6.633
  923SOL     OW 3667   3.060   5.600   0.511
  923SOL    HW1 3668   3.006   5.600   0.427
  923SOL    HW2 3669   3.089   5.693   0.532
  924SOL     OW 3670   5.466   3.440   2.129
  924SOL    HW1 3671   5.409   3.493   2.066
  924SOL    HW2 3672   5.408   3.381   2.184
  925SOL     OW 3673   6.866   1.677   5.485
  925SOL    HW1 3674   6.805   1.602   5.511
  925SOL    HW2 3675   6.943   1.641   5.432
  926SOL     OW 3676   5.734   0.750   6.739
  926SOL    HW1 3677   5.783   0.835   6.721
  926SOL    HW2 3678   5.692   0.717   6.654
  927SOL     OW 3679   5.239   4.227   4.203
  927SOL    HW1 3680   5.204   4.142   4.162
  927SOL    HW2 3681   5.337   4.233   4.186
  928SOL     OW 3682   2.355   0.369   0.634
  928SOL    HW1 3683   2.271   0.418   0.656
  928SOL    HW2 3684   2.413   0.426   0.576
  929SOL     OW 3685   6.811   2.146   0.883
  929SOL    HW1 3686   6.780   2.219   0.823
  929SOL    HW2 3687   6.787   2.058   0.844
  930SOL     OW 3688   6.782   5.631   4.661
  930SOL    HW1 3689   6.740   5.576   4.589
  930SOL    HW2 3690   6.720   5.637   4.739
  931SOL     OW 3691   0.176   3.741   3.926
  931SOL    HW1 3692   0.199   3.792   3.844
  931SOL    HW2 3693   0.181   3.801   4.005
  932SOL     OW 3694   2.855   6.777   1.576
  932SOL    HW1 3695   2.779   6.805   1.635
  932SOL    HW2 3696   2.820   6.754   1.486
  933SOL     OW 3697   0.930   5.342   2.099
  933SOL    HW1 3698   0.864   5.333   2.174
  933SOL    HW2 3699   0.881   5.337   2.012
  934SOL     OW 3700   2.200   0.817   4.455
  934SOL    HW1 3701   2.191   0.863   4.367
  934SOL    HW2 3702   2.118   0.764   4.474
  935SOL     OW 3703   5.197   3.664   5.356
  935SOL    HW1 3704   5.124   3.676   5.423
  935SOL    HW2 3705   5.158   3.631   5.270
  936SOL     OW 3706   1.273   6.948   6.495
  936SOL    HW1 3707   1.195   6.890   6.473
  936SOL    HW2 3708   1.297   7.004   6.415
  937SOL     OW 3709   5.259   1.980   5.522
  937SOL    HW1 3710   5.189   1.980   5.450
  937SOL    HW2 3711   5.341   1.935   5.489
  938SOL     OW 3712   0.071   5.061   6.237
  938SOL    HW1 3713   0.013   4.998   6.288
  938SOL    HW2 3714   0.144   5.095   6.297
  939SOL     OW 3715   5.099   1.341   5.445
  939SOL    HW1 3716   5.050   1.423   5.418
  939SOL    HW2 3717   5.054   1.260   5.407
  940SOL     OW 3718   6.762   2.886   2.627
  940SOL    HW1 3719   6.740   2.825   2.703
  940SOL    HW2 3720   6.860   2.909   2.631
  941SOL     OW 3721   6.394   0.537   4.049
  941SOL    HW1 3722   6.334   0.459   4.066
  941SOL    HW2 3723   6.348   0.602   3.989
  942SOL     OW 3724   5.113   0.741   4.559
  942SOL    HW1 3725   5.144   0.681   4.486
  942SOL    HW2 3726   5.187   0.803   4.586
  943SOL     OW 3727   0.834   3.277   3.351
  943SOL    HW1 3728   0.790   3.217   3.285
  943SOL    HW2 3729   0.929   3.248   3.365
  944SOL     OW 3730   6.267   3.112   6.473
  944SOL    HW1 3731   6.240   3.144   6.564
  944SOL    HW2 3732   6.300   3.018   6.479
  945SOL     OW 3733   6.416   4.322   5.312
  945SOL    HW1 3734   6.374   4.413   5.305
  945SOL    HW2 3735   6.478   4.320   5.390
  946SOL     OW 3736   5.701   2.650   6.495
  946SOL    HW1 3737   5.610   2.691   6.496
  946SOL    HW2 3738   5.731   2.638   6.401
  947SOL     OW 3739   3.033   3.600   5.023
  947SOL    HW1 3740   2.992   3.510   5.028
  947SOL    HW2 3741   3.000   3.657   5.098
  948SOL     OW 3742   4.371   1.162   0.905
  948SOL    HW1 3743   4.455   1.127   0.946
  948SOL    HW2 3744   4.302   1.175   0.976
  949SOL     OW 3745   6.936   6.039   6.453
  949SOL    HW1 3746   6.874   6.061   6.529
  949SOL    HW2 3747   7.008   6.109   6.448
  950SOL     OW 3748   4.407   4.969   2.607
  950SOL    HW1 3749   4.357   4.923   2.680
  950SOL    HW2 3750   4.352   4.970   2.524
  951SOL     OW 3751   1.738   0.655   1.750
  951SOL    HW1 3752   1.708   0.719   1.680
  951SOL    HW2 3753   1.662   0.634   1.811
  952SOL     OW 3754   5.734   1.143   1.995
  952SOL    HW1 3755   5.688   1.224   2.032
  952SOL    HW2 3756   5.755   1.158   1.898
  953SOL     OW 3757   4.970   5.210   5.176
  953SOL    HW1 3758   4.937   5.167   5.260
  953SOL    HW2 3759   4.910   5.287   5.152
  954SOL     OW 3760   5.436   6.653   0.472
  954SOL    HW1 3761   5.365   6.630   0.538
  954SOL    HW2 3762   5.491   6.729   0.508
  955SOL     OW 3763   0.979   5.215   3.695
  955SOL    HW1 3764   1.048   5.145   3.708
  955SOL    HW2 3765   0.938   5.205   3.604
  956SOL     OW 3766   0.583   2.207   2.217
  956SOL    HW1 3767   0.531   2.228   2.135
  956SOL    HW2 3768   0.675   2.176   2.192
  957SOL     OW 3769   1.509   4.498   4.338
  957SOL    HW1 3770   1.504   4.427   4.408
  957SOL    HW2 3771   1.596   4.492   4.291
  958SOL     OW 3772   4.888   2.547   1.076
  958SOL    HW1 3773   4.828   2.469   1.094
  958SOL    HW2 3774   4.889   2.608   1.155
  959SOL     OW 3775   2.463   4.821   3.044
  959SOL    HW1 3776   2.475   4.917   3.015
  959SOL    HW2 3777   2.418   4.770   2.971
  960SOL     OW 3778   0.300   6.047   4.196
  960SOL    HW1 3779   0.330   6.008   4.108
  960SOL    HW2 3780   0.375   6.040   4.262
  961SOL     OW 3781   4.917   6.487   3.326
  961SOL    HW1 3782   4.906   6.388   3.311
  961SOL    HW2 3783   5.003   6.517   3.285
  962SOL     OW 3784   1.275   1.230   3.764
  962SOL    HW1 3785   1.335   1.239   3.843
  962SOL    HW2 3786   1.290   1.142   3.720
  963SOL     OW 3787   5.794   0.923   6.473
  963SOL    HW1 3788   5.725   0.874   6.419
  963SOL    HW2 3789   5.748   0.990   6.532
  964SOL     OW 3790   6.275   3.380   1.023
  964SOL    HW1 3791   6.246   3.312   1.091
  964SOL    HW2 3792   6.240   3.470   1.049
  965SOL     OW 3793   5.384   1.782   0.982
  965SOL    HW1 3794   5.418   1.693   0.953
  965SOL    HW2 3795   5.405   1.851   0.913
  966SOL     OW 3796   6.179   1.801   2.198
  966SOL    HW1 3797   6.224   1.883   2.161
  966SOL    HW2 3798   6.102   1.776   2.139
  967SOL     OW 3799   1.519   5.433   0.746
  967SOL    HW1 3800   1.529   5.525   0.782
  967SOL    HW2 3801   1.446   5.386   0.796
  968SOL     OW 3802   4.743   2.477   1.751
  968SOL    HW1 3803   4.792   2.546   1.697
  968SOL    HW2 3804   4.650   2.509   1.769
  969SOL     OW 3805   4.032   5.636   6.110
  969SOL    HW1 3806   4.059   5.636   6.206
  969SOL    HW2 3807   4.105   5.596   6.055
  970SOL     OW 3808   4.626   0.869   5.001
  970SOL    HW1 3809   4.614   0.859   5.100
  970SOL    HW2 3810   4.724   0.871   4.979
  971SOL     OW 3811   0.577   1.519   3.176
  971SOL    HW1 3812   0.639   1.528   3.098
  971SOL    HW2 3813   0.547   1.424   3.184
  972SOL     OW 3814   5.758   3.456   1.122
  972SOL    HW1 3815   5.804   3.494   1.202
  972SOL    HW2 3816   5.721   3.366   1.145
  973SOL     OW 3817   0.316   4.600   6.352
  973SOL    HW1 3818   0.395   4.617   6.293
  973SOL    HW2 3819   0.332   4.641   6.442
  974SOL     OW 3820   4.348   0.831   2.241
  974SOL    HW1 3821   4.353   0.928   2.266
  974SOL    HW2 3822   4.269   0.816   2.182
  975SOL     OW 3823   1.431   5.556   6.848
  975SOL    HW1 3824   1.470   5.493   6.916
  975SOL    HW2 3825   1.333   5.539   6.840
  976SOL     OW 3826   6.232   3.009   3.031
  976SOL    HW1 3827   6.314   3.053   3.069
  976SOL    HW2 3828   6.243   2.996   2.933
  977SOL     OW 3829   2.537   1.285   3.759
  977SOL    HW1 3830   2.560   1.370   3.713
  977SOL    HW2 3831   2.621   1.236   3.783
  978SOL     OW 3832   4.869   3.975   5.322
  978SOL    HW1 3833   4.862   4.013   5.230
  978SOL    HW2 3834   4.788   3.922   5.343
  979SOL     OW 3835   6.501   1.741   2.696
  979SOL    HW1 3836   6.545   1.652   2.694
  979SOL    HW2 3837   6.551   1.803   2.757
  980SOL     OW 3838   4.977   1.762   3.489
  980SOL    HW1 3839   5.077   1.769   3.485
  980SOL    HW2 3840   4.936   1.851   3.471
  981SOL     OW 3841   1.491   1.269   4.964
  981SOL    HW1 3842   1.474   1.363   4.993
  981SOL    HW2 3843   1.500   1.265   4.865
  982SOL     OW 3844   2.429   2.296   3.915
  982SOL    HW1 3845   2.334   2.289   3.943
  982SOL    HW2 3846   2.451   2.391   3.894
  983SOL     OW 3847   6.036   2.458   3.309
  983SOL    HW1 3848   6.066   2.515   3.232
  983SOL    HW2 3849   6.115   2.434   3.365
  984SOL     OW 3850   3.638   0.685   4.231
  984SOL    HW1 3851   3.720   0.717   4.183
  984SOL    HW2 3852   3.584   0.627   4.171
  985SOL     OW 3853   5.343   4.831   6.304
  985SOL    HW1 3854   5.356   4.906   6.370
  985SOL    HW2 3855   5.419   4.767   6.312
  986SOL     OW 3856   5.503   5.239   0.054
  986SOL    HW1 3857   5.524   5.146   0.025
  986SOL    HW2 3858   5.588   5.291   0.062
  987SOL     OW 3859   4.155   6.137   1.246
  987SOL    HW1 3860   4.242   6.137   1.295
  987SOL    HW2 3861   4.169   6.167   1.152
  988SOL     OW 3862   3.792   2.965   1.577
  988SOL    HW1 3863   3.729   2.892   1.548
  988SOL    HW2 3864   3.885   2.942   1.549
  989SOL     OW 3865   6.990   0.957   5.369
  989SOL    HW1 3866   6.998   0.946   5.468
  989SOL    HW2 3867   0.040   0.901   5.324
  990SOL     OW 3868   4.671   0.463   2.908
  990SOL    HW1 3869   4.593   0.405   2.931
  990SOL    HW2 3870   4.676   0.539   2.974
  991SOL     OW 3871   2.027   2.324   5.141
  991SOL    HW1 3872   2.102   2.380   5.176
  991SOL    HW2 3873   2.014   2.343   5.044
  992SOL     OW 3874   0.868   3.998   1.059
  992SOL    HW1 3875   0.864   3.907   1.016
  992SOL    HW2 3876   0.941   4.051   1.017
  993SOL     OW 3877   1.734   5.629   2.451
  993SOL    HW1 3878   1.727   5.674   2.362
  993SOL    HW2 3879   1.645   5.593   2.478
  994SOL     OW 3880   3.667   3.631   2.596
  994SOL    HW1 3881   3.761   3.597   2.600
  994SOL    HW2 3882   3.621   3.591   2.517
  995SOL     OW 3883   2.863   1.840   6.340
  995SOL    HW1 3884   2.931   1.785   6.292
  995SOL    HW2 3885   2.858   1.931   6.298
  996SOL     OW 3886   1.577   4.163   4.119
  996SOL    HW1 3887   1.651   4.120   4.067
  996SOL    HW2 3888   1.547   4.100   4.191
  997SOL     OW 3889   6.471   0.630   1.500
  997SOL    HW1 3890   6.550   0.632   1.561
  997SOL    HW2 3891   6.411   0.554   1.525
  998SOL     OW 3892   4.668   6.841   4.022
  998SOL    HW1 3893   4.703   6.934   4.008
  998SOL    HW2 3894   4.739   6.775   3.999
  999SOL     OW 3895   5.696   4.925   1.200
  999SOL    HW1 3896   5.618   4.863   1.192
  999SOL    HW2 3897   5.668   5.008   1.247
 1000SOL     OW 3898   1.392   1.025   2.284
 1000SOL    HW1 3899   1.435   1.091   2.346
 1000SOL    HW2 3900   1.372   1.069   2.197
 1001SOL     OW 3901   5.915   6.844   0.176
 1001SOL    HW1 3902   5.867   6.839   0.089
 1001SOL    HW2 3903   5.855   6.884   0.245
 1002SOL     OW 3904   6.100   1.813   6.558
 1002SOL    HW1 3905   6.106   1.905   6.521
 1002SOL    HW2 3906   6.180   1.794   6.615
 1003SOL     OW 3907   2.213   6.661   2.020
 1003SOL    HW1 3908   2.227   6.588   1.954
 1003SOL    HW2 3909   2.212   6.749   1.973
 1004SOL     OW 3910   6.893   0.466   1.139
 1004SOL    HW1 3911   6.939   0.498   1.056
 1004SOL    HW2 3912   6.840   0.541   1.179
 1005SOL     OW 3913   0.388   1.446   2.917
 1005SOL    HW1 3914   0.420   1.353   2.902
 1005SOL    HW2 3915   0.344   1.452   3.007
 1006SOL     OW 3916   1.825   5.816   1.763
 1006SOL    HW1 3917   1.843   5.789   1.669
 1006SOL    HW2 3918   1.728   5.803   1.784
 1007SOL     OW 3919   6.001   0.522   4.142
 1007SOL    HW1 3920   6.058   0.598   4.114
 1007SOL    HW2 3921   5.905   0.541   4.120
 1008SOL     OW 3922   2.052   3.121   4.743
 1008SOL    HW1 3923   2.030   3.048   4.809
 1008SOL    HW2 3924   2.119   3.087   4.677
 1009SOL     OW 3925   0.495   6.370   4.274
 1009SOL    HW1 3926   0.577   6.415   4.307
 1009SOL    HW2 3927   0.449   6.323   4.350
 1010SOL     OW 3928   3.604   2.200   6.380
 1010SOL    HW1 3929   3.550   2.124   6.415
 1010SOL    HW2 3930   3.543   2.267   6.336
 1011SOL     OW 3931   2.878   5.196   2.693
 1011SOL    HW1 3932   2.791   5.147   2.705
 1011SOL    HW2 3933   2.915   5.178   2.602
 1012SOL     OW 3934   6.858   6.490   0.437
 1012SOL    HW1 3935   6.939   6.431   0.431
 1012SOL    HW2 3936   6.853   6.548   0.356
 1013SOL     OW 3937   0.192   1.562   6.213
 1013SOL    HW1 3938   0.237   1.504   6.145
 1013SOL    HW2 3939   0.093   1.548   6.207
 1014SOL     OW 3940   5.135   5.364   6.807
 1014SOL    HW1 3941   5.177   5.350   6.896
 1014SOL    HW2 3942   5.134   5.462   6.786
 1015SOL     OW 3943   2.006   6.862   5.298
 1015SOL    HW1 3944   2.008   6.833   5.202
 1015SOL    HW2 3945   1.992   6.960   5.303
 1016SOL     OW 3946   2.649   3.683   0.513
 1016SOL    HW1 3947   2.550   3.681   0.525
 1016SOL    HW2 3948   2.675   3.766   0.463
 1017SOL     OW 3949   4.502   2.699   0.878
 1017SOL    HW1 3950   4.478   2.771   0.814
 1017SOL    HW2 3951   4.599   2.677   0.868
 1018SOL     OW 3952   1.841   3.219   3.743
 1018SOL    HW1 3953   1.770   3.289   3.754
 1018SOL    HW2 3954   1.894   3.238   3.661
 1019SOL     OW 3955   1.571   0.933   0.518
 1019SOL    HW1 3956   1.615   0.888   0.596
 1019SOL    HW2 3957   1.582   1.032   0.526
 1020SOL     OW 3958   1.335   6.959   1.207
 1020SOL    HW1 3959   1.285   0.025   1.211
 1020SOL    HW2 3960   1.304   6.899   1.281
 1021SOL     OW 3961   5.829   0.730   1.136
 1021SOL    HW1 3962   5.815   0.782   1.220
 1021SOL    HW2 3963   5.904   0.665   1.148
 1022SOL     OW 3964   3.770   4.481   6.105
 1022SOL    HW1 3965   3.710   4.476   6.025
 1022SOL    HW2 3966   3.765   4.396   6.157
 1023SOL     OW 3967   6.188   0.222   1.723
 1023SOL    HW1 3968   6.089   0.215   1.717
 1023SOL    HW2 3969   6.230   0.158   1.658
 1024SOL     OW 3970   6.044   3.413   3.922
 1024SOL    HW1 3971   5.975   3.341   3.932
 1024SOL    HW2 3972   6.088   3.405   3.832
 1025SOL     OW 3973   3.310   4.290   0.867
 1025SOL    HW1 3974   3.400   4.317   0.901
 1025SOL    HW2 3975   3.279   4.356   0.798
 1026SOL     OW 3976   1.724   1.989   1.470
 1026SOL    HW1 3977   1.712   1.942   1.383
 1026SOL    HW2 3978   1.793   1.942   1.525
 1027SOL     OW 3979   2.566   6.155   1.086
 1027SOL    HW1 3980   2.592   6.220   1.158
 1027SOL    HW2 3981   2.469   6.133   1.095
 1028SOL     OW 3982   4.367   5.905   0.237
 1028SOL    HW1 3983   4.315   5.882   0.319
 1028SOL    HW2 3984   4.304   5.919   0.160
 1029SOL     OW 3985   1.952   0.215   0.303
 1029SOL    HW1 3986   1.948   0.201   0.401
 1029SOL    HW2 3987   2.047   0.209   0.272
 1030SOL     OW 3988   3.709   3.244   1.587
 1030SOL    HW1 3989   3.743   3.151   1.571
 1030SOL    HW2 3990   3.616   3.239   1.623
 1031SOL     OW 3991   4.881   5.324   0.431
 1031SOL    HW1 3992   4.865   5.305   0.335
 1031SOL    HW2 3993   4.896   5.238   0.480
 1032SOL     OW 3994   1.977   1.991   4.563
 1032SOL    HW1 3995   2.024   1.987   4.651
 1032SOL    HW2 3996   1.966   1.899   4.527
 1033SOL     OW 3997   2.027   6.533   1.401
 1033SOL    HW1 3998   1.942   6.584   1.414
 1033SOL    HW2 3999   2.091   6.589   1.347
 1034SOL     OW 4000   1.387   5.824   5.174
 1034SOL    HW1 4001   1.293   5.827   5.138
 1034SOL    HW2 4002   1.411   5.914   5.210
 1035SOL     OW 4003   2.565   1.530   3.619
 1035SOL    HW1 4004   2.561   1.592   3.698
 1035SOL    HW2 4005   2.644   1.554   3.563
 1036SOL     OW 4006   3.557   0.393   1.150
 1036SOL    HW1 4007   3.507   0.470   1.190
 1036SOL    HW2 4008   3.571   0.323   1.219
 1037SOL     OW 4009   2.080   0.875   1.895
 1037SOL    HW1 4010   2.111   0.834   1.981
 1037SOL    HW2 4011   2.060   0.972   1.910
 1038SOL     OW 4012   1.167   0.750   5.769
 1038SOL    HW1 4013   1.151   0.791   5.858
 1038SOL    HW2 4014   1.080   0.732   5.724
 1039SOL     OW 4015   4.235   2.759   5.767
 1039SOL    HW1 4016   4.268   2.810   5.847
 1039SOL    HW2 4017   4.158   2.702   5.793
 1040SOL     OW 4018   5.091   2.874   2.466
 1040SOL    HW1 4019   5.166   2.889   2.530
 1040SOL    HW2 4020   5.124   2.882   2.372
 1041SOL     OW 4021   6.453   6.967   4.123
 1041SOL    HW1 4022   6.528   0.009   4.145
 1041SOL    HW2 4023   6.480   6.874   4.149
 1042SOL     OW 4024   3.449   5.013   2.142
 1042SOL    HW1 4025   3.484   4.929   2.099
 1042SOL    HW2 4026   3.417   4.992   2.234
 1043SOL     OW 4027   4.586   1.045   5.466
 1043SOL    HW1 4028   4.503   1.102   5.462
 1043SOL    HW2 4029   4.629   1.056   5.556
 1044SOL     OW 4030   4.650   4.248   1.673
 1044SOL    HW1 4031   4.623   4.260   1.578
 1044SOL    HW2 4032   4.569   4.236   1.730
 1045SOL     OW 4033   2.573   6.732   2.007
 1045SOL    HW1 4034   2.602   6.770   2.095
 1045SOL    HW2 4035   2.473   6.719   2.009
 1046SOL     OW 4036   1.820   6.986   0.288
 1046SOL    HW1 4037   1.869   0.052   0.275
 1046SOL    HW2 4038   1.724   6.998   0.263
 1047SOL     OW 4039   1.156   6.159   2.606
 1047SOL    HW1 4040   1.210   6.083   2.642
 1047SOL    HW2 4041   1.206   6.245   2.618
 1048SOL     OW 4042   4.840   5.412   5.485
 1048SOL    HW1 4043   4.765   5.369   5.536
 1048SOL    HW2 4044   4.861   5.357   5.404
 1049SOL     OW 4045   6.774   4.928   4.404
 1049SOL    HW1 4046   6.719   5.011   4.402
 1049SOL    HW2 4047   6.748   4.872   4.483
 1050SOL     OW 4048   3.187   5.455   1.001
 1050SOL    HW1 4049   3.173   5.436   0.904
 1050SOL    HW2 4050   3.230   5.545   1.012
 1051SOL     OW 4051   2.888   5.212   0.427
 1051SOL    HW1 4052   2.956   5.259   0.370
 1051SOL    HW2 4053   2.853   5.275   0.496
 1052SOL     OW 4054   4.396   0.205   4.046
 1052SOL    HW1 4055   4.421   0.155   4.129
 1052SOL    HW2 4056   4.409   0.146   3.966
 1053SOL     OW 4057   5.501   5.558   2.761
 1053SOL    HW1 4058   5.584   5.524   2.806
 1053SOL    HW2 4059   5.439   5.595   2.830
 1054SOL     OW 4060   3.308   4.925   5.479
 1054SOL    HW1 4061   3.372   4.872   5.536
 1054SOL    HW2 4062   3.218   4.883   5.482
 1055SOL     OW 4063   5.842   0.204   4.406
 1055SOL    HW1 4064   5.825   0.299   4.379
 1055SOL    HW2 4065   5.862   0.200   4.504
 1056SOL     OW 4066   1.917   6.027   5.828
 1056SOL    HW1 4067   1.888   5.954   5.767
 1056SOL    HW2 4068   1.966   6.096   5.775
 1057SOL     OW 4069   3.178   3.646   2.385
 1057SOL    HW1 4070   3.083   3.622   2.408
 1057SOL    HW2 4071   3.182   3.740   2.353
 1058SOL     OW 4072   4.951   1.695   2.206
 1058SOL    HW1 4073   4.994   1.606   2.189
 1058SOL    HW2 4074   4.969   1.755   2.128
 1059SOL     OW 4075   2.425   0.883   1.146
 1059SOL    HW1 4076   2.361   0.807   1.159
 1059SOL    HW2 4077   2.473   0.871   1.059
 1060SOL     OW 4078   0.390   2.786   4.559
 1060SOL    HW1 4079   0.313   2.850   4.563
 1060SOL    HW2 4080   0.470   2.827   4.603
 1061SOL     OW 4081   4.639   3.658   1.406
 1061SOL    HW1 4082   4.724   3.709   1.405
 1061SOL    HW2 4083   4.596   3.666   1.496
 1062SOL     OW 4084   6.491   5.074   6.203
 1062SOL    HW1 4085   6.416   5.138   6.221
 1062SOL    HW2 4086   6.498   5.057   6.105
 1063SOL     OW 4087   1.143   4.422   1.416
 1063SOL    HW1 4088   1.180   4.430   1.324
 1063SOL    HW2 4089   1.204   4.468   1.480
 1064SOL     OW 4090   1.019   4.242   1.645
 1064SOL    HW1 4091   1.104   4.287   1.674
 1064SOL    HW2 4092   0.944   4.308   1.649
 1065SOL     OW 4093   4.779   0.465   4.247
 1065SOL    HW1 4094   4.694   0.490   4.200
 1065SOL    HW2 4095   4.852   0.452   4.180
 1066SOL     OW 4096   5.586   1.327   4.093
 1066SOL    HW1 4097   5.557   1.276   4.173
 1066SOL    HW2 4098   5.506   1.354   4.039
 1067SOL     OW 4099   1.425   2.787   0.377
 1067SOL    HW1 4100   1.482   2.710   0.402
 1067SOL    HW2 4101   1.432   2.803   0.278
 1068SOL     OW 4102   5.445   4.348   1.872
 1068SOL    HW1 4103   5.523   4.297   1.835
 1068SOL    HW2 4104   5.400   4.398   1.798
 1069SOL     OW 4105   4.902   5.024   1.453
 1069SOL    HW1 4106   4.813   5.065   1.472
 1069SOL    HW2 4107   4.914   5.014   1.355
 1070SOL     OW 4108   1.359   1.202   0.208
 1070SOL    HW1 4109   1.407   1.285   0.236
 1070SOL    HW2 4110   1.316   1.160   0.288
 1071SOL     OW 4111   4.003   0.390   3.076
 1071SOL    HW1 4112   3.951   0.416   2.995
 1071SOL    HW2 4113   4.081   0.333   3.048
 1072SOL     OW 4114   1.475   5.809   1.182
 1072SOL    HW1 4115   1.494   5.875   1.254
 1072SOL    HW2 4116   1.557   5.797   1.124
 1073SOL     OW 4117   3.605   6.110   2.687
 1073SOL    HW1 4118   3.592   6.089   2.783
 1073SOL    HW2 4119   3.588   6.207   2.671
 1074SOL     OW 4120   1.832   5.143   1.480
 1074SOL    HW1 4121   1.798   5.222   1.531
 1074SOL    HW2 4122   1.818   5.159   1.382
 1075SOL     OW 4123   4.668   6.181   3.340
 1075SOL    HW1 4124   4.620   6.097   3.315
 1075SOL    HW2 4125   4.644   6.207   3.433
 1076SOL     OW 4126   0.577   4.625   5.069
 1076SOL    HW1 4127   0.641   4.691   5.029
 1076SOL    HW2 4128   0.628   4.563   5.130
 1077SOL     OW 4129   6.346   6.938   0.300
 1077SOL    HW1 4130   6.409   6.980   0.365
 1077SOL    HW2 4131   6.360   6.979   0.210
 1078SOL     OW 4132   2.134   0.826   2.621
 1078SOL    HW1 4133   2.157   0.883   2.542
 1078SOL    HW2 4134   2.123   0.731   2.592
 1079SOL     OW 4135   2.135   5.384   2.672
 1079SOL    HW1 4136   2.127   5.426   2.582
 1079SOL    HW2 4137   2.045   5.383   2.716
 1080SOL     OW 4138   1.939   4.242   3.330
 1080SOL    HW1 4139   2.034   4.214   3.318
 1080SOL    HW2 4140   1.927   4.334   3.292
 1081SOL     OW 4141   6.981   0.252   5.211
 1081SOL    HW1 4142   6.896   0.301   5.227
 1081SOL    HW2 4143   0.023   0.310   5.160
 1082SOL     OW 4144   1.996   0.766   5.631
 1082SOL    HW1 4145   2.033   0.704   5.562
 1082SOL    HW2 4146   2.022   0.860   5.608
 1083SOL     OW 4147   3.916   4.058   1.135
 1083SOL    HW1 4148   3.917   4.010   1.223
 1083SOL    HW2 4149   3.845   4.019   1.077
 1084SOL     OW 4150   6.492   5.932   1.192
 1084SOL    HW1 4151   6.517   5.859   1.128
 1084SOL    HW2 4152   6.543   6.016   1.169
 1085SOL     OW 4153   2.066   4.871   3.439
 1085SOL    HW1 4154   1.984   4.918   3.474
 1085SOL    HW2 4155   2.047   4.838   3.346
 1086SOL     OW 4156   6.864   5.864   3.033
 1086SOL    HW1 4157   6.799   5.936   3.058
 1086SOL    HW2 4158   6.853   5.843   2.936
 1087SOL     OW 4159   5.607   2.505   5.645
 1087SOL    HW1 4160   5.657   2.591   5.648
 1087SOL    HW2 4161   5.567   2.493   5.554
 1088SOL     OW 4162   5.984   4.992   3.352
 1088SOL    HW1 4163   5.932   5.003   3.267
 1088SOL    HW2 4164   6.076   4.960   3.330
 1089SOL     OW 4165   1.263   0.063   4.576
 1089SOL    HW1 4166   1.184   0.047   4.516
 1089SOL    HW2 4167   1.231   0.074   4.670
 1090SOL     OW 4168   2.848   1.370   3.657
 1090SOL    HW1 4169   2.859   1.430   3.578
 1090SOL    HW2 4170   2.850   1.274   3.626
 1091SOL     OW 4171   1.870   2.884   4.548
 1091SOL    HW1 4172   1.939   2.829   4.502
 1091SOL    HW2 4173   1.910   2.930   4.627
 1092SOL     OW 4174   2.710   3.755   1.211
 1092SOL    HW1 4175   2.806   3.761   1.238
 1092SOL    HW2 4176   2.674   3.847   1.195
 1093SOL     OW 4177   2.057   2.277   2.865
 1093SOL    HW1 4178   2.022   2.308   2.954
 1093SOL    HW2 4179   2.108   2.351   2.822
 1094SOL     OW 4180   0.923   0.035   2.837
 1094SOL    HW1 4181   0.969   0.025   2.925
 1094SOL    HW2 4182   0.850   6.987   2.829
 1095SOL     OW 4183   6.815   2.085   5.731
 1095SOL    HW1 4184   6.831   2.168   5.785
 1095SOL    HW2 4185   6.719   2.082   5.705
 1096SOL     OW 4186   3.679   4.831   1.598
 1096SOL    HW1 4187   3.658   4.767   1.672
 1096SOL    HW2 4188   3.770   4.811   1.562
 1097SOL     OW 4189   0.950   4.489   4.203
 1097SOL    HW1 4190   0.859   4.525   4.221
 1097SOL    HW2 4191   0.965   4.406   4.257
 1098SOL     OW 4192   5.386   2.828   0.599
 1098SOL    HW1 4193   5.317   2.887   0.556
 1098SOL    HW2 4194   5.348   2.786   0.681
 1099SOL     OW 4195   4.129   0.976   4.696
 1099SOL    HW1 4196   4.152   1.060   4.648
 1099SOL    HW2 4197   4.133   0.992   4.795
 1100SOL     OW 4198   2.333   1.946   6.536
 1100SOL    HW1 4199   2.364   2.033   6.497
 1100SOL    HW2 4200   2.402   1.913   6.600
 1101SOL     OW 4201   5.290   2.796   0.890
 1101SOL    HW1 4202   5.232   2.730   0.939
 1101SOL    HW2 4203   5.322   2.866   0.954
 1102SOL     OW 4204   2.154   5.378   3.151
 1102SOL    HW1 4205   2.115   5.297   3.196
 1102SOL    HW2 4206   2.080   5.436   3.117
 1103SOL     OW 4207   3.035   1.187   1.357
 1103SOL    HW1 4208   3.043   1.148   1.266
 1103SOL    HW2 4209   3.098   1.141   1.419
 1104SOL     OW 4210   1.858   3.249   6.375
 1104SOL    HW1 4211   1.909   3.309   6.314
 1104SOL    HW2 4212   1.912   3.167   6.395
 1105SOL     OW 4213   5.103   3.329   5.442
 1105SOL    HW1 4214   5.142   3.354   5.531
 1105SOL    HW2 4215   5.009   3.363   5.437
 1106SOL     OW 4216   1.006   1.882   0.411
 1106SOL    HW1 4217   1.046   1.906   0.500
 1106SOL    HW2 4218   0.911   1.912   0.409
 1107SOL     OW 4219   0.564   0.394   6.504
 1107SOL    HW1 4220   0.585   0.318   6.442
 1107SOL    HW2 4221   0.646   0.419   6.555
 1108SOL     OW 4222   2.754   0.206   6.169
 1108SOL    HW1 4223   2.810   0.129   6.201
 1108SOL    HW2 4224   2.658   0.177   6.163
 1109SOL     OW 4225   4.459   5.440   4.692
 1109SOL    HW1 4226   4.405   5.498   4.753
 1109SOL    HW2 4227   4.556   5.457   4.706
 1110SOL     OW 4228   2.753   1.764   2.225
 1110SOL    HW1 4229   2.753   1.863   2.240
 1110SOL    HW2 4230   2.836   1.724   2.266
 1111SOL     OW 4231   5.855   5.915   0.227
 1111SOL    HW1 4232   5.865   5.856   0.147
 1111SOL    HW2 4233   5.879   6.009   0.202
 1112SOL     OW 4234   6.155   0.833   2.841
 1112SOL    HW1 4235   6.097   0.858   2.919
 1112SOL    HW2 4236   6.232   0.778   2.873
 1113SOL     OW 4237   6.111   3.285   2.706
 1113SOL    HW1 4238   6.122   3.379   2.675
 1113SOL    HW2 4239   6.044   3.282   2.780
 1114SOL     OW 4240   4.639   0.691   6.488
 1114SOL    HW1 4241   4.654   0.602   6.446
 1114SOL    HW2 4242   4.555   0.689   6.542
 1115SOL     OW 4243   3.901   3.421   6.942
 1115SOL    HW1 4244   3.945   3.502   6.905
 1115SOL    HW2 4245   3.827   3.392   6.882
 1116SOL     OW 4246   5.749   5.377   4.488
 1116SOL    HW1 4247   5.743   5.395   4.389
 1116SOL    HW2 4248   5.657   5.360   4.523
 1117SOL     OW 4249   2.530   2.653   1.211
 1117SOL    HW1 4250   2.597   2.592   1.254
 1117SOL    HW2 4251   2.507   2.728   1.273
 1118SOL     OW 4252   2.001   5.054   2.152
 1118SOL    HW1 4253   1.980   5.018   2.062
 1118SOL    HW2 4254   1.998   4.980   2.219
 1119SOL     OW 4255   3.903   4.388   1.289
 1119SOL    HW1 4256   4.002   4.388   1.300
 1119SOL    HW2 4257   3.865   4.309   1.338
 1120SOL     OW 4258   5.302   6.049   5.526
 1120SOL    HW1 4259   5.293   6.066   5.428
 1120SOL    HW2 4260   5.320   5.952   5.541
 1121SOL     OW 4261   5.091   4.275   2.250
 1121SOL    HW1 4262   5.056   4.368   2.259
 1121SOL    HW2 4263   5.129   4.245   2.337
 1122SOL     OW 4264   5.081   3.028   6.092
 1122SOL    HW1 4265   5.020   2.958   6.055
 1122SOL    HW2 4266   5.140   2.987   6.161
 1123SOL     OW 4267   4.838   1.663   2.464
 1123SOL    HW1 4268   4.908   1.612   2.513
 1123SOL    HW2 4269   4.869   1.683   2.372
 1124SOL     OW 4270   6.385   3.774   5.411
 1124SOL    HW1 4271   6.295   3.817   5.419
 1124SOL    HW2 4272   6.449   3.839   5.369
 1125SOL     OW 4273   1.991   1.485   4.742
 1125SOL    HW1 4274   2.048   1.545   4.797
 1125SOL    HW2 4275   2.009   1.501   4.645
 1126SOL     OW 4276   5.327   6.883   0.128
 1126SOL    HW1 4277   5.248   6.941   0.147
 1126SOL    HW2 4278   5.330   6.861   0.031
 1127SOL     OW 4279   4.391   5.614   5.240
 1127SOL    HW1 4280   4.360   5.547   5.307
 1127SOL    HW2 4281   4.490   5.607   5.229
 1128SOL     OW 4282   4.601   2.380   5.205
 1128SOL    HW1 4283   4.511   2.378   5.249
 1128SOL    HW2 4284   4.658   2.449   5.249
 1129SOL     OW 4285   3.955   0.030   0.567
 1129SOL    HW1 4286   3.946   0.032   0.467
 1129SOL    HW2 4287   4.002   6.966   0.594
 1130SOL     OW 4288   2.047   3.752   1.119
 1130SOL    HW1 4289   1.994   3.668   1.108
 1130SOL    HW2 4290   1.991   3.821   1.165
 1131SOL     OW 4291   0.501   6.421   5.892
 1131SOL    HW1 4292   0.528   6.332   5.856
 1131SOL    HW2 4293   0.461   6.476   5.818
 1132SOL     OW 4294   4.430   0.090   6.773
 1132SOL    HW1 4295   4.390   7.020   6.763
 1132SOL    HW2 4296   4.511   0.084   6.830
 1133SOL     OW 4297   6.818   1.716   0.617
 1133SOL    HW1 4298   6.855   1.784   0.553
 1133SOL    HW2 4299   6.793   1.761   0.702
 1134SOL     OW 4300   5.197   1.892   0.542
 1134SOL    HW1 4301   5.130   1.875   0.614
 1134SOL    HW2 4302   5.224   1.988   0.543
 1135SOL     OW 4303   3.049   1.533   2.558
 1135SOL    HW1 4304   3.106   1.451   2.570
 1135SOL    HW2 4305   3.013   1.562   2.647
 1136SOL     OW 4306   3.487   5.046   4.997
 1136SOL    HW1 4307   3.464   5.038   5.094
 1136SOL    HW2 4308   3.429   4.984   4.943
 1137SOL     OW 4309   0.712   3.010   0.226
 1137SOL    HW1 4310   0.671   2.924   0.256
 1137SOL    HW2 4311   0.792   3.031   0.282
 1138SOL     OW 4312   1.008   1.978   6.040
 1138SOL    HW1 4313   1.070   1.933   6.104
 1138SOL    HW2 4314   0.991   2.072   6.070
 1139SOL     OW 4315   2.261   6.294   2.009
 1139SOL    HW1 4316   2.352   6.261   2.036
 1139SOL    HW2 4317   2.270   6.383   1.965
 1140SOL     OW 4318   3.906   1.867   2.083
 1140SOL    HW1 4319   3.895   1.783   2.030
 1140SOL    HW2 4320   3.950   1.845   2.170
 1141SOL     OW 4321   6.271   5.871   6.235
 1141SOL    HW1 4322   6.266   5.954   6.290
 1141SOL    HW2 4323   6.363   5.862   6.196
 1142SOL     OW 4324   4.361   0.638   4.218
 1142SOL    HW1 4325   4.372   0.631   4.317
 1142SOL    HW2 4326   4.415   0.567   4.173
 1143SOL     OW 4327   3.202   2.139   2.336
 1143SOL    HW1 4328   3.233   2.135   2.241
 1143SOL    HW2 4329   3.107   2.172   2.339
 1144SOL     OW 4330   6.903   4.952   4.804
 1144SOL    HW1 4331   6.888   4.887   4.878
 1144SOL    HW2 4332   6.986   4.926   4.754
 1145SOL     OW 4333   0.274   4.517   3.171
 1145SOL    HW1 4334   0.327   4.437   3.143
 1145SOL    HW2 4335   0.239   4.504   3.264
 1146SOL     OW 4336   5.124   0.809   0.922
 1146SOL    HW1 4337   5.112   0.808   0.823
 1146SOL    HW2 4338   5.055   0.869   0.963
 1147SOL     OW 4339   0.830   4.968   0.407
 1147SOL    HW1 4340   0.850   5.045   0.469
 1147SOL    HW2 4341   0.758   4.911   0.447
 1148SOL     OW 4342   3.112   6.319   0.409
 1148SOL    HW1 4343   3.172   6.241   0.391
 1148SOL    HW2 4344   3.120   6.345   0.505
 1149SOL     OW 4345   5.358   3.556   3.164
 1149SOL    HW1 4346   5.427   3.628   3.171
 1149SOL    HW2 4347   5.322   3.552   3.071
 1150SOL     OW 4348   1.245   3.815   0.852
 1150SOL    HW1 4349   1.341   3.834   0.872
 1150SOL    HW2 4350   1.224   3.843   0.758
 1151SOL     OW 4351   5.200   5.632   6.737
 1151SOL    HW1 4352   5.288   5.677   6.725
 1151SOL    HW2 4353   5.129   5.702   6.751
 1152SOL     OW 4354   0.785   6.311   5.497
 1152SOL    HW1 4355   0.734   6.387   5.537
 1152SOL    HW2 4356   0.824   6.254   5.569
 1153SOL     OW 4357   2.326   6.954   1.880
 1153SOL    HW1 4358   2.300   0.030   1.884
 1153SOL    HW2 4359   2.256   6.903   1.831
 1154SOL     OW 4360   0.197   3.410   2.288
 1154SOL    HW1 4361   0.273   3.366   2.337
 1154SOL    HW2 4362   0.232   3.482   2.229
 1155SOL     OW 4363   3.338   5.071   6.689
 1155SOL    HW1 4364   3.387   5.042   6.607
 1155SOL    HW2 4365   3.246   5.031   6.689
 1156SOL     OW 4366   1.930   0.516   4.266
 1156SOL    HW1 4367   1.861   0.445   4.270
 1156SOL    HW2 4368   1.939   0.559   4.357
 1157SOL     OW 4369   6.053   1.817   4.310
 1157SOL    HW1 4370   5.974   1.786   4.361
 1157SOL    HW2 4371   6.033   1.812   4.212
 1158SOL     OW 4372   6.544   5.457   5.753
 1158SOL    HW1 4373   6.564   5.466   5.850
 1158SOL    HW2 4374   6.445   5.455   5.739
 1159SOL     OW 4375   5.001   0.265   3.019
 1159SOL    HW1 4376   4.930   0.260   2.949
 1159SOL    HW2 4377   5.079   0.317   2.984
 1160SOL     OW 4378   3.941   3.907   1.360
 1160SOL    HW1 4379   3.997   3.826   1.339
 1160SOL    HW2 4380   3.847   3.878   1.379
 1161SOL     OW 4381   4.757   0.117   5.507
 1161SOL    HW1 4382   4.760   0.017   5.509
 1161SOL    HW2 4383   4.677   0.149   5.558
 1162SOL     OW 4384   3.934   3.094   0.572
 1162SOL    HW1 4385   3.904   3.179   0.529
 1162SOL    HW2 4386   4.026   3.071   0.539
 1163SOL     OW 4387   5.388   3.002   2.326
 1163SOL    HW1 4388   5.476   2.960   2.305
 1163SOL    HW2 4389   5.319   2.970   2.262
 1164SOL     OW 4390   5.463   2.614   4.029
 1164SOL    HW1 4391   5.364   2.604   4.038
 1164SOL    HW2 4392   5.487   2.711   4.027
 1165SOL     OW 4393   2.091   4.715   3.935
 1165SOL    HW1 4394   2.034   4.759   4.004
 1165SOL    HW2 4395   2.095   4.772   3.854
 1166SOL     OW 4396   3.929   0.859   6.908
 1166SOL    HW1 4397   3.890   0.783   6.960
 1166SOL    HW2 4398   4.011   0.828   6.860
 1167SOL     OW 4399   2.912   0.335   6.493
 1167SOL    HW1 4400   2.910   0.359   6.396
 1167SOL    HW2 4401   2.823   0.296   6.519
 1168SOL     OW 4402   6.313   6.715   2.421
 1168SOL    HW1 4403   6.367   6.640   2.385
 1168SOL    HW2 4404   6.335   6.800   2.373
 1169SOL     OW 4405   6.654   2.913   0.348
 1169SOL    HW1 4406   6.606   2.979   0.405
 1169SOL    HW2 4407   6.750   2.909   0.376
 1170SOL     OW 4408   4.780   0.804   2.054
 1170SOL    HW1 4409   4.692   0.790   2.009
 1170SOL    HW2 4410   4.778   0.767   2.146
 1171SOL     OW 4411   2.214   5.773   0.480
 1171SOL    HW1 4412   2.154   5.846   0.448
 1171SOL    HW2 4413   2.216   5.700   0.411
 1172SOL     OW 4414   3.706   4.001   3.065
 1172SOL    HW1 4415   3.725   4.022   3.161
 1172SOL    HW2 4416   3.767   3.928   3.034
 1173SOL     OW 4417   3.168   0.147   5.926
 1173SOL    HW1 4418   3.196   0.227   5.872
 1173SOL    HW2 4419   3.069   0.144   5.932
 1174SOL     OW 4420   3.111   5.416   0.715
 1174SOL    HW1 4421   3.080   5.485   0.650
 1174SOL    HW2 4422   3.115   5.327   0.669
 1175SOL     OW 4423   5.161   3.293   6.534
 1175SOL    HW1 4424   5.102   3.364   6.496
 1175SOL    HW2 4425   5.107   3.234   6.594
 1176SOL     OW 4426   5.762   4.419   0.585
 1176SOL    HW1 4427   5.853   4.455   0.561
 1176SOL    HW2 4428   5.696   4.444   0.515
 1177SOL     OW 4429   0.118   1.373   5.463
 1177SOL    HW1 4430   0.072   1.338   5.381
 1177SOL    HW2 4431   0.127   1.473   5.456
 1178SOL     OW 4432   3.927   3.292   1.413
 1178SOL    HW1 4433   3.839   3.284   1.459
 1178SOL    HW2 4434   3.913   3.296   1.314
 1179SOL     OW 4435   3.117   5.178   0.603
 1179SOL    HW1 4436   3.040   5.162   0.541
 1179SOL    HW2 4437   3.158   5.090   0.628
 1180SOL     OW 4438   2.924   0.191   3.540
 1180SOL    HW1 4439   3.013   0.237   3.539
 1180SOL    HW2 4440   2.871   0.219   3.460
 1181SOL     OW 4441   0.413   2.953   4.896
 1181SOL    HW1 4442   0.362   2.871   4.867
 1181SOL    HW2 4443   0.484   2.973   4.828
 1182SOL     OW 4444   2.018   5.195   3.312
 1182SOL    HW1 4445   1.955   5.188   3.389
 1182SOL    HW2 4446   2.002   5.119   3.249
 1183SOL     OW 4447   3.744   5.619   2.489
 1183SOL    HW1 4448   3.791   5.614   2.577
 1183SOL    HW2 4449   3.663   5.679   2.499
 1184SOL     OW 4450   3.611   2.085   5.118
 1184SOL    HW1 4451   3.538   2.083   5.187
 1184SOL    HW2 4452   3.657   1.996   5.117
 1185SOL     OW 4453   2.216   0.044   0.300
 1185SOL    HW1 4454   2.291   0.092   0.347
 1185SOL    HW2 4455   2.165   7.011   0.366
 1186SOL     OW 4456   6.034   6.723   6.215
 1186SOL    HW1 4457   6.110   6.776   6.252
 1186SOL    HW2 4458   5.968   6.703   6.287
 1187SOL     OW 4459   5.809   5.913   4.859
 1187SOL    HW1 4460   5.815   5.959   4.770
 1187SOL    HW2 4461   5.874   5.955   4.923
 1188SOL     OW 4462   3.496   6.902   6.354
 1188SOL    HW1 4463   3.419   6.873   6.411
 1188SOL    HW2 4464   3.475   6.991   6.314
 1189SOL     OW 4465   5.324   0.892   1.720
 1189SOL    HW1 4466   5.235   0.927   1.749
 1189SOL    HW2 4467   5.351   0.935   1.634
 1190SOL     OW 4468   4.321   4.694   4.624
 1190SOL    HW1 4469   4.279   4.780   4.596
 1190SOL    HW2 4470   4.327   4.690   4.723
 1191SOL     OW 4471   4.121   5.917   5.268
 1191SOL    HW1 4472   4.067   5.966   5.199
 1191SOL    HW2 4473   4.084   5.934   5.358
 1192SOL     OW 4474   5.586   5.012   3.054
 1192SOL    HW1 4475   5.547   5.059   3.133
 1192SOL    HW2 4476   5.514   4.962   3.006
 1193SOL     OW 4477   6.935   0.594   4.290
 1193SOL    HW1 4478   6.909   0.632   4.202
 1193SOL    HW2 4479   6.993   0.514   4.276
 1194SOL     OW 4480   0.383   1.628   1.097
 1194SOL    HW1 4481   0.424   1.543   1.064
 1194SOL    HW2 4482   0.417   1.704   1.042
 1195SOL     OW 4483   5.727   2.301   0.647
 1195SOL    HW1 4484   5.697   2.395   0.662
 1195SOL    HW2 4485   5.720   2.249   0.732
 1196SOL     OW 4486   0.190   4.631   2.044
 1196SOL    HW1 4487   0.221   4.538   2.064
 1196SOL    HW2 4488   0.092   4.629   2.020
 1197SOL     OW 4489   3.832   5.761   5.433
 1197SOL    HW1 4490   3.921   5.726   5.461
 1197SOL    HW2 4491   3.841   5.809   5.346
 1198SOL     OW 4492   2.386   2.627   2.298
 1198SOL    HW1 4493   2.396   2.546   2.356
 1198SOL    HW2 4494   2.417   2.605   2.205
 1199SOL     OW 4495   3.742   2.888   3.045
 1199SOL    HW1 4496   3.707   2.928   2.960
 1199SOL    HW2 4497   3.717   2.791   3.049
 1200SOL     OW 4498   4.024   3.653   4.988
 1200SOL    HW1 4499   3.987   3.720   4.923
 1200SOL    HW2 4500   3.953   3.586   5.010
 1201SOL     OW 4501   0.159   1.242   4.018
 1201SOL    HW1 4502   0.246   1.283   4.044
 1201SOL    HW2 4503   0.176   1.158   3.965
 1202SOL     OW 4504   6.457   0.710   5.662
 1202SOL    HW1 4505   6.433   0.673   5.752
 1202SOL    HW2 4506   6.505   0.797   5.673
 1203SOL     OW 4507   5.992   6.751   1.342
 1203SOL    HW1 4508   6.022   6.740   1.247
 1203SOL    HW2 4509   5.925   6.825   1.347
 1204SOL     OW 4510   4.165   1.189   0.063
 1204SOL    HW1 4511   4.066   1.200   0.053
 1204SOL    HW2 4512   4.201   1.263   0.120
 1205SOL     OW 4513   4.119   3.509   6.550
 1205SOL    HW1 4514   4.210   3.524   6.512
 1205SOL    HW2 4515   4.086   3.418   6.523
 1206SOL     OW 4516   1.341   2.252   4.840
 1206SOL    HW1 4517   1.268   2.187   4.817
 1206SOL    HW2 4518   1.348   2.321   4.768
 1207SOL     OW 4519   0.392   6.733   0.621
 1207SOL    HW1 4520   0.341   6.790   0.684
 1207SOL    HW2 4521   0.488   6.728   0.650
 1208SOL     OW 4522   3.522   4.018   2.405
 1208SOL    HW1 4523   3.493   4.012   2.309
 1208SOL    HW2 4524   3.446   4.049   2.461
 1209SOL     OW 4525   5.655   6.934   4.764
 1209SOL    HW1 4526   5.711   6.876   4.705
 1209SOL    HW2 4527   5.678   0.009   4.748
 1210SOL     OW 4528   4.320   6.816   3.665
 1210SOL    HW1 4529   4.354   6.723   3.682
 1210SOL    HW2 4530   4.370   6.855   3.588
 1211SOL     OW 4531   1.636   3.539   3.084
 1211SOL    HW1 4532   1.568   3.612   3.091
 1211SOL    HW2 4533   1.634   3.483   3.166
 1212SOL     OW 4534   0.327   2.052   5.653
 1212SOL    HW1 4535   0.257   2.011   5.712
 1212SOL    HW2 4536   0.378   2.121   5.704
 1213SOL     OW 4537   5.806   3.238   5.100
 1213SOL    HW1 4538   5.809   3.140   5.124
 1213SOL    HW2 4539   5.877   3.257   5.032
 1214SOL     OW 4540   1.087   3.332   4.735
 1214SOL    HW1 4541   1.012   3.398   4.736
 1214SOL    HW2 4542   1.093   3.286   4.824
 1215SOL     OW 4543   1.878   5.021   2.480
 1215SOL    HW1 4544   1.906   4.944   2.423
 1215SOL    HW2 4545   1.897   5.106   2.432
 1216SOL     OW 4546   0.380   6.958   1.303
 1216SOL    HW1 4547   0.406   6.862   1.312
 1216SOL    HW2 4548   0.406   7.007   1.386
 1217SOL     OW 4549   2.716   5.993   0.944
 1217SOL    HW1 4550   2.660   6.046   1.008
 1217SOL    HW2 4551   2.722   6.042   0.857
 1218SOL     OW 4552   0.481   3.494   4.897
 1218SOL    HW1 4553   0.430   3.409   4.888
 1218SOL    HW2 4554   0.579   3.474   4.903
 1219SOL     OW 4555   4.559   4.764   1.360
 1219SOL    HW1 4556   4.636   4.703   1.343
 1219SOL    HW2 4557   4.541   4.819   1.279
 1220SOL     OW 4558   5.339   3.698   2.936
 1220SOL    HW1 4559   5.307   3.786   2.969
 1220SOL    HW2 4560   5.321   3.690   2.838
 1221SOL     OW 4561   5.741   3.862   6.464
 1221SOL    HW1 4562   5.785   3.819   6.543
 1221SOL    HW2 4563   5.658   3.812   6.440
 1222SOL     OW 4564   6.582   0.310   0.640
 1222SOL    HW1 4565   6.655   0.379   0.641
 1222SOL    HW2 4566   6.590   0.253   0.722
 1223SOL     OW 4567   5.311   1.464   0.634
 1223SOL    HW1 4568   5.289   1.538   0.697
 1223SOL    HW2 4569   5.265   1.380   0.662
 1224SOL     OW 4570   3.394   5.892   0.582
 1224SOL    HW1 4571   3.428   5.843   0.502
 1224SOL    HW2 4572   3.466   5.898   0.651
 1225SOL     OW 4573   4.192   2.655   0.883
 1225SOL    HW1 4574   4.282   2.636   0.843
 1225SOL    HW2 4575   4.160   2.744   0.851
 1226SOL     OW 4576   5.081   6.137   0.512
 1226SOL    HW1 4577   5.073   6.236   0.505
 1226SOL    HW2 4578   5.077   6.110   0.609
 1227SOL     OW 4579   6.283   5.382   5.903
 1227SOL    HW1 4580   6.237   5.325   5.970
 1227SOL    HW2 4581   6.288   5.334   5.815
 1228SOL     OW 4582   3.944   3.320   0.437
 1228SOL    HW1 4583   4.006   3.330   0.359
 1228SOL    HW2 4584   3.896   3.406   0.452
 1229SOL     OW 4585   1.612   6.541   1.648
 1229SOL    HW1 4586   1.664   6.607   1.593
 1229SOL    HW2 4587   1.615   6.570   1.744
 1230SOL     OW 4588   5.390   5.660   3.007
 1230SOL    HW1 4589   5.432   5.720   3.075
 1230SOL    HW2 4590   5.366   5.573   3.050
 1231SOL     OW 4591   1.126   2.544   6.126
 1231SOL    HW1 4592   1.037   2.510   6.157
 1231SOL    HW2 4593   1.188   2.551   6.204
 1232SOL     OW 4594   4.633   0.818   5.303
 1232SOL    HW1 4595   4.733   0.818   5.299
 1232SOL    HW2 4596   4.602   0.889   5.366
 1233SOL     OW 4597   1.265   5.459   3.336
 1233SOL    HW1 4598   1.311   5.545   3.357
 1233SOL    HW2 4599   1.210   5.471   3.253
 1234SOL     OW 4600   6.893   2.180   6.272
 1234SOL    HW1 4601   6.855   2.272   6.287
 1234SOL    HW2 4602   6.963   2.161   6.341
 1235SOL     OW 4603   6.468   4.650   6.907
 1235SOL    HW1 4604   6.487   4.552   6.901
 1235SOL    HW2 4605   6.409   4.677   6.831
 1236SOL     OW 4606   3.956   2.061   0.813
 1236SOL    HW1 4607   3.974   2.126   0.886
 1236SOL    HW2 4608   3.912   1.980   0.850
 1237SOL     OW 4609   1.700   6.302   4.972
 1237SOL    HW1 4610   1.619   6.246   4.959
 1237SOL    HW2 4611   1.778   6.244   4.997
 1238SOL     OW 4612   0.522   6.829   3.703
 1238SOL    HW1 4613   0.617   6.800   3.709
 1238SOL    HW2 4614   0.475   6.775   3.633
 1239SOL     OW 4615   6.444   5.689   4.610
 1239SOL    HW1 4616   6.514   5.637   4.560
 1239SOL    HW2 4617   6.362   5.633   4.621
 1240SOL     OW 4618   5.855   4.913   2.029
 1240SOL    HW1 4619   5.954   4.903   2.019
 1240SOL    HW2 4620   5.831   4.920   2.125
 1241SOL     OW 4621   0.123   4.321   4.848
 1241SOL    HW1 4622   0.097   4.232   4.811
 1241SOL    HW2 4623   0.105   4.392   4.780
 1242SOL     OW 4624   2.420   3.307   0.328
 1242SOL    HW1 4625   2.388   3.387   0.277
 1242SOL    HW2 4626   2.467   3.337   0.411
 1243SOL     OW 4627   0.899   1.540   4.652
 1243SOL    HW1 4628   0.995   1.526   4.626
 1243SOL    HW2 4629   0.845   1.561   4.570
 1244SOL     OW 4630   5.129   6.617   5.523
 1244SOL    HW1 4631   5.178   6.643   5.605
 1244SOL    HW2 4632   5.145   6.684   5.451
 1245SOL     OW 4633   5.172   5.607   0.772
 1245SOL    HW1 4634   5.107   5.600   0.848
 1245SOL    HW2 4635   5.137   5.557   0.693
 1246SOL     OW 4636   3.699   1.000   2.088
 1246SOL    HW1 4637   3.619   0.962   2.041
 1246SOL    HW2 4638   3.712   1.095   2.059
 1247SOL     OW 4639   6.204   0.085   4.705
 1247SOL    HW1 4640   6.283   0.140   4.733
 1247SOL    HW2 4641   6.205   7.019   4.754
 1248SOL     OW 4642   1.318   6.367   3.969
 1248SOL    HW1 4643   1.309   6.404   4.061
 1248SOL    HW2 4644   1.232   6.381   3.919
 1249SOL     OW 4645   0.332   4.411   1.718
 1249SOL    HW1 4646   0.299   4.362   1.638
 1249SOL    HW2 4647   0.300   4.506   1.715
 1250SOL     OW 4648   6.274   2.978   4.391
 1250SOL    HW1 4649   6.340   2.903   4.382
 1250SOL    HW2 4650   6.297   3.034   4.470
 1251SOL     OW 4651   2.254   1.025   2.783
 1251SOL    HW1 4652   2.285   0.967   2.858
 1251SOL    HW2 4653   2.203   0.969   2.717
 1252SOL     OW 4654   3.271   5.289   6.513
 1252SOL    HW1 4655   3.331   5.235   6.572
 1252SOL    HW2 4656   3.237   5.232   6.438
 1253SOL     OW 4657   2.559   0.667   1.360
 1253SOL    HW1 4658   2.484   0.704   1.415
 1253SOL    HW2 4659   2.539   0.682   1.263
 1254SOL     OW 4660   6.111   2.639   3.113
 1254SOL    HW1 4661   6.083   2.613   3.021
 1254SOL    HW2 4662   6.210   2.650   3.116
 1255SOL     OW 4663   5.967   2.678   5.768
 1255SOL    HW1 4664   6.066   2.665   5.755
 1255SOL    HW2 4665   5.921   2.672   5.679
 1256SOL     OW 4666   0.433   6.234   3.135
 1256SOL    HW1 4667   0.493   6.167   3.179
 1256SOL    HW2 4668   0.486   6.317   3.114
 1257SOL     OW 4669   0.137   4.806   4.163
 1257SOL    HW1 4670   0.066   4.869   4.195
 1257SOL    HW2 4671   0.150   4.819   4.064
 1258SOL     OW 4672   2.081   5.670   2.881
 1258SOL    HW1 4673   2.027   5.688   2.799
 1258SOL    HW2 4674   2.036   5.601   2.937
 1259SOL     OW 4675   3.469   6.369   5.334
 1259SOL    HW1 4676   3.548   6.414   5.377
 1259SOL    HW2 4677   3.408   6.438   5.297
 1260SOL     OW 4678   3.384   1.082   1.090
 1260SOL    HW1 4679   3.374   0.984   1.076
 1260SOL    HW2 4680   3.393   1.128   1.001
 1261SOL     OW 4681   6.955   3.944   0.015
 1261SOL    HW1 4682   6.874   3.965   6.980
 1261SOL    HW2 4683   0.005   4.013   7.019
 1262SOL     OW 4684   4.626   4.969   1.512
 1262SOL    HW1 4685   4.597   4.882   1.473
 1262SOL    HW2 4686   4.647   4.957   1.609
 1263SOL     OW 4687   6.693   1.374   0.725
 1263SOL    HW1 4688   6.636   1.405   0.801
 1263SOL    HW2 4689   6.681   1.437   0.647
 1264SOL     OW 4690   1.309   3.804   2.024
 1264SOL    HW1 4691   1.347   3.896   2.013
 1264SOL    HW2 4692   1.216   3.802   1.987
 1265SOL     OW 4693   6.897   4.438   3.019
 1265SOL    HW1 4694   6.953   4.449   2.937
 1265SOL    HW2 4695   6.894   4.341   3.044
 1266SOL     OW 4696   2.237   0.859   3.901
 1266SOL    HW1 4697   2.279   0.918   3.832
 1266SOL    HW2 4698   2.168   0.800   3.857
 1267SOL     OW 4699   5.400   5.800   1.216
 1267SOL    HW1 4700   5.333   5.825   1.146
 1267SOL    HW2 4701   5.383   5.853   1.299
 1268SOL     OW 4702   4.616   2.209   6.607
 1268SOL    HW1 4703   4.615   2.294   6.554
 1268SOL    HW2 4704   4.537   2.153   6.582
 1269SOL     OW 4705   5.491   6.014   5.217
 1269SOL    HW1 4706   5.586   5.999   5.246
 1269SOL    HW2 4707   5.463   6.107   5.240
 1270SOL     OW 4708   2.101   3.563   4.150
 1270SOL    HW1 4709   2.108   3.500   4.072
 1270SOL    HW2 4710   2.136   3.653   4.123
 1271SOL     OW 4711   3.763   1.764   3.654
 1271SOL    HW1 4712   3.697   1.834   3.681
 1271SOL    HW2 4713   3.721   1.702   3.587
 1272SOL     OW 4714   6.910   5.980   1.203
 1272SOL    HW1 4715   6.917   6.015   1.296
 1272SOL    HW2 4716   6.887   6.056   1.141
 1273SOL     OW 4717   1.709   4.543   6.983
 1273SOL    HW1 4718   1.783   4.507   6.926
 1273SOL    HW2 4719   1.620   4.520   6.941
 1274SOL     OW 4720   6.650   3.462   1.799
 1274SOL    HW1 4721   6.676   3.458   1.702
 1274SOL    HW2 4722   6.651   3.557   1.829
 1275SOL     OW 4723   3.923   0.189   3.412
 1275SOL    HW1 4724   3.974   0.274   3.398
 1275SOL    HW2 4725   3.986   0.115   3.436
 1276SOL     OW 4726   6.775   0.634   3.131
 1276SOL    HW1 4727   6.833   0.700   3.085
 1276SOL    HW2 4728   6.817   0.543   3.126
 1277SOL     OW 4729   0.312   0.179   4.559
 1277SOL    HW1 4730   0.375   0.169   4.482
 1277SOL    HW2 4731   0.315   0.273   4.593
 1278SOL     OW 4732   1.370   1.219   5.431
 1278SOL    HW1 4733   1.416   1.287   5.374
 1278SOL    HW2 4734   1.438   1.173   5.488
 1279SOL     OW 4735   2.503   6.880   0.425
 1279SOL    HW1 4736   2.447   6.961   0.409
 1279SOL    HW2 4737   2.471   6.805   0.367
 1280SOL     OW 4738   2.642   6.289   3.898
 1280SOL    HW1 4739   2.641   6.204   3.843
 1280SOL    HW2 4740   2.722   6.287   3.959
 1281SOL     OW 4741   0.697   5.605   2.948
 1281SOL    HW1 4742   0.729   5.599   3.042
 1281SOL    HW2 4743   0.716   5.697   2.912
 1282SOL     OW 4744   0.541   0.917   0.309
 1282SOL    HW1 4745   0.446   0.906   0.280
 1282SOL    HW2 4746   0.591   0.967   0.238
 1283SOL     OW 4747   5.261   2.664   5.182
 1283SOL    HW1 4748   5.183   2.615   5.143
 1283SOL    HW2 4749   5.276   2.749   5.132
 1284SOL     OW 4750   3.971   3.584   1.429
 1284SOL    HW1 4751   3.992   3.487   1.418
 1284SOL    HW2 4752   4.019   3.636   1.358
 1285SOL     OW 4753   5.545   3.414   6.356
 1285SOL    HW1 4754   5.463   3.382   6.310
 1285SOL    HW2 4755   5.535   3.404   6.455
 1286SOL     OW 4756   4.971   4.595   2.502
 1286SOL    HW1 4757   4.922   4.540   2.570
 1286SOL    HW2 4758   4.909   4.662   2.461
 1287SOL     OW 4759   4.650   4.025   6.091
 1287SOL    HW1 4760   4.639   3.955   6.021
 1287SOL    HW2 4761   4.560   4.060   6.116
 1288SOL     OW 4762   6.196   3.653   1.016
 1288SOL    HW1 4763   6.181   3.682   1.110
 1288SOL    HW2 4764   6.237   3.727   0.963
 1289SOL     OW 4765   0.510   6.052   1.861
 1289SOL    HW1 4766   0.565   6.012   1.934
 1289SOL    HW2 4767   0.452   5.982   1.820
 1290SOL     OW 4768   1.130   0.611   0.077
 1290SOL    HW1 4769   1.213   0.666   0.076
 1290SOL    HW2 4770   1.140   0.534   0.015
 1291SOL     OW 4771   0.630   3.586   5.729
 1291SOL    HW1 4772   0.547   3.588   5.673
 1291SOL    HW2 4773   0.710   3.601   5.671
 1292SOL     OW 4774   6.003   5.248   2.351
 1292SOL    HW1 4775   6.011   5.235   2.450
 1292SOL    HW2 4776   6.072   5.192   2.304
 1293SOL     OW 4777   1.855   1.124   6.582
 1293SOL    HW1 4778   1.945   1.082   6.569
 1293SOL    HW2 4779   1.803   1.118   6.497
 1294SOL     OW 4780   1.028   3.485   0.819
 1294SOL    HW1 4781   1.089   3.521   0.748
 1294SOL    HW2 4782   1.068   3.503   0.909
 1295SOL     OW 4783   6.463   3.721   2.516
 1295SOL    HW1 4784   6.531   3.788   2.486
 1295SOL    HW2 4785   6.508   3.651   2.570
 1296SOL     OW 4786   3.890   0.578   5.631
 1296SOL    HW1 4787   3.988   0.593   5.645
 1296SOL    HW2 4788   3.838   0.637   5.693
 1297SOL     OW 4789   5.947   0.388   6.202
 1297SOL    HW1 4790   5.977   0.460   6.265
 1297SOL    HW2 4791   6.010   0.385   6.123
 1298SOL     OW 4792   6.282   3.657   3.350
 1298SOL    HW1 4793   6.340   3.601   3.292
 1298SOL    HW2 4794   6.317   3.656   3.444
 1299SOL     OW 4795   0.794   3.649   3.072
 1299SOL    HW1 4796   0.697   3.674   3.066
 1299SOL    HW2 4797   0.851   3.727   3.047
 1300SOL     OW 4798   3.448   4.111   1.871
 1300SOL    HW1 4799   3.508   4.099   1.951
 1300SOL    HW2 4800   3.378   4.039   1.871
 1301SOL     OW 4801   0.360   6.104   2.534
 1301SOL    HW1 4802   0.429   6.104   2.607
 1301SOL    HW2 4803   0.346   6.010   2.502
 1302SOL     OW 4804   3.010   0.354   4.911
 1302SOL    HW1 4805   2.932   0.327   4.967
 1302SOL    HW2 4806   3.084   0.386   4.971
 1303SOL     OW 4807   4.539   1.974   0.811
 1303SOL    HW1 4808   4.614   2.033   0.841
 1303SOL    HW2 4809   4.462   2.030   0.780
 1304SOL     OW 4810   1.288   1.435   6.476
 1304SOL    HW1 4811   1.342   1.447   6.393
 1304SOL    HW2 4812   1.313   1.348   6.519
 1305SOL     OW 4813   5.547   4.495   6.625
 1305SOL    HW1 4814   5.454   4.520   6.600
 1305SOL    HW2 4815   5.600   4.475   6.542
 1306SOL     OW 4816   0.947   4.491   5.473
 1306SOL    HW1 4817   1.034   4.478   5.425
 1306SOL    HW2 4818   0.911   4.582   5.452
 1307SOL     OW 4819   1.904   2.447   4.566
 1307SOL    HW1 4820   1.930   2.496   4.483
 1307SOL    HW2 4821   1.817   2.482   4.600
 1308SOL     OW 4822   4.305   5.280   4.413
 1308SOL    HW1 4823   4.381   5.248   4.356
 1308SOL    HW2 4824   4.275   5.206   4.473
 1309SOL     OW 4825   5.716   3.270   5.561
 1309SOL    HW1 4826   5.792   3.278   5.496
 1309SOL    HW2 4827   5.632   3.304   5.519
 1310SOL     OW 4828   6.900   3.761   5.232
 1310SOL    HW1 4829   6.961   3.835   5.203
 1310SOL    HW2 4830   6.951   3.696   5.289
 1311SOL     OW 4831   6.533   6.716   4.167
 1311SOL    HW1 4832   6.573   6.683   4.252
 1311SOL    HW2 4833   6.450   6.665   4.147
 1312SOL     OW 4834   0.898   0.377   6.555
 1312SOL    HW1 4835   0.889   0.278   6.562
 1312SOL    HW2 4836   0.973   0.409   6.613
 1313SOL     OW 4837   1.691   4.922   5.215
 1313SOL    HW1 4838   1.768   4.883   5.163
 1313SOL    HW2 4839   1.705   5.021   5.224
 1314SOL     OW 4840   2.749   1.794   5.818
 1314SOL    HW1 4841   2.819   1.865   5.821
 1314SOL    HW2 4842   2.664   1.833   5.782
 1315SOL     OW 4843   0.730   0.747   0.359
 1315SOL    HW1 4844   0.768   0.724   0.270
 1315SOL    HW2 4845   0.653   0.809   0.348
 1316SOL     OW 4846   2.196   6.795   3.792
 1316SOL    HW1 4847   2.101   6.770   3.809
 1316SOL    HW2 4848   2.235   6.734   3.723
 1317SOL     OW 4849   0.514   3.913   4.639
 1317SOL    HW1 4850   0.515   3.918   4.539
 1317SOL    HW2 4851   0.439   3.855   4.669
 1318SOL     OW 4852   6.791   0.398   0.846
 1318SOL    HW1 4853   6.767   0.302   0.865
 1318SOL    HW2 4854   6.890   0.408   0.848
 1319SOL     OW 4855   6.272   1.133   0.040
 1319SOL    HW1 4856   6.265   1.106   6.965
 1319SOL    HW2 4857   6.189   1.182   0.067
 1320SOL     OW 4858   6.258   3.821   0.575
 1320SOL    HW1 4859   6.327   3.772   0.629
 1320SOL    HW2 4860   6.200   3.754   0.527
 1321SOL     OW 4861   4.402   2.334   6.291
 1321SOL    HW1 4862   4.389   2.252   6.347
 1321SOL    HW2 4863   4.343   2.407   6.326
 1322SOL     OW 4864   4.687   0.749   3.273
 1322SOL    HW1 4865   4.733   0.677   3.325
 1322SOL    HW2 4866   4.591   0.726   3.259
 1323SOL     OW 4867   5.348   1.701   5.296
 1323SOL    HW1 4868   5.373   1.795   5.318
 1323SOL    HW2 4869   5.287   1.700   5.216
 1324SOL     OW 4870   1.126   3.141   1.355
 1324SOL    HW1 4871   1.131   3.060   1.414
 1324SOL    HW2 4872   1.214   3.189   1.356
 1325SOL     OW 4873   1.916   0.097   2.048
 1325SOL    HW1 4874   1.931   0.148   1.963
 1325SOL    HW2 4875   2.001   0.093   2.100
 1326SOL     OW 4876   5.267   2.843   4.976
 1326SOL    HW1 4877   5.248   2.880   4.885
 1326SOL    HW2 4878   5.305   2.915   5.034
 1327SOL     OW 4879   2.760   4.664   2.797
 1327SOL    HW1 4880   2.819   4.584   2.808
 1327SOL    HW2 4881   2.664   4.635   2.794
 1328SOL     OW 4882   1.226   2.984   1.110
 1328SOL    HW1 4883   1.175   3.062   1.147
 1328SOL    HW2 4884   1.167   2.904   1.107
 1329SOL     OW 4885   0.383   1.998   0.638
 1329SOL    HW1 4886   0.324   1.919   0.623
 1329SOL    HW2 4887   0.329   2.073   0.676
 1330SOL     OW 4888   6.493   1.140   1.338
 1330SOL    HW1 4889   6.394   1.128   1.333
 1330SOL    HW2 4890   6.535   1.058   1.377
 1331SOL     OW 4891   4.477   2.265   2.947
 1331SOL    HW1 4892   4.514   2.214   3.025
 1331SOL    HW2 4893   4.464   2.203   2.870
 1332SOL     OW 4894   3.810   6.900   6.970
 1332SOL    HW1 4895   3.893   6.953   6.952
 1332SOL    HW2 4896   3.735   6.937   6.915
 1333SOL     OW 4897   3.663   3.169   6.133
 1333SOL    HW1 4898   3.759   3.186   6.112
 1333SOL    HW2 4899   3.624   3.108   6.065
 1334SOL     OW 4900   0.183   2.525   5.010
 1334SOL    HW1 4901   0.124   2.447   4.989
 1334SOL    HW2 4902   0.216   2.517   5.104
 1335SOL     OW 4903   2.862   6.846   3.135
 1335SOL    HW1 4904   2.831   6.842   3.230
 1335SOL    HW2 4905   2.927   6.921   3.124
 1336SOL     OW 4906   1.473   1.483   6.267
 1336SOL    HW1 4907   1.528   1.565   6.252
 1336SOL    HW2 4908   1.508   1.408   6.210
 1337SOL     OW 4909   0.845   1.592   4.959
 1337SOL    HW1 4910   0.895   1.604   4.873
 1337SOL    HW2 4911   0.853   1.675   5.014
 1338SOL     OW 4912   4.351   2.728   6.045
 1338SOL    HW1 4913   4.407   2.718   6.128
 1338SOL    HW2 4914   4.305   2.642   6.025
 1339SOL     OW 4915   0.623   7.010   0.192
 1339SOL    HW1 4916   0.705   0.021   0.146
 1339SOL    HW2 4917   0.542   0.026   0.146
 1340SOL     OW 4918   0.715   1.323   1.901
 1340SOL    HW1 4919   0.663   1.264   1.962
 1340SOL    HW2 4920   0.687   1.307   1.806
 1341SOL     OW 4921   3.929   0.462   5.929
 1341SOL    HW1 4922   4.021   0.423   5.931
 1341SOL    HW2 4923   3.872   0.411   5.864
 1342SOL     OW 4924   1.764   4.612   5.876
 1342SOL    HW1 4925   1.853   4.575   5.904
 1342SOL    HW2 4926   1.771   4.711   5.865
 1343SOL     OW 4927   3.871   6.148   2.591
 1343SOL    HW1 4928   3.791   6.128   2.646
 1343SOL    HW2 4929   3.846   6.148   2.494
 1344SOL     OW 4930   6.568   4.177   4.069
 1344SOL    HW1 4931   6.651   4.137   4.032
 1344SOL    HW2 4932   6.582   4.275   4.085
 1345SOL     OW 4933   1.261   1.770   3.411
 1345SOL    HW1 4934   1.269   1.767   3.511
 1345SOL    HW2 4935   1.331   1.831   3.374
 1346SOL     OW 4936   1.458   0.369   2.871
 1346SOL    HW1 4937   1.373   0.337   2.912
 1346SOL    HW2 4938   1.497   0.442   2.928
 1347SOL     OW 4939   6.337   6.560   4.141
 1347SOL    HW1 4940   6.254   6.572   4.087
 1347SOL    HW2 4941   6.336   6.471   4.186
 1348SOL     OW 4942   5.893   5.567   3.213
 1348SOL    HW1 4943   5.802   5.553   3.175
 1348SOL    HW2 4944   5.962   5.558   3.141
 1349SOL     OW 4945   4.793   2.751   6.164
 1349SOL    HW1 4946   4.828   2.671   6.212
 1349SOL    HW2 4947   4.849   2.768   6.083
 1350SOL     OW 4948   4.012   4.526   0.127
 1350SOL    HW1 4949   3.993   4.542   0.031
 1350SOL    HW2 4950   4.015   4.613   0.176
 1351SOL     OW 4951   0.217   2.090   3.218
 1351SOL    HW1 4952   0.232   2.026   3.142
 1351SOL    HW2 4953   0.255   2.179   3.194
 1352SOL     OW 4954   0.693   0.523   3.077
 1352SOL    HW1 4955   0.627   0.474   3.022
 1352SOL    HW2 4956   0.776   0.540   3.024
 1353SOL     OW 4957   6.334   4.055   5.906
 1353SOL    HW1 4958   6.301   4.114   5.833
 1353SOL    HW2 4959   6.288   3.967   5.901
 1354SOL     OW 4960   0.518   2.043   0.381
 1354SOL    HW1 4961   0.524   2.136   0.347
 1354SOL    HW2 4962   0.458   2.041   0.462
 1355SOL     OW 4963   6.001   2.329   6.046
 1355SOL    HW1 4964   5.980   2.305   5.951
 1355SOL    HW2 4965   5.918   2.327   6.100
 1356SOL     OW 4966   3.134   3.528   3.894
 1356SOL    HW1 4967   3.095   3.571   3.975
 1356SOL    HW2 4968   3.065   3.471   3.850
 1357SOL     OW 4969   1.485   4.124   5.584
 1357SOL    HW1 4970   1.446   4.034   5.569
 1357SOL    HW2 4971   1.445   4.164   5.667
 1358SOL     OW 4972   3.586   1.239   5.903
 1358SOL    HW1 4973   3.575   1.327   5.950
 1358SOL    HW2 4974   3.670   1.195   5.934
 1359SOL     OW 4975   6.942   5.024   1.239
 1359SOL    HW1 4976   6.958   5.115   1.200
 1359SOL    HW2 4977   6.844   5.010   1.249
 1360SOL     OW 4978   3.998   3.722   2.434
 1360SOL    HW1 4979   3.991   3.659   2.511
 1360SOL    HW2 4980   4.010   3.815   2.468
 1361SOL     OW 4981   6.999   6.628   6.127
 1361SOL    HW1 4982   6.902   6.653   6.131
 1361SOL    HW2 4983   7.020   6.591   6.037
 1362SOL     OW 4984   2.975   3.864   4.243
 1362SOL    HW1 4985   2.993   3.774   4.283
 1362SOL    HW2 4986   2.881   3.867   4.210
 1363SOL     OW 4987   6.459   6.017   3.664
 1363SOL    HW1 4988   6.529   6.024   3.736
 1363SOL    HW2 4989   6.501   6.032   3.575
 1364SOL     OW 4990   0.555   2.304   0.309
 1364SOL    HW1 4991   0.652   2.282   0.310
 1364SOL    HW2 4992   0.526   2.322   0.215
 1365SOL     OW 4993   0.561   3.610   5.400
 1365SOL    HW1 4994   0.534   3.539   5.334
 1365SOL    HW2 4995   0.518   3.593   5.488
 1366SOL     OW 4996   0.051   4.222   0.832
 1366SOL    HW1 4997   0.071   4.127   0.810
 1366SOL    HW2 4998   0.125   4.260   0.888
 1367SOL     OW 4999   1.063   5.863   2.999
 1367SOL    HW1 5000   1.132   5.816   3.054
 1367SOL    HW2 5001   1.086   5.961   2.994
 1368SOL     OW 5002   6.939   0.744   4.000
 1368SOL    HW1 5003   7.006   0.783   4.064
 1368SOL    HW2 5004   6.868   0.812   3.981
 1369SOL     OW 5005   2.467   0.028   2.243
 1369SOL    HW1 5006   2.478   6.958   2.282
 1369SOL    HW2 5007   2.542   0.047   2.180
 1370SOL     OW 5008   5.727   2.271   4.122
 1370SOL    HW1 5009   5.769   2.181   4.139
 1370SOL    HW2 5010   5.724   2.288   4.024
 1371SOL     OW 5011   4.760   1.726   4.925
 1371SOL    HW1 5012   4.812   1.806   4.897
 1371SOL    HW2 5013   4.666   1.753   4.946
 1372SOL     OW 5014   0.606   2.065   0.976
 1372SOL    HW1 5015   0.645   2.081   1.067
 1372SOL    HW2 5016   0.669   2.010   0.922
 1373SOL     OW 5017   4.441   2.270   0.043
 1373SOL    HW1 5018   4.474   2.185   0.001
 1373SOL    HW2 5019   4.375   2.249   0.115
 1374SOL     OW 5020   5.034   3.559   0.416
 1374SOL    HW1 5021   5.085   3.529   0.335
 1374SOL    HW2 5022   5.014   3.479   0.473
 1375SOL     OW 5023   0.240   7.017   6.726
 1375SOL    HW1 5024   0.318   6.955   6.721
 1375SOL    HW2 5025   0.215   0.010   6.822
 1376SOL     OW 5026   3.729   4.786   5.618
 1376SOL    HW1 5027   3.785   4.717   5.665
 1376SOL    HW2 5028   3.663   4.741   5.559
 1377SOL     OW 5029   1.082   3.470   3.556
 1377SOL    HW1 5030   0.999   3.440   3.603
 1377SOL    HW2 5031   1.062   3.488   3.460
 1378SOL     OW 5032   5.947   2.666   5.482
 1378SOL    HW1 5033   5.954   2.574   5.443
 1378SOL    HW2 5034   6.038   2.704   5.496
 1379SOL     OW 5035   4.228   5.587   3.408
 1379SOL    HW1 5036   4.187   5.529   3.479
 1379SOL    HW2 5037   4.327   5.572   3.407
 1380SOL     OW 5038   0.280   6.027   3.481
 1380SOL    HW1 5039   0.263   6.072   3.569
 1380SOL    HW2 5040   0.332   5.943   3.496
 1381SOL     OW 5041   5.518   1.556   0.220
 1381SOL    HW1 5042   5.576   1.637   0.233
 1381SOL    HW2 5043   5.426   1.584   0.193
 1382SOL     OW 5044   5.161   3.303   1.133
 1382SOL    HW1 5045   5.109   3.225   1.098
 1382SOL    HW2 5046   5.121   3.334   1.219
 1383SOL     OW 5047   0.982   0.116   1.515
 1383SOL    HW1 5048   1.036   0.193   1.548
 1383SOL    HW2 5049   0.921   0.085   1.587
 1384SOL     OW 5050   4.595   6.838   2.325
 1384SOL    HW1 5051   4.601   6.865   2.421
 1384SOL    HW2 5052   4.633   6.746   2.314
 1385SOL     OW 5053   2.735   4.664   3.833
 1385SOL    HW1 5054   2.749   4.744   3.775
 1385SOL    HW2 5055   2.807   4.597   3.815
 1386SOL     OW 5056   3.085   0.844   4.031
 1386SOL    HW1 5057   2.987   0.827   4.032
 1386SOL    HW2 5058   3.103   0.941   4.014
 1387SOL     OW 5059   3.918   5.493   2.997
 1387SOL    HW1 5060   3.935   5.523   2.903
 1387SOL    HW2 5061   3.986   5.534   3.057
 1388SOL     OW 5062   6.513   0.109   2.202
 1388SOL    HW1 5063   6.449   0.032   2.197
 1388SOL    HW2 5064   6.469   0.184   2.251
 1389SOL     OW 5065   6.317   0.948   4.356
 1389SOL    HW1 5066   6.249   1.022   4.357
 1389SOL    HW2 5067   6.350   0.936   4.262
 1390SOL     OW 5068   0.143   3.826   6.817
 1390SOL    HW1 5069   0.155   3.925   6.824
 1390SOL    HW2 5070   0.072   3.796   6.881
 1391SOL     OW 5071   6.623   6.249   4.983
 1391SOL    HW1 5072   6.702   6.306   4.959
 1391SOL    HW2 5073   6.642   6.154   4.960
 1392SOL     OW 5074   5.512   6.080   5.886
 1392SOL    HW1 5075   5.568   6.069   5.968
 1392SOL    HW2 5076   5.498   6.177   5.868
 1393SOL     OW 5077   6.406   4.997   5.119
 1393SOL    HW1 5078   6.309   4.977   5.132
 1393SOL    HW2 5079   6.453   4.987   5.207
 1394SOL     OW 5080   3.721   4.952   5.832
 1394SOL    HW1 5081   3.713   4.909   5.742
 1394SOL    HW2 5082   3.636   4.938   5.883
 1395SOL     OW 5083   2.652   4.581   5.466
 1395SOL    HW1 5084   2.740   4.536   5.479
 1395SOL    HW2 5085   2.655   4.638   5.384
 1396SOL     OW 5086   1.033   1.353   5.246
 1396SOL    HW1 5087   1.039   1.449   5.217
 1396SOL    HW2 5088   0.937   1.328   5.259
 1397SOL     OW 5089   0.260   0.028   3.844
 1397SOL    HW1 5090   0.313   7.019   3.923
 1397SOL    HW2 5091   0.316   0.084   3.783
 1398SOL     OW 5092   3.122   0.318   6.679
 1398SOL    HW1 5093   3.050   0.321   6.609
 1398SOL    HW2 5094   3.083   0.291   6.766
 1399SOL     OW 5095   3.889   5.581   0.630
 1399SOL    HW1 5096   3.889   5.518   0.552
 1399SOL    HW2 5097   3.971   5.638   0.627
 1400SOL     OW 5098   0.222   1.643   3.371
 1400SOL    HW1 5099   0.132   1.636   3.413
 1400SOL    HW2 5100   0.293   1.617   3.437
 1401SOL     OW 5101   6.449   1.016   4.790
 1401SOL    HW1 5102   6.548   1.028   4.782
 1401SOL    HW2 5103   6.403   1.076   4.724
 1402SOL     OW 5104   6.512   3.403   6.682
 1402SOL    HW1 5105   6.494   3.326   6.742
 1402SOL    HW2 5106   6.446   3.402   6.606
 1403SOL     OW 5107   2.592   2.570   1.527
 1403SOL    HW1 5108   2.677   2.572   1.474
 1403SOL    HW2 5109   2.538   2.652   1.507
 1404SOL     OW 5110   6.528   6.760   0.736
 1404SOL    HW1 5111   6.535   6.673   0.783
 1404SOL    HW2 5112   6.466   6.751   0.658
 1405SOL     OW 5113   2.644   3.379   0.857
 1405SOL    HW1 5114   2.707   3.304   0.876
 1405SOL    HW2 5115   2.681   3.464   0.893
 1406SOL     OW 5116   0.452   5.630   0.709
 1406SOL    HW1 5117   0.360   5.637   0.669
 1406SOL    HW2 5118   0.445   5.637   0.809
 1407SOL     OW 5119   0.340   2.893   2.084
 1407SOL    HW1 5120   0.243   2.875   2.067
 1407SOL    HW2 5121   0.385   2.807   2.109
 1408SOL     OW 5122   5.638   0.945   6.173
 1408SOL    HW1 5123   5.703   1.019   6.191
 1408SOL    HW2 5124   5.641   0.922   6.075
 1409SOL     OW 5125   6.859   6.988   5.090
 1409SOL    HW1 5126   6.900   6.999   5.000
 1409SOL    HW2 5127   6.903   0.029   5.155
 1410SOL     OW 5128   1.213   3.835   6.444
 1410SOL    HW1 5129   1.262   3.789   6.518
 1410SOL    HW2 5130   1.266   3.914   6.412
 1411SOL     OW 5131   3.514   6.790   1.011
 1411SOL    HW1 5132   3.606   6.771   0.978
 1411SOL    HW2 5133   3.457   6.822   0.935
 1412SOL     OW 5134   0.896   2.224   0.876
 1412SOL    HW1 5135   0.988   2.227   0.916
 1412SOL    HW2 5136   0.847   2.307   0.900
 1413SOL     OW 5137   1.369   2.345   5.302
 1413SOL    HW1 5138   1.341   2.380   5.392
 1413SOL    HW2 5139   1.321   2.395   5.231
 1414SOL     OW 5140   2.924   1.421   1.761
 1414SOL    HW1 5141   2.876   1.433   1.848
 1414SOL    HW2 5142   2.906   1.499   1.701
 1415SOL     OW 5143   2.230   1.285   4.069
 1415SOL    HW1 5144   2.180   1.228   4.133
 1415SOL    HW2 5145   2.289   1.349   4.119
 1416SOL     OW 5146   5.462   5.344   4.521
 1416SOL    HW1 5147   5.395   5.313   4.589
 1416SOL    HW2 5148   5.446   5.297   4.434
 1417SOL     OW 5149   3.054   2.186   0.340
 1417SOL    HW1 5150   3.134   2.224   0.293
 1417SOL    HW2 5151   2.971   2.230   0.305
 1418SOL     OW 5152   3.313   4.062   2.715
 1418SOL    HW1 5153   3.312   4.160   2.736
 1418SOL    HW2 5154   3.307   4.049   2.616
 1419SOL     OW 5155   2.407   5.782   4.500
 1419SOL    HW1 5156   2.422   5.851   4.429
 1419SOL    HW2 5157   2.365   5.825   4.580
 1420SOL     OW 5158   2.628   6.815   1.742
 1420SOL    HW1 5159   2.616   6.788   1.837
 1420SOL    HW2 5160   2.606   6.913   1.733
 1421SOL     OW 5161   2.276   5.103   3.752
 1421SOL    HW1 5162   2.288   5.120   3.850
 1421SOL    HW2 5163   2.337   5.163   3.701
 1422SOL     OW 5164   1.186   3.927   0.587
 1422SOL    HW1 5165   1.114   3.879   0.538
 1422SOL    HW2 5166   1.241   3.980   0.522
 1423SOL     OW 5167   5.272   6.741   3.438
 1423SOL    HW1 5168   5.339   6.696   3.498
 1423SOL    HW2 5169   5.199   6.781   3.494
 1424SOL     OW 5170   6.565   4.994   5.937
 1424SOL    HW1 5171   6.618   4.913   5.914
 1424SOL    HW2 5172   6.626   5.070   5.957
 1425SOL     OW 5173   1.785   5.501   5.249
 1425SOL    HW1 5174   1.843   5.451   5.185
 1425SOL    HW2 5175   1.702   5.532   5.202
 1426SOL     OW 5176   1.653   3.915   6.012
 1426SOL    HW1 5177   1.736   3.969   6.011
 1426SOL    HW2 5178   1.656   3.848   5.938
 1427SOL     OW 5179   0.183   0.128   3.222
 1427SOL    HW1 5180   0.153   0.167   3.308
 1427SOL    HW2 5181   0.173   0.196   3.149
 1428SOL     OW 5182   6.721   3.114   0.138
 1428SOL    HW1 5183   6.667   3.040   0.177
 1428SOL    HW2 5184   6.696   3.200   0.183
 1429SOL     OW 5185   4.274   1.604   6.749
 1429SOL    HW1 5186   4.313   1.581   6.838
 1429SOL    HW2 5187   4.243   1.521   6.703
 1430SOL     OW 5188   1.429   4.897   3.599
 1430SOL    HW1 5189   1.523   4.870   3.620
 1430SOL    HW2 5190   1.367   4.822   3.623
 1431SOL     OW 5191   2.948   1.873   0.771
 1431SOL    HW1 5192   3.010   1.860   0.849
 1431SOL    HW2 5193   2.854   1.865   0.803
 1432SOL     OW 5194   2.293   1.803   2.039
 1432SOL    HW1 5195   2.263   1.708   2.049
 1432SOL    HW2 5196   2.254   1.841   1.955
 1433SOL     OW 5197   4.515   0.556   5.242
 1433SOL    HW1 5198   4.541   0.533   5.149
 1433SOL    HW2 5199   4.542   0.650   5.263
 1434SOL     OW 5200   0.425   0.150   6.182
 1434SOL    HW1 5201   0.509   0.160   6.234
 1434SOL    HW2 5202   0.432   0.200   6.096
 1435SOL     OW 5203   6.523   6.944   2.842
 1435SOL    HW1 5204   6.590   6.904   2.778
 1435SOL    HW2 5205   6.493   6.874   2.906
 1436SOL     OW 5206   5.031   3.985   6.566
 1436SOL    HW1 5207   5.026   3.943   6.476
 1436SOL    HW2 5208   5.095   4.062   6.564
 1437SOL     OW 5209   2.942   2.035   4.273
 1437SOL    HW1 5210   3.021   2.095   4.288
 1437SOL    HW2 5211   2.913   2.042   4.177
 1438SOL     OW 5212   2.564   6.211   1.501
 1438SOL    HW1 5213   2.658   6.178   1.497
 1438SOL    HW2 5214   2.501   6.134   1.491
 1439SOL     OW 5215   6.445   5.774   1.395
 1439SOL    HW1 5216   6.472   5.818   1.309
 1439SOL    HW2 5217   6.520   5.779   1.460
 1440SOL     OW 5218   2.786   2.998   0.067
 1440SOL    HW1 5219   2.775   3.013   6.990
 1440SOL    HW2 5220   2.712   2.939   0.101
 1441SOL     OW 5221   6.530   0.721   3.734
 1441SOL    HW1 5222   6.574   0.660   3.800
 1441SOL    HW2 5223   6.505   0.669   3.653
 1442SOL     OW 5224   0.034   5.597   6.753
 1442SOL    HW1 5225   0.080   5.509   6.759
 1442SOL    HW2 5226   6.977   5.590   6.691
 1443SOL     OW 5227   0.508   3.052   4.392
 1443SOL    HW1 5228   0.539   3.147   4.400
 1443SOL    HW2 5229   0.538   3.000   4.472
 1444SOL     OW 5230   4.788   5.146   0.702
 1444SOL    HW1 5231   4.813   5.230   0.751
 1444SOL    HW2 5232   4.697   5.117   0.732
 1445SOL     OW 5233   1.393   2.928   3.027
 1445SOL    HW1 5234   1.371   2.873   2.946
 1445SOL    HW2 5235   1.471   2.987   3.006
 1446SOL     OW 5236   6.052   1.612   0.186
 1446SOL    HW1 5237   5.995   1.615   0.268
 1446SOL    HW2 5238   6.028   1.688   0.126
 1447SOL     OW 5239   5.820   6.051   4.371
 1447SOL    HW1 5240   5.880   6.111   4.424
 1447SOL    HW2 5241   5.839   5.955   4.394
 1448SOL     OW 5242   0.016   2.219   5.366
 1448SOL    HW1 5243   0.007   2.300   5.308
 1448SOL    HW2 5244   0.052   2.245   5.456
 1449SOL     OW 5245   0.976   2.768   6.379
 1449SOL    HW1 5246   1.014   2.844   6.325
 1449SOL    HW2 5247   1.022   2.764   6.468
 1450SOL     OW 5248   0.796   2.375   1.214
 1450SOL    HW1 5249   0.771   2.396   1.119
 1450SOL    HW2 5250   0.751   2.290   1.242
 1451SOL     OW 5251   0.547   6.837   2.290
 1451SOL    HW1 5252   0.567   6.878   2.379
 1451SOL    HW2 5253   0.465   6.780   2.297
 1452SOL     OW 5254   4.544   1.578   5.156
 1452SOL    HW1 5255   4.561   1.664   5.108
 1452SOL    HW2 5256   4.450   1.548   5.138
 1453SOL     OW 5257   0.027   3.818   6.012
 1453SOL    HW1 5258   0.024   3.861   5.922
 1453SOL    HW2 5259   0.011   3.887   6.083
 1454SOL     OW 5260   0.559   2.734   2.221
 1454SOL    HW1 5261   0.592   2.732   2.316
 1454SOL    HW2 5262   0.618   2.794   2.166
 1455SOL     OW 5263   1.612   7.014   1.270
 1455SOL    HW1 5264   1.539   0.040   1.319
 1455SOL    HW2 5265   1.587   6.919   1.255
 1456SOL     OW 5266   0.002   6.358   5.772
 1456SOL    HW1 5267   0.017   6.455   5.792
 1456SOL    HW2 5268   7.010   6.347   5.673
 1457SOL     OW 5269   0.477   6.703   1.449
 1457SOL    HW1 5270   0.465   6.658   1.360
 1457SOL    HW2 5271   0.408   6.669   1.513
 1458SOL     OW 5272   5.792   5.363   4.184
 1458SOL    HW1 5273   5.717   5.322   4.131
 1458SOL    HW2 5274   5.840   5.429   4.126
 1459SOL     OW 5275   3.701   6.338   5.890
 1459SOL    HW1 5276   3.760   6.418   5.902
 1459SOL    HW2 5277   3.732   6.286   5.810
 1460SOL     OW 5278   0.231   0.144   5.475
 1460SOL    HW1 5279   0.135   0.116   5.477
 1460SOL    HW2 5280   0.281   0.097   5.548
 1461SOL     OW 5281   6.418   4.041   2.994
 1461SOL    HW1 5282   6.473   4.119   3.024
 1461SOL    HW2 5283   6.419   3.970   3.065
 1462SOL     OW 5284   1.637   0.758   0.140
 1462SOL    HW1 5285   1.585   0.697   0.200
 1462SOL    HW2 5286   1.688   0.824   0.195
 1463SOL     OW 5287   0.007   5.303   6.457
 1463SOL    HW1 5288   0.107   5.307   6.464
 1463SOL    HW2 5289   7.002   5.308   6.361
 1464SOL     OW 5290   0.052   5.835   2.021
 1464SOL    HW1 5291   0.123   5.889   2.066
 1464SOL    HW2 5292   0.047   5.744   2.063
 1465SOL     OW 5293   1.680   0.403   3.696
 1465SOL    HW1 5294   1.599   0.458   3.714
 1465SOL    HW2 5295   1.736   0.396   3.779
 1466SOL     OW 5296   2.459   2.206   2.106
 1466SOL    HW1 5297   2.506   2.270   2.168
 1466SOL    HW2 5298   2.497   2.214   2.014
 1467SOL     OW 5299   1.689   1.357   3.133
 1467SOL    HW1 5300   1.711   1.298   3.056
 1467SOL    HW2 5301   1.687   1.452   3.103
 1468SOL     OW 5302   2.999   5.653   2.963
 1468SOL    HW1 5303   2.900   5.665   2.974
 1468SOL    HW2 5304   3.034   5.723   2.900
 1469SOL     OW 5305   0.590   0.705   2.045
 1469SOL    HW1 5306   0.671   0.753   2.011
 1469SOL    HW2 5307   0.508   0.745   2.005
 1470SOL     OW 5308   0.735   1.987   2.617
 1470SOL    HW1 5309   0.709   1.891   2.626
 1470SOL    HW2 5310   0.661   2.045   2.649
 1471SOL     OW 5311   0.676   0.005   0.615
 1471SOL    HW1 5312   0.636   6.948   0.567
 1471SOL    HW2 5313   0.761   0.031   0.571
 1472SOL     OW 5314   2.845   5.537   5.271
 1472SOL    HW1 5315   2.794   5.490   5.198
 1472SOL    HW2 5316   2.942   5.538   5.249
 1473SOL     OW 5317   3.989   5.316   4.824
 1473SOL    HW1 5318   4.001   5.218   4.836
 1473SOL    HW2 5319   3.915   5.348   4.883
 1474SOL     OW 5320   5.652   5.129   1.961
 1474SOL    HW1 5321   5.681   5.182   1.882
 1474SOL    HW2 5322   5.722   5.062   1.985
 1475SOL     OW 5323   5.450   0.624   1.591
 1475SOL    HW1 5324   5.352   0.637   1.606
 1475SOL    HW2 5325   5.501   0.694   1.642
 1476SOL     OW 5326   3.330   0.807   1.078
 1476SOL    HW1 5327   3.289   0.741   1.140
 1476SOL    HW2 5328   3.321   0.774   0.983
 1477SOL     OW 5329   3.317   6.594   6.018
 1477SOL    HW1 5330   3.374   6.656   6.072
 1477SOL    HW2 5331   3.366   6.565   5.937
 1478SOL     OW 5332   6.146   5.161   5.420
 1478SOL    HW1 5333   6.163   5.096   5.346
 1478SOL    HW2 5334   6.101   5.243   5.383
 1479SOL     OW 5335   1.911   2.507   1.253
 1479SOL    HW1 5336   1.930   2.596   1.212
 1479SOL    HW2 5337   1.821   2.509   1.296
 1480SOL     OW 5338   3.553   0.702   4.815
 1480SOL    HW1 5339   3.578   0.627   4.754
 1480SOL    HW2 5340   3.578   0.789   4.772
 1481SOL     OW 5341   6.143   2.847   6.997
 1481SOL    HW1 5342   6.241   2.854   6.978
 1481SOL    HW2 5343   6.120   2.752   7.013
 1482SOL     OW 5344   4.755   1.375   1.975
 1482SOL    HW1 5345   4.804   1.438   2.035
 1482SOL    HW2 5346   4.657   1.380   1.994
 1483SOL     OW 5347   4.764   1.859   6.184
 1483SOL    HW1 5348   4.718   1.771   6.200
 1483SOL    HW2 5349   4.860   1.852   6.214
 1484SOL     OW 5350   5.160   5.176   3.974
 1484SOL    HW1 5351   5.179   5.135   4.063
 1484SOL    HW2 5352   5.195   5.117   3.901
 1485SOL     OW 5353   3.728   1.053   3.999
 1485SOL    HW1 5354   3.811   1.028   4.048
 1485SOL    HW2 5355   3.726   1.152   3.985
 1486SOL     OW 5356   5.843   0.799   2.693
 1486SOL    HW1 5357   5.939   0.776   2.678
 1486SOL    HW2 5358   5.805   0.840   2.611
 1487SOL     OW 5359   0.445   2.472   6.839
 1487SOL    HW1 5360   0.424   2.567   6.817
 1487SOL    HW2 5361   0.507   2.435   6.769
 1488SOL     OW 5362   5.594   0.635   3.800
 1488SOL    HW1 5363   5.594   0.696   3.721
 1488SOL    HW2 5364   5.515   0.657   3.858
 1489SOL     OW 5365   4.040   4.690   5.831
 1489SOL    HW1 5366   4.064   4.753   5.905
 1489SOL    HW2 5367   4.044   4.596   5.865
 1490SOL     OW 5368   0.977   3.427   1.400
 1490SOL    HW1 5369   1.017   3.335   1.390
 1490SOL    HW2 5370   0.935   3.436   1.490
 1491SOL     OW 5371   5.769   4.586   2.526
 1491SOL    HW1 5372   5.708   4.546   2.457
 1491SOL    HW2 5373   5.864   4.577   2.496
 1492SOL     OW 5374   6.457   0.648   2.471
 1492SOL    HW1 5375   6.445   0.735   2.425
 1492SOL    HW2 5376   6.529   0.656   2.540
 1493SOL     OW 5377   3.815   6.586   5.929
 1493SOL    HW1 5378   3.882   6.656   5.953
 1493SOL    HW2 5379   3.756   6.620   5.856
 1494SOL     OW 5380   5.032   1.847   6.288
 1494SOL    HW1 5381   5.115   1.899   6.266
 1494SOL    HW2 5382   5.054   1.749   6.290
 1495SOL     OW 5383   0.396   3.314   5.641
 1495SOL    HW1 5384   0.480   3.281   5.597
 1495SOL    HW2 5385   0.390   3.413   5.629
 1496SOL     OW 5386   0.203   1.614   1.297
 1496SOL    HW1 5387   0.272   1.606   1.226
 1496SOL    HW2 5388   0.237   1.672   1.371
 1497SOL     OW 5389   5.320   3.373   2.708
 1497SOL    HW1 5390   5.325   3.286   2.757
 1497SOL    HW2 5391   5.233   3.417   2.727
 1498SOL     OW 5392   2.772   4.486   6.977
 1498SOL    HW1 5393   2.834   4.437   0.018
 1498SOL    HW2 5394   2.764   4.435   6.891
 1499SOL     OW 5395   1.049   2.435   5.348
 1499SOL    HW1 5396   0.969   2.455   5.404
 1499SOL    HW2 5397   1.035   2.349   5.300
 1500SOL     OW 5398   0.075   6.975   0.400
 1500SOL    HW1 5399   0.147   6.925   0.352
 1500SOL    HW2 5400   0.003   7.001   0.336
 1501SOL     OW 5401   4.982   2.392   6.628
 1501SOL    HW1 5402   4.961   2.329   6.553
 1501SOL    HW2 5403   4.897   2.431   6.663
 1502SOL     OW 5404   4.081   0.461   6.858
 1502SOL    HW1 5405   4.150   0.522   6.896
 1502SOL    HW2 5406   4.053   0.494   6.768
 1503SOL     OW 5407   1.220   2.704   2.063
 1503SOL    HW1 5408   1.133   2.751   2.047
 1503SOL    HW2 5409   1.219   2.617   2.015
 1504SOL     OW 5410   0.512   0.176   4.342
 1504SOL    HW1 5411   0.576   0.107   4.376
 1504SOL    HW2 5412   0.557   0.264   4.336
 1505SOL     OW 5413   5.034   0.267   4.684
 1505SOL    HW1 5414   5.030   0.321   4.600
 1505SOL    HW2 5415   4.944   0.268   4.728
 1506SOL     OW 5416   1.078   6.296   0.018
 1506SOL    HW1 5417   1.024   6.288   0.102
 1506SOL    HW2 5418   1.035   6.363   6.978
 1507SOL     OW 5419   0.432   1.949   6.074
 1507SOL    HW1 5420   0.497   1.876   6.097
 1507SOL    HW2 5421   0.344   1.930   6.119
 1508SOL     OW 5422   6.499   1.549   1.359
 1508SOL    HW1 5423   6.568   1.478   1.349
 1508SOL    HW2 5424   6.536   1.624   1.414
 1509SOL     OW 5425   3.903   1.626   4.966
 1509SOL    HW1 5426   3.844   1.628   5.046
 1509SOL    HW2 5427   3.923   1.719   4.936
 1510SOL     OW 5428   4.977   1.691   4.667
 1510SOL    HW1 5429   4.989   1.787   4.693
 1510SOL    HW2 5430   4.954   1.685   4.570
 1511SOL     OW 5431   3.950   3.384   3.627
 1511SOL    HW1 5432   3.993   3.333   3.702
 1511SOL    HW2 5433   3.961   3.482   3.643
 1512SOL     OW 5434   0.054   5.339   0.805
 1512SOL    HW1 5435   0.053   5.284   0.722
 1512SOL    HW2 5436   7.007   5.413   0.797
 1513SOL     OW 5437   3.853   0.581   5.338
 1513SOL    HW1 5438   3.894   0.640   5.408
 1513SOL    HW2 5439   3.826   0.637   5.260
 1514SOL     OW 5440   3.654   2.264   5.581
 1514SOL    HW1 5441   3.668   2.266   5.482
 1514SOL    HW2 5442   3.694   2.180   5.618
 1515SOL     OW 5443   5.687   2.220   2.374
 1515SOL    HW1 5444   5.620   2.169   2.320
 1515SOL    HW2 5445   5.643   2.298   2.417
 1516SOL     OW 5446   6.537   5.840   6.145
 1516SOL    HW1 5447   6.547   5.937   6.125
 1516SOL    HW2 5448   6.593   5.816   6.225
 1517SOL     OW 5449   4.395   6.257   2.978
 1517SOL    HW1 5450   4.425   6.273   2.884
 1517SOL    HW2 5451   4.322   6.189   2.979
 1518SOL     OW 5452   0.248   2.677   0.415
 1518SOL    HW1 5453   0.246   2.774   0.442
 1518SOL    HW2 5454   0.325   2.632   0.460
 1519SOL     OW 5455   6.744   4.830   1.995
 1519SOL    HW1 5456   6.793   4.900   1.942
 1519SOL    HW2 5457   6.769   4.838   2.091
 1520SOL     OW 5458   0.562   4.290   1.663
 1520SOL    HW1 5459   0.484   4.333   1.708
 1520SOL    HW2 5460   0.539   4.195   1.641
 1521SOL     OW 5461   1.868   4.107   6.457
 1521SOL    HW1 5462   1.956   4.080   6.496
 1521SOL    HW2 5463   1.795   4.053   6.499
 1522SOL     OW 5464   5.553   5.995   4.921
 1522SOL    HW1 5465   5.548   6.005   5.021
 1522SOL    HW2 5466   5.642   5.959   4.896
 1523SOL     OW 5467   4.638   5.829   0.120
 1523SOL    HW1 5468   4.605   5.841   0.026
 1523SOL    HW2 5469   4.561   5.825   0.183
 1524SOL     OW 5470   2.369   1.567   2.732
 1524SOL    HW1 5471   2.379   1.647   2.791
 1524SOL    HW2 5472   2.438   1.571   2.659
 1525SOL     OW 5473   6.651   3.719   0.558
 1525SOL    HW1 5474   6.646   3.798   0.498
 1525SOL    HW2 5475   6.743   3.680   0.554
 1526SOL     OW 5476   6.960   0.996   6.726
 1526SOL    HW1 5477   6.871   1.035   6.749
 1526SOL    HW2 5478   6.978   0.916   6.784
 1527SOL     OW 5479   4.112   0.974   4.971
 1527SOL    HW1 5480   4.192   0.915   4.972
 1527SOL    HW2 5481   4.123   1.047   5.039
 1528SOL     OW 5482   4.036   4.897   2.685
 1528SOL    HW1 5483   4.110   4.908   2.751
 1528SOL    HW2 5484   4.065   4.833   2.613
 1529SOL     OW 5485   4.317   0.088   0.456
 1529SOL    HW1 5486   4.345   0.044   0.370
 1529SOL    HW2 5487   4.299   0.185   0.439
 1530SOL     OW 5488   3.865   2.136   2.289
 1530SOL    HW1 5489   3.896   2.169   2.200
 1530SOL    HW2 5490   3.781   2.083   2.277
 1531SOL     OW 5491   4.570   6.774   6.108
 1531SOL    HW1 5492   4.519   6.845   6.157
 1531SOL    HW2 5493   4.650   6.815   6.065
 1532SOL     OW 5494   3.271   3.590   6.484
 1532SOL    HW1 5495   3.260   3.491   6.474
 1532SOL    HW2 5496   3.349   3.620   6.430
 1533SOL     OW 5497   5.926   4.629   6.325
 1533SOL    HW1 5498   5.977   4.568   6.385
 1533SOL    HW2 5499   5.973   4.717   6.319
 1534SOL     OW 5500   2.920   4.712   6.941
 1534SOL    HW1 5501   2.873   4.786   6.893
 1534SOL    HW2 5502   2.873   4.626   6.923
 1535SOL     OW 5503   5.192   6.556   4.661
 1535SOL    HW1 5504   5.207   6.601   4.573
 1535SOL    HW2 5505   5.161   6.462   4.645
 1536SOL     OW 5506   3.659   4.107   5.839
 1536SOL    HW1 5507   3.684   4.122   5.744
 1536SOL    HW2 5508   3.559   4.101   5.846
 1537SOL     OW 5509   4.718   6.167   3.651
 1537SOL    HW1 5510   4.633   6.150   3.700
 1537SOL    HW2 5511   4.789   6.107   3.686
 1538SOL     OW 5512   3.291   6.613   6.977
 1538SOL    HW1 5513   3.362   6.584   6.913
 1538SOL    HW2 5514   3.279   6.543   0.026
 1539SOL     OW 5515   4.857   3.834   1.402
 1539SOL    HW1 5516   4.810   3.904   1.455
 1539SOL    HW2 5517   4.944   3.812   1.445
 1540SOL     OW 5518   1.088   5.751   5.594
 1540SOL    HW1 5519   1.077   5.744   5.495
 1540SOL    HW2 5520   1.010   5.708   5.640
 1541SOL     OW 5521   3.628   2.896   4.241
 1541SOL    HW1 5522   3.714   2.936   4.273
 1541SOL    HW2 5523   3.628   2.894   4.141
 1542SOL     OW 5524   6.421   0.179   2.723
 1542SOL    HW1 5525   6.325   0.200   2.744
 1542SOL    HW2 5526   6.445   0.091   2.763
 1543SOL     OW 5527   3.196   5.280   5.299
 1543SOL    HW1 5528   3.160   5.309   5.388
 1543SOL    HW2 5529   3.296   5.280   5.303
 1544SOL     OW 5530   3.082   3.130   2.147
 1544SOL    HW1 5531   3.125   3.040   2.157
 1544SOL    HW2 5532   3.039   3.138   2.057
 1545SOL     OW 5533   5.468   0.486   2.974
 1545SOL    HW1 5534   5.540   0.419   2.956
 1545SOL    HW2 5535   5.409   0.494   2.893
 1546SOL     OW 5536   3.849   0.255   5.724
 1546SOL    HW1 5537   3.900   0.267   5.639
 1546SOL    HW2 5538   3.852   0.159   5.751
 1547SOL     OW 5539   1.759   3.901   2.742
 1547SOL    HW1 5540   1.663   3.874   2.735
 1547SOL    HW2 5541   1.765   3.996   2.772
 1548SOL     OW 5542   5.728   3.586   5.380
 1548SOL    HW1 5543   5.667   3.597   5.301
 1548SOL    HW2 5544   5.673   3.584   5.464
 1549SOL     OW 5545   4.483   1.417   2.087
 1549SOL    HW1 5546   4.534   1.455   2.164
 1549SOL    HW2 5547   4.391   1.455   2.086
 1550SOL     OW 5548   3.143   3.600   0.187
 1550SOL    HW1 5549   3.117   3.537   0.114
 1550SOL    HW2 5550   3.150   3.550   0.273
 1551SOL     OW 5551   2.603   3.961   6.319
 1551SOL    HW1 5552   2.521   3.914   6.352
 1551SOL    HW2 5553   2.617   4.045   6.372
 1552SOL     OW 5554   1.037   6.139   0.528
 1552SOL    HW1 5555   1.003   6.206   0.463
 1552SOL    HW2 5556   1.049   6.182   0.618
 1553SOL     OW 5557   0.456   2.187   5.963
 1553SOL    HW1 5558   0.451   2.092   5.995
 1553SOL    HW2 5559   0.426   2.249   6.035
 1554SOL     OW 5560   4.101   2.265   2.880
 1554SOL    HW1 5561   4.157   2.302   2.807
 1554SOL    HW2 5562   4.021   2.219   2.841
 1555SOL     OW 5563   4.750   2.439   6.751
 1555SOL    HW1 5564   4.678   2.382   6.711
 1555SOL    HW2 5565   4.766   2.409   6.846
 1556SOL     OW 5566   3.048   1.388   0.325
 1556SOL    HW1 5567   3.043   1.307   0.266
 1556SOL    HW2 5568   2.973   1.385   0.392
 1557SOL     OW 5569   2.506   1.866   5.710
 1557SOL    HW1 5570   2.425   1.924   5.698
 1557SOL    HW2 5571   2.491   1.803   5.785
 1558SOL     OW 5572   5.534   0.705   4.710
 1558SOL    HW1 5573   5.511   0.651   4.791
 1558SOL    HW2 5574   5.478   0.788   4.709
 1559SOL     OW 5575   0.842   2.643   6.890
 1559SOL    HW1 5576   0.864   2.571   6.824
 1559SOL    HW2 5577   0.770   2.702   6.852
 1560SOL     OW 5578   0.455   1.099   5.794
 1560SOL    HW1 5579   0.371   1.116   5.743
 1560SOL    HW2 5580   0.445   1.015   5.848
 1561SOL     OW 5581   6.662   6.408   4.160
 1561SOL    HW1 5582   6.661   6.504   4.134
 1561SOL    HW2 5583   6.754   6.382   4.189
 1562SOL     OW 5584   4.021   5.861   2.881
 1562SOL    HW1 5585   3.957   5.857   2.958
 1562SOL    HW2 5586   4.098   5.799   2.898
 1563SOL     OW 5587   1.946   0.305   5.571
 1563SOL    HW1 5588   2.024   0.309   5.633
 1563SOL    HW2 5589   1.863   0.283   5.622
 1564SOL     OW 5590   1.480   2.725   3.206
 1564SOL    HW1 5591   1.429   2.640   3.189
 1564SOL    HW2 5592   1.455   2.792   3.137
 1565SOL     OW 5593   4.400   4.670   4.281
 1565SOL    HW1 5594   4.399   4.628   4.190
 1565SOL    HW2 5595   4.433   4.603   4.348
 1566SOL     OW 5596   6.132   4.835   2.870
 1566SOL    HW1 5597   6.093   4.759   2.816
 1566SOL    HW2 5598   6.061   4.873   2.929
 1567SOL     OW 5599   6.282   6.056   0.933
 1567SOL    HW1 5600   6.199   6.075   0.881
 1567SOL    HW2 5601   6.299   6.130   0.998
 1568SOL     OW 5602   1.611   6.521   0.273
 1568SOL    HW1 5603   1.580   6.427   0.283
 1568SOL    HW2 5604   1.688   6.538   0.335
 1569SOL     OW 5605   4.230   6.294   3.558
 1569SOL    HW1 5606   4.188   6.263   3.473
 1569SOL    HW2 5607   4.293   6.369   3.538
 1570SOL     OW 5608   2.144   0.504   0.734
 1570SOL    HW1 5609   2.108   0.411   0.739
 1570SOL    HW2 5610   2.140   0.546   0.825
 1571SOL     OW 5611   5.297   2.277   1.268
 1571SOL    HW1 5612   5.342   2.231   1.191
 1571SOL    HW2 5613   5.303   2.218   1.349
 1572SOL     OW 5614   0.848   6.560   1.173
 1572SOL    HW1 5615   0.859   6.651   1.214
 1572SOL    HW2 5616   0.759   6.556   1.128
 1573SOL     OW 5617   5.367   3.267   1.882
 1573SOL    HW1 5618   5.312   3.289   1.962
 1573SOL    HW2 5619   5.415   3.349   1.850
 1574SOL     OW 5620   6.660   1.321   1.749
 1574SOL    HW1 5621   6.658   1.250   1.819
 1574SOL    HW2 5622   6.733   1.301   1.683
 1575SOL     OW 5623   4.197   1.196   0.362
 1575SOL    HW1 5624   4.180   1.288   0.327
 1575SOL    HW2 5625   4.293   1.172   0.346
 1576SOL     OW 5626   1.345   6.805   3.492
 1576SOL    HW1 5627   1.291   6.832   3.412
 1576SOL    HW2 5628   1.442   6.818   3.473
 1577SOL     OW 5629   3.122   1.322   4.543
 1577SOL    HW1 5630   3.172   1.306   4.458
 1577SOL    HW2 5631   3.072   1.409   4.537
 1578SOL     OW 5632   6.325   2.829   6.184
 1578SOL    HW1 5633   6.265   2.784   6.118
 1578SOL    HW2 5634   6.279   2.832   6.273
 1579SOL     OW 5635   0.092   1.680   2.648
 1579SOL    HW1 5636   0.058   1.593   2.683
 1579SOL    HW2 5637   0.182   1.699   2.687
 1580SOL     OW 5638   2.938   3.992   4.998
 1580SOL    HW1 5639   2.954   4.081   4.953
 1580SOL    HW2 5640   2.925   3.922   4.928
 1581SOL     OW 5641   0.223   3.773   5.172
 1581SOL    HW1 5642   0.184   3.785   5.080
 1581SOL    HW2 5643   0.274   3.855   5.198
 1582SOL     OW 5644   1.030   7.002   4.469
 1582SOL    HW1 5645   1.000   6.909   4.487
 1582SOL    HW2 5646   1.024   7.021   4.371
 1583SOL     OW 5647   1.060   4.752   3.483
 1583SOL    HW1 5648   1.134   4.793   3.537
 1583SOL    HW2 5649   1.084   4.755   3.386
 1584SOL     OW 5650   1.280   6.818   5.259
 1584SOL    HW1 5651   1.322   6.800   5.348
 1584SOL    HW2 5652   1.203   6.755   5.245
 1585SOL     OW 5653   6.286   1.864   3.463
 1585SOL    HW1 5654   6.327   1.850   3.373
 1585SOL    HW2 5655   6.290   1.779   3.515
 1586SOL     OW 5656   3.652   5.086   1.476
 1586SOL    HW1 5657   3.560   5.092   1.435
 1586SOL    HW2 5658   3.661   4.998   1.523
 1587SOL     OW 5659   2.733   6.125   6.412
 1587SOL    HW1 5660   2.793   6.066   6.466
 1587SOL    HW2 5661   2.729   6.216   6.454
 1588SOL     OW 5662   4.813   1.606   3.309
 1588SOL    HW1 5663   4.811   1.514   3.347
 1588SOL    HW2 5664   4.878   1.662   3.360
 1589SOL     OW 5665   5.950   4.198   1.673
 1589SOL    HW1 5666   6.028   4.254   1.702
 1589SOL    HW2 5667   5.926   4.221   1.579
 1590SOL     OW 5668   2.727   5.654   6.781
 1590SOL    HW1 5669   2.720   5.684   6.876
 1590SOL    HW2 5670   2.823   5.654   6.754
 1591SOL     OW 5671   7.013   5.137   2.574
 1591SOL    HW1 5672   0.029   5.173   2.660
 1591SOL    HW2 5673   0.012   5.201   2.500
 1592SOL     OW 5674   2.301   4.383   0.592
 1592SOL    HW1 5675   2.288   4.374   0.493
 1592SOL    HW2 5676   2.343   4.299   0.628
 1593SOL     OW 5677   1.042   6.255   4.358
 1593SOL    HW1 5678   1.008   6.162   4.371
 1593SOL    HW2 5679   1.039   6.278   4.260
 1594SOL     OW 5680   6.728   6.101   2.637
 1594SOL    HW1 5681   6.657   6.162   2.601
 1594SOL    HW2 5682   6.741   6.119   2.735
 1595SOL     OW 5683   1.055   5.309   6.762
 1595SOL    HW1 5684   1.125   5.238   6.748
 1595SOL    HW2 5685   1.080   5.365   6.841
 1596SOL     OW 5686   0.470   2.519   4.493
 1596SOL    HW1 5687   0.450   2.599   4.550
 1596SOL    HW2 5688   0.551   2.536   4.438
 1597SOL     OW 5689   1.906   6.500   6.837
 1597SOL    HW1 5690   1.852   6.500   6.753
 1597SOL    HW2 5691   2.003   6.511   6.815
 1598SOL     OW 5692   0.911   3.662   6.925
 1598SOL    HW1 5693   0.998   3.613   6.923
 1598SOL    HW2 5694   0.836   3.596   6.931
 1599SOL     OW 5695   4.198   4.189   5.875
 1599SOL    HW1 5696   4.210   4.091   5.892
 1599SOL    HW2 5697   4.100   4.211   5.877
 1600SOL     OW 5698   5.048   1.368   5.040
 1600SOL    HW1 5699   4.975   1.414   5.091
 1600SOL    HW2 5700   5.057   1.410   4.949
 1601SOL     OW 5701   0.069   4.980   4.612
 1601SOL    HW1 5702   0.159   5.015   4.585
 1601SOL    HW2 5703   7.020   5.050   4.595
 1602SOL     OW 5704   2.287   5.457   4.047
 1602SOL    HW1 5705   2.319   5.481   3.955
 1602SOL    HW2 5706   2.363   5.464   4.112
 1603SOL     OW 5707   6.483   5.922   2.864
 1603SOL    HW1 5708   6.421   5.936   2.942
 1603SOL    HW2 5709   6.445   5.967   2.784
 1604SOL     OW 5710   6.527   4.385   0.227
 1604SOL    HW1 5711   6.462   4.373   0.152
 1604SOL    HW2 5712   6.477   4.382   0.314
 1605SOL     OW 5713   6.548   6.523   1.865
 1605SOL    HW1 5714   6.633   6.531   1.813
 1605SOL    HW2 5715   6.552   6.442   1.923
 1606SOL     OW 5716   3.415   0.601   5.371
 1606SOL    HW1 5717   3.501   0.635   5.410
 1606SOL    HW2 5718   3.431   0.572   5.276
 1607SOL     OW 5719   3.675   2.343   0.530
 1607SOL    HW1 5720   3.758   2.392   0.505
 1607SOL    HW2 5721   3.619   2.329   0.449
 1608SOL     OW 5722   1.085   6.989   4.190
 1608SOL    HW1 5723   1.037   0.050   4.160
 1608SOL    HW2 5724   1.036   6.908   4.161
 1609SOL     OW 5725   4.691   0.188   0.743
 1609SOL    HW1 5726   4.775   0.200   0.689
 1609SOL    HW2 5727   4.612   0.187   0.682
 1610SOL     OW 5728   5.549   4.255   5.906
 1610SOL    HW1 5729   5.470   4.316   5.901
 1610SOL    HW2 5730   5.546   4.204   5.992
 1611SOL     OW 5731   3.042   3.860   1.563
 1611SOL    HW1 5732   3.060   3.773   1.608
 1611SOL    HW2 5733   2.945   3.882   1.570
 1612SOL     OW 5734   2.641   1.438   4.990
 1612SOL    HW1 5735   2.689   1.386   4.919
 1612SOL    HW2 5736   2.695   1.437   5.074
 1613SOL     OW 5737   1.752   5.382   1.612
 1613SOL    HW1 5738   1.655   5.386   1.637
 1613SOL    HW2 5739   1.808   5.414   1.688
 1614SOL     OW 5740   6.379   3.321   0.401
 1614SOL    HW1 5741   6.295   3.373   0.387
 1614SOL    HW2 5742   6.458   3.381   0.392
 1615SOL     OW 5743   6.420   5.140   0.923
 1615SOL    HW1 5744   6.369   5.066   0.879
 1615SOL    HW2 5745   6.491   5.173   0.861
 1616SOL     OW 5746   3.473   1.762   4.487
 1616SOL    HW1 5747   3.481   1.735   4.583
 1616SOL    HW2 5748   3.388   1.813   4.473
 1617SOL     OW 5749   5.693   0.563   1.894
 1617SOL    HW1 5750   5.674   0.658   1.919
 1617SOL    HW2 5751   5.609   0.520   1.861
 1618SOL     OW 5752   1.419   4.039   1.547
 1618SOL    HW1 5753   1.460   3.998   1.629
 1618SOL    HW2 5754   1.320   4.046   1.560
 1619SOL     OW 5755   0.977   2.501   2.995
 1619SOL    HW1 5756   0.986   2.549   3.082
 1619SOL    HW2 5757   1.030   2.417   2.997
 1620SOL     OW 5758   2.555   5.338   1.283
 1620SOL    HW1 5759   2.589   5.245   1.293
 1620SOL    HW2 5760   2.608   5.385   1.212
 1621SOL     OW 5761   0.611   1.371   0.410
 1621SOL    HW1 5762   0.684   1.313   0.446
 1621SOL    HW2 5763   0.615   1.372   0.310
 1622SOL     OW 5764   0.440   2.376   4.821
 1622SOL    HW1 5765   0.397   2.297   4.777
 1622SOL    HW2 5766   0.376   2.418   4.885
 1623SOL     OW 5767   2.408   3.168   5.636
 1623SOL    HW1 5768   2.413   3.201   5.542
 1623SOL    HW2 5769   2.394   3.245   5.698
 1624SOL     OW 5770   2.719   1.174   5.161
 1624SOL    HW1 5771   2.745   1.262   5.202
 1624SOL    HW2 5772   2.799   1.114   5.158
 1625SOL     OW 5773   1.465   5.397   1.616
 1625SOL    HW1 5774   1.433   5.486   1.648
 1625SOL    HW2 5775   1.390   5.331   1.623
 1626SOL     OW 5776   3.410   2.363   6.229
 1626SOL    HW1 5777   3.317   2.396   6.248
 1626SOL    HW2 5778   3.447   2.411   6.149
 1627SOL     OW 5779   6.505   2.923   3.608
 1627SOL    HW1 5780   6.526   2.841   3.555
 1627SOL    HW2 5781   6.563   2.926   3.690
 1628SOL     OW 5782   4.386   4.953   0.177
 1628SOL    HW1 5783   4.435   5.021   0.123
 1628SOL    HW2 5784   4.289   4.979   0.184
 1629SOL     OW 5785   2.735   1.112   4.099
 1629SOL    HW1 5786   2.663   1.043   4.089
 1629SOL    HW2 5787   2.777   1.130   4.009
 1630SOL     OW 5788   1.646   6.250   6.138
 1630SOL    HW1 5789   1.676   6.344   6.120
 1630SOL    HW2 5790   1.612   6.243   6.232
 1631SOL     OW 5791   0.211   1.836   6.200
 1631SOL    HW1 5792   0.128   1.893   6.200
 1631SOL    HW2 5793   0.184   1.739   6.206
 1632SOL     OW 5794   0.196   1.831   0.102
 1632SOL    HW1 5795   0.248   1.796   0.023
 1632SOL    HW2 5796   0.260   1.850   0.177
 1633SOL     OW 5797   4.882   2.518   3.931
 1633SOL    HW1 5798   4.819   2.585   3.969
 1633SOL    HW2 5799   4.895   2.443   3.996
 1634SOL     OW 5800   3.673   4.724   6.817
 1634SOL    HW1 5801   3.619   4.737   6.900
 1634SOL    HW2 5802   3.763   4.766   6.829
 1635SOL     OW 5803   6.879   5.562   5.625
 1635SOL    HW1 5804   6.922   5.624   5.559
 1635SOL    HW2 5805   6.844   5.481   5.578
 1636SOL     OW 5806   2.751   4.135   1.391
 1636SOL    HW1 5807   2.741   4.080   1.474
 1636SOL    HW2 5808   2.702   4.091   1.316
 1637SOL     OW 5809   0.191   0.274   2.953
 1637SOL    HW1 5810   0.291   0.271   2.946
 1637SOL    HW2 5811   0.151   0.201   2.897
 1638SOL     OW 5812   0.237   4.018   4.083
 1638SOL    HW1 5813   0.325   3.971   4.091
 1638SOL    HW2 5814   0.227   4.084   4.157
 1639SOL     OW 5815   4.207   0.158   2.977
 1639SOL    HW1 5816   4.184   0.083   2.915
 1639SOL    HW2 5817   4.203   0.127   3.071
 1640SOL     OW 5818   5.755   1.516   0.864
 1640SOL    HW1 5819   5.816   1.452   0.815
 1640SOL    HW2 5820   5.807   1.562   0.936
 1641SOL     OW 5821   5.444   2.519   4.308
 1641SOL    HW1 5822   5.444   2.421   4.292
 1641SOL    HW2 5823   5.442   2.567   4.221
 1642SOL     OW 5824   5.832   3.446   6.574
 1642SOL    HW1 5825   5.879   3.403   6.497
 1642SOL    HW2 5826   5.762   3.383   6.609
 1643SOL     OW 5827   3.047   4.889   4.172
 1643SOL    HW1 5828   2.960   4.854   4.136
 1643SOL    HW2 5829   3.050   4.875   4.271
 1644SOL     OW 5830   0.574   3.049   1.365
 1644SOL    HW1 5831   0.615   3.019   1.278
 1644SOL    HW2 5832   0.578   2.973   1.430
 1645SOL     OW 5833   2.410   5.952   5.865
 1645SOL    HW1 5834   2.445   5.934   5.956
 1645SOL    HW2 5835   2.486   5.973   5.803
 1646SOL     OW 5836   2.442   6.118   0.686
 1646SOL    HW1 5837   2.539   6.095   0.690
 1646SOL    HW2 5838   2.393   6.066   0.757
 1647SOL     OW 5839   6.243   2.448   4.614
 1647SOL    HW1 5840   6.282   2.369   4.567
 1647SOL    HW2 5841   6.152   2.467   4.577
 1648SOL     OW 5842   6.039   6.157   0.863
 1648SOL    HW1 5843   6.000   6.134   0.952
 1648SOL    HW2 5844   6.021   6.253   0.843
 1649SOL     OW 5845   4.075   0.017   4.457
 1649SOL    HW1 5846   4.099   0.010   4.360
 1649SOL    HW2 5847   4.126   6.970   4.509
 1650SOL     OW 5848   1.717   6.855   5.086
 1650SOL    HW1 5849   1.658   6.865   5.005
 1650SOL    HW2 5850   1.697   6.769   5.132
 1651SOL     OW 5851   0.536   1.015   1.919
 1651SOL    HW1 5852   0.557   1.044   2.012
 1651SOL    HW2 5853   0.455   1.063   1.886
 1652SOL     OW 5854   1.793   3.313   1.694
 1652SOL    HW1 5855   1.820   3.340   1.602
 1652SOL    HW2 5856   1.872   3.317   1.755
 1653SOL     OW 5857   0.872   6.992   1.016
 1653SOL    HW1 5858   0.873   0.001   1.111
 1653SOL    HW2 5859   0.778   6.994   0.982
 1654SOL     OW 5860   6.652   3.205   2.288
 1654SOL    HW1 5861   6.653   3.269   2.211
 1654SOL    HW2 5862   6.713   3.239   2.360
 1655SOL     OW 5863   6.048   2.426   4.895
 1655SOL    HW1 5864   6.009   2.514   4.865
 1655SOL    HW2 5865   6.085   2.378   4.816
 1656SOL     OW 5866   1.902   4.667   2.709
 1656SOL    HW1 5867   1.986   4.718   2.723
 1656SOL    HW2 5868   1.864   4.688   2.619
 1657SOL     OW 5869   6.741   0.835   4.286
 1657SOL    HW1 5870   6.821   0.860   4.341
 1657SOL    HW2 5871   6.753   0.872   4.194
 1658SOL     OW 5872   0.932   0.153   2.109
 1658SOL    HW1 5873   0.959   0.058   2.090
 1658SOL    HW2 5874   0.918   0.201   2.022
 1659SOL     OW 5875   3.735   1.319   5.285
 1659SOL    HW1 5876   3.636   1.303   5.296
 1659SOL    HW2 5877   3.775   1.343   5.374
 1660SOL     OW 5878   1.089   5.038   4.044
 1660SOL    HW1 5879   1.063   5.130   4.013
 1660SOL    HW2 5880   1.188   5.036   4.062
 1661SOL     OW 5881   3.293   1.469   2.014
 1661SOL    HW1 5882   3.381   1.500   2.050
 1661SOL    HW2 5883   3.219   1.514   2.064
 1662SOL     OW 5884   6.720   0.949   4.033
 1662SOL    HW1 5885   6.620   0.951   4.033
 1662SOL    HW2 5886   6.755   1.034   3.993
 1663SOL     OW 5887   3.116   0.881   2.981
 1663SOL    HW1 5888   3.156   0.859   2.891
 1663SOL    HW2 5889   3.135   0.807   3.045
 1664SOL     OW 5890   2.383   6.933   3.948
 1664SOL    HW1 5891   2.453   6.862   3.956
 1664SOL    HW2 5892   2.305   6.895   3.898
 1665SOL     OW 5893   0.531   0.944   2.735
 1665SOL    HW1 5894   0.484   0.959   2.649
 1665SOL    HW2 5895   0.529   0.847   2.759
 1666SOL     OW 5896   5.424   3.252   0.525
 1666SOL    HW1 5897   5.431   3.344   0.486
 1666SOL    HW2 5898   5.515   3.214   0.538
 1667SOL     OW 5899   6.305   0.004   1.385
 1667SOL    HW1 5900   6.380   0.002   1.450
 1667SOL    HW2 5901   6.340   0.025   1.294
 1668SOL     OW 5902   5.162   5.691   5.647
 1668SOL    HW1 5903   5.246   5.675   5.595
 1668SOL    HW2 5904   5.155   5.788   5.670
 1669SOL     OW 5905   6.361   6.326   6.724
 1669SOL    HW1 5906   6.367   6.363   6.631
 1669SOL    HW2 5907   6.447   6.343   6.772
 1670SOL     OW 5908   6.854   4.902   6.396
 1670SOL    HW1 5909   6.800   4.828   6.356
 1670SOL    HW2 5910   6.809   4.989   6.380
 1671SOL     OW 5911   4.368   2.959   0.814
 1671SOL    HW1 5912   4.419   2.989   0.895
 1671SOL    HW2 5913   4.407   3.003   0.733
 1672SOL     OW 5914   1.910   3.679   1.863
 1672SOL    HW1 5915   1.819   3.719   1.850
 1672SOL    HW2 5916   1.957   3.726   1.938
 1673SOL     OW 5917   6.699   2.060   4.391
 1673SOL    HW1 5918   6.709   2.102   4.301
 1673SOL    HW2 5919   6.635   1.983   4.385
 1674SOL     OW 5920   0.934   3.930   2.488
 1674SOL    HW1 5921   0.935   4.007   2.423
 1674SOL    HW2 5922   0.961   3.847   2.440
 1675SOL     OW 5923   4.139   0.310   5.629
 1675SOL    HW1 5924   4.222   0.351   5.669
 1675SOL    HW2 5925   4.112   0.363   5.549
 1676SOL     OW 5926   2.669   1.498   2.308
 1676SOL    HW1 5927   2.683   1.592   2.276
 1676SOL    HW2 5928   2.689   1.435   2.233
 1677SOL     OW 5929   3.973   3.142   5.317
 1677SOL    HW1 5930   3.951   3.050   5.286
 1677SOL    HW2 5931   3.933   3.209   5.254
 1678SOL     OW 5932   4.827   4.464   5.044
 1678SOL    HW1 5933   4.756   4.441   4.978
 1678SOL    HW2 5934   4.884   4.384   5.061
 1679SOL     OW 5935   2.172   3.243   5.136
 1679SOL    HW1 5936   2.131   3.280   5.053
 1679SOL    HW2 5937   2.231   3.166   5.112
 1680SOL     OW 5938   0.613   2.228   4.287
 1680SOL    HW1 5939   0.573   2.214   4.377
 1680SOL    HW2 5940   0.700   2.178   4.281
 1681SOL     OW 5941   6.140   5.984   1.189
 1681SOL    HW1 5942   6.157   6.044   1.268
 1681SOL    HW2 5943   6.222   5.980   1.132
 1682SOL     OW 5944   0.124   1.901   4.899
 1682SOL    HW1 5945   0.194   1.836   4.871
 1682SOL    HW2 5946   0.033   1.863   4.882
 1683SOL     OW 5947   3.880   5.701   1.134
 1683SOL    HW1 5948   3.926   5.788   1.152
 1683SOL    HW2 5949   3.917   5.631   1.195
 1684SOL     OW 5950   0.809   5.863   2.910
 1684SOL    HW1 5951   0.760   5.950   2.909
 1684SOL    HW2 5952   0.905   5.878   2.933
 1685SOL     OW 5953   2.617   1.200   6.283
 1685SOL    HW1 5954   2.577   1.291   6.274
 1685SOL    HW2 5955   2.545   1.131   6.280
 1686SOL     OW 5956   2.365   4.877   4.930
 1686SOL    HW1 5957   2.436   4.829   4.981
 1686SOL    HW2 5958   2.322   4.945   4.989
 1687SOL     OW 5959   2.521   3.108   1.415
 1687SOL    HW1 5960   2.508   3.188   1.357
 1687SOL    HW2 5961   2.605   3.061   1.389
 1688SOL     OW 5962   1.712   2.742   3.904
 1688SOL    HW1 5963   1.727   2.841   3.916
 1688SOL    HW2 5964   1.625   2.727   3.857
 1689SOL     OW 5965   4.789   0.736   2.314
 1689SOL    HW1 5966   4.825   0.774   2.400
 1689SOL    HW2 5967   4.732   0.657   2.334
 1690SOL     OW 5968   1.283   3.230   3.563
 1690SOL    HW1 5969   1.380   3.208   3.552
 1690SOL    HW2 5970   1.269   3.328   3.551
 1691SOL     OW 5971   5.405   4.190   3.428
 1691SOL    HW1 5972   5.392   4.284   3.458
 1691SOL    HW2 5973   5.465   4.188   3.348
 1692SOL     OW 5974   5.914   0.387   1.753
 1692SOL    HW1 5975   5.914   0.327   1.833
 1692SOL    HW2 5976   5.842   0.456   1.763
 1693SOL     OW 5977   0.250   2.132   2.548
 1693SOL    HW1 5978   0.259   2.198   2.473
 1693SOL    HW2 5979   0.196   2.054   2.518
 1694SOL     OW 5980   5.193   0.496   3.668
 1694SOL    HW1 5981   5.130   0.441   3.614
 1694SOL    HW2 5982   5.260   0.437   3.712
 1695SOL     OW 5983   2.697   1.520   5.742
 1695SOL    HW1 5984   2.643   1.487   5.820
 1695SOL    HW2 5985   2.714   1.618   5.753
 1696SOL     OW 5986   4.873   4.488   0.814
 1696SOL    HW1 5987   4.796   4.508   0.874
 1696SOL    HW2 5988   4.846   4.419   0.747
 1697SOL     OW 5989   5.579   5.806   2.039
 1697SOL    HW1 5990   5.533   5.739   2.097
 1697SOL    HW2 5991   5.644   5.859   2.095
 1698SOL     OW 5992   5.193   1.200   0.696
 1698SOL    HW1 5993   5.123   1.129   0.688
 1698SOL    HW2 5994   5.281   1.157   0.715
 1699SOL     OW 5995   2.851   1.564   1.185
 1699SOL    HW1 5996   2.941   1.543   1.225
 1699SOL    HW2 5997   2.779   1.539   1.250
 1700SOL     OW 5998   6.252   2.395   3.499
 1700SOL    HW1 5999   6.334   2.379   3.445
 1700SOL    HW2 6000   6.277   2.428   3.590
 1701SOL     OW 6001   5.615   3.431   5.958
 1701SOL    HW1 6002   5.648   3.472   6.043
 1701SOL    HW2 6003   5.523   3.395   5.972
 1702SOL     OW 6004   6.875   2.798   0.866
 1702SOL    HW1 6005   6.962   2.755   0.891
 1702SOL    HW2 6006   6.867   2.800   0.766
 1703SOL     OW 6007   4.011   3.341   2.810
 1703SOL    HW1 6008   4.007   3.263   2.748
 1703SOL    HW2 6009   4.053   3.314   2.897
 1704SOL     OW 6010   0.639   1.128   2.149
 1704SOL    HW1 6011   0.727   1.090   2.178
 1704SOL    HW2 6012   0.603   1.187   2.221
 1705SOL     OW 6013   3.758   2.485   1.444
 1705SOL    HW1 6014   3.829   2.481   1.373
 1705SOL    HW2 6015   3.669   2.467   1.403
 1706SOL     OW 6016   4.935   0.789   1.662
 1706SOL    HW1 6017   4.999   0.743   1.601
 1706SOL    HW2 6018   4.842   0.755   1.645
 1707SOL     OW 6019   4.555   2.226   2.413
 1707SOL    HW1 6020   4.533   2.219   2.315
 1707SOL    HW2 6021   4.585   2.136   2.446
 1708SOL     OW 6022   4.669   5.191   2.450
 1708SOL    HW1 6023   4.718   5.164   2.368
 1708SOL    HW2 6024   4.731   5.188   2.529
 1709SOL     OW 6025   2.437   5.775   1.551
 1709SOL    HW1 6026   2.518   5.816   1.593
 1709SOL    HW2 6027   2.465   5.701   1.490
 1710SOL     OW 6028   5.644   4.739   3.562
 1710SOL    HW1 6029   5.601   4.745   3.651
 1710SOL    HW2 6030   5.578   4.707   3.494
 1711SOL     OW 6031   1.303   4.391   4.737
 1711SOL    HW1 6032   1.331   4.411   4.643
 1711SOL    HW2 6033   1.241   4.462   4.770
 1712SOL     OW 6034   0.756   3.146   6.366
 1712SOL    HW1 6035   0.846   3.170   6.330
 1712SOL    HW2 6036   0.739   3.048   6.353
 1713SOL     OW 6037   3.625   2.408   1.188
 1713SOL    HW1 6038   3.573   2.365   1.114
 1713SOL    HW2 6039   3.691   2.472   1.149
 1714SOL     OW 6040   4.792   1.620   5.790
 1714SOL    HW1 6041   4.717   1.567   5.829
 1714SOL    HW2 6042   4.781   1.716   5.815
 1715SOL     OW 6043   6.815   3.691   2.300
 1715SOL    HW1 6044   6.752   3.663   2.228
 1715SOL    HW2 6045   6.871   3.613   2.329
 1716SOL     OW 6046   4.614   6.896   2.591
 1716SOL    HW1 6047   4.650   6.973   2.644
 1716SOL    HW2 6048   4.636   6.810   2.637
 1717SOL     OW 6049   2.099   6.657   6.091
 1717SOL    HW1 6050   2.139   6.629   6.178
 1717SOL    HW2 6051   2.001   6.675   6.104
 1718SOL     OW 6052   2.209   2.402   2.221
 1718SOL    HW1 6053   2.224   2.469   2.148
 1718SOL    HW2 6054   2.123   2.354   2.205
 1719SOL     OW 6055   2.382   4.359   1.204
 1719SOL    HW1 6056   2.417   4.274   1.244
 1719SOL    HW2 6057   2.396   4.434   1.268
 1720SOL     OW 6058   0.197   1.642   0.855
 1720SOL    HW1 6059   0.260   1.665   0.780
 1720SOL    HW2 6060   0.245   1.650   0.942
 1721SOL     OW 6061   1.268   6.673   2.869
 1721SOL    HW1 6062   1.353   6.704   2.913
 1721SOL    HW2 6063   1.228   6.748   2.817
 1722SOL     OW 6064   4.760   2.115   4.089
 1722SOL    HW1 6065   4.728   2.043   4.028
 1722SOL    HW2 6066   4.683   2.154   4.139
 1723SOL     OW 6067   6.962   2.551   2.772
 1723SOL    HW1 6068   6.928   2.465   2.808
 1723SOL    HW2 6069   6.910   2.576   2.690
 1724SOL     OW 6070   6.145   1.978   1.022
 1724SOL    HW1 6071   6.085   1.978   1.102
 1724SOL    HW2 6072   6.094   1.949   0.941
 1725SOL     OW 6073   2.313   4.560   6.876
 1725SOL    HW1 6074   2.307   4.639   6.816
 1725SOL    HW2 6075   2.366   4.585   6.958
 1726SOL     OW 6076   5.729   4.182   5.380
 1726SOL    HW1 6077   5.637   4.198   5.416
 1726SOL    HW2 6078   5.723   4.137   5.291
 1727SOL     OW 6079   3.690   3.184   4.555
 1727SOL    HW1 6080   3.631   3.158   4.478
 1727SOL    HW2 6081   3.679   3.281   4.575
 1728SOL     OW 6082   5.932   5.557   4.609
 1728SOL    HW1 6083   5.872   5.494   4.560
 1728SOL    HW2 6084   5.889   5.584   4.695
 1729SOL     OW 6085   2.087   3.916   3.635
 1729SOL    HW1 6086   2.120   3.848   3.569
 1729SOL    HW2 6087   2.133   4.003   3.618
 1730SOL     OW 6088   6.168   6.797   5.207
 1730SOL    HW1 6089   6.174   6.778   5.305
 1730SOL    HW2 6090   6.245   6.854   5.179
 1731SOL     OW 6091   0.270   4.902   1.956
 1731SOL    HW1 6092   0.366   4.925   1.967
 1731SOL    HW2 6093   0.254   4.809   1.988
 1732SOL     OW 6094   2.513   4.318   5.533
 1732SOL    HW1 6095   2.489   4.294   5.439
 1732SOL    HW2 6096   2.551   4.410   5.536
 1733SOL     OW 6097   1.082   3.874   2.767
 1733SOL    HW1 6098   1.152   3.932   2.726
 1733SOL    HW2 6099   0.991   3.907   2.742
 1734SOL     OW 6100   4.874   3.279   1.897
 1734SOL    HW1 6101   4.971   3.276   1.922
 1734SOL    HW2 6102   4.837   3.187   1.900
 1735SOL     OW 6103   5.986   5.840   1.461
 1735SOL    HW1 6104   6.009   5.921   1.514
 1735SOL    HW2 6105   6.069   5.795   1.429
 1736SOL     OW 6106   4.176   2.500   1.166
 1736SOL    HW1 6107   4.170   2.580   1.105
 1736SOL    HW2 6108   4.180   2.531   1.261
 1737SOL     OW 6109   2.976   0.878   4.455
 1737SOL    HW1 6110   2.928   0.864   4.368
 1737SOL    HW2 6111   3.074   0.887   4.437
 1738SOL     OW 6112   1.962   1.644   4.020
 1738SOL    HW1 6113   1.901   1.568   4.046
 1738SOL    HW2 6114   2.006   1.623   3.933
 1739SOL     OW 6115   5.644   2.008   5.649
 1739SOL    HW1 6116   5.610   2.102   5.661
 1739SOL    HW2 6117   5.742   2.011   5.626
 1740SOL     OW 6118   0.484   1.499   6.343
 1740SOL    HW1 6119   0.577   1.535   6.358
 1740SOL    HW2 6120   0.448   1.535   6.257
 1741SOL     OW 6121   2.135   0.546   4.014
 1741SOL    HW1 6122   2.074   0.624   3.999
 1741SOL    HW2 6123   2.185   0.525   3.930
 1742SOL     OW 6124   4.803   6.215   6.055
 1742SOL    HW1 6125   4.721   6.209   6.113
 1742SOL    HW2 6126   4.782   6.266   5.972
 1743SOL     OW 6127   2.200   2.054   2.523
 1743SOL    HW1 6128   2.283   2.029   2.474
 1743SOL    HW2 6129   2.126   2.070   2.458
 1744SOL     OW 6130   0.477   0.413   1.418
 1744SOL    HW1 6131   0.407   0.345   1.397
 1744SOL    HW2 6132   0.551   0.370   1.471
 1745SOL     OW 6133   6.411   0.559   3.477
 1745SOL    HW1 6134   6.365   0.610   3.404
 1745SOL    HW2 6135   6.383   0.463   3.472
 1746SOL     OW 6136   2.415   5.012   5.755
 1746SOL    HW1 6137   2.372   5.082   5.698
 1746SOL    HW2 6138   2.504   5.045   5.788
 1747SOL     OW 6139   5.861   1.054   3.089
 1747SOL    HW1 6140   5.825   1.119   3.157
 1747SOL    HW2 6141   5.878   1.102   3.003
 1748SOL     OW 6142   0.596   0.971   4.095
 1748SOL    HW1 6143   0.621   1.031   4.019
 1748SOL    HW2 6144   0.606   0.875   4.066
 1749SOL     OW 6145   2.680   6.988   5.362
 1749SOL    HW1 6146   2.598   6.972   5.416
 1749SOL    HW2 6147   2.740   6.908   5.368
 1750SOL     OW 6148   6.657   7.006   3.455
 1750SOL    HW1 6149   6.733   0.049   3.442
 1750SOL    HW2 6150   6.608   6.993   3.369
 1751SOL     OW 6151   4.143   5.682   4.574
 1751SOL    HW1 6152   4.067   5.725   4.623
 1751SOL    HW2 6153   4.129   5.583   4.571
 1752SOL     OW 6154   6.974   2.477   2.354
 1752SOL    HW1 6155   6.977   2.440   2.261
 1752SOL    HW2 6156   0.043   2.510   2.379
 1753SOL     OW 6157   0.056   2.507   0.600
 1753SOL    HW1 6158   0.063   2.534   0.504
 1753SOL    HW2 6159   0.013   2.417   0.606
 1754SOL     OW 6160   3.312   3.660   1.360
 1754SOL    HW1 6161   3.382   3.684   1.427
 1754SOL    HW2 6162   3.260   3.741   1.335
 1755SOL     OW 6163   6.032   5.977   2.632
 1755SOL    HW1 6164   5.970   5.918   2.683
 1755SOL    HW2 6165   5.987   6.065   2.615
 1756SOL     OW 6166   3.996   4.168   6.160
 1756SOL    HW1 6167   3.906   4.206   6.183
 1756SOL    HW2 6168   4.000   4.073   6.188
 1757SOL     OW 6169   2.601   5.160   4.917
 1757SOL    HW1 6170   2.571   5.179   4.824
 1757SOL    HW2 6171   2.555   5.222   4.981
 1758SOL     OW 6172   2.830   0.421   3.942
 1758SOL    HW1 6173   2.900   0.447   3.875
 1758SOL    HW2 6174   2.875   0.392   4.027
 1759SOL     OW 6175   1.317   5.229   5.843
 1759SOL    HW1 6176   1.415   5.243   5.862
 1759SOL    HW2 6177   1.280   5.164   5.909
 1760SOL     OW 6178   5.431   2.295   1.763
 1760SOL    HW1 6179   5.382   2.356   1.701
 1760SOL    HW2 6180   5.519   2.337   1.787
 1761SOL     OW 6181   0.131   0.654   0.732
 1761SOL    HW1 6182   0.079   0.641   0.648
 1761SOL    HW2 6183   0.071   0.690   0.803
 1762SOL     OW 6184   6.892   1.862   4.827
 1762SOL    HW1 6185   6.864   1.778   4.873
 1762SOL    HW2 6186   6.881   1.852   4.729
 1763SOL     OW 6187   1.597   3.758   4.033
 1763SOL    HW1 6188   1.626   3.787   4.124
 1763SOL    HW2 6189   1.647   3.810   3.963
 1764SOL     OW 6190   2.297   4.108   2.251
 1764SOL    HW1 6191   2.237   4.182   2.222
 1764SOL    HW2 6192   2.294   4.035   2.183
 1765SOL     OW 6193   3.931   1.809   7.007
 1765SOL    HW1 6194   3.925   1.882   0.055
 1765SOL    HW2 6195   3.842   1.801   6.960
 1766SOL     OW 6196   4.917   3.528   3.380
 1766SOL    HW1 6197   5.016   3.545   3.382
 1766SOL    HW2 6198   4.896   3.445   3.431
 1767SOL     OW 6199   6.439   3.912   3.244
 1767SOL    HW1 6200   6.468   3.817   3.247
 1767SOL    HW2 6201   6.384   3.934   3.324
 1768SOL     OW 6202   3.655   1.199   4.732
 1768SOL    HW1 6203   3.732   1.243   4.687
 1768SOL    HW2 6204   3.596   1.268   4.774
 1769SOL     OW 6205   4.417   2.361   4.890
 1769SOL    HW1 6206   4.355   2.372   4.968
 1769SOL    HW2 6207   4.370   2.313   4.816
 1770SOL     OW 6208   0.264   5.294   4.816
 1770SOL    HW1 6209   0.248   5.285   4.914
 1770SOL    HW2 6210   0.182   5.331   4.771
 1771SOL     OW 6211   2.224   5.022   6.837
 1771SOL    HW1 6212   2.138   5.018   6.887
 1771SOL    HW2 6213   2.259   5.116   6.839
 1772SOL     OW 6214   3.123   6.582   3.698
 1772SOL    HW1 6215   3.205   6.580   3.755
 1772SOL    HW2 6216   3.097   6.677   3.679
 1773SOL     OW 6217   2.796   4.884   5.938
 1773SOL    HW1 6218   2.827   4.971   5.976
 1773SOL    HW2 6219   2.702   4.893   5.907
 1774SOL     OW 6220   4.609   6.918   1.776
 1774SOL    HW1 6221   4.652   6.879   1.695
 1774SOL    HW2 6222   4.543   6.854   1.813
 1775SOL     OW 6223   0.968   4.514   3.935
 1775SOL    HW1 6224   1.027   4.440   3.900
 1775SOL    HW2 6225   0.959   4.504   4.034
 1776SOL     OW 6226   3.344   1.154   4.933
 1776SOL    HW1 6227   3.413   1.085   4.911
 1776SOL    HW2 6228   3.371   1.242   4.895
 1777SOL     OW 6229   3.499   5.380   5.670
 1777SOL    HW1 6230   3.429   5.315   5.640
 1777SOL    HW2 6231   3.530   5.355   5.762
 1778SOL     OW 6232   4.713   2.480   5.849
 1778SOL    HW1 6233   4.668   2.568   5.865
 1778SOL    HW2 6234   4.808   2.485   5.880
 1779SOL     OW 6235   4.348   0.781   4.972
 1779SOL    HW1 6236   4.412   0.740   4.907
 1779SOL    HW2 6237   4.399   0.835   5.039
 1780SOL     OW 6238   2.825   3.542   6.110
 1780SOL    HW1 6239   2.819   3.443   6.125
 1780SOL    HW2 6240   2.870   3.560   6.022
 1781SOL     OW 6241   4.277   5.673   4.017
 1781SOL    HW1 6242   4.337   5.742   4.058
 1781SOL    HW2 6243   4.331   5.613   3.958
 1782SOL     OW 6244   2.789   2.084   2.954
 1782SOL    HW1 6245   2.819   2.066   2.861
 1782SOL    HW2 6246   2.860   2.133   3.003
 1783SOL     OW 6247   1.507   3.936   6.440
 1783SOL    HW1 6248   1.429   3.998   6.438
 1783SOL    HW2 6249   1.511   3.885   6.354
 1784SOL     OW 6250   3.275   1.223   5.204
 1784SOL    HW1 6251   3.190   1.225   5.151
 1784SOL    HW2 6252   3.336   1.154   5.167
 1785SOL     OW 6253   5.897   5.429   3.444
 1785SOL    HW1 6254   5.883   5.482   3.360
 1785SOL    HW2 6255   5.845   5.471   3.518
 1786SOL     OW 6256   1.600   2.497   1.436
 1786SOL    HW1 6257   1.682   2.487   1.493
 1786SOL    HW2 6258   1.595   2.590   1.400
 1787SOL     OW 6259   2.347   0.964   4.661
 1787SOL    HW1 6260   2.300   0.901   4.599
 1787SOL    HW2 6261   2.302   1.053   4.659
 1788SOL     OW 6262   3.036   2.924   6.882
 1788SOL    HW1 6263   2.954   2.871   6.863
 1788SOL    HW2 6264   3.042   2.943   6.981
 1789SOL     OW 6265   6.039   1.915   2.442
 1789SOL    HW1 6266   6.105   1.854   2.398
 1789SOL    HW2 6267   5.992   1.969   2.372
 1790SOL     OW 6268   4.183   6.400   4.100
 1790SOL    HW1 6269   4.201   6.478   4.041
 1790SOL    HW2 6270   4.264   6.342   4.104
 1791SOL     OW 6271   0.133   1.384   3.715
 1791SOL    HW1 6272   0.206   1.330   3.756
 1791SOL    HW2 6273   0.128   1.474   3.759
 1792SOL     OW 6274   0.129   2.379   3.976
 1792SOL    HW1 6275   0.063   2.310   4.006
 1792SOL    HW2 6276   0.204   2.384   4.043
 1793SOL     OW 6277   0.127   6.828   3.623
 1793SOL    HW1 6278   0.037   6.819   3.666
 1793SOL    HW2 6279   0.195   6.854   3.692
 1794SOL     OW 6280   5.631   6.128   6.517
 1794SOL    HW1 6281   5.646   6.122   6.418
 1794SOL    HW2 6282   5.542   6.170   6.534
 1795SOL     OW 6283   7.002   2.971   2.280
 1795SOL    HW1 6284   0.034   3.054   2.263
 1795SOL    HW2 6285   0.006   2.902   2.213
 1796SOL     OW 6286   2.342   0.508   4.269
 1796SOL    HW1 6287   2.388   0.524   4.181
 1796SOL    HW2 6288   2.346   0.591   4.324
 1797SOL     OW 6289   1.243   1.046   6.419
 1797SOL    HW1 6290   1.332   1.015   6.453
 1797SOL    HW2 6291   1.175   1.038   6.492
 1798SOL     OW 6292   5.007   1.977   4.621
 1798SOL    HW1 6293   5.105   1.958   4.610
 1798SOL    HW2 6294   4.971   2.018   4.537
 1799SOL     OW 6295   6.306   1.379   6.294
 1799SOL    HW1 6296   6.339   1.356   6.385
 1799SOL    HW2 6297   6.206   1.372   6.292
 1800SOL     OW 6298   4.206   5.152   2.986
 1800SOL    HW1 6299   4.278   5.208   3.027
 1800SOL    HW2 6300   4.167   5.199   2.907
 1801SOL     OW 6301   0.926   1.034   2.168
 1801SOL    HW1 6302   0.948   0.958   2.231
 1801SOL    HW2 6303   0.977   1.115   2.196
 1802SOL     OW 6304   5.364   5.144   2.383
 1802SOL    HW1 6305   5.316   5.081   2.444
 1802SOL    HW2 6306   5.434   5.094   2.332
 1803SOL     OW 6307   6.979   6.167   0.197
 1803SOL    HW1 6308   6.972   6.265   0.220
 1803SOL    HW2 6309   6.950   6.154   0.102
 1804SOL     OW 6310   1.870   4.087   5.998
 1804SOL    HW1 6311   1.905   4.174   6.031
 1804SOL    HW2 6312   1.834   4.098   5.906
 1805SOL     OW 6313   6.702   3.768   5.921
 1805SOL    HW1 6314   6.682   3.843   5.857
 1805SOL    HW2 6315   6.639   3.773   5.999
 1806SOL     OW 6316   1.006   1.068   0.615
 1806SOL    HW1 6317   1.002   1.046   0.713
 1806SOL    HW2 6318   1.040   1.162   0.603
 1807SOL     OW 6319   4.927   2.422   5.981
 1807SOL    HW1 6320   4.947   2.479   6.061
 1807SOL    HW2 6321   4.883   2.337   6.011
 1808SOL     OW 6322   0.148   3.382   5.907
 1808SOL    HW1 6323   0.211   3.308   5.880
 1808SOL    HW2 6324   0.066   3.342   5.947
 1809SOL     OW 6325   2.069   3.428   4.365
 1809SOL    HW1 6326   2.139   3.358   4.380
 1809SOL    HW2 6327   2.090   3.478   4.280
 1810SOL     OW 6328   2.681   0.609   4.815
 1810SOL    HW1 6329   2.731   0.658   4.887
 1810SOL    HW2 6330   2.646   0.523   4.852
 1811SOL     OW 6331   4.507   4.450   3.805
 1811SOL    HW1 6332   4.581   4.387   3.828
 1811SOL    HW2 6333   4.475   4.432   3.712
 1812SOL     OW 6334   4.237   6.503   5.735
 1812SOL    HW1 6335   4.178   6.427   5.707
 1812SOL    HW2 6336   4.207   6.586   5.688
 1813SOL     OW 6337   5.128   4.992   0.311
 1813SOL    HW1 6338   5.204   4.934   0.282
 1813SOL    HW2 6339   5.080   5.026   0.230
 1814SOL     OW 6340   7.009   1.218   0.195
 1814SOL    HW1 6341   6.986   1.264   0.281
 1814SOL    HW2 6342   0.012   1.123   0.214
 1815SOL     OW 6343   6.016   2.655   1.852
 1815SOL    HW1 6344   5.983   2.588   1.785
 1815SOL    HW2 6345   6.046   2.738   1.804
 1816SOL     OW 6346   2.747   4.073   0.913
 1816SOL    HW1 6347   2.819   4.140   0.933
 1816SOL    HW2 6348   2.786   3.997   0.863
 1817SOL     OW 6349   3.067   6.829   3.561
 1817SOL    HW1 6350   3.128   6.904   3.589
 1817SOL    HW2 6351   3.099   6.790   3.475
 1818SOL     OW 6352   2.126   6.784   2.523
 1818SOL    HW1 6353   2.046   6.824   2.476
 1818SOL    HW2 6354   2.107   6.778   2.621
 1819SOL     OW 6355   0.163   5.387   1.629
 1819SOL    HW1 6356   0.167   5.354   1.535
 1819SOL    HW2 6357   0.070   5.376   1.665
 1820SOL     OW 6358   5.043   0.771   2.650
 1820SOL    HW1 6359   5.139   0.787   2.627
 1820SOL    HW2 6360   4.984   0.829   2.594
 1821SOL     OW 6361   2.674   0.896   1.689
 1821SOL    HW1 6362   2.593   0.907   1.745
 1821SOL    HW2 6363   2.651   0.914   1.593
 1822SOL     OW 6364   2.253   2.908   1.223
 1822SOL    HW1 6365   2.295   2.839   1.165
 1822SOL    HW2 6366   2.256   2.997   1.177
 1823SOL     OW 6367   2.776   5.867   3.353
 1823SOL    HW1 6368   2.821   5.803   3.416
 1823SOL    HW2 6369   2.717   5.816   3.291
 1824SOL     OW 6370   3.697   3.553   1.538
 1824SOL    HW1 6371   3.760   3.596   1.473
 1824SOL    HW2 6372   3.688   3.456   1.517
 1825SOL     OW 6373   1.226   1.969   3.945
 1825SOL    HW1 6374   1.128   1.951   3.947
 1825SOL    HW2 6375   1.244   2.063   3.974
 1826SOL     OW 6376   3.139   0.286   0.705
 1826SOL    HW1 6377   3.076   0.338   0.763
 1826SOL    HW2 6378   3.095   0.265   0.618
 1827SOL     OW 6379   0.383   6.099   1.393
 1827SOL    HW1 6380   0.373   6.190   1.432
 1827SOL    HW2 6381   0.297   6.049   1.402
 1828SOL     OW 6382   1.138   2.426   0.628
 1828SOL    HW1 6383   1.222   2.473   0.653
 1828SOL    HW2 6384   1.082   2.411   0.710
 1829SOL     OW 6385   2.862   0.710   3.740
 1829SOL    HW1 6386   2.938   0.649   3.719
 1829SOL    HW2 6387   2.863   0.733   3.837
 1830SOL     OW 6388   6.118   6.316   3.885
 1830SOL    HW1 6389   6.188   6.295   3.818
 1830SOL    HW2 6390   6.129   6.410   3.918
 1831SOL     OW 6391   6.136   0.313   2.298
 1831SOL    HW1 6392   6.146   0.299   2.199
 1831SOL    HW2 6393   6.111   0.409   2.315
 1832SOL     OW 6394   4.822   1.531   1.056
 1832SOL    HW1 6395   4.840   1.564   1.149
 1832SOL    HW2 6396   4.751   1.588   1.015
 1833SOL     OW 6397   5.131   0.430   6.497
 1833SOL    HW1 6398   5.146   0.510   6.439
 1833SOL    HW2 6399   5.059   0.374   6.456
 1834SOL     OW 6400   2.714   4.351   0.523
 1834SOL    HW1 6401   2.702   4.255   0.548
 1834SOL    HW2 6402   2.729   4.405   0.606
 1835SOL     OW 6403   0.234   3.778   2.409
 1835SOL    HW1 6404   0.184   3.850   2.457
 1835SOL    HW2 6405   0.332   3.795   2.416
 1836SOL     OW 6406   5.142   2.599   0.990
 1836SOL    HW1 6407   5.047   2.582   1.016
 1836SOL    HW2 6408   5.202   2.573   1.065
 1837SOL     OW 6409   1.258   1.174   4.616
 1837SOL    HW1 6410   1.199   1.225   4.678
 1837SOL    HW2 6411   1.354   1.195   4.636
 1838SOL     OW 6412   6.969   1.239   4.214
 1838SOL    HW1 6413   7.013   1.237   4.124
 1838SOL    HW2 6414   7.018   1.303   4.274
 1839SOL     OW 6415   5.464   2.589   5.363
 1839SOL    HW1 6416   5.373   2.575   5.323
 1839SOL    HW2 6417   5.530   2.528   5.317
 1840SOL     OW 6418   3.476   6.336   1.528
 1840SOL    HW1 6419   3.434   6.357   1.617
 1840SOL    HW2 6420   3.404   6.313   1.462
 1841SOL     OW 6421   2.346   0.987   3.688
 1841SOL    HW1 6422   2.434   0.941   3.695
 1841SOL    HW2 6423   2.353   1.081   3.720
 1842SOL     OW 6424   1.652   5.712   0.211
 1842SOL    HW1 6425   1.606   5.725   0.299
 1842SOL    HW2 6426   1.705   5.795   0.189
 1843SOL     OW 6427   6.578   2.286   3.615
 1843SOL    HW1 6428   6.646   2.343   3.568
 1843SOL    HW2 6429   6.622   2.204   3.650
 1844SOL     OW 6430   3.260   0.365   5.782
 1844SOL    HW1 6431   3.215   0.448   5.813
 1844SOL    HW2 6432   3.305   0.382   5.694
 1845SOL     OW 6433   2.707   0.509   5.197
 1845SOL    HW1 6434   2.760   0.488   5.280
 1845SOL    HW2 6435   2.617   0.544   5.224
 1846SOL     OW 6436   4.176   2.249   1.062
 1846SOL    HW1 6437   4.089   2.207   1.088
 1846SOL    HW2 6438   4.188   2.335   1.112
 1847SOL     OW 6439   1.664   1.243   6.731
 1847SOL    HW1 6440   1.751   1.209   6.695
 1847SOL    HW2 6441   1.648   1.336   6.698
 1848SOL     OW 6442   0.857   6.804   3.216
 1848SOL    HW1 6443   0.809   6.789   3.303
 1848SOL    HW2 6444   0.876   6.716   3.173
 1849SOL     OW 6445   3.888   2.479   0.464
 1849SOL    HW1 6446   3.866   2.515   0.373
 1849SOL    HW2 6447   3.931   2.550   0.519
 1850SOL     OW 6448   0.876   2.416   2.038
 1850SOL    HW1 6449   0.944   2.348   2.066
 1850SOL    HW2 6450   0.819   2.441   2.116
 1851SOL     OW 6451   0.154   2.881   0.912
 1851SOL    HW1 6452   0.237   2.930   0.939
 1851SOL    HW2 6453   0.180   2.798   0.862
 1852SOL     OW 6454   6.752   4.089   1.824
 1852SOL    HW1 6455   6.747   3.989   1.832
 1852SOL    HW2 6456   6.848   4.118   1.832
 1853SOL     OW 6457   0.185   2.666   2.856
 1853SOL    HW1 6458   0.101   2.619   2.830
 1853SOL    HW2 6459   0.263   2.606   2.841
 1854SOL     OW 6460   2.644   6.270   3.134
 1854SOL    HW1 6461   2.707   6.340   3.168
 1854SOL    HW2 6462   2.642   6.274   3.034
 1855SOL     OW 6463   5.354   2.979   5.726
 1855SOL    HW1 6464   5.430   2.977   5.791
 1855SOL    HW2 6465   5.362   2.902   5.663
 1856SOL     OW 6466   6.080   3.577   5.739
 1856SOL    HW1 6467   5.984   3.551   5.749
 1856SOL    HW2 6468   6.121   3.524   5.664
 1857SOL     OW 6469   4.222   1.381   5.247
 1857SOL    HW1 6470   4.253   1.365   5.153
 1857SOL    HW2 6471   4.208   1.479   5.261
 1858SOL     OW 6472   6.137   3.849   3.974
 1858SOL    HW1 6473   6.206   3.921   3.972
 1858SOL    HW2 6474   6.050   3.887   4.007
 1859SOL     OW 6475   4.942   2.068   2.777
 1859SOL    HW1 6476   4.981   2.023   2.696
 1859SOL    HW2 6477   4.854   2.026   2.800
 1860SOL     OW 6478   6.246   0.356   5.339
 1860SOL    HW1 6479   6.190   0.313   5.269
 1860SOL    HW2 6480   6.189   0.377   5.419
 1861SOL     OW 6481   5.665   0.245   2.059
 1861SOL    HW1 6482   5.641   0.306   1.984
 1861SOL    HW2 6483   5.629   0.281   2.145
 1862SOL     OW 6484   2.412   6.878   6.224
 1862SOL    HW1 6485   2.422   6.787   6.264
 1862SOL    HW2 6486   2.413   6.947   6.296
 1863SOL     OW 6487   1.380   2.188   2.506
 1863SOL    HW1 6488   1.305   2.193   2.571
 1863SOL    HW2 6489   1.404   2.093   2.490
 1864SOL     OW 6490   1.345   6.768   5.528
 1864SOL    HW1 6491   1.290   6.697   5.572
 1864SOL    HW2 6492   1.423   6.791   5.587
 1865SOL     OW 6493   3.721   6.740   6.396
 1865SOL    HW1 6494   3.663   6.820   6.381
 1865SOL    HW2 6495   3.672   6.658   6.367
 1866SOL     OW 6496   4.470   5.252   3.415
 1866SOL    HW1 6497   4.387   5.197   3.404
 1866SOL    HW2 6498   4.517   5.225   3.499
 1867SOL     OW 6499   0.320   4.499   0.175
 1867SOL    HW1 6500   0.374   4.540   0.102
 1867SOL    HW2 6501   0.229   4.475   0.141
 1868SOL     OW 6502   4.793   3.949   6.697
 1868SOL    HW1 6503   4.810   4.000   6.781
 1868SOL    HW2 6504   4.876   3.947   6.641
 1869SOL     OW 6505   5.976   3.011   5.566
 1869SOL    HW1 6506   5.883   2.994   5.600
 1869SOL    HW2 6507   5.975   3.092   5.507
 1870SOL     OW 6508   1.771   2.830   5.524
 1870SOL    HW1 6509   1.775   2.756   5.457
 1870SOL    HW2 6510   1.846   2.894   5.508
 1871SOL     OW 6511   0.399   0.645   0.384
 1871SOL    HW1 6512   0.461   0.696   0.324
 1871SOL    HW2 6513   0.423   0.548   0.381
 1872SOL     OW 6514   3.865   1.597   6.016
 1872SOL    HW1 6515   3.858   1.498   6.028
 1872SOL    HW2 6516   3.960   1.626   6.028
 1873SOL     OW 6517   5.223   1.413   5.687
 1873SOL    HW1 6518   5.176   1.494   5.723
 1873SOL    HW2 6519   5.198   1.400   5.591
 1874SOL     OW 6520   3.303   1.671   0.618
 1874SOL    HW1 6521   3.352   1.672   0.531
 1874SOL    HW2 6522   3.208   1.700   0.603
 1875SOL     OW 6523   0.157   0.908   0.139
 1875SOL    HW1 6524   0.103   0.933   0.058
 1875SOL    HW2 6525   0.237   0.854   0.111
 1876SOL     OW 6526   3.691   6.486   6.244
 1876SOL    HW1 6527   3.621   6.493   6.172
 1876SOL    HW2 6528   3.780   6.508   6.206
 1877SOL     OW 6529   0.414   0.165   2.718
 1877SOL    HW1 6530   0.443   0.164   2.814
 1877SOL    HW2 6531   0.446   0.250   2.675
 1878SOL     OW 6532   6.846   2.653   3.687
 1878SOL    HW1 6533   6.805   2.655   3.779
 1878SOL    HW2 6534   6.795   2.589   3.630
 1879SOL     OW 6535   1.422   5.075   4.080
 1879SOL    HW1 6536   1.434   5.160   4.130
 1879SOL    HW2 6537   1.462   4.999   4.132
 1880SOL     OW 6538   6.419   1.190   4.585
 1880SOL    HW1 6539   6.399   1.259   4.515
 1880SOL    HW2 6540   6.488   1.126   4.550
 1881SOL     OW 6541   6.181   2.601   2.522
 1881SOL    HW1 6542   6.216   2.549   2.600
 1881SOL    HW2 6543   6.227   2.689   2.517
 1882SOL     OW 6544   0.459   3.505   6.388
 1882SOL    HW1 6545   0.368   3.495   6.428
 1882SOL    HW2 6546   0.528   3.472   6.453
 1883SOL     OW 6547   0.732   2.000   4.040
 1883SOL    HW1 6548   0.793   2.046   4.105
 1883SOL    HW2 6549   0.659   2.063   4.013
 1884SOL     OW 6550   6.566   3.200   0.595
 1884SOL    HW1 6551   6.493   3.195   0.662
 1884SOL    HW2 6552   6.527   3.219   0.505
 1885SOL     OW 6553   1.320   2.631   6.319
 1885SOL    HW1 6554   1.316   2.728   6.344
 1885SOL    HW2 6555   1.413   2.597   6.334
 1886SOL     OW 6556   2.319   0.926   1.579
 1886SOL    HW1 6557   2.369   0.961   1.658
 1886SOL    HW2 6558   2.293   0.831   1.594
 1887SOL     OW 6559   0.938   5.503   5.091
 1887SOL    HW1 6560   1.034   5.514   5.067
 1887SOL    HW2 6561   0.927   5.510   5.190
 1888SOL     OW 6562   2.328   2.432   6.905
 1888SOL    HW1 6563   2.229   2.447   6.907
 1888SOL    HW2 6564   2.348   2.338   6.876
 1889SOL     OW 6565   0.202   2.953   6.042
 1889SOL    HW1 6566   0.201   2.856   6.021
 1889SOL    HW2 6567   0.203   3.006   5.956
 1890SOL     OW 6568   1.532   6.659   4.661
 1890SOL    HW1 6569   1.519   6.560   4.662
 1890SOL    HW2 6570   1.614   6.682   4.609
 1891SOL     OW 6571   5.216   2.100   2.075
 1891SOL    HW1 6572   5.199   2.014   2.124
 1891SOL    HW2 6573   5.221   2.175   2.142
 1892SOL     OW 6574   2.448   1.176   2.632
 1892SOL    HW1 6575   2.382   1.110   2.667
 1892SOL    HW2 6576   2.508   1.206   2.706
 1893SOL     OW 6577   3.573   3.096   6.869
 1893SOL    HW1 6578   3.633   3.020   6.844
 1893SOL    HW2 6579   3.590   3.122   6.964
 1894SOL     OW 6580   3.683   3.987   3.859
 1894SOL    HW1 6581   3.703   4.036   3.943
 1894SOL    HW2 6582   3.698   3.889   3.872
 1895SOL     OW 6583   5.074   0.626   1.499
 1895SOL    HW1 6584   5.137   0.555   1.532
 1895SOL    HW2 6585   5.069   0.622   1.400
 1896SOL     OW 6586   5.479   0.172   1.427
 1896SOL    HW1 6587   5.384   0.202   1.424
 1896SOL    HW2 6588   5.537   0.247   1.458
 1897SOL     OW 6589   1.622   4.998   1.649
 1897SOL    HW1 6590   1.528   4.972   1.628
 1897SOL    HW2 6591   1.667   5.031   1.566
 1898SOL     OW 6592   2.195   5.730   3.657
 1898SOL    HW1 6593   2.151   5.690   3.577
 1898SOL    HW2 6594   2.131   5.793   3.702
 1899SOL     OW 6595   1.216   0.806   2.183
 1899SOL    HW1 6596   1.296   0.755   2.149
 1899SOL    HW2 6597   1.247   0.887   2.233
 1900SOL     OW 6598   1.407   0.371   6.676
 1900SOL    HW1 6599   1.398   0.322   6.589
 1900SOL    HW2 6600   1.504   0.392   6.692
 1901SOL     OW 6601   1.904   1.726   1.108
 1901SOL    HW1 6602   1.974   1.764   1.168
 1901SOL    HW2 6603   1.836   1.796   1.088
 1902SOL     OW 6604   2.105   2.000   5.118
 1902SOL    HW1 6605   2.041   2.067   5.082
 1902SOL    HW2 6606   2.196   2.017   5.079
 1903SOL     OW 6607   6.765   3.338   2.505
 1903SOL    HW1 6608   6.799   3.265   2.565
 1903SOL    HW2 6609   6.841   3.393   2.472
 1904SOL     OW 6610   5.332   5.686   3.365
 1904SOL    HW1 6611   5.288   5.602   3.399
 1904SOL    HW2 6612   5.270   5.763   3.378
 1905SOL     OW 6613   1.206   0.225   3.690
 1905SOL    HW1 6614   1.204   0.299   3.623
 1905SOL    HW2 6615   1.246   0.143   3.647
 1906SOL     OW 6616   2.527   0.399   4.990
 1906SOL    HW1 6617   2.579   0.415   5.074
 1906SOL    HW2 6618   2.585   0.353   4.922
 1907SOL     OW 6619   3.673   0.765   1.670
 1907SOL    HW1 6620   3.618   0.779   1.587
 1907SOL    HW2 6621   3.745   0.698   1.651
 1908SOL     OW 6622   3.765   6.566   5.159
 1908SOL    HW1 6623   3.795   6.521   5.075
 1908SOL    HW2 6624   3.713   6.648   5.135
 1909SOL     OW 6625   0.025   3.746   2.676
 1909SOL    HW1 6626   0.106   3.690   2.662
 1909SOL    HW2 6627   0.053   3.840   2.698
 1910SOL     OW 6628   0.358   4.037   0.000
 1910SOL    HW1 6629   0.385   3.965   6.958
 1910SOL    HW2 6630   0.400   4.020   0.089
 1911SOL     OW 6631   6.748   3.634   5.024
 1911SOL    HW1 6632   6.652   3.659   5.040
 1911SOL    HW2 6633   6.807   3.692   5.080
 1912SOL     OW 6634   3.879   5.842   0.900
 1912SOL    HW1 6635   3.855   5.785   0.978
 1912SOL    HW2 6636   3.819   5.822   0.823
 1913SOL     OW 6637   2.458   6.749   4.884
 1913SOL    HW1 6638   2.364   6.741   4.918
 1913SOL    HW2 6639   2.504   6.661   4.891
 1914SOL     OW 6640   3.623   2.792   6.086
 1914SOL    HW1 6641   3.578   2.872   6.045
 1914SOL    HW2 6642   3.555   2.720   6.101
 1915SOL     OW 6643   3.319   2.031   5.080
 1915SOL    HW1 6644   3.301   2.060   4.986
 1915SOL    HW2 6645   3.318   2.111   5.141
 1916SOL     OW 6646   4.100   5.742   1.440
 1916SOL    HW1 6647   4.043   5.775   1.516
 1916SOL    HW2 6648   4.195   5.767   1.456
 1917SOL     OW 6649   2.649   2.942   6.343
 1917SOL    HW1 6650   2.620   3.035   6.321
 1917SOL    HW2 6651   2.571   2.880   6.334
 1918SOL     OW 6652   1.123   1.211   5.470
 1918SOL    HW1 6653   1.086   1.251   5.386
 1918SOL    HW2 6654   1.222   1.208   5.464
 1919SOL     OW 6655   1.984   0.807   1.650
 1919SOL    HW1 6656   1.927   0.732   1.684
 1919SOL    HW2 6657   2.008   0.868   1.726
 1920SOL     OW 6658   0.195   3.999   2.714
 1920SOL    HW1 6659   0.279   3.972   2.667
 1920SOL    HW2 6660   0.217   4.036   2.804
 1921SOL     OW 6661   1.509   3.771   6.201
 1921SOL    HW1 6662   1.441   3.704   6.170
 1921SOL    HW2 6663   1.537   3.828   6.124
 1922SOL     OW 6664   2.318   3.728   1.050
 1922SOL    HW1 6665   2.341   3.632   1.065
 1922SOL    HW2 6666   2.220   3.742   1.059
 1923SOL     OW 6667   3.962   0.899   5.731
 1923SOL    HW1 6668   3.908   0.855   5.802
 1923SOL    HW2 6669   4.027   0.963   5.772
 1924SOL     OW 6670   4.942   6.540   6.915
 1924SOL    HW1 6671   4.945   6.618   6.853
 1924SOL    HW2 6672   5.035   6.508   6.933
 1925SOL     OW 6673   1.778   4.816   1.072
 1925SOL    HW1 6674   1.702   4.879   1.090
 1925SOL    HW2 6675   1.860   4.869   1.048
 1926SOL     OW 6676   2.491   6.961   3.040
 1926SOL    HW1 6677   2.515   6.910   3.123
 1926SOL    HW2 6678   2.463   6.897   2.968
 1927SOL     OW 6679   2.544   4.392   0.292
 1927SOL    HW1 6680   2.455   4.349   0.308
 1927SOL    HW2 6681   2.588   4.410   0.380
 1928SOL     OW 6682   6.546   4.209   5.667
 1928SOL    HW1 6683   6.449   4.195   5.644
 1928SOL    HW2 6684   6.556   4.297   5.713
 1929SOL     OW 6685   2.373   6.941   1.506
 1929SOL    HW1 6686   2.437   6.931   1.430
 1929SOL    HW2 6687   2.395   0.002   1.559
 1930SOL     OW 6688   3.947   3.724   6.509
 1930SOL    HW1 6689   4.005   3.645   6.529
 1930SOL    HW2 6690   4.005   3.804   6.494
 1931SOL     OW 6691   1.307   2.601   1.686
 1931SOL    HW1 6692   1.387   2.649   1.724
 1931SOL    HW2 6693   1.317   2.592   1.587
 1932SOL     OW 6694   4.787   2.376   3.021
 1932SOL    HW1 6695   4.800   2.454   2.959
 1932SOL    HW2 6696   4.840   2.298   2.987
 1933SOL     OW 6697   1.841   3.207   0.751
 1933SOL    HW1 6698   1.896   3.180   0.830
 1933SOL    HW2 6699   1.866   3.152   0.672
 1934SOL     OW 6700   6.595   0.147   5.444
 1934SOL    HW1 6701   6.640   0.235   5.432
 1934SOL    HW2 6702   6.522   0.156   5.513
 1935SOL     OW 6703   4.780   5.818   3.614
 1935SOL    HW1 6704   4.689   5.826   3.654
 1935SOL    HW2 6705   4.838   5.893   3.647
 1936SOL     OW 6706   5.475   4.181   3.797
 1936SOL    HW1 6707   5.381   4.197   3.769
 1936SOL    HW2 6708   5.483   4.186   3.896
 1937SOL     OW 6709   4.439   6.038   0.614
 1937SOL    HW1 6710   4.508   5.975   0.577
 1937SOL    HW2 6711   4.483   6.099   0.680
 1938SOL     OW 6712   1.197   1.751   1.999
 1938SOL    HW1 6713   1.203   1.735   1.900
 1938SOL    HW2 6714   1.164   1.844   2.015
 1939SOL     OW 6715   0.001   6.721   4.623
 1939SOL    HW1 6716   7.018   6.658   4.546
 1939SOL    HW2 6717   0.082   6.779   4.615
 1940SOL     OW 6718   5.705   5.577   0.870
 1940SOL    HW1 6719   5.729   5.600   0.776
 1940SOL    HW2 6720   5.659   5.488   0.871
 1941SOL     OW 6721   1.338   2.968   4.214
 1941SOL    HW1 6722   1.284   3.045   4.179
 1941SOL    HW2 6723   1.435   2.989   4.207
 1942SOL     OW 6724   5.511   2.901   1.578
 1942SOL    HW1 6725   5.417   2.889   1.545
 1942SOL    HW2 6726   5.531   2.998   1.587
 1943SOL     OW 6727   1.955   6.921   2.937
 1943SOL    HW1 6728   1.896   6.888   3.010
 1943SOL    HW2 6729   2.023   6.983   2.974
 1944SOL     OW 6730   6.100   3.392   0.407
 1944SOL    HW1 6731   6.091   3.472   0.467
 1944SOL    HW2 6732   6.034   3.322   0.436
 1945SOL     OW 6733   4.079   5.482   0.250
 1945SOL    HW1 6734   4.160   5.423   0.257
 1945SOL    HW2 6735   4.100   5.561   0.193
 1946SOL     OW 6736   6.072   6.736   1.087
 1946SOL    HW1 6737   6.055   6.824   1.043
 1946SOL    HW2 6738   6.000   6.672   1.063
 1947SOL     OW 6739   5.784   6.558   4.596
 1947SOL    HW1 6740   5.813   6.529   4.504
 1947SOL    HW2 6741   5.691   6.524   4.613
 1948SOL     OW 6742   6.519   4.941   2.899
 1948SOL    HW1 6743   6.481   4.854   2.867
 1948SOL    HW2 6744   6.459   4.978   2.971
 1949SOL     OW 6745   3.589   3.507   6.505
 1949SOL    HW1 6746   3.594   3.480   6.408
 1949SOL    HW2 6747   3.607   3.604   6.513
 1950SOL     OW 6748   3.838   2.996   1.219
 1950SOL    HW1 6749   3.744   3.000   1.251
 1950SOL    HW2 6750   3.845   3.041   1.129
 1951SOL     OW 6751   6.668   4.846   6.668
 1951SOL    HW1 6752   6.575   4.882   6.659
 1951SOL    HW2 6753   6.715   4.894   6.743
 1952SOL     OW 6754   5.035   4.165   1.312
 1952SOL    HW1 6755   5.025   4.084   1.255
 1952SOL    HW2 6756   5.061   4.137   1.404
 1953SOL     OW 6757   6.112   1.645   5.425
 1953SOL    HW1 6758   6.043   1.675   5.490
 1953SOL    HW2 6759   6.074   1.647   5.332
 1954SOL     OW 6760   6.441   0.284   1.487
 1954SOL    HW1 6761   6.423   0.307   1.582
 1954SOL    HW2 6762   6.367   0.318   1.430
 1955SOL     OW 6763   0.521   0.207   2.997
 1955SOL    HW1 6764   0.523   0.306   2.980
 1955SOL    HW2 6765   0.590   0.183   3.065
 1956SOL     OW 6766   5.248   6.705   1.609
 1956SOL    HW1 6767   5.218   6.790   1.565
 1956SOL    HW2 6768   5.347   6.696   1.596
 1957SOL     OW 6769   5.300   4.412   3.735
 1957SOL    HW1 6770   5.379   4.423   3.795
 1957SOL    HW2 6771   5.270   4.501   3.702
 1958SOL     OW 6772   4.495   1.653   1.821
 1958SOL    HW1 6773   4.584   1.696   1.837
 1958SOL    HW2 6774   4.448   1.640   1.908
 1959SOL     OW 6775   1.375   0.014   3.683
 1959SOL    HW1 6776   1.376   6.947   3.636
 1959SOL    HW2 6777   1.384   7.020   3.782
 1960SOL     OW 6778   0.412   3.952   2.577
 1960SOL    HW1 6779   0.464   3.871   2.604
 1960SOL    HW2 6780   0.459   4.034   2.608
 1961SOL     OW 6781   6.872   4.522   4.810
 1961SOL    HW1 6782   6.960   4.559   4.839
 1961SOL    HW2 6783   6.849   4.443   4.867
 1962SOL     OW 6784   1.711   6.277   2.689
 1962SOL    HW1 6785   1.810   6.291   2.696
 1962SOL    HW2 6786   1.694   6.187   2.648
 1963SOL     OW 6787   0.489   1.608   1.593
 1963SOL    HW1 6788   0.397   1.645   1.600
 1963SOL    HW2 6789   0.551   1.680   1.561
 1964SOL     OW 6790   4.171   4.599   1.660
 1964SOL    HW1 6791   4.213   4.661   1.593
 1964SOL    HW2 6792   4.210   4.508   1.648
 1965SOL     OW 6793   1.729   3.099   4.440
 1965SOL    HW1 6794   1.741   3.172   4.507
 1965SOL    HW2 6795   1.774   3.016   4.473
 1966SOL     OW 6796   0.533   6.007   1.177
 1966SOL    HW1 6797   0.492   6.044   1.261
 1966SOL    HW2 6798   0.608   5.946   1.201
 1967SOL     OW 6799   5.486   2.887   4.069
 1967SOL    HW1 6800   5.578   2.879   4.107
 1967SOL    HW2 6801   5.426   2.932   4.135
 1968SOL     OW 6802   2.047   0.545   5.426
 1968SOL    HW1 6803   2.004   0.504   5.506
 1968SOL    HW2 6804   2.103   0.476   5.378
 1969SOL     OW 6805   3.002   1.501   0.914
 1969SOL    HW1 6806   3.030   1.445   0.992
 1969SOL    HW2 6807   2.936   1.569   0.944
 1970SOL     OW 6808   2.192   0.077   5.750
 1970SOL    HW1 6809   2.176   0.076   5.651
 1970SOL    HW2 6810   2.186   7.005   5.786
 1971SOL     OW 6811   6.974   0.594   5.333
 1971SOL    HW1 6812   6.925   0.620   5.250
 1971SOL    HW2 6813   6.911   0.591   5.410
 1972SOL     OW 6814   5.760   2.120   1.396
 1972SOL    HW1 6815   5.831   2.157   1.457
 1972SOL    HW2 6816   5.727   2.033   1.433
 1973SOL     OW 6817   2.922   3.658   0.586
 1973SOL    HW1 6818   2.958   3.685   0.496
 1973SOL    HW2 6819   2.822   3.664   0.585
 1974SOL     OW 6820   5.206   0.490   4.873
 1974SOL    HW1 6821   5.195   0.441   4.786
 1974SOL    HW2 6822   5.298   0.529   4.878
 1975SOL     OW 6823   2.013   2.085   3.976
 1975SOL    HW1 6824   2.088   2.028   3.943
 1975SOL    HW2 6825   1.937   2.027   4.004
 1976SOL     OW 6826   6.497   6.418   0.570
 1976SOL    HW1 6827   6.414   6.366   0.591
 1976SOL    HW2 6828   6.474   6.515   0.561
 1977SOL     OW 6829   1.847   3.229   5.327
 1977SOL    HW1 6830   1.873   3.245   5.422
 1977SOL    HW2 6831   1.928   3.209   5.273
 1978SOL     OW 6832   2.153   5.892   3.067
 1978SOL    HW1 6833   2.252   5.900   3.082
 1978SOL    HW2 6834   2.133   5.804   3.024
 1979SOL     OW 6835   5.318   5.016   6.803
 1979SOL    HW1 6836   5.412   5.013   6.839
 1979SOL    HW2 6837   5.311   5.087   6.734
 1980SOL     OW 6838   3.899   6.885   3.944
 1980SOL    HW1 6839   3.899   6.794   3.985
 1980SOL    HW2 6840   3.805   6.914   3.926
 1981SOL     OW 6841   5.876   3.551   2.380
 1981SOL    HW1 6842   5.806   3.492   2.341
 1981SOL    HW2 6843   5.964   3.530   2.337
 1982SOL     OW 6844   6.646   4.447   3.641
 1982SOL    HW1 6845   6.632   4.479   3.735
 1982SOL    HW2 6846   6.639   4.525   3.578
 1983SOL     OW 6847   1.791   6.666   1.385
 1983SOL    HW1 6848   1.806   6.764   1.378
 1983SOL    HW2 6849   1.695   6.645   1.367
 1984SOL     OW 6850   4.497   2.641   5.048
 1984SOL    HW1 6851   4.536   2.650   4.956
 1984SOL    HW2 6852   4.404   2.678   5.048
 1985SOL     OW 6853   0.205   6.223   2.886
 1985SOL    HW1 6854   0.128   6.261   2.834
 1985SOL    HW2 6855   0.286   6.281   2.873
 1986SOL     OW 6856   2.887   1.194   6.709
 1986SOL    HW1 6857   2.840   1.154   6.630
 1986SOL    HW2 6858   2.820   1.230   6.773
 1987SOL     OW 6859   2.319   1.826   3.172
 1987SOL    HW1 6860   2.252   1.893   3.204
 1987SOL    HW2 6861   2.387   1.810   3.244
 1988SOL     OW 6862   6.937   3.446   0.715
 1988SOL    HW1 6863   6.842   3.438   0.685
 1988SOL    HW2 6864   6.989   3.367   0.681
 1989SOL     OW 6865   2.040   5.695   5.339
 1989SOL    HW1 6866   2.117   5.632   5.347
 1989SOL    HW2 6867   1.954   5.643   5.337
 1990SOL     OW 6868   4.109   5.755   0.700
 1990SOL    HW1 6869   4.038   5.780   0.765
 1990SOL    HW2 6870   4.182   5.706   0.747
 1991SOL     OW 6871   2.442   5.782   0.271
 1991SOL    HW1 6872   2.351   5.744   0.288
 1991SOL    HW2 6873   2.445   5.824   0.180
 1992SOL     OW 6874   0.134   0.687   0.292
 1992SOL    HW1 6875   0.229   0.669   0.316
 1992SOL    HW2 6876   0.128   0.769   0.236
 1993SOL     OW 6877   3.642   1.756   5.865
 1993SOL    HW1 6878   3.706   1.732   5.792
 1993SOL    HW2 6879   3.690   1.753   5.953
 1994SOL     OW 6880   6.498   2.326   0.400
 1994SOL    HW1 6881   6.491   2.261   0.475
 1994SOL    HW2 6882   6.549   2.407   0.430
 1995SOL     OW 6883   5.200   2.752   3.951
 1995SOL    HW1 6884   5.225   2.825   4.014
 1995SOL    HW2 6885   5.220   2.780   3.857
 1996SOL     OW 6886   2.654   1.999   0.858
 1996SOL    HW1 6887   2.668   2.090   0.819
 1996SOL    HW2 6888   2.606   1.941   0.792
 1997SOL     OW 6889   3.857   2.026   4.230
 1997SOL    HW1 6890   3.876   1.941   4.182
 1997SOL    HW2 6891   3.774   2.016   4.285
 1998SOL     OW 6892   1.412   3.398   0.408
 1998SOL    HW1 6893   1.384   3.312   0.365
 1998SOL    HW2 6894   1.484   3.379   0.475
 1999SOL     OW 6895   1.796   6.983   6.144
 1999SOL    HW1 6896   1.767   0.008   6.228
 1999SOL    HW2 6897   1.836   6.895   6.165
 2000SOL     OW 6898   3.737   2.466   5.763
 2000SOL    HW1 6899   3.780   2.537   5.708
 2000SOL    HW2 6900   3.726   2.383   5.708
 2001SOL     OW 6901   2.120   1.029   1.411
 2001SOL    HW1 6902   2.200   1.008   1.467
 2001SOL    HW2 6903   2.132   1.118   1.367
 2002SOL     OW 6904   0.262   4.561   0.502
 2002SOL    HW1 6905   0.335   4.625   0.528
 2002SOL    HW2 6906   0.290   4.468   0.525
 2003SOL     OW 6907   6.944   4.862   2.490
 2003SOL    HW1 6908   6.953   4.956   2.523
 2003SOL    HW2 6909   7.012   4.845   2.420
 2004SOL     OW 6910   5.516   1.065   4.229
 2004SOL    HW1 6911   5.419   1.088   4.227
 2004SOL    HW2 6912   5.538   1.020   4.315
 2005SOL     OW 6913   6.965   4.690   0.789
 2005SOL    HW1 6914   7.007   4.620   0.846
 2005SOL    HW2 6915   6.944   4.770   0.846
 2006SOL     OW 6916   5.535   0.301   3.251
 2006SOL    HW1 6917   5.489   0.389   3.237
 2006SOL    HW2 6918   5.631   0.310   3.222
 2007SOL     OW 6919   5.058   4.647   1.186
 2007SOL    HW1 6920   5.121   4.682   1.117
 2007SOL    HW2 6921   5.078   4.550   1.201
 2008SOL     OW 6922   1.887   4.046   3.724
 2008SOL    HW1 6923   1.961   3.982   3.702
 2008SOL    HW2 6924   1.849   4.084   3.639
 2009SOL     OW 6925   4.676   0.096   2.769
 2009SOL    HW1 6926   4.722   0.184   2.758
 2009SOL    HW2 6927   4.625   0.095   2.855
 2010SOL     OW 6928   2.376   1.616   1.706
 2010SOL    HW1 6929   2.397   1.650   1.798
 2010SOL    HW2 6930   2.450   1.641   1.644
 2011SOL     OW 6931   0.744   0.790   4.854
 2011SOL    HW1 6932   0.704   0.733   4.783
 2011SOL    HW2 6933   0.760   0.882   4.819
 2012SOL     OW 6934   1.242   3.976   2.566
 2012SOL    HW1 6935   1.303   3.955   2.490
 2012SOL    HW2 6936   1.187   4.057   2.544
 2013SOL     OW 6937   5.627   3.252   4.090
 2013SOL    HW1 6938   5.528   3.259   4.102
 2013SOL    HW2 6939   5.661   3.170   4.137
 2014SOL     OW 6940   2.869   6.978   3.385
 2014SOL    HW1 6941   2.885   0.043   3.433
 2014SOL    HW2 6942   2.922   6.905   3.429
 2015SOL     OW 6943   2.360   0.015   0.975
 2015SOL    HW1 6944   2.345   6.999   0.884
 2015SOL    HW2 6945   2.298   6.991   1.040
 2016SOL     OW 6946   1.647   5.792   5.881
 2016SOL    HW1 6947   1.683   5.842   5.960
 2016SOL    HW2 6948   1.604   5.856   5.818
 2017SOL     OW 6949   4.119   0.762   3.018
 2017SOL    HW1 6950   4.145   0.849   2.975
 2017SOL    HW2 6951   4.020   0.749   3.010
 2018SOL     OW 6952   6.003   3.001   3.670
 2018SOL    HW1 6953   6.100   2.999   3.694
 2018SOL    HW2 6954   5.985   2.934   3.598
 2019SOL     OW 6955   5.486   3.757   6.410
 2019SOL    HW1 6956   5.428   3.703   6.471
 2019SOL    HW2 6957   5.456   3.745   6.315
 2020SOL     OW 6958   2.046   7.015   6.350
 2020SOL    HW1 6959   2.087   6.990   6.263
 2020SOL    HW2 6960   2.003   0.083   6.343
 2021SOL     OW 6961   6.699   6.668   4.905
 2021SOL    HW1 6962   6.785   6.720   4.911
 2021SOL    HW2 6963   6.625   6.722   4.944
 2022SOL     OW 6964   1.373   4.563   4.038
 2022SOL    HW1 6965   1.396   4.518   3.951
 2022SOL    HW2 6966   1.427   4.522   4.112
 2023SOL     OW 6967   0.570   0.746   6.563
 2023SOL    HW1 6968   0.629   0.762   6.484
 2023SOL    HW2 6969   0.619   0.769   6.647
 2024SOL     OW 6970   0.371   5.468   3.796
 2024SOL    HW1 6971   0.450   5.428   3.749
 2024SOL    HW2 6972   0.390   5.476   3.894
 2025SOL     OW 6973   4.240   1.136   3.771
 2025SOL    HW1 6974   4.225   1.051   3.822
 2025SOL    HW2 6975   4.168   1.202   3.793
 2026SOL     OW 6976   6.629   2.111   6.187
 2026SOL    HW1 6977   6.587   2.185   6.241
 2026SOL    HW2 6978   6.724   2.099   6.215
 2027SOL     OW 6979   1.437   0.169   1.396
 2027SOL    HW1 6980   1.425   0.214   1.484
 2027SOL    HW2 6981   1.349   0.165   1.349
 2028SOL     OW 6982   3.364   5.582   4.684
 2028SOL    HW1 6983   3.417   5.506   4.646
 2028SOL    HW2 6984   3.375   5.582   4.784
 2029SOL     OW 6985   6.548   1.912   0.178
 2029SOL    HW1 6986   6.532   1.893   0.275
 2029SOL    HW2 6987   6.564   2.010   0.167
 2030SOL     OW 6988   3.002   0.459   3.327
 2030SOL    HW1 6989   3.053   0.414   3.253
 2030SOL    HW2 6990   2.926   0.510   3.288
 2031SOL     OW 6991   6.782   5.793   1.981
 2031SOL    HW1 6992   6.881   5.808   1.979
 2031SOL    HW2 6993   6.735   5.881   1.988
 2032SOL     OW 6994   3.913   1.362   1.487
 2032SOL    HW1 6995   3.891   1.375   1.584
 2032SOL    HW2 6996   3.918   1.451   1.442
 2033SOL     OW 6997   2.495   1.635   0.590
 2033SOL    HW1 6998   2.516   1.600   0.499
 2033SOL    HW2 6999   2.404   1.606   0.617
 2034SOL     OW 7000   2.847   5.244   5.684
 2034SOL    HW1 7001   2.867   5.341   5.698
 2034SOL    HW2 7002   2.818   5.229   5.590
 2035SOL     OW 7003   6.246   6.422   3.287
 2035SOL    HW1 7004   6.314   6.487   3.320
 2035SOL    HW2 7005   6.154   6.458   3.307
 2036SOL     OW 7006   1.313   3.229   2.655
 2036SOL    HW1 7007   1.227   3.197   2.694
 2036SOL    HW2 7008   1.377   3.253   2.729
 2037SOL     OW 7009   6.458   2.631   6.374
 2037SOL    HW1 7010   6.448   2.718   6.326
 2037SOL    HW2 7011   6.399   2.562   6.331
 2038SOL     OW 7012   2.258   1.518   0.621
 2038SOL    HW1 7013   2.200   1.481   0.693
 2038SOL    HW2 7014   2.215   1.501   0.532
 2039SOL     OW 7015   6.975   6.047   3.450
 2039SOL    HW1 7016   6.910   5.990   3.501
 2039SOL    HW2 7017   0.040   5.997   3.438
 2040SOL     OW 7018   1.772   2.319   7.010
 2040SOL    HW1 7019   1.849   2.256   7.009
 2040SOL    HW2 7020   1.771   2.371   0.074
 2041SOL     OW 7021   0.969   0.136   4.981
 2041SOL    HW1 7022   1.027   0.121   5.061
 2041SOL    HW2 7023   0.908   0.213   4.999
 2042SOL     OW 7024   5.501   6.458   6.240
 2042SOL    HW1 7025   5.487   6.428   6.146
 2042SOL    HW2 7026   5.534   6.382   6.295
 2043SOL     OW 7027   6.405   2.735   2.891
 2043SOL    HW1 7028   6.373   2.644   2.863
 2043SOL    HW2 7029   6.354   2.805   2.841
 2044SOL     OW 7030   6.416   0.775   1.120
 2044SOL    HW1 7031   6.387   0.813   1.208
 2044SOL    HW2 7032   6.336   0.759   1.063
 2045SOL     OW 7033   1.169   4.913   4.599
 2045SOL    HW1 7034   1.091   4.856   4.625
 2045SOL    HW2 7035   1.179   4.913   4.500
 2046SOL     OW 7036   6.139   1.862   4.791
 2046SOL    HW1 7037   6.234   1.831   4.784
 2046SOL    HW2 7038   6.110   1.857   4.887
 2047SOL     OW 7039   6.790   2.370   0.383
 2047SOL    HW1 7040   6.748   2.447   0.432
 2047SOL    HW2 7041   6.831   2.403   0.298
 2048SOL     OW 7042   0.282   0.004   5.012
 2048SOL    HW1 7043   0.291   0.009   5.111
 2048SOL    HW2 7044   0.373   7.016   4.971
 2049SOL     OW 7045   5.855   1.672   4.451
 2049SOL    HW1 7046   5.922   1.598   4.441
 2049SOL    HW2 7047   5.763   1.634   4.441
 2050SOL     OW 7048   6.785   2.566   4.228
 2050SOL    HW1 7049   6.792   2.480   4.177
 2050SOL    HW2 7050   6.821   2.553   4.320
 2051SOL     OW 7051   1.817   6.231   6.938
 2051SOL    HW1 7052   1.846   6.166   6.868
 2051SOL    HW2 7053   1.814   6.323   6.899
 2052SOL     OW 7054   1.435   2.782   1.212
 2052SOL    HW1 7055   1.456   2.790   1.115
 2052SOL    HW2 7056   1.355   2.838   1.234
 2053SOL     OW 7057   6.970   5.537   5.067
 2053SOL    HW1 7058   6.930   5.468   5.128
 2053SOL    HW2 7059   0.043   5.555   5.094
 2054SOL     OW 7060   3.131   3.675   3.018
 2054SOL    HW1 7061   3.045   3.635   2.985
 2054SOL    HW2 7062   3.147   3.762   2.972
 2055SOL     OW 7063   6.152   2.769   5.236
 2055SOL    HW1 7064   6.079   2.724   5.187
 2055SOL    HW2 7065   6.192   2.841   5.178
 2056SOL     OW 7066   4.217   5.224   1.848
 2056SOL    HW1 7067   4.173   5.314   1.841
 2056SOL    HW2 7068   4.147   5.154   1.865
 2057SOL     OW 7069   4.717   3.607   5.756
 2057SOL    HW1 7070   4.809   3.646   5.746
 2057SOL    HW2 7071   4.655   3.676   5.791
 2058SOL     OW 7072   0.216   6.341   2.332
 2058SOL    HW1 7073   0.173   6.269   2.385
 2058SOL    HW2 7074   0.315   6.335   2.342
 2059SOL     OW 7075   2.309   6.357   0.018
 2059SOL    HW1 7076   2.230   6.299   0.001
 2059SOL    HW2 7077   2.282   6.453   0.017
 2060SOL     OW 7078   0.824   3.650   1.789
 2060SOL    HW1 7079   0.738   3.698   1.777
 2060SOL    HW2 7080   0.839   3.631   1.886
 2061SOL     OW 7081   1.715   2.363   2.726
 2061SOL    HW1 7082   1.768   2.437   2.769
 2061SOL    HW2 7083   1.776   2.310   2.667
 2062SOL     OW 7084   0.267   6.186   5.846
 2062SOL    HW1 7085   0.212   6.257   5.803
 2062SOL    HW2 7086   0.305   6.220   5.932
 2063SOL     OW 7087   1.464   6.046   5.287
 2063SOL    HW1 7088   1.540   6.107   5.309
 2063SOL    HW2 7089   1.377   6.093   5.305
 2064SOL     OW 7090   0.222   2.147   4.777
 2064SOL    HW1 7091   0.152   2.210   4.743
 2064SOL    HW2 7092   0.179   2.059   4.800
 2065SOL     OW 7093   5.943   3.056   6.466
 2065SOL    HW1 7094   6.029   3.017   6.432
 2065SOL    HW2 7095   5.933   3.149   6.433
 2066SOL     OW 7096   6.924   4.106   5.346
 2066SOL    HW1 7097   6.883   4.025   5.386
 2066SOL    HW2 7098   6.955   4.085   5.253
 2067SOL     OW 7099   6.917   5.314   1.230
 2067SOL    HW1 7100   6.881   5.318   1.137
 2067SOL    HW2 7101   6.842   5.318   1.296
 2068SOL     OW 7102   4.113   0.302   4.164
 2068SOL    HW1 7103   4.186   0.346   4.110
 2068SOL    HW2 7104   4.098   0.209   4.130
 2069SOL     OW 7105   6.974   2.210   4.090
 2069SOL    HW1 7106   6.916   2.284   4.124
 2069SOL    HW2 7107   0.005   2.171   4.166
 2070SOL     OW 7108   0.992   1.919   1.353
 2070SOL    HW1 7109   0.962   1.900   1.259
 2070SOL    HW2 7110   1.055   1.997   1.352
 2071SOL     OW 7111   6.404   0.957   5.854
 2071SOL    HW1 7112   6.350   1.007   5.921
 2071SOL    HW2 7113   6.446   1.021   5.790
 2072SOL     OW 7114   4.507   5.142   4.293
 2072SOL    HW1 7115   4.457   5.062   4.261
 2072SOL    HW2 7116   4.589   5.112   4.343
 2073SOL     OW 7117   3.666   6.086   5.288
 2073SOL    HW1 7118   3.606   6.077   5.367
 2073SOL    HW2 7119   3.621   6.050   5.206
 2074SOL     OW 7120   1.804   2.722   6.870
 2074SOL    HW1 7121   1.745   2.782   6.816
 2074SOL    HW2 7122   1.857   2.663   6.808
 2075SOL     OW 7123   6.779   2.560   2.522
 2075SOL    HW1 7124   6.848   2.525   2.459
 2075SOL    HW2 7125   6.702   2.597   2.470
 2076SOL     OW 7126   5.754   6.390   6.029
 2076SOL    HW1 7127   5.669   6.381   5.977
 2076SOL    HW2 7128   5.780   6.487   6.034
 2077SOL     OW 7129   6.499   2.064   1.882
 2077SOL    HW1 7130   6.598   2.056   1.892
 2077SOL    HW2 7131   6.473   2.047   1.787
 2078SOL     OW 7132   2.005   5.195   6.615
 2078SOL    HW1 7133   1.964   5.116   6.568
 2078SOL    HW2 7134   1.934   5.241   6.668
 2079SOL     OW 7135   6.787   0.977   2.851
 2079SOL    HW1 7136   6.774   1.067   2.892
 2079SOL    HW2 7137   6.727   0.967   2.772
 2080SOL     OW 7138   3.124   1.011   4.950
 2080SOL    HW1 7139   3.134   0.926   4.898
 2080SOL    HW2 7140   3.207   1.065   4.943
 2081SOL     OW 7141   1.136   6.515   4.442
 2081SOL    HW1 7142   1.081   6.433   4.455
 2081SOL    HW2 7143   1.175   6.543   4.530
 2082SOL     OW 7144   0.921   6.444   3.328
 2082SOL    HW1 7145   0.896   6.412   3.237
 2082SOL    HW2 7146   0.989   6.517   3.321
 2083SOL     OW 7147   1.474   6.120   4.939
 2083SOL    HW1 7148   1.519   6.076   5.016
 2083SOL    HW2 7149   1.375   6.116   4.952
 2084SOL     OW 7150   0.749   2.861   2.047
 2084SOL    HW1 7151   0.721   2.904   1.961
 2084SOL    HW2 7152   0.804   2.926   2.100
 2085SOL     OW 7153   4.876   6.423   0.872
 2085SOL    HW1 7154   4.943   6.397   0.942
 2085SOL    HW2 7155   4.784   6.414   0.909
 2086SOL     OW 7156   3.734   6.094   0.204
 2086SOL    HW1 7157   3.809   6.080   0.269
 2086SOL    HW2 7158   3.685   6.178   0.227
 2087SOL     OW 7159   4.396   2.315   0.609
 2087SOL    HW1 7160   4.330   2.381   0.575
 2087SOL    HW2 7161   4.452   2.282   0.533
 2088SOL     OW 7162   1.531   5.742   6.437
 2088SOL    HW1 7163   1.502   5.650   6.413
 2088SOL    HW2 7164   1.605   5.771   6.377
 2089SOL     OW 7165   4.308   2.353   5.286
 2089SOL    HW1 7166   4.249   2.405   5.224
 2089SOL    HW2 7167   4.271   2.261   5.297
 2090SOL     OW 7168   4.669   3.126   5.236
 2090SOL    HW1 7169   4.731   3.179   5.179
 2090SOL    HW2 7170   4.652   3.037   5.193
 2091SOL     OW 7171   6.772   5.951   0.819
 2091SOL    HW1 7172   6.698   6.010   0.851
 2091SOL    HW2 7173   6.742   5.899   0.739
 2092SOL     OW 7174   5.709   3.678   0.790
 2092SOL    HW1 7175   5.693   3.601   0.728
 2092SOL    HW2 7176   5.643   3.674   0.865
 2093SOL     OW 7177   3.355   2.076   1.778
 2093SOL    HW1 7178   3.349   2.058   1.680
 2093SOL    HW2 7179   3.442   2.044   1.813
 2094SOL     OW 7180   5.173   1.988   1.068
 2094SOL    HW1 7181   5.206   1.905   1.022
 2094SOL    HW2 7182   5.251   2.045   1.095
 2095SOL     OW 7183   6.197   6.662   3.922
 2095SOL    HW1 7184   6.115   6.696   3.968
 2095SOL    HW2 7185   6.253   6.739   3.892
 2096SOL     OW 7186   4.488   5.535   3.430
 2096SOL    HW1 7187   4.453   5.442   3.435
 2096SOL    HW2 7188   4.588   5.533   3.428
 2097SOL     OW 7189   2.744   3.472   0.108
 2097SOL    HW1 7190   2.767   3.434   0.198
 2097SOL    HW2 7191   2.672   3.417   0.067
 2098SOL     OW 7192   3.978   6.198   3.091
 2098SOL    HW1 7193   3.985   6.251   3.007
 2098SOL    HW2 7194   4.068   6.194   3.135
 2099SOL     OW 7195   4.840   1.246   6.388
 2099SOL    HW1 7196   4.808   1.219   6.479
 2099SOL    HW2 7197   4.899   1.326   6.396
 2100SOL     OW 7198   4.510   1.349   0.150
 2100SOL    HW1 7199   4.513   1.264   0.202
 2100SOL    HW2 7200   4.603   1.378   0.128
 2101SOL     OW 7201   6.839   6.175   0.998
 2101SOL    HW1 7202   6.879   6.153   0.909
 2101SOL    HW2 7203   6.894   6.245   1.043
 2102SOL     OW 7204   4.647   3.685   1.721
 2102SOL    HW1 7205   4.683   3.593   1.710
 2102SOL    HW2 7206   4.719   3.746   1.755
 2103SOL     OW 7207   4.118   4.128   0.298
 2103SOL    HW1 7208   4.084   4.155   0.209
 2103SOL    HW2 7209   4.044   4.086   0.351
 2104SOL     OW 7210   1.404   4.601   1.932
 2104SOL    HW1 7211   1.333   4.547   1.977
 2104SOL    HW2 7212   1.417   4.687   1.981
 2105SOL     OW 7213   3.949   4.856   6.762
 2105SOL    HW1 7214   4.032   4.903   6.735
 2105SOL    HW2 7215   3.956   4.827   6.858
 2106SOL     OW 7216   5.318   3.604   1.140
 2106SOL    HW1 7217   5.271   3.645   1.218
 2106SOL    HW2 7218   5.273   3.632   1.055
 2107SOL     OW 7219   6.220   2.660   5.732
 2107SOL    HW1 7220   6.250   2.717   5.656
 2107SOL    HW2 7221   6.256   2.568   5.721
 2108SOL     OW 7222   5.852   5.631   4.859
 2108SOL    HW1 7223   5.762   5.590   4.870
 2108SOL    HW2 7224   5.843   5.730   4.853
 2109SOL     OW 7225   2.566   5.824   2.338
 2109SOL    HW1 7226   2.636   5.893   2.358
 2109SOL    HW2 7227   2.601   5.762   2.268
 2110SOL     OW 7228   3.814   0.806   6.186
 2110SOL    HW1 7229   3.728   0.814   6.236
 2110SOL    HW2 7230   3.891   0.812   6.249
 2111SOL     OW 7231   1.766   2.718   5.243
 2111SOL    HW1 7232   1.687   2.689   5.189
 2111SOL    HW2 7233   1.790   2.812   5.217
 2112SOL     OW 7234   5.428   1.909   6.871
 2112SOL    HW1 7235   5.353   1.948   6.817
 2112SOL    HW2 7236   5.426   1.810   6.864
 2113SOL     OW 7237   1.977   0.202   5.003
 2113SOL    HW1 7238   1.901   0.165   4.950
 2113SOL    HW2 7239   2.062   0.190   4.952
 2114SOL     OW 7240   2.225   2.778   6.924
 2114SOL    HW1 7241   2.155   2.717   6.962
 2114SOL    HW2 7242   2.314   2.731   6.924
 2115SOL     OW 7243   0.919   4.416   2.174
 2115SOL    HW1 7244   0.833   4.439   2.129
 2115SOL    HW2 7245   0.993   4.415   2.106
 2116SOL     OW 7246   1.465   3.141   1.611
 2116SOL    HW1 7247   1.495   3.057   1.656
 2116SOL    HW2 7248   1.539   3.208   1.614
 2117SOL     OW 7249   5.098   3.759   1.600
 2117SOL    HW1 7250   5.060   3.698   1.670
 2117SOL    HW2 7251   5.161   3.824   1.643
 2118SOL     OW 7252   6.540   3.489   2.642
 2118SOL    HW1 7253   6.607   3.419   2.616
 2118SOL    HW2 7254   6.523   3.482   2.741
 2119SOL     OW 7255   2.001   1.155   1.082
 2119SOL    HW1 7256   1.982   1.252   1.094
 2119SOL    HW2 7257   2.100   1.139   1.083
 2120SOL     OW 7258   0.041   2.827   2.017
 2120SOL    HW1 7259   6.964   2.810   2.008
 2120SOL    HW2 7260   0.089   2.786   1.939
 2121SOL     OW 7261   2.022   2.826   6.699
 2121SOL    HW1 7262   2.049   2.857   6.608
 2121SOL    HW2 7263   2.096   2.843   6.763
 2122SOL     OW 7264   5.936   6.535   5.729
 2122SOL    HW1 7265   6.025   6.493   5.745
 2122SOL    HW2 7266   5.936   6.583   5.641
 2123SOL     OW 7267   6.137   6.219   2.296
 2123SOL    HW1 7268   6.155   6.136   2.349
 2123SOL    HW2 7269   6.224   6.259   2.267
 2124SOL     OW 7270   2.866   1.908   0.046
 2124SOL    HW1 7271   2.935   1.872   7.005
 2124SOL    HW2 7272   2.870   2.008   0.047
 2125SOL     OW 7273   0.795   5.630   2.212
 2125SOL    HW1 7274   0.731   5.553   2.203
 2125SOL    HW2 7275   0.816   5.667   2.122
 2126SOL     OW 7276   3.982   2.626   6.154
 2126SOL    HW1 7277   3.919   2.562   6.198
 2126SOL    HW2 7278   3.956   2.720   6.179
 2127SOL     OW 7279   0.648   1.722   5.413
 2127SOL    HW1 7280   0.677   1.690   5.503
 2127SOL    HW2 7281   0.569   1.783   5.423
 2128SOL     OW 7282   5.929   2.630   1.052
 2128SOL    HW1 7283   5.899   2.646   0.958
 2128SOL    HW2 7284   5.860   2.576   1.100
 2129SOL     OW 7285   4.673   4.464   4.284
 2129SOL    HW1 7286   4.623   4.487   4.368
 2129SOL    HW2 7287   4.610   4.463   4.207
 2130SOL     OW 7288   2.198   1.570   1.510
 2130SOL    HW1 7289   2.113   1.524   1.536
 2130SOL    HW2 7290   2.241   1.609   1.591
 2131SOL     OW 7291   4.727   1.761   0.932
 2131SOL    HW1 7292   4.744   1.774   1.029
 2131SOL    HW2 7293   4.640   1.803   0.907
 2132SOL     OW 7294   3.367   1.406   6.722
 2132SOL    HW1 7295   3.288   1.345   6.735
 2132SOL    HW2 7296   3.406   1.429   6.812
 2133SOL     OW 7297   3.449   2.303   0.655
 2133SOL    HW1 7298   3.541   2.316   0.616
 2133SOL    HW2 7299   3.399   2.236   0.601
 2134SOL     OW 7300   1.057   0.832   5.074
 2134SOL    HW1 7301   1.130   0.871   5.130
 2134SOL    HW2 7302   1.004   0.906   5.032
 2135SOL     OW 7303   0.314   1.559   4.469
 2135SOL    HW1 7304   0.388   1.512   4.518
 2135SOL    HW2 7305   0.352   1.608   4.391
 2136SOL     OW 7306   1.268   3.422   4.435
 2136SOL    HW1 7307   1.172   3.398   4.420
 2136SOL    HW2 7308   1.321   3.339   4.449
 2137SOL     OW 7309   0.719   6.659   4.591
 2137SOL    HW1 7310   0.642   6.720   4.574
 2137SOL    HW2 7311   0.740   6.658   4.689
 2138SOL     OW 7312   6.094   2.889   1.690
 2138SOL    HW1 7313   6.142   2.881   1.603
 2138SOL    HW2 7314   6.135   2.963   1.743
 2139SOL     OW 7315   4.096   1.332   3.127
 2139SOL    HW1 7316   4.133   1.274   3.199
 2139SOL    HW2 7317   4.154   1.327   3.046
 2140SOL     OW 7318   3.209   6.358   3.253
 2140SOL    HW1 7319   3.127   6.325   3.206
 2140SOL    HW2 7320   3.183   6.423   3.325
 2141SOL     OW 7321   6.542   2.902   1.653
 2141SOL    HW1 7322   6.606   2.975   1.677
 2141SOL    HW2 7323   6.449   2.931   1.674
 2142SOL     OW 7324   1.354   2.333   3.462
 2142SOL    HW1 7325   1.329   2.245   3.501
 2142SOL    HW2 7326   1.277   2.369   3.408
 2143SOL     OW 7327   3.288   5.219   1.099
 2143SOL    HW1 7328   3.334   5.232   1.187
 2143SOL    HW2 7329   3.264   5.307   1.061
 2144SOL     OW 7330   2.043   0.580   2.876
 2144SOL    HW1 7331   1.961   0.634   2.898
 2144SOL    HW2 7332   2.020   0.483   2.880
 2145SOL     OW 7333   3.491   5.232   4.340
 2145SOL    HW1 7334   3.502   5.260   4.245
 2145SOL    HW2 7335   3.579   5.200   4.376
 2146SOL     OW 7336   2.992   3.936   2.523
 2146SOL    HW1 7337   2.984   4.028   2.561
 2146SOL    HW2 7338   2.979   3.869   2.596
 2147SOL     OW 7339   6.662   1.316   0.247
 2147SOL    HW1 7340   6.707   1.289   0.162
 2147SOL    HW2 7341   6.665   1.416   0.256
 2148SOL     OW 7342   5.194   3.096   4.408
 2148SOL    HW1 7343   5.211   2.999   4.423
 2148SOL    HW2 7344   5.171   3.141   4.494
 2149SOL     OW 7345   4.170   0.512   1.157
 2149SOL    HW1 7346   4.203   0.441   1.095
 2149SOL    HW2 7347   4.135   0.590   1.105
 2150SOL     OW 7348   3.267   2.102   2.062
 2150SOL    HW1 7349   3.182   2.101   2.008
 2150SOL    HW2 7350   3.340   2.145   2.009
 2151SOL     OW 7351   2.700   2.008   4.437
 2151SOL    HW1 7352   2.766   2.025   4.363
 2151SOL    HW2 7353   2.612   1.983   4.397
 2152SOL     OW 7354   3.957   6.400   2.355
 2152SOL    HW1 7355   3.885   6.330   2.352
 2152SOL    HW2 7356   3.971   6.439   2.264
 2153SOL     OW 7357   3.931   0.695   3.425
 2153SOL    HW1 7358   3.953   0.699   3.522
 2153SOL    HW2 7359   3.976   0.770   3.377
 2154SOL     OW 7360   3.115   6.279   4.802
 2154SOL    HW1 7361   3.203   6.271   4.848
 2154SOL    HW2 7362   3.101   6.201   4.741
 2155SOL     OW 7363   1.581   5.230   0.384
 2155SOL    HW1 7364   1.680   5.220   0.377
 2155SOL    HW2 7365   1.549   5.184   0.467
 2156SOL     OW 7366   2.920   0.792   1.793
 2156SOL    HW1 7367   2.832   0.841   1.791
 2156SOL    HW2 7368   2.921   0.723   1.721
 2157SOL     OW 7369   6.494   0.871   3.424
 2157SOL    HW1 7370   6.401   0.839   3.406
 2157SOL    HW2 7371   6.559   0.804   3.389
 2158SOL     OW 7372   3.667   6.546   0.494
 2158SOL    HW1 7373   3.669   6.638   0.533
 2158SOL    HW2 7374   3.682   6.551   0.395
 2159SOL     OW 7375   1.588   6.039   5.757
 2159SOL    HW1 7376   1.639   6.121   5.728
 2159SOL    HW2 7377   1.542   6.058   5.843
 2160SOL     OW 7378   4.382   3.754   1.628
 2160SOL    HW1 7379   4.341   3.835   1.669
 2160SOL    HW2 7380   4.459   3.722   1.684
 2161SOL     OW 7381   4.939   3.331   3.671
 2161SOL    HW1 7382   4.925   3.265   3.745
 2161SOL    HW2 7383   5.008   3.398   3.700
 2162SOL     OW 7384   2.530   0.293   0.217
 2162SOL    HW1 7385   2.584   0.211   0.236
 2162SOL    HW2 7386   2.444   0.267   0.173
 2163SOL     OW 7387   6.865   5.493   6.538
 2163SOL    HW1 7388   6.920   5.411   6.523
 2163SOL    HW2 7389   6.805   5.509   6.460
 2164SOL     OW 7390   1.713   1.521   7.000
 2164SOL    HW1 7391   1.624   1.559   0.002
 2164SOL    HW2 7392   1.710   1.421   7.008
 2165SOL     OW 7393   1.514   1.500   2.901
 2165SOL    HW1 7394   1.480   1.415   2.940
 2165SOL    HW2 7395   1.472   1.515   2.811
 2166SOL     OW 7396   2.002   2.330   5.862
 2166SOL    HW1 7397   1.963   2.408   5.911
 2166SOL    HW2 7398   1.939   2.302   5.789
 2167SOL     OW 7399   2.598   0.559   2.444
 2167SOL    HW1 7400   2.655   0.639   2.461
 2167SOL    HW2 7401   2.502   0.583   2.458
 2168SOL     OW 7402   6.550   2.346   4.422
 2168SOL    HW1 7403   6.453   2.345   4.396
 2168SOL    HW2 7404   6.559   2.383   4.515
 2169SOL     OW 7405   5.565   1.773   6.234
 2169SOL    HW1 7406   5.592   1.869   6.237
 2169SOL    HW2 7407   5.639   1.717   6.271
 2170SOL     OW 7408   5.855   4.721   5.062
 2170SOL    HW1 7409   5.945   4.728   5.104
 2170SOL    HW2 7410   5.847   4.789   4.989
 2171SOL     OW 7411   6.456   2.801   0.671
 2171SOL    HW1 7412   6.403   2.799   0.586
 2171SOL    HW2 7413   6.467   2.896   0.701
 2172SOL     OW 7414   3.436   1.263   0.440
 2172SOL    HW1 7415   3.446   1.169   0.473
 2172SOL    HW2 7416   3.385   1.263   0.354
 2173SOL     OW 7417   3.646   0.429   5.600
 2173SOL    HW1 7418   3.673   0.333   5.599
 2173SOL    HW2 7419   3.728   0.486   5.594
 2174SOL     OW 7420   6.330   5.091   5.800
 2174SOL    HW1 7421   6.403   5.047   5.852
 2174SOL    HW2 7422   6.371   5.154   5.733
 2175SOL     OW 7423   3.184   2.080   2.699
 2175SOL    HW1 7424   3.215   2.162   2.746
 2175SOL    HW2 7425   3.250   2.006   2.715
 2176SOL     OW 7426   0.842   2.079   1.723
 2176SOL    HW1 7427   0.886   2.168   1.731
 2176SOL    HW2 7428   0.902   2.009   1.760
 2177SOL     OW 7429   6.412   0.296   2.363
 2177SOL    HW1 7430   6.433   0.385   2.405
 2177SOL    HW2 7431   6.313   0.285   2.357
 2178SOL     OW 7432   0.616   4.261   0.523
 2178SOL    HW1 7433   0.648   4.180   0.474
 2178SOL    HW2 7434   0.648   4.343   0.475
 2179SOL     OW 7435   2.149   5.797   4.372
 2179SOL    HW1 7436   2.189   5.866   4.313
 2179SOL    HW2 7437   2.167   5.706   4.335
 2180SOL     OW 7438   2.955   3.087   1.901
 2180SOL    HW1 7439   2.885   3.027   1.862
 2180SOL    HW2 7440   2.931   3.183   1.884
 2181SOL     OW 7441   4.579   3.870   5.622
 2181SOL    HW1 7442   4.618   3.836   5.536
 2181SOL    HW2 7443   4.501   3.930   5.602
 2182SOL     OW 7444   6.660   3.036   6.288
 2182SOL    HW1 7445   6.628   3.026   6.382
 2182SOL    HW2 7446   6.696   2.948   6.256
 2183SOL     OW 7447   3.615   3.252   0.599
 2183SOL    HW1 7448   3.573   3.174   0.553
 2183SOL    HW2 7449   3.690   3.287   0.543
 2184SOL     OW 7450   3.551   0.147   5.441
 2184SOL    HW1 7451   3.592   0.228   5.399
 2184SOL    HW2 7452   3.588   0.065   5.398
 2185SOL     OW 7453   1.965   1.435   1.634
 2185SOL    HW1 7454   1.867   1.442   1.655
 2185SOL    HW2 7455   1.987   1.342   1.607
 2186SOL     OW 7456   0.141   4.249   2.346
 2186SOL    HW1 7457   0.072   4.290   2.287
 2186SOL    HW2 7458   0.103   4.232   2.437
 2187SOL     OW 7459   0.608   0.999   1.634
 2187SOL    HW1 7460   0.540   1.050   1.581
 2187SOL    HW2 7461   0.594   1.017   1.731
 2188SOL     OW 7462   4.921   5.997   3.766
 2188SOL    HW1 7463   4.905   5.995   3.865
 2188SOL    HW2 7464   5.009   6.040   3.747
 2189SOL     OW 7465   1.509   0.007   6.631
 2189SOL    HW1 7466   1.521   0.080   6.562
 2189SOL    HW2 7467   1.443   6.961   6.597
 2190SOL     OW 7468   6.096   2.791   1.203
 2190SOL    HW1 7469   6.036   2.734   1.146
 2190SOL    HW2 7470   6.178   2.814   1.150
 2191SOL     OW 7471   3.642   1.819   6.399
 2191SOL    HW1 7472   3.653   1.831   6.300
 2191SOL    HW2 7473   3.728   1.843   6.444
 2192SOL     OW 7474   4.137   0.050   4.777
 2192SOL    HW1 7475   4.117   0.146   4.758
 2192SOL    HW2 7476   4.051   7.020   4.779
 2193SOL     OW 7477   6.565   5.464   6.034
 2193SOL    HW1 7478   6.508   5.543   6.009
 2193SOL    HW2 7479   6.522   5.415   6.110
 2194SOL     OW 7480   2.559   5.498   0.117
 2194SOL    HW1 7481   2.556   5.425   0.186
 2194SOL    HW2 7482   2.578   5.457   0.027
 2195SOL     OW 7483   0.096   6.422   1.838
 2195SOL    HW1 7484   0.007   6.465   1.854
 2195SOL    HW2 7485   0.137   6.398   1.926
 2196SOL     OW 7486   2.216   0.739   5.896
 2196SOL    HW1 7487   2.300   0.728   5.843
 2196SOL    HW2 7488   2.140   0.761   5.834
 2197SOL     OW 7489   5.067   4.103   1.567
 2197SOL    HW1 7490   5.122   4.055   1.636
 2197SOL    HW2 7491   5.048   4.196   1.600
 2198SOL     OW 7492   6.722   2.849   6.864
 2198SOL    HW1 7493   6.745   2.946   6.855
 2198SOL    HW2 7494   6.802   2.798   6.893
 2199SOL     OW 7495   5.130   0.044   0.772
 2199SOL    HW1 7496   5.224   0.019   0.793
 2199SOL    HW2 7497   5.081   6.984   0.739
 2200SOL     OW 7498   3.890   0.773   4.081
 2200SOL    HW1 7499   3.888   0.739   3.987
 2200SOL    HW2 7500   3.945   0.711   4.137
 2201SOL     OW 7501   6.150   4.105   2.247
 2201SOL    HW1 7502   6.145   4.194   2.202
 2201SOL    HW2 7503   6.094   4.039   2.197
 2202SOL     OW 7504   3.440   5.099   4.685
 2202SOL    HW1 7505   3.508   5.030   4.662
 2202SOL    HW2 7506   3.373   5.060   4.747
 2203SOL     OW 7507   3.419   2.038   2.442
 2203SOL    HW1 7508   3.474   1.998   2.369
 2203SOL    HW2 7509   3.356   2.106   2.404
 2204SOL     OW 7510   4.048   1.238   6.361
 2204SOL    HW1 7511   4.002   1.322   6.389
 2204SOL    HW2 7512   3.981   1.171   6.331
 2205SOL     OW 7513   1.167   0.769   6.664
 2205SOL    HW1 7514   1.201   0.840   6.602
 2205SOL    HW2 7515   1.210   0.780   6.754
 2206SOL     OW 7516   3.116   4.292   5.596
 2206SOL    HW1 7517   3.068   4.214   5.636
 2206SOL    HW2 7518   3.158   4.264   5.509
 2207SOL     OW 7519   1.717   4.386   6.220
 2207SOL    HW1 7520   1.671   4.469   6.189
 2207SOL    HW2 7521   1.666   4.306   6.189
 2208SOL     OW 7522   1.620   5.011   2.139
 2208SOL    HW1 7523   1.657   5.083   2.198
 2208SOL    HW2 7524   1.596   5.050   2.050
 2209SOL     OW 7525   1.442   6.015   5.974
 2209SOL    HW1 7526   1.403   6.044   6.061
 2209SOL    HW2 7527   1.404   5.926   5.949
 2210SOL     OW 7528   0.855   5.226   3.210
 2210SOL    HW1 7529   0.881   5.313   3.169
 2210SOL    HW2 7530   0.806   5.170   3.143
 2211SOL     OW 7531   5.424   1.478   5.458
 2211SOL    HW1 7532   5.431   1.378   5.461
 2211SOL    HW2 7533   5.383   1.506   5.371
 2212SOL     OW 7534   0.475   6.182   6.955
 2212SOL    HW1 7535   0.465   6.147   6.862
 2212SOL    HW2 7536   0.570   6.174   6.984
 2213SOL     OW 7537   4.565   2.650   4.780
 2213SOL    HW1 7538   4.600   2.668   4.688
 2213SOL    HW2 7539   4.496   2.578   4.776
 2214SOL     OW 7540   4.318   0.747   5.392
 2214SOL    HW1 7541   4.356   0.795   5.313
 2214SOL    HW2 7542   4.308   0.650   5.371
 2215SOL     OW 7543   6.953   1.221   5.599
 2215SOL    HW1 7544   6.895   1.227   5.518
 2215SOL    HW2 7545   0.012   1.279   5.587
 2216SOL     OW 7546   1.543   0.160   0.025
 2216SOL    HW1 7547   1.560   0.084   6.984
 2216SOL    HW2 7548   1.465   0.213   7.014
 2217SOL     OW 7549   3.669   0.287   0.888
 2217SOL    HW1 7550   3.628   0.331   0.968
 2217SOL    HW2 7551   3.597   0.263   0.822
 2218SOL     OW 7552   0.855   6.721   0.472
 2218SOL    HW1 7553   0.922   6.792   0.494
 2218SOL    HW2 7554   0.765   6.763   0.459
 2219SOL     OW 7555   1.574   3.989   3.131
 2219SOL    HW1 7556   1.505   4.050   3.169
 2219SOL    HW2 7557   1.664   4.029   3.143
 2220SOL     OW 7558   0.420   1.304   4.050
 2220SOL    HW1 7559   0.414   1.399   4.079
 2220SOL    HW2 7560   0.503   1.291   3.996
 2221SOL     OW 7561   0.007   1.991   0.605
 2221SOL    HW1 7562   0.005   1.964   0.701
 2221SOL    HW2 7563   7.011   1.912   0.547
 2222SOL     OW 7564   4.277   0.809   1.063
 2222SOL    HW1 7565   4.231   0.894   1.089
 2222SOL    HW2 7566   4.320   0.769   1.143
 2223SOL     OW 7567   5.706   5.219   3.758
 2223SOL    HW1 7568   5.757   5.184   3.680
 2223SOL    HW2 7569   5.756   5.199   3.842
 2224SOL     OW 7570   1.644   4.397   1.182
 2224SOL    HW1 7571   1.593   4.311   1.184
 2224SOL    HW2 7572   1.737   4.382   1.217
 2225SOL     OW 7573   6.260   4.484   2.456
 2225SOL    HW1 7574   6.333   4.481   2.524
 2225SOL    HW2 7575   6.295   4.453   2.367
 2226SOL     OW 7576   3.636   3.337   1.038
 2226SOL    HW1 7577   3.600   3.261   0.984
 2226SOL    HW2 7578   3.599   3.423   1.004
 2227SOL     OW 7579   6.069   3.812   6.495
 2227SOL    HW1 7580   6.144   3.859   6.542
 2227SOL    HW2 7581   6.016   3.759   6.561
 2228SOL     OW 7582   3.373   5.409   0.655
 2228SOL    HW1 7583   3.401   5.479   0.720
 2228SOL    HW2 7584   3.274   5.413   0.643
 2229SOL     OW 7585   4.486   1.882   4.054
 2229SOL    HW1 7586   4.473   1.960   3.993
 2229SOL    HW2 7587   4.401   1.828   4.058
 2230SOL     OW 7588   1.153   6.018   3.866
 2230SOL    HW1 7589   1.178   6.096   3.809
 2230SOL    HW2 7590   1.059   5.989   3.845
 2231SOL     OW 7591   1.588   1.840   2.572
 2231SOL    HW1 7592   1.600   1.803   2.480
 2231SOL    HW2 7593   1.669   1.893   2.596
 2232SOL     OW 7594   0.637   3.142   4.133
 2232SOL    HW1 7595   0.603   3.234   4.114
 2232SOL    HW2 7596   0.564   3.089   4.177
 2233SOL     OW 7597   3.478   5.106   6.939
 2233SOL    HW1 7598   3.427   5.107   6.854
 2233SOL    HW2 7599   3.465   5.018   6.985
 2234SOL     OW 7600   4.002   2.697   0.594
 2234SOL    HW1 7601   3.926   2.748   0.554
 2234SOL    HW2 7602   4.057   2.758   0.651
 2235SOL     OW 7603   1.161   0.430   0.361
 2235SOL    HW1 7604   1.078   0.395   0.318
 2235SOL    HW2 7605   1.233   0.439   0.291
 2236SOL     OW 7606   1.119   4.611   0.936
 2236SOL    HW1 7607   1.082   4.689   0.886
 2236SOL    HW2 7608   1.044   4.561   0.979
 2237SOL     OW 7609   6.620   3.600   4.657
 2237SOL    HW1 7610   6.661   3.510   4.649
 2237SOL    HW2 7611   6.546   3.598   4.725
 2238SOL     OW 7612   0.187   5.303   1.955
 2238SOL    HW1 7613   0.165   5.383   1.899
 2238SOL    HW2 7614   0.261   5.326   2.019
 2239SOL     OW 7615   3.725   4.880   4.170
 2239SOL    HW1 7616   3.631   4.845   4.160
 2239SOL    HW2 7617   3.735   4.965   4.119
 2240SOL     OW 7618   6.362   5.032   3.128
 2240SOL    HW1 7619   6.428   5.064   3.196
 2240SOL    HW2 7620   6.290   5.100   3.115
 2241SOL     OW 7621   0.028   5.911   2.625
 2241SOL    HW1 7622   0.110   5.917   2.683
 2241SOL    HW2 7623   0.028   5.823   2.577
 2242SOL     OW 7624   5.628   1.241   3.167
 2242SOL    HW1 7625   5.564   1.187   3.112
 2242SOL    HW2 7626   5.670   1.311   3.109
 2243SOL     OW 7627   2.412   6.483   5.224
 2243SOL    HW1 7628   2.462   6.556   5.270
 2243SOL    HW2 7629   2.476   6.410   5.198
 2244SOL     OW 7630   3.947   1.099   3.052
 2244SOL    HW1 7631   3.863   1.108   2.998
 2244SOL    HW2 7632   3.971   1.188   3.091
 2245SOL     OW 7633   0.120   2.240   2.164
 2245SOL    HW1 7634   0.132   2.157   2.109
 2245SOL    HW2 7635   0.083   2.313   2.107
 2246SOL     OW 7636   1.626   2.460   5.678
 2246SOL    HW1 7637   1.714   2.508   5.688
 2246SOL    HW2 7638   1.580   2.493   5.596
 2247SOL     OW 7639   2.709   1.994   6.065
 2247SOL    HW1 7640   2.730   1.897   6.061
 2247SOL    HW2 7641   2.613   2.009   6.041
 2248SOL     OW 7642   5.122   4.048   5.602
 2248SOL    HW1 7643   5.141   4.048   5.700
 2248SOL    HW2 7644   5.177   3.977   5.557
 2249SOL     OW 7645   6.013   6.276   2.994
 2249SOL    HW1 7646   6.012   6.177   3.008
 2249SOL    HW2 7647   6.002   6.295   2.897
 2250SOL     OW 7648   5.349   4.014   1.248
 2250SOL    HW1 7649   5.435   3.969   1.226
 2250SOL    HW2 7650   5.274   3.964   1.204
 2251SOL     OW 7651   5.893   1.689   0.431
 2251SOL    HW1 7652   5.838   1.683   0.514
 2251SOL    HW2 7653   5.958   1.764   0.439
 2252SOL     OW 7654   6.414   2.791   5.395
 2252SOL    HW1 7655   6.487   2.778   5.461
 2252SOL    HW2 7656   6.336   2.836   5.439
 2253SOL     OW 7657   1.154   3.085   6.482
 2253SOL    HW1 7658   1.144   3.112   6.578
 2253SOL    HW2 7659   1.113   3.155   6.424
 2254SOL     OW 7660   2.162   2.992   5.953
 2254SOL    HW1 7661   2.202   2.991   6.045
 2254SOL    HW2 7662   2.159   3.086   5.920
 2255SOL     OW 7663   6.246   2.353   1.126
 2255SOL    HW1 7664   6.227   2.308   1.214
 2255SOL    HW2 7665   6.268   2.449   1.142
 2256SOL     OW 7666   3.642   5.306   1.831
 2256SOL    HW1 7667   3.673   5.221   1.789
 2256SOL    HW2 7668   3.710   5.339   1.896
 2257SOL     OW 7669   0.957   2.835   4.413
 2257SOL    HW1 7670   1.052   2.802   4.407
 2257SOL    HW2 7671   0.944   2.911   4.350
 2258SOL     OW 7672   1.760   5.572   4.623
 2258SOL    HW1 7673   1.719   5.508   4.558
 2258SOL    HW2 7674   1.692   5.641   4.648
 2259SOL     OW 7675   5.290   3.776   6.205
 2259SOL    HW1 7676   5.345   3.828   6.139
 2259SOL    HW2 7677   5.265   3.688   6.165
 2260SOL     OW 7678   4.264   4.680   3.022
 2260SOL    HW1 7679   4.349   4.701   3.071
 2260SOL    HW2 7680   4.281   4.609   2.954
 2261SOL     OW 7681   5.844   6.534   0.990
 2261SOL    HW1 7682   5.804   6.621   0.961
 2261SOL    HW2 7683   5.926   6.515   0.935
 2262SOL     OW 7684   5.507   2.328   3.095
 2262SOL    HW1 7685   5.600   2.332   3.131
 2262SOL    HW2 7686   5.498   2.393   3.020
 2263SOL     OW 7687   2.216   6.203   6.321
 2263SOL    HW1 7688   2.301   6.154   6.340
 2263SOL    HW2 7689   2.201   6.273   6.392
 2264SOL     OW 7690   3.279   3.674   2.061
 2264SOL    HW1 7691   3.203   3.731   2.030
 2264SOL    HW2 7692   3.258   3.578   2.042
 2265SOL     OW 7693   0.401   0.945   3.519
 2265SOL    HW1 7694   0.417   0.971   3.424
 2265SOL    HW2 7695   0.304   0.956   3.541
 2266SOL     OW 7696   6.983   1.385   1.008
 2266SOL    HW1 7697   0.023   1.340   1.074
 2266SOL    HW2 7698   6.945   1.316   0.946
 2267SOL     OW 7699   5.887   2.656   4.815
 2267SOL    HW1 7700   5.820   2.684   4.747
 2267SOL    HW2 7701   5.944   2.735   4.839
 2268SOL     OW 7702   6.137   6.015   0.573
 2268SOL    HW1 7703   6.177   5.933   0.613
 2268SOL    HW2 7704   6.050   6.035   0.617
 2269SOL     OW 7705   6.032   5.417   5.317
 2269SOL    HW1 7706   5.946   5.367   5.309
 2269SOL    HW2 7707   6.027   5.500   5.261
 2270SOL     OW 7708   3.542   3.925   1.121
 2270SOL    HW1 7709   3.467   3.948   1.059
 2270SOL    HW2 7710   3.628   3.924   1.070
 2271SOL     OW 7711   6.405   4.295   1.122
 2271SOL    HW1 7712   6.362   4.275   1.034
 2271SOL    HW2 7713   6.353   4.365   1.170
 2272SOL     OW 7714   5.987   2.199   4.593
 2272SOL    HW1 7715   5.960   2.294   4.609
 2272SOL    HW2 7716   6.075   2.182   4.635
 2273SOL     OW 7717   1.750   1.819   3.576
 2273SOL    HW1 7718   1.717   1.739   3.626
 2273SOL    HW2 7719   1.850   1.821   3.577
 2274SOL     OW 7720   1.393   3.595   4.922
 2274SOL    HW1 7721   1.349   3.602   4.833
 2274SOL    HW2 7722   1.342   3.648   4.989
 2275SOL     OW 7723   4.593   0.065   4.575
 2275SOL    HW1 7724   4.636   7.000   4.546
 2275SOL    HW2 7725   4.645   0.104   4.651
 2276SOL     OW 7726   3.360   5.524   1.324
 2276SOL    HW1 7727   3.285   5.554   1.265
 2276SOL    HW2 7728   3.435   5.590   1.319
 2277SOL     OW 7729   3.305   3.242   4.881
 2277SOL    HW1 7730   3.342   3.154   4.851
 2277SOL    HW2 7731   3.366   3.283   4.949
 2278SOL     OW 7732   4.797   6.836   3.134
 2278SOL    HW1 7733   4.740   6.825   3.052
 2278SOL    HW2 7734   4.892   6.814   3.110
 2279SOL     OW 7735   5.504   4.462   3.928
 2279SOL    HW1 7736   5.587   4.494   3.883
 2279SOL    HW2 7737   5.489   4.516   4.011
 2280SOL     OW 7738   6.503   6.369   5.191
 2280SOL    HW1 7739   6.543   6.323   5.112
 2280SOL    HW2 7740   6.576   6.402   5.251
 2281SOL     OW 7741   3.373   1.561   1.345
 2281SOL    HW1 7742   3.385   1.504   1.426
 2281SOL    HW2 7743   3.385   1.657   1.369
 2282SOL     OW 7744   5.454   6.248   4.635
 2282SOL    HW1 7745   5.503   6.204   4.559
 2282SOL    HW2 7746   5.409   6.178   4.690
 2283SOL     OW 7747   6.415   3.318   2.461
 2283SOL    HW1 7748   6.431   3.406   2.506
 2283SOL    HW2 7749   6.500   3.285   2.421
 2284SOL     OW 7750   2.752   2.093   1.623
 2284SOL    HW1 7751   2.673   2.071   1.680
 2284SOL    HW2 7752   2.829   2.033   1.646
 2285SOL     OW 7753   1.129   3.577   0.571
 2285SOL    HW1 7754   1.043   3.528   0.555
 2285SOL    HW2 7755   1.194   3.554   0.498
 2286SOL     OW 7756   6.936   5.793   5.239
 2286SOL    HW1 7757   6.960   5.881   5.196
 2286SOL    HW2 7758   6.957   5.719   5.176
 2287SOL     OW 7759   2.210   3.254   1.530
 2287SOL    HW1 7760   2.204   3.351   1.510
 2287SOL    HW2 7761   2.205   3.240   1.629
 2288SOL     OW 7762   0.880   5.904   3.767
 2288SOL    HW1 7763   0.830   5.933   3.685
 2288SOL    HW2 7764   0.880   5.804   3.772
 2289SOL     OW 7765   5.531   2.621   1.883
 2289SOL    HW1 7766   5.556   2.714   1.911
 2289SOL    HW2 7767   5.484   2.576   1.959
 2290SOL     OW 7768   3.138   3.294   2.350
 2290SOL    HW1 7769   3.134   3.241   2.265
 2290SOL    HW2 7770   3.232   3.327   2.363
 2291SOL     OW 7771   1.982   2.056   1.175
 2291SOL    HW1 7772   2.003   2.084   1.081
 2291SOL    HW2 7773   1.914   2.119   1.214
 2292SOL     OW 7774   5.278   3.286   3.849
 2292SOL    HW1 7775   5.247   3.362   3.792
 2292SOL    HW2 7776   5.247   3.200   3.810
 2293SOL     OW 7777   5.551   1.098   0.358
 2293SOL    HW1 7778   5.609   1.142   0.426
 2293SOL    HW2 7779   5.593   1.012   0.329
 2294SOL     OW 7780   3.069   1.804   6.148
 2294SOL    HW1 7781   3.035   1.837   6.060
 2294SOL    HW2 7782   3.159   1.843   6.166
 2295SOL     OW 7783   6.659   1.037   1.921
 2295SOL    HW1 7784   6.621   0.970   1.984
 2295SOL    HW2 7785   6.749   1.065   1.953
 2296SOL     OW 7786   2.728   4.704   3.165
 2296SOL    HW1 7787   2.663   4.768   3.127
 2296SOL    HW2 7788   2.821   4.737   3.148
 2297SOL     OW 7789   4.588   4.531   5.783
 2297SOL    HW1 7790   4.650   4.464   5.743
 2297SOL    HW2 7791   4.506   4.539   5.726
 2298SOL     OW 7792   3.809   3.714   3.223
 2298SOL    HW1 7793   3.763   3.661   3.295
 2298SOL    HW2 7794   3.763   3.698   3.136
 2299SOL     OW 7795   4.913   3.737   4.817
 2299SOL    HW1 7796   4.872   3.675   4.884
 2299SOL    HW2 7797   4.850   3.750   4.740
 2300SOL     OW 7798   3.733   6.665   3.351
 2300SOL    HW1 7799   3.752   6.764   3.349
 2300SOL    HW2 7800   3.746   6.631   3.444
 2301SOL     OW 7801   3.415   2.877   4.398
 2301SOL    HW1 7802   3.498   2.896   4.344
 2301SOL    HW2 7803   3.347   2.833   4.341
 2302SOL     OW 7804   4.401   0.370   0.982
 2302SOL    HW1 7805   4.343   0.290   0.995
 2302SOL    HW2 7806   4.349   0.443   0.938
 2303SOL     OW 7807   2.352   3.012   0.970
 2303SOL    HW1 7808   2.449   3.022   0.988
 2303SOL    HW2 7809   2.328   2.914   0.968
 2304SOL     OW 7810   6.205   5.960   3.826
 2304SOL    HW1 7811   6.188   6.049   3.784
 2304SOL    HW2 7812   6.292   5.924   3.791
 2305SOL     OW 7813   1.679   0.642   4.130
 2305SOL    HW1 7814   1.736   0.690   4.196
 2305SOL    HW2 7815   1.663   0.700   4.051
 2306SOL     OW 7816   1.476   5.171   2.521
 2306SOL    HW1 7817   1.537   5.098   2.553
 2306SOL    HW2 7818   1.394   5.172   2.577
 2307SOL     OW 7819   1.193   2.861   5.534
 2307SOL    HW1 7820   1.284   2.883   5.569
 2307SOL    HW2 7821   1.124   2.893   5.599
 2308SOL     OW 7822   2.257   4.973   1.111
 2308SOL    HW1 7823   2.280   5.040   1.182
 2308SOL    HW2 7824   2.253   5.020   1.022
 2309SOL     OW 7825   1.817   0.447   3.944
 2309SOL    HW1 7826   1.765   0.504   4.008
 2309SOL    HW2 7827   1.910   0.483   3.935
 2310SOL     OW 7828   5.373   6.635   2.394
 2310SOL    HW1 7829   5.328   6.723   2.378
 2310SOL    HW2 7830   5.316   6.562   2.357
 2311SOL     OW 7831   2.162   6.027   6.880
 2311SOL    HW1 7832   2.194   5.935   6.903
 2311SOL    HW2 7833   2.131   6.073   6.963
 2312SOL     OW 7834   3.715   5.684   3.676
 2312SOL    HW1 7835   3.631   5.673   3.728
 2312SOL    HW2 7836   3.735   5.782   3.665
 2313SOL     OW 7837   5.147   4.844   2.235
 2313SOL    HW1 7838   5.055   4.837   2.195
 2313SOL    HW2 7839   5.178   4.754   2.264
 2314SOL     OW 7840   3.503   6.064   2.955
 2314SOL    HW1 7841   3.515   5.980   3.008
 2314SOL    HW2 7842   3.419   6.110   2.983
 2315SOL     OW 7843   5.100   3.544   5.872
 2315SOL    HW1 7844   5.121   3.571   5.966
 2315SOL    HW2 7845   5.070   3.624   5.820
 2316SOL     OW 7846   4.848   2.262   3.491
 2316SOL    HW1 7847   4.785   2.186   3.475
 2316SOL    HW2 7848   4.821   2.311   3.573
 2317SOL     OW 7849   0.757   5.158   2.932
 2317SOL    HW1 7850   0.678   5.097   2.938
 2317SOL    HW2 7851   0.822   5.121   2.865
 2318SOL     OW 7852   0.618   2.506   3.524
 2318SOL    HW1 7853   0.572   2.498   3.613
 2318SOL    HW2 7854   0.571   2.448   3.457
 2319SOL     OW 7855   2.144   4.129   5.179
 2319SOL    HW1 7856   2.057   4.080   5.187
 2319SOL    HW2 7857   2.214   4.065   5.147
 2320SOL     OW 7858   0.088   2.301   4.481
 2320SOL    HW1 7859   0.049   2.340   4.565
 2320SOL    HW2 7860   0.037   2.219   4.456
 2321SOL     OW 7861   3.478   0.556   5.046
 2321SOL    HW1 7862   3.569   0.579   5.082
 2321SOL    HW2 7863   3.458   0.612   4.966
 2322SOL     OW 7864   1.669   1.927   5.587
 2322SOL    HW1 7865   1.756   1.973   5.568
 2322SOL    HW2 7866   1.629   1.896   5.500
 2323SOL     OW 7867   3.596   5.968   3.301
 2323SOL    HW1 7868   3.581   5.886   3.357
 2323SOL    HW2 7869   3.522   5.977   3.234
 2324SOL     OW 7870   0.722   6.083   2.397
 2324SOL    HW1 7871   0.724   6.101   2.299
 2324SOL    HW2 7872   0.678   5.994   2.414
 2325SOL     OW 7873   1.136   4.029   1.492
 2325SOL    HW1 7874   1.116   4.116   1.536
 2325SOL    HW2 7875   1.120   4.037   1.393
 2326SOL     OW 7876   2.040   3.882   6.496
 2326SOL    HW1 7877   1.977   3.815   6.536
 2326SOL    HW2 7878   2.107   3.909   6.565
 2327SOL     OW 7879   4.888   2.788   4.566
 2327SOL    HW1 7880   4.901   2.824   4.473
 2327SOL    HW2 7881   4.963   2.727   4.589
 2328SOL     OW 7882   4.975   1.269   3.190
 2328SOL    HW1 7883   4.946   1.175   3.176
 2328SOL    HW2 7884   4.973   1.290   3.288
 2329SOL     OW 7885   1.202   5.359   4.519
 2329SOL    HW1 7886   1.120   5.389   4.568
 2329SOL    HW2 7887   1.237   5.435   4.464
 2330SOL     OW 7888   0.145   5.255   1.367
 2330SOL    HW1 7889   0.134   5.161   1.400
 2330SOL    HW2 7890   0.063   5.281   1.315
 2331SOL     OW 7891   6.872   4.536   5.380
 2331SOL    HW1 7892   6.836   4.493   5.463
 2331SOL    HW2 7893   6.846   4.481   5.301
 2332SOL     OW 7894   5.131   2.702   5.456
 2332SOL    HW1 7895   5.217   2.729   5.501
 2332SOL    HW2 7896   5.141   2.611   5.417
 2333SOL     OW 7897   0.619   5.050   2.599
 2333SOL    HW1 7898   0.718   5.062   2.599
 2333SOL    HW2 7899   0.591   4.999   2.680
 2334SOL     OW 7900   3.179   6.432   0.197
 2334SOL    HW1 7901   3.149   6.386   0.281
 2334SOL    HW2 7902   3.255   6.382   0.157
 2335SOL     OW 7903   6.136   0.919   3.155
 2335SOL    HW1 7904   6.040   0.946   3.168
 2335SOL    HW2 7905   6.184   0.992   3.106
 2336SOL     OW 7906   4.731   0.897   5.738
 2336SOL    HW1 7907   4.703   0.818   5.792
 2336SOL    HW2 7908   4.824   0.882   5.703
 2337SOL     OW 7909   5.402   0.580   3.228
 2337SOL    HW1 7910   5.383   0.535   3.141
 2337SOL    HW2 7911   5.405   0.679   3.215
 2338SOL     OW 7912   0.523   6.844   6.933
 2338SOL    HW1 7913   0.424   6.834   6.927
 2338SOL    HW2 7914   0.548   6.883   0.001
 2339SOL     OW 7915   3.277   3.333   5.724
 2339SOL    HW1 7916   3.263   3.245   5.768
 2339SOL    HW2 7917   3.333   3.392   5.783
 2340SOL     OW 7918   3.793   6.184   5.009
 2340SOL    HW1 7919   3.847   6.267   4.994
 2340SOL    HW2 7920   3.853   6.113   5.047
 2341SOL     OW 7921   5.344   4.558   0.325
 2341SOL    HW1 7922   5.247   4.552   0.302
 2341SOL    HW2 7923   5.372   4.653   0.328
 2342SOL     OW 7924   0.644   6.611   6.029
 2342SOL    HW1 7925   0.596   6.536   5.985
 2342SOL    HW2 7926   0.604   6.698   6.001
 2343SOL     OW 7927   1.270   6.263   1.269
 2343SOL    HW1 7928   1.322   6.331   1.321
 2343SOL    HW2 7929   1.263   6.292   1.174
 2344SOL     OW 7930   2.981   1.713   2.380
 2344SOL    HW1 7931   3.022   1.632   2.421
 2344SOL    HW2 7932   3.038   1.793   2.401
 2345SOL     OW 7933   1.194   0.091   4.833
 2345SOL    HW1 7934   1.270   0.043   4.877
 2345SOL    HW2 7935   1.122   0.109   4.900
 2346SOL     OW 7936   4.558   2.919   5.450
 2346SOL    HW1 7937   4.506   2.973   5.516
 2346SOL    HW2 7938   4.585   2.977   5.373
 2347SOL     OW 7939   2.009   3.994   2.151
 2347SOL    HW1 7940   1.998   4.017   2.247
 2347SOL    HW2 7941   1.935   3.933   2.122
 2348SOL     OW 7942   2.225   6.511   3.323
 2348SOL    HW1 7943   2.290   6.545   3.254
 2348SOL    HW2 7944   2.158   6.581   3.343
 2349SOL     OW 7945   0.266   6.535   5.992
 2349SOL    HW1 7946   0.366   6.534   5.991
 2349SOL    HW2 7947   0.233   6.611   5.936
 2350SOL     OW 7948   3.145   0.648   5.589
 2350SOL    HW1 7949   3.137   0.746   5.570
 2350SOL    HW2 7950   3.239   0.627   5.616
 2351SOL     OW 7951   2.942   5.115   3.839
 2351SOL    HW1 7952   2.875   5.092   3.768
 2351SOL    HW2 7953   2.905   5.187   3.898
 2352SOL     OW 7954   6.324   4.050   4.009
 2352SOL    HW1 7955   6.415   4.090   4.013
 2352SOL    HW2 7956   6.263   4.098   4.071
 2353SOL     OW 7957   2.551   3.888   5.692
 2353SOL    HW1 7958   2.533   3.832   5.611
 2353SOL    HW2 7959   2.469   3.941   5.714
 2354SOL     OW 7960   3.288   2.636   6.858
 2354SOL    HW1 7961   3.352   2.708   6.832
 2354SOL    HW2 7962   3.228   2.671   6.931
 2355SOL     OW 7963   0.621   6.978   0.882
 2355SOL    HW1 7964   0.643   6.989   0.785
 2355SOL    HW2 7965   0.556   6.903   0.893
 2356SOL     OW 7966   2.368   4.731   2.239
 2356SOL    HW1 7967   2.361   4.710   2.141
 2356SOL    HW2 7968   2.464   4.730   2.266
 2357SOL     OW 7969   5.206   5.030   3.652
 2357SOL    HW1 7970   5.294   5.023   3.699
 2357SOL    HW2 7971   5.151   4.948   3.670
 2358SOL     OW 7972   2.891   0.121   3.864
 2358SOL    HW1 7973   2.831   0.149   3.789
 2358SOL    HW2 7974   2.862   0.165   3.948
 2359SOL     OW 7975   2.587   1.470   6.165
 2359SOL    HW1 7976   2.642   1.554   6.156
 2359SOL    HW2 7977   2.576   1.428   6.075
 2360SOL     OW 7978   3.781   4.412   6.973
 2360SOL    HW1 7979   3.853   4.471   6.936
 2360SOL    HW2 7980   3.749   4.448   0.040
 2361SOL     OW 7981   2.786   0.216   3.287
 2361SOL    HW1 7982   2.775   0.127   3.243
 2361SOL    HW2 7983   2.798   0.286   3.217
 2362SOL     OW 7984   4.517   6.098   4.893
 2362SOL    HW1 7985   4.584   6.173   4.896
 2362SOL    HW2 7986   4.444   6.122   4.829
 2363SOL     OW 7987   4.405   1.798   5.362
 2363SOL    HW1 7988   4.406   1.871   5.430
 2363SOL    HW2 7989   4.473   1.816   5.292
 2364SOL     OW 7990   5.241   1.651   1.929
 2364SOL    HW1 7991   5.143   1.636   1.938
 2364SOL    HW2 7992   5.282   1.577   1.875
 2365SOL     OW 7993   5.826   4.241   4.456
 2365SOL    HW1 7994   5.861   4.334   4.444
 2365SOL    HW2 7995   5.726   4.243   4.463
 2366SOL     OW 7996   1.596   3.943   5.233
 2366SOL    HW1 7997   1.610   3.960   5.136
 2366SOL    HW2 7998   1.661   3.873   5.264
 2367SOL     OW 7999   0.896   3.599   5.654
 2367SOL    HW1 8000   0.968   3.614   5.587
 2367SOL    HW2 8001   0.933   3.610   5.746
 2368SOL     OW 8002   4.188   1.589   4.519
 2368SOL    HW1 8003   4.214   1.513   4.459
 2368SOL    HW2 8004   4.255   1.663   4.509
 2369SOL     OW 8005   3.447   1.857   3.301
 2369SOL    HW1 8006   3.458   1.956   3.293
 2369SOL    HW2 8007   3.372   1.838   3.365
 2370SOL     OW 8008   4.676   2.762   0.207
 2370SOL    HW1 8009   4.759   2.762   0.263
 2370SOL    HW2 8010   4.609   2.824   0.246
 2371SOL     OW 8011   0.906   6.901   2.390
 2371SOL    HW1 8012   0.885   6.825   2.328
 2371SOL    HW2 8013   0.985   6.876   2.446
 2372SOL     OW 8014   6.792   0.557   6.247
 2372SOL    HW1 8015   6.870   0.535   6.305
 2372SOL    HW2 8016   6.761   0.650   6.266
 2373SOL     OW 8017   5.995   0.584   6.404
 2373SOL    HW1 8018   6.048   0.527   6.467
 2373SOL    HW2 8019   6.037   0.675   6.399
 2374SOL     OW 8020   5.736   5.455   2.891
 2374SOL    HW1 8021   5.835   5.453   2.905
 2374SOL    HW2 8022   5.690   5.426   2.975
 2375SOL     OW 8023   0.577   0.448   3.837
 2375SOL    HW1 8024   0.619   0.364   3.870
 2375SOL    HW2 8025   0.477   0.441   3.846
 2376SOL     OW 8026   6.709   2.541   3.483
 2376SOL    HW1 8027   6.669   2.630   3.461
 2376SOL    HW2 8028   6.750   2.501   3.400
 2377SOL     OW 8029   3.256   4.378   6.123
 2377SOL    HW1 8030   3.203   4.462   6.130
 2377SOL    HW2 8031   3.200   4.300   6.153
 2378SOL     OW 8032   5.783   1.965   0.093
 2378SOL    HW1 8033   5.722   1.978   0.014
 2378SOL    HW2 8034   5.738   1.904   0.159
 2379SOL     OW 8035   6.793   4.252   0.323
 2379SOL    HW1 8036   6.889   4.280   0.315
 2379SOL    HW2 8037   6.746   4.267   0.237
 2380SOL     OW 8038   6.065   2.098   5.181
 2380SOL    HW1 8039   6.079   2.013   5.131
 2380SOL    HW2 8040   5.979   2.093   5.232
 2381SOL     OW 8041   2.436   4.951   4.674
 2381SOL    HW1 8042   2.535   4.960   4.681
 2381SOL    HW2 8043   2.399   4.920   4.761
 2382SOL     OW 8044   1.343   5.976   2.679
 2382SOL    HW1 8045   1.374   5.884   2.656
 2382SOL    HW2 8046   1.376   6.001   2.770
 2383SOL     OW 8047   5.137   5.615   5.998
 2383SOL    HW1 8048   5.161   5.673   5.921
 2383SOL    HW2 8049   5.083   5.537   5.966
 2384SOL     OW 8050   0.635   1.916   1.530
 2384SOL    HW1 8051   0.726   1.877   1.522
 2384SOL    HW2 8052   0.633   1.978   1.608
 2385SOL     OW 8053   1.070   2.227   0.006
 2385SOL    HW1 8054   1.019   2.305   0.042
 2385SOL    HW2 8055   1.059   2.149   0.068
 2386SOL     OW 8056   3.262   4.945   4.856
 2386SOL    HW1 8057   3.252   4.931   4.955
 2386SOL    HW2 8058   3.172   4.943   4.813
 2387SOL     OW 8059   7.014   3.266   3.969
 2387SOL    HW1 8060   0.077   3.316   3.994
 2387SOL    HW2 8061   6.977   3.304   3.884
 2388SOL     OW 8062   0.520   1.517   5.763
 2388SOL    HW1 8063   0.497   1.614   5.769
 2388SOL    HW2 8064   0.583   1.503   5.687
 2389SOL     OW 8065   5.221   4.489   4.212
 2389SOL    HW1 8066   5.200   4.392   4.200
 2389SOL    HW2 8067   5.140   4.544   4.192
 2390SOL     OW 8068   3.841   3.340   5.166
 2390SOL    HW1 8069   3.743   3.347   5.185
 2390SOL    HW2 8070   3.883   3.431   5.174
 2391SOL     OW 8071   3.266   3.559   6.124
 2391SOL    HW1 8072   3.223   3.484   6.173
 2391SOL    HW2 8073   3.320   3.614   6.188
 2392SOL     OW 8074   3.337   4.318   6.473
 2392SOL    HW1 8075   3.255   4.357   6.430
 2392SOL    HW2 8076   3.309   4.250   6.541
 2393SOL     OW 8077   3.791   5.999   1.582
 2393SOL    HW1 8078   3.733   6.011   1.501
 2393SOL    HW2 8079   3.880   6.040   1.566
 2394SOL     OW 8080   0.129   4.129   3.853
 2394SOL    HW1 8081   0.067   4.188   3.904
 2394SOL    HW2 8082   0.162   4.055   3.913
 2395SOL     OW 8083   6.939   2.684   0.087
 2395SOL    HW1 8084   7.018   2.645   0.039
 2395SOL    HW2 8085   6.957   2.780   0.110
 2396SOL     OW 8086   5.465   0.621   0.268
 2396SOL    HW1 8087   5.420   0.683   0.204
 2396SOL    HW2 8088   5.428   0.634   0.360
 2397SOL     OW 8089   0.215   4.786   6.596
 2397SOL    HW1 8090   0.122   4.814   6.618
 2397SOL    HW2 8091   0.275   4.867   6.595
 2398SOL     OW 8092   2.906   5.219   4.652
 2398SOL    HW1 8093   2.897   5.251   4.746
 2398SOL    HW2 8094   2.933   5.295   4.592
 2399SOL     OW 8095   3.841   2.142   3.765
 2399SOL    HW1 8096   3.748   2.167   3.794
 2399SOL    HW2 8097   3.843   2.129   3.666
 2400SOL     OW 8098   1.646   3.446   0.553
 2400SOL    HW1 8099   1.591   3.467   0.634
 2400SOL    HW2 8100   1.727   3.394   0.581
 2401SOL     OW 8101   3.564   0.175   3.655
 2401SOL    HW1 8102   3.535   0.197   3.748
 2401SOL    HW2 8103   3.628   0.244   3.623
 2402SOL     OW 8104   0.082   2.000   3.487
 2402SOL    HW1 8105   0.051   1.931   3.421
 2402SOL    HW2 8106   0.174   2.029   3.464
 2403SOL     OW 8107   3.826   3.699   0.865
 2403SOL    HW1 8108   3.855   3.667   0.955
 2403SOL    HW2 8109   3.806   3.621   0.806
 2404SOL     OW 8110   5.848   1.811   1.680
 2404SOL    HW1 8111   5.855   1.899   1.728
 2404SOL    HW2 8112   5.828   1.738   1.746
 2405SOL     OW 8113   3.317   5.187   5.568
 2405SOL    HW1 8114   3.227   5.215   5.602
 2405SOL    HW2 8115   3.314   5.090   5.543
 2406SOL     OW 8116   2.237   7.017   4.186
 2406SOL    HW1 8117   2.308   6.984   4.123
 2406SOL    HW2 8118   2.230   6.954   4.264
 2407SOL     OW 8119   4.512   2.508   2.826
 2407SOL    HW1 8120   4.546   2.479   2.736
 2407SOL    HW2 8121   4.523   2.433   2.891
 2408SOL     OW 8122   2.610   5.660   2.801
 2408SOL    HW1 8123   2.658   5.577   2.771
 2408SOL    HW2 8124   2.512   5.649   2.784
 2409SOL     OW 8125   2.612   3.056   1.047
 2409SOL    HW1 8126   2.645   2.967   1.079
 2409SOL    HW2 8127   2.688   3.107   1.006
 2410SOL     OW 8128   6.537   3.256   6.140
 2410SOL    HW1 8129   6.445   3.252   6.180
 2410SOL    HW2 8130   6.592   3.179   6.174
 2411SOL     OW 8131   2.698   3.824   5.923
 2411SOL    HW1 8132   2.642   3.857   5.846
 2411SOL    HW2 8133   2.753   3.747   5.894
 2412SOL     OW 8134   2.468   3.031   0.408
 2412SOL    HW1 8135   2.529   3.076   0.474
 2412SOL    HW2 8136   2.448   3.094   0.333
 2413SOL     OW 8137   6.139   3.341   6.715
 2413SOL    HW1 8138   6.167   3.416   6.657
 2413SOL    HW2 8139   6.064   3.370   6.774
 2414SOL     OW 8140   5.811   2.458   3.785
 2414SOL    HW1 8141   5.827   2.418   3.695
 2414SOL    HW2 8142   5.713   2.457   3.805
 2415SOL     OW 8143   2.538   0.109   1.181
 2415SOL    HW1 8144   2.634   0.107   1.153
 2415SOL    HW2 8145   2.485   0.051   1.120
 2416SOL     OW 8146   1.107   3.092   3.746
 2416SOL    HW1 8147   1.114   3.162   3.817
 2416SOL    HW2 8148   1.158   3.120   3.666
 2417SOL     OW 8149   4.473   1.834   6.572
 2417SOL    HW1 8150   4.387   1.885   6.579
 2417SOL    HW2 8151   4.506   1.811   6.663
 2418SOL     OW 8152   3.822   3.612   5.188
 2418SOL    HW1 8153   3.769   3.677   5.133
 2418SOL    HW2 8154   3.784   3.608   5.280
 2419SOL     OW 8155   2.091   6.952   4.744
 2419SOL    HW1 8156   2.063   6.947   4.648
 2419SOL    HW2 8157   2.031   6.893   4.799
 2420SOL     OW 8158   3.319   5.745   1.912
 2420SOL    HW1 8159   3.372   5.708   1.989
 2420SOL    HW2 8160   3.249   5.808   1.947
 2421SOL     OW 8161   4.266   6.842   4.011
 2421SOL    HW1 8162   4.246   6.755   3.968
 2421SOL    HW2 8163   4.336   6.829   4.082
 2422SOL     OW 8164   3.774   6.779   0.858
 2422SOL    HW1 8165   3.828   6.778   0.773
 2422SOL    HW2 8166   3.781   6.869   0.900
 2423SOL     OW 8167   1.622   5.417   1.090
 2423SOL    HW1 8168   1.573   5.462   1.165
 2423SOL    HW2 8169   1.573   5.333   1.065
 2424SOL     OW 8170   6.009   6.669   6.804
 2424SOL    HW1 8171   6.037   6.595   6.743
 2424SOL    HW2 8172   6.089   6.712   6.844
 2425SOL     OW 8173   4.773   5.679   5.680
 2425SOL    HW1 8174   4.850   5.623   5.649
 2425SOL    HW2 8175   4.781   5.697   5.777
 2426SOL     OW 8176   0.968   5.119   4.956
 2426SOL    HW1 8177   0.884   5.093   4.910
 2426SOL    HW2 8178   1.046   5.079   4.908
 2427SOL     OW 8179   5.092   6.090   6.815
 2427SOL    HW1 8180   5.185   6.085   6.851
 2427SOL    HW2 8181   5.026   6.082   6.890
 2428SOL     OW 8182   0.200   0.391   2.509
 2428SOL    HW1 8183   0.131   0.339   2.559
 2428SOL    HW2 8184   0.238   0.335   2.435
 2429SOL     OW 8185   5.854   4.297   2.601
 2429SOL    HW1 8186   5.861   4.200   2.577
 2429SOL    HW2 8187   5.856   4.307   2.700
 2430SOL     OW 8188   5.603   1.951   0.494
 2430SOL    HW1 8189   5.695   1.979   0.466
 2430SOL    HW2 8190   5.546   2.032   0.507
 2431SOL     OW 8191   5.416   1.714   1.503
 2431SOL    HW1 8192   5.406   1.745   1.598
 2431SOL    HW2 8193   5.457   1.623   1.503
 2432SOL     OW 8194   3.221   6.315   1.125
 2432SOL    HW1 8195   3.231   6.273   1.215
 2432SOL    HW2 8196   3.244   6.412   1.131
 2433SOL     OW 8197   0.966   6.473   0.426
 2433SOL    HW1 8198   1.063   6.490   0.438
 2433SOL    HW2 8199   0.914   6.558   0.440
 2434SOL     OW 8200   5.235   1.856   2.544
 2434SOL    HW1 8201   5.250   1.869   2.642
 2434SOL    HW2 8202   5.173   1.926   2.510
 2435SOL     OW 8203   6.028   5.572   0.207
 2435SOL    HW1 8204   5.965   5.587   0.283
 2435SOL    HW2 8205   6.121   5.562   0.241
 2436SOL     OW 8206   1.694   0.317   1.359
 2436SOL    HW1 8207   1.604   0.274   1.353
 2436SOL    HW2 8208   1.765   0.247   1.348
 2437SOL     OW 8209   5.469   6.345   1.371
 2437SOL    HW1 8210   5.375   6.359   1.402
 2437SOL    HW2 8211   5.479   6.381   1.278
 2438SOL     OW 8212   4.438   1.498   4.739
 2438SOL    HW1 8213   4.389   1.579   4.773
 2438SOL    HW2 8214   4.520   1.483   4.795
 2439SOL     OW 8215   0.333   5.023   0.117
 2439SOL    HW1 8216   0.386   4.968   0.182
 2439SOL    HW2 8217   0.300   4.965   0.044
 2440SOL     OW 8218   4.125   6.701   5.593
 2440SOL    HW1 8219   4.174   6.782   5.628
 2440SOL    HW2 8220   4.032   6.727   5.569
 2441SOL     OW 8221   6.084   1.341   6.780
 2441SOL    HW1 8222   5.986   1.360   6.779
 2441SOL    HW2 8223   6.122   1.373   6.867
 2442SOL     OW 8224   5.872   5.001   3.041
 2442SOL    HW1 8225   5.909   5.062   2.971
 2442SOL    HW2 8226   5.772   5.011   3.044
 2443SOL     OW 8227   2.933   0.916   6.798
 2443SOL    HW1 8228   2.833   0.906   6.807
 2443SOL    HW2 8229   2.955   1.009   6.771
 2444SOL     OW 8230   4.120   4.812   7.006
 2444SOL    HW1 8231   4.139   4.910   6.994
 2444SOL    HW2 8232   4.139   4.786   0.079
 2445SOL     OW 8233   6.139   1.481   1.715
 2445SOL    HW1 8234   6.056   1.478   1.659
 2445SOL    HW2 8235   6.208   1.421   1.675
 2446SOL     OW 8236   1.142   2.835   3.364
 2446SOL    HW1 8237   1.178   2.893   3.291
 2446SOL    HW2 8238   1.068   2.882   3.412
 2447SOL     OW 8239   2.553   0.845   0.920
 2447SOL    HW1 8240   2.500   0.831   0.836
 2447SOL    HW2 8241   2.644   0.879   0.896
 2448SOL     OW 8242   5.985   1.828   4.032
 2448SOL    HW1 8243   5.902   1.874   4.063
 2448SOL    HW2 8244   6.013   1.865   3.943
 2449SOL     OW 8245   1.633   3.198   1.361
 2449SOL    HW1 8246   1.688   3.115   1.354
 2449SOL    HW2 8247   1.536   3.175   1.360
 2450SOL     OW 8248   2.880   5.495   6.443
 2450SOL    HW1 8249   2.791   5.516   6.401
 2450SOL    HW2 8250   2.942   5.460   6.373
 2451SOL     OW 8251   1.163   0.841   3.107
 2451SOL    HW1 8252   1.171   0.834   3.206
 2451SOL    HW2 8253   1.075   0.883   3.084
 2452SOL     OW 8254   2.891   2.170   3.763
 2452SOL    HW1 8255   2.847   2.100   3.707
 2452SOL    HW2 8256   2.988   2.175   3.739
 2453SOL     OW 8257   0.251   3.230   0.797
 2453SOL    HW1 8258   0.350   3.235   0.785
 2453SOL    HW2 8259   0.213   3.160   0.736
 2454SOL     OW 8260   2.791   6.428   6.982
 2454SOL    HW1 8261   2.875   6.482   6.971
 2454SOL    HW2 8262   2.813   6.341   0.004
 2455SOL     OW 8263   4.790   0.748   0.434
 2455SOL    HW1 8264   4.808   0.718   0.340
 2455SOL    HW2 8265   4.703   0.710   0.465
 2456SOL     OW 8266   0.240   2.644   6.534
 2456SOL    HW1 8267   0.158   2.700   6.543
 2456SOL    HW2 8268   0.306   2.669   6.606
 2457SOL     OW 8269   6.360   1.238   5.757
 2457SOL    HW1 8270   6.342   1.306   5.829
 2457SOL    HW2 8271   6.276   1.186   5.740
 2458SOL     OW 8272   1.531   6.272   3.632
 2458SOL    HW1 8273   1.630   6.274   3.647
 2458SOL    HW2 8274   1.501   6.360   3.597
 2459SOL     OW 8275   2.782   6.596   5.565
 2459SOL    HW1 8276   2.724   6.584   5.645
 2459SOL    HW2 8277   2.846   6.519   5.558
 2460SOL     OW 8278   1.377   1.327   0.514
 2460SOL    HW1 8279   1.396   1.383   0.594
 2460SOL    HW2 8280   1.432   1.360   0.437
 2461SOL     OW 8281   4.759   0.850   4.148
 2461SOL    HW1 8282   4.716   0.874   4.235
 2461SOL    HW2 8283   4.707   0.891   4.073
 2462SOL     OW 8284   2.325   4.788   6.731
 2462SOL    HW1 8285   2.271   4.861   6.774
 2462SOL    HW2 8286   2.407   4.828   6.690
 2463SOL     OW 8287   6.025   1.825   0.021
 2463SOL    HW1 8288   5.944   1.873   0.053
 2463SOL    HW2 8289   6.097   1.892   0.000
 2464SOL     OW 8290   2.031   3.081   2.857
 2464SOL    HW1 8291   2.096   3.063   2.783
 2464SOL    HW2 8292   2.082   3.093   2.943
 2465SOL     OW 8293   0.681   6.762   6.709
 2465SOL    HW1 8294   0.625   6.682   6.689
 2465SOL    HW2 8295   0.656   6.799   6.798
 2466SOL     OW 8296   1.845   1.345   2.896
 2466SOL    HW1 8297   1.922   1.309   2.843
 2466SOL    HW2 8298   1.825   1.439   2.867
 2467SOL     OW 8299   5.019   1.582   5.367
 2467SOL    HW1 8300   5.089   1.650   5.391
 2467SOL    HW2 8301   4.972   1.612   5.284
 2468SOL     OW 8302   4.261   6.941   1.176
 2468SOL    HW1 8303   4.202   6.982   1.106
 2468SOL    HW2 8304   4.253   6.841   1.172
 2469SOL     OW 8305   3.966   3.407   4.654
 2469SOL    HW1 8306   3.970   3.497   4.698
 2469SOL    HW2 8307   4.004   3.338   4.715
 2470SOL     OW 8308   4.019   4.896   5.492
 2470SOL    HW1 8309   3.940   4.860   5.544
 2470SOL    HW2 8310   4.019   4.857   5.401
 2471SOL     OW 8311   3.126   5.894   0.262
 2471SOL    HW1 8312   3.033   5.876   0.230
 2471SOL    HW2 8313   3.191   5.852   0.199
 2472SOL     OW 8314   4.999   2.361   3.252
 2472SOL    HW1 8315   4.907   2.341   3.288
 2472SOL    HW2 8316   4.995   2.363   3.152
 2473SOL     OW 8317   0.950   3.904   4.910
 2473SOL    HW1 8318   0.852   3.906   4.890
 2473SOL    HW2 8319   0.965   3.861   4.999
 2474SOL     OW 8320   0.178   5.908   1.332
 2474SOL    HW1 8321   0.213   5.844   1.400
 2474SOL    HW2 8322   0.078   5.908   1.334
 2475SOL     OW 8323   4.290   0.638   2.459
 2475SOL    HW1 8324   4.219   0.689   2.412
 2475SOL    HW2 8325   4.267   0.541   2.460
 2476SOL     OW 8326   5.793   1.178   2.469
 2476SOL    HW1 8327   5.788   1.275   2.445
 2476SOL    HW2 8328   5.855   1.132   2.405
 2477SOL     OW 8329   4.153   0.987   2.895
 2477SOL    HW1 8330   4.236   1.040   2.879
 2477SOL    HW2 8331   4.080   1.048   2.925
 2478SOL     OW 8332   6.374   1.853   1.458
 2478SOL    HW1 8333   6.468   1.820   1.472
 2478SOL    HW2 8334   6.344   1.902   1.540
 2479SOL     OW 8335   1.179   2.593   2.319
 2479SOL    HW1 8336   1.269   2.603   2.363
 2479SOL    HW2 8337   1.171   2.660   2.245
 2480SOL     OW 8338   4.670   4.259   0.755
 2480SOL    HW1 8339   4.579   4.288   0.726
 2480SOL    HW2 8340   4.683   4.280   0.852
 2481SOL     OW 8341   4.030   6.538   0.691
 2481SOL    HW1 8342   4.046   6.514   0.786
 2481SOL    HW2 8343   4.023   6.454   0.637
 2482SOL     OW 8344   5.362   3.284   5.906
 2482SOL    HW1 8345   5.356   3.365   5.847
 2482SOL    HW2 8346   5.298   3.215   5.874
 2483SOL     OW 8347   1.862   1.664   0.614
 2483SOL    HW1 8348   1.895   1.742   0.668
 2483SOL    HW2 8349   1.938   1.628   0.559
 2484SOL     OW 8350   3.818   0.282   6.686
 2484SOL    HW1 8351   3.788   0.374   6.712
 2484SOL    HW2 8352   3.739   0.229   6.655
 2485SOL     OW 8353   5.406   3.587   1.452
 2485SOL    HW1 8354   5.311   3.618   1.457
 2485SOL    HW2 8355   5.417   3.528   1.372
 2486SOL     OW 8356   1.883   4.796   5.085
 2486SOL    HW1 8357   1.897   4.697   5.096
 2486SOL    HW2 8358   1.883   4.820   4.988
 2487SOL     OW 8359   4.344   6.349   0.327
 2487SOL    HW1 8360   4.248   6.342   0.301
 2487SOL    HW2 8361   4.397   6.279   0.280
 2488SOL     OW 8362   1.507   4.291   1.862
 2488SOL    HW1 8363   1.514   4.339   1.949
 2488SOL    HW2 8364   1.586   4.314   1.805
 2489SOL     OW 8365   0.904   6.836   4.036
 2489SOL    HW1 8366   0.991   6.856   3.992
 2489SOL    HW2 8367   0.865   6.753   3.996
 2490SOL     OW 8368   6.724   5.315   1.424
 2490SOL    HW1 8369   6.773   5.244   1.474
 2490SOL    HW2 8370   6.626   5.306   1.442
 2491SOL     OW 8371   2.519   4.606   0.056
 2491SOL    HW1 8372   2.522   4.531   0.123
 2491SOL    HW2 8373   2.606   4.610   0.007
 2492SOL     OW 8374   4.787   3.608   0.684
 2492SOL    HW1 8375   4.707   3.581   0.738
 2492SOL    HW2 8376   4.834   3.527   0.651
 2493SOL     OW 8377   5.323   0.213   2.150
 2493SOL    HW1 8378   5.367   0.302   2.162
 2493SOL    HW2 8379   5.347   0.153   2.226
 2494SOL     OW 8380   5.249   4.845   2.563
 2494SOL    HW1 8381   5.301   4.804   2.488
 2494SOL    HW2 8382   5.207   4.772   2.617
 2495SOL     OW 8383   4.896   6.752   4.222
 2495SOL    HW1 8384   4.942   6.840   4.212
 2495SOL    HW2 8385   4.927   6.707   4.306
 2496SOL     OW 8386   0.248   2.450   5.989
 2496SOL    HW1 8387   0.297   2.527   5.947
 2496SOL    HW2 8388   0.282   2.435   6.081
 2497SOL     OW 8389   0.367   0.312   0.609
 2497SOL    HW1 8390   0.337   0.357   0.694
 2497SOL    HW2 8391   0.467   0.319   0.602
 2498SOL     OW 8392   2.921   2.244   4.558
 2498SOL    HW1 8393   2.906   2.148   4.581
 2498SOL    HW2 8394   2.897   2.301   4.637
 2499SOL     OW 8395   6.092   2.441   2.006
 2499SOL    HW1 8396   6.056   2.510   1.943
 2499SOL    HW2 8397   6.063   2.464   2.099
 2500SOL     OW 8398   4.303   4.368   6.430
 2500SOL    HW1 8399   4.334   4.402   6.519
 2500SOL    HW2 8400   4.363   4.294   6.400
 2501SOL     OW 8401   5.294   5.470   0.280
 2501SOL    HW1 8402   5.286   5.388   0.336
 2501SOL    HW2 8403   5.203   5.504   0.257
 2502SOL     OW 8404   0.960   0.281   3.041
 2502SOL    HW1 8405   0.895   0.310   2.970
 2502SOL    HW2 8406   0.928   0.313   3.130
 2503SOL     OW 8407   2.251   6.694   4.638
 2503SOL    HW1 8408   2.242   6.694   4.737
 2503SOL    HW2 8409   2.330   6.639   4.612
 2504SOL     OW 8410   3.642   5.664   4.956
 2504SOL    HW1 8411   3.657   5.743   4.897
 2504SOL    HW2 8412   3.550   5.628   4.940
 2505SOL     OW 8413   0.479   6.633   3.225
 2505SOL    HW1 8414   0.460   6.727   3.197
 2505SOL    HW2 8415   0.532   6.633   3.310
 2506SOL     OW 8416   5.941   3.934   5.795
 2506SOL    HW1 8417   5.895   3.948   5.707
 2506SOL    HW2 8418   5.886   3.875   5.853
 2507SOL     OW 8419   6.902   3.640   0.537
 2507SOL    HW1 8420   6.947   3.574   0.596
 2507SOL    HW2 8421   6.970   3.705   0.501
 2508SOL     OW 8422   2.795   1.609   3.488
 2508SOL    HW1 8423   2.887   1.640   3.512
 2508SOL    HW2 8424   2.788   1.594   3.390
 2509SOL     OW 8425   0.010   3.670   0.893
 2509SOL    HW1 8426   0.076   3.631   0.956
 2509SOL    HW2 8427   6.996   3.599   0.832
 2510SOL     OW 8428   2.771   5.022   0.963
 2510SOL    HW1 8429   2.716   5.055   0.887
 2510SOL    HW2 8430   2.860   5.069   0.963
 2511SOL     OW 8431   3.902   2.222   4.413
 2511SOL    HW1 8432   3.841   2.197   4.488
 2511SOL    HW2 8433   3.909   2.146   4.349
 2512SOL     OW 8434   5.210   3.255   5.214
 2512SOL    HW1 8435   5.188   3.342   5.169
 2512SOL    HW2 8436   5.171   3.255   5.306
 2513SOL     OW 8437   1.750   4.347   5.159
 2513SOL    HW1 8438   1.715   4.314   5.246
 2513SOL    HW2 8439   1.675   4.356   5.094
 2514SOL     OW 8440   6.867   3.384   4.970
 2514SOL    HW1 8441   6.959   3.418   4.952
 2514SOL    HW2 8442   6.811   3.458   5.008
 2515SOL     OW 8443   1.497   0.049   1.003
 2515SOL    HW1 8444   1.520   0.018   1.095
 2515SOL    HW2 8445   1.408   0.013   0.977
 2516SOL     OW 8446   5.936   2.324   2.460
 2516SOL    HW1 8447   5.850   2.276   2.477
 2516SOL    HW2 8448   6.009   2.282   2.513
 2517SOL     OW 8449   1.498   6.332   5.887
 2517SOL    HW1 8450   1.496   6.299   5.981
 2517SOL    HW2 8451   1.521   6.429   5.886
 2518SOL     OW 8452   1.478   4.774   6.865
 2518SOL    HW1 8453   1.479   4.675   6.880
 2518SOL    HW2 8454   1.484   4.822   6.952
 2519SOL     OW 8455   3.908   6.703   2.373
 2519SOL    HW1 8456   3.913   6.745   2.463
 2519SOL    HW2 8457   3.913   6.604   2.382
 2520SOL     OW 8458   2.796   1.466   0.490
 2520SOL    HW1 8459   2.823   1.562   0.496
 2520SOL    HW2 8460   2.702   1.461   0.455
 2521SOL     OW 8461   2.080   1.132   5.253
 2521SOL    HW1 8462   1.984   1.115   5.275
 2521SOL    HW2 8463   2.119   1.194   5.320
 2522SOL     OW 8464   0.699   2.921   5.076
 2522SOL    HW1 8465   0.722   2.863   4.998
 2522SOL    HW2 8466   0.716   3.017   5.052
 2523SOL     OW 8467   0.408   3.399   1.570
 2523SOL    HW1 8468   0.391   3.307   1.605
 2523SOL    HW2 8469   0.505   3.408   1.547
 2524SOL     OW 8470   1.019   6.072   4.761
 2524SOL    HW1 8471   1.068   6.123   4.690
 2524SOL    HW2 8472   1.073   5.993   4.789
 2525SOL     OW 8473   1.136   2.632   5.866
 2525SOL    HW1 8474   1.128   2.602   5.961
 2525SOL    HW2 8475   1.221   2.595   5.827
 2526SOL     OW 8476   1.136   4.662   6.703
 2526SOL    HW1 8477   1.147   4.565   6.727
 2526SOL    HW2 8478   1.095   4.668   6.612
 2527SOL     OW 8479   5.375   5.680   4.871
 2527SOL    HW1 8480   5.398   5.709   4.778
 2527SOL    HW2 8481   5.280   5.648   4.874
 2528SOL     OW 8482   5.929   4.690   0.256
 2528SOL    HW1 8483   6.006   4.688   0.193
 2528SOL    HW2 8484   5.853   4.638   0.217
 2529SOL     OW 8485   6.625   6.281   6.901
 2529SOL    HW1 8486   6.561   6.223   6.952
 2529SOL    HW2 8487   6.670   6.343   6.965
 2530SOL     OW 8488   2.604   6.379   5.471
 2530SOL    HW1 8489   2.607   6.361   5.373
 2530SOL    HW2 8490   2.696   6.374   5.508
 2531SOL     OW 8491   5.578   6.152   4.429
 2531SOL    HW1 8492   5.661   6.097   4.435
 2531SOL    HW2 8493   5.521   6.119   4.354
 2532SOL     OW 8494   0.310   5.948   0.628
 2532SOL    HW1 8495   0.397   5.938   0.677
 2532SOL    HW2 8496   0.306   6.038   0.585
 2533SOL     OW 8497   3.186   6.637   4.281
 2533SOL    HW1 8498   3.206   6.542   4.259
 2533SOL    HW2 8499   3.271   6.690   4.282
 2534SOL     OW 8500   3.476   0.824   2.957
 2534SOL    HW1 8501   3.381   0.791   2.959
 2534SOL    HW2 8502   3.478   0.917   2.921
 2535SOL     OW 8503   3.364   2.223   5.295
 2535SOL    HW1 8504   3.385   2.235   5.392
 2535SOL    HW2 8505   3.286   2.281   5.270
 2536SOL     OW 8506   1.538   2.067   4.755
 2536SOL    HW1 8507   1.493   2.137   4.811
 2536SOL    HW2 8508   1.633   2.093   4.738
 2537SOL     OW 8509   3.582   0.282   6.405
 2537SOL    HW1 8510   3.649   0.268   6.332
 2537SOL    HW2 8511   3.585   0.205   6.469
 2538SOL     OW 8512   0.920   4.292   3.591
 2538SOL    HW1 8513   0.866   4.231   3.648
 2538SOL    HW2 8514   0.862   4.368   3.559
 2539SOL     OW 8515   5.755   1.145   4.909
 2539SOL    HW1 8516   5.821   1.199   4.857
 2539SOL    HW2 8517   5.667   1.145   4.861
 2540SOL     OW 8518   4.112   1.929   2.846
 2540SOL    HW1 8519   4.102   1.833   2.872
 2540SOL    HW2 8520   4.035   1.955   2.788
 2541SOL     OW 8521   2.752   0.269   5.386
 2541SOL    HW1 8522   2.700   0.311   5.461
 2541SOL    HW2 8523   2.764   0.172   5.404
 2542SOL     OW 8524   3.384   0.980   6.088
 2542SOL    HW1 8525   3.379   1.071   6.129
 2542SOL    HW2 8526   3.349   0.984   5.995
 2543SOL     OW 8527   1.597   1.032   3.658
 2543SOL    HW1 8528   1.669   1.031   3.727
 2543SOL    HW2 8529   1.623   1.094   3.584
 2544SOL     OW 8530   0.509   6.449   1.752
 2544SOL    HW1 8531   0.460   6.420   1.670
 2544SOL    HW2 8532   0.604   6.420   1.746
 2545SOL     OW 8533   1.144   6.920   1.587
 2545SOL    HW1 8534   1.091   7.003   1.568
 2545SOL    HW2 8535   1.086   6.840   1.574
 2546SOL     OW 8536   0.620   1.380   1.656
 2546SOL    HW1 8537   0.583   1.473   1.651
 2546SOL    HW2 8538   0.675   1.361   1.575
 2547SOL     OW 8539   6.208   5.479   0.662
 2547SOL    HW1 8540   6.159   5.527   0.735
 2547SOL    HW2 8541   6.149   5.410   0.622
 2548SOL     OW 8542   1.298   6.661   6.306
 2548SOL    HW1 8543   1.314   6.581   6.249
 2548SOL    HW2 8544   1.279   6.632   6.400
 2549SOL     OW 8545   2.160   0.662   0.490
 2549SOL    HW1 8546   2.152   0.599   0.567
 2549SOL    HW2 8547   2.134   0.754   0.519
 2550SOL     OW 8548   6.875   0.389   6.673
 2550SOL    HW1 8549   6.810   0.427   6.607
 2550SOL    HW2 8550   6.891   0.292   6.652
 2551SOL     OW 8551   3.265   5.159   0.354
 2551SOL    HW1 8552   3.282   5.222   0.431
 2551SOL    HW2 8553   3.321   5.186   0.276
 2552SOL     OW 8554   2.098   5.242   5.322
 2552SOL    HW1 8555   2.096   5.188   5.406
 2552SOL    HW2 8556   2.131   5.186   5.247
 2553SOL     OW 8557   5.053   3.044   5.366
 2553SOL    HW1 8558   5.144   3.054   5.406
 2553SOL    HW2 8559   4.990   3.106   5.413
 2554SOL     OW 8560   1.834   6.578   0.434
 2554SOL    HW1 8561   1.931   6.555   0.443
 2554SOL    HW2 8562   1.813   6.658   0.489
 2555SOL     OW 8563   5.886   6.657   5.451
 2555SOL    HW1 8564   5.860   6.749   5.421
 2555SOL    HW2 8565   5.805   6.598   5.452
 2556SOL     OW 8566   4.511   5.696   0.838
 2556SOL    HW1 8567   4.522   5.685   0.739
 2556SOL    HW2 8568   4.448   5.627   0.872
 2557SOL     OW 8569   2.489   3.915   6.879
 2557SOL    HW1 8570   2.421   3.953   6.942
 2557SOL    HW2 8571   2.552   3.856   6.930
 2558SOL     OW 8572   5.197   1.927   4.307
 2558SOL    HW1 8573   5.185   1.896   4.402
 2558SOL    HW2 8574   5.108   1.931   4.262
 2559SOL     OW 8575   6.910   3.574   4.019
 2559SOL    HW1 8576   6.911   3.606   4.113
 2559SOL    HW2 8577   7.003   3.568   3.984
 2560SOL     OW 8578   5.713   3.397   4.453
 2560SOL    HW1 8579   5.626   3.385   4.405
 2560SOL    HW2 8580   5.748   3.308   4.483
 2561SOL     OW 8581   3.314   6.370   5.578
 2561SOL    HW1 8582   3.359   6.374   5.489
 2561SOL    HW2 8583   3.382   6.360   5.650
 2562SOL     OW 8584   1.943   5.270   2.382
 2562SOL    HW1 8585   2.032   5.233   2.409
 2562SOL    HW2 8586   1.956   5.358   2.336
 2563SOL     OW 8587   3.844   2.599   0.216
 2563SOL    HW1 8588   3.780   2.552   0.154
 2563SOL    HW2 8589   3.890   2.672   0.166
 2564SOL     OW 8590   2.083   6.325   5.878
 2564SOL    HW1 8591   2.121   6.257   5.941
 2564SOL    HW2 8592   2.126   6.315   5.789
 2565SOL     OW 8593   0.874   0.778   6.674
 2565SOL    HW1 8594   0.914   0.866   6.700
 2565SOL    HW2 8595   0.947   0.714   6.650
 2566SOL     OW 8596   2.849   6.723   1.156
 2566SOL    HW1 8597   2.774   6.716   1.222
 2566SOL    HW2 8598   2.929   6.763   1.201
 2567SOL     OW 8599   0.927   1.045   0.894
 2567SOL    HW1 8600   1.017   1.042   0.938
 2567SOL    HW2 8601   0.873   1.120   0.931
 2568SOL     OW 8602   4.429   6.604   0.248
 2568SOL    HW1 8603   4.389   6.515   0.266
 2568SOL    HW2 8604   4.441   6.616   0.149
 2569SOL     OW 8605   3.349   1.409   1.573
 2569SOL    HW1 8606   3.271   1.382   1.629
 2569SOL    HW2 8607   3.417   1.454   1.630
 2570SOL     OW 8608   5.461   0.237   6.099
 2570SOL    HW1 8609   5.414   0.163   6.146
 2570SOL    HW2 8610   5.393   0.299   6.059
 2571SOL     OW 8611   2.600   4.606   5.759
 2571SOL    HW1 8612   2.529   4.564   5.703
 2571SOL    HW2 8613   2.684   4.552   5.752
 2572SOL     OW 8614   2.479   4.947   6.950
 2572SOL    HW1 8615   2.402   5.008   6.929
 2572SOL    HW2 8616   2.468   4.861   6.901
 2573SOL     OW 8617   6.674   2.397   1.871
 2573SOL    HW1 8618   6.614   2.445   1.807
 2573SOL    HW2 8619   6.729   2.331   1.821
 2574SOL     OW 8620   6.145   3.829   0.109
 2574SOL    HW1 8621   6.093   3.770   0.047
 2574SOL    HW2 8622   6.237   3.792   0.120
 2575SOL     OW 8623   5.225   5.308   0.801
 2575SOL    HW1 8624   5.155   5.325   0.731
 2575SOL    HW2 8625   5.214   5.375   0.874
 2576SOL     OW 8626   3.923   6.586   4.427
 2576SOL    HW1 8627   3.880   6.630   4.505
 2576SOL    HW2 8628   3.882   6.496   4.413
 2577SOL     OW 8629   4.382   6.761   1.807
 2577SOL    HW1 8630   4.337   6.675   1.781
 2577SOL    HW2 8631   4.333   6.803   1.883
 2578SOL     OW 8632   4.792   1.158   5.019
 2578SOL    HW1 8633   4.748   1.181   5.106
 2578SOL    HW2 8634   4.880   1.205   5.013
 2579SOL     OW 8635   1.503   6.049   3.435
 2579SOL    HW1 8636   1.488   6.104   3.517
 2579SOL    HW2 8637   1.600   6.051   3.411
 2580SOL     OW 8638   2.809   3.740   6.290
 2580SOL    HW1 8639   2.792   3.662   6.230
 2580SOL    HW2 8640   2.724   3.788   6.308
 2581SOL     OW 8641   0.918   5.328   1.204
 2581SOL    HW1 8642   0.877   5.417   1.222
 2581SOL    HW2 8643   0.954   5.326   1.111
 2582SOL     OW 8644   0.627   4.218   2.224
 2582SOL    HW1 8645   0.541   4.166   2.229
 2582SOL    HW2 8646   0.660   4.219   2.129
 2583SOL     OW 8647   0.822   1.626   0.352
 2583SOL    HW1 8648   0.754   1.566   0.309
 2583SOL    HW2 8649   0.869   1.679   0.282
 2584SOL     OW 8650   4.188   5.023   6.646
 2584SOL    HW1 8651   4.248   5.034   6.725
 2584SOL    HW2 8652   4.189   5.107   6.592
 2585SOL     OW 8653   4.308   2.946   6.768
 2585SOL    HW1 8654   4.382   2.996   6.813
 2585SOL    HW2 8655   4.268   2.881   6.833
 2586SOL     OW 8656   3.616   1.353   3.096
 2586SOL    HW1 8657   3.554   1.313   3.163
 2586SOL    HW2 8658   3.566   1.371   3.011
 2587SOL     OW 8659   0.391   0.600   3.200
 2587SOL    HW1 8660   0.433   0.691   3.194
 2587SOL    HW2 8661   0.447   0.541   3.258
 2588SOL     OW 8662   5.016   0.968   6.770
 2588SOL    HW1 8663   5.115   0.974   6.761
 2588SOL    HW2 8664   4.978   0.921   6.690
 2589SOL     OW 8665   0.830   6.349   5.982
 2589SOL    HW1 8666   0.804   6.253   5.975
 2589SOL    HW2 8667   0.753   6.402   6.015
 2590SOL     OW 8668   3.580   5.634   1.018
 2590SOL    HW1 8669   3.665   5.594   0.983
 2590SOL    HW2 8670   3.578   5.626   1.117
 2591SOL     OW 8671   6.992   4.693   3.182
 2591SOL    HW1 8672   7.003   4.595   3.199
 2591SOL    HW2 8673   6.899   4.711   3.150
 2592SOL     OW 8674   3.308   5.838   0.037
 2592SOL    HW1 8675   3.258   5.878   6.980
 2592SOL    HW2 8676   3.403   5.869   0.034
 2593SOL     OW 8677   3.763   5.496   0.883
 2593SOL    HW1 8678   3.792   5.497   0.788
 2593SOL    HW2 8679   3.773   5.403   0.921
 2594SOL     OW 8680   2.364   4.508   6.539
 2594SOL    HW1 8681   2.355   4.572   6.615
 2594SOL    HW2 8682   2.283   4.449   6.535
 2595SOL     OW 8683   6.917   0.906   3.554
 2595SOL    HW1 8684   6.905   0.812   3.587
 2595SOL    HW2 8685   6.832   0.957   3.568
 2596SOL     OW 8686   3.197   2.300   1.743
 2596SOL    HW1 8687   3.263   2.227   1.760
 2596SOL    HW2 8688   3.239   2.370   1.685
 2597SOL     OW 8689   1.052   4.899   5.626
 2597SOL    HW1 8690   1.104   4.862   5.549
 2597SOL    HW2 8691   1.019   4.823   5.683
 2598SOL     OW 8692   6.464   1.111   3.218
 2598SOL    HW1 8693   6.464   1.036   3.283
 2598SOL    HW2 8694   6.386   1.172   3.237
 2599SOL     OW 8695   1.638   6.321   1.211
 2599SOL    HW1 8696   1.666   6.263   1.287
 2599SOL    HW2 8697   1.612   6.265   1.133
 2600SOL     OW 8698   5.634   2.821   4.949
 2600SOL    HW1 8699   5.636   2.914   4.911
 2600SOL    HW2 8700   5.658   2.756   4.877
 2601SOL     OW 8701   1.676   1.529   2.083
 2601SOL    HW1 8702   1.650   1.435   2.105
 2601SOL    HW2 8703   1.596   1.589   2.088
 2602SOL     OW 8704   1.371   4.728   4.933
 2602SOL    HW1 8705   1.371   4.783   5.016
 2602SOL    HW2 8706   1.465   4.707   4.906
 2603SOL     OW 8707   3.057   1.124   4.006
 2603SOL    HW1 8708   3.050   1.222   3.985
 2603SOL    HW2 8709   3.035   1.109   4.102
 2604SOL     OW 8710   5.061   2.047   2.459
 2604SOL    HW1 8711   5.009   2.041   2.374
 2604SOL    HW2 8712   5.119   2.129   2.456
 2605SOL     OW 8713   2.053   3.337   3.564
 2605SOL    HW1 8714   2.132   3.276   3.571
 2605SOL    HW2 8715   2.044   3.369   3.469
 2606SOL     OW 8716   5.513   4.920   1.498
 2606SOL    HW1 8717   5.573   4.959   1.567
 2606SOL    HW2 8718   5.538   4.825   1.481
 2607SOL     OW 8719   1.010   1.560   2.117
 2607SOL    HW1 8720   1.085   1.621   2.091
 2607SOL    HW2 8721   0.996   1.493   2.044
 2608SOL     OW 8722   4.458   4.661   0.271
 2608SOL    HW1 8723   4.523   4.662   0.347
 2608SOL    HW2 8724   4.432   4.754   0.248
 2609SOL     OW 8725   6.370   0.906   1.762
 2609SOL    HW1 8726   6.376   0.980   1.829
 2609SOL    HW2 8727   6.459   0.863   1.752
 2610SOL     OW 8728   0.563   4.461   4.541
 2610SOL    HW1 8729   0.500   4.406   4.596
 2610SOL    HW2 8730   0.656   4.427   4.554
 2611SOL     OW 8731   4.338   6.271   0.896
 2611SOL    HW1 8732   4.322   6.173   0.908
 2611SOL    HW2 8733   4.341   6.293   0.798
 2612SOL     OW 8734   6.445   6.919   4.704
 2612SOL    HW1 8735   6.519   6.899   4.640
 2612SOL    HW2 8736   6.428   7.017   4.706
 2613SOL     OW 8737   2.270   5.722   6.052
 2613SOL    HW1 8738   2.203   5.796   6.060
 2613SOL    HW2 8739   2.239   5.643   6.104
 2614SOL     OW 8740   6.450   1.933   0.451
 2614SOL    HW1 8741   6.367   1.976   0.417
 2614SOL    HW2 8742   6.431   1.889   0.539
 2615SOL     OW 8743   0.926   2.636   2.477
 2615SOL    HW1 8744   1.010   2.611   2.428
 2615SOL    HW2 8745   0.942   2.633   2.575
 2616SOL     OW 8746   2.715   2.820   5.877
 2616SOL    HW1 8747   2.635   2.791   5.930
 2616SOL    HW2 8748   2.693   2.818   5.779
 2617SOL     OW 8749   4.565   0.134   0.966
 2617SOL    HW1 8750   4.528   0.216   1.011
 2617SOL    HW2 8751   4.601   0.159   0.876
 2618SOL     OW 8752   6.590   0.295   3.406
 2618SOL    HW1 8753   6.557   0.271   3.497
 2618SOL    HW2 8754   6.689   0.281   3.401
 2619SOL     OW 8755   4.562   1.997   1.883
 2619SOL    HW1 8756   4.463   1.993   1.870
 2619SOL    HW2 8757   4.590   2.091   1.903
 2620SOL     OW 8758   6.607   6.473   3.808
 2620SOL    HW1 8759   6.652   6.416   3.739
 2620SOL    HW2 8760   6.609   6.426   3.896
 2621SOL     OW 8761   1.118   5.221   1.841
 2621SOL    HW1 8762   1.143   5.218   1.938
 2621SOL    HW2 8763   1.086   5.313   1.818
 2622SOL     OW 8764   1.201   3.836   6.027
 2622SOL    HW1 8765   1.180   3.927   6.063
 2622SOL    HW2 8766   1.154   3.823   5.940
 2623SOL     OW 8767   0.329   0.641   5.413
 2623SOL    HW1 8768   0.272   0.699   5.471
 2623SOL    HW2 8769   0.312   0.545   5.436
 2624SOL     OW 8770   0.364   1.147   4.676
 2624SOL    HW1 8771   0.337   1.052   4.695
 2624SOL    HW2 8772   0.402   1.153   4.584
 2625SOL     OW 8773   2.547   3.712   5.452
 2625SOL    HW1 8774   2.586   3.625   5.423
 2625SOL    HW2 8775   2.459   3.695   5.498
 2626SOL     OW 8776   6.743   0.302   6.143
 2626SOL    HW1 8777   6.747   0.398   6.173
 2626SOL    HW2 8778   6.807   0.289   6.067
 2627SOL     OW 8779   1.053   1.193   6.284
 2627SOL    HW1 8780   0.995   1.128   6.234
 2627SOL    HW2 8781   1.114   1.142   6.346
 2628SOL     OW 8782   2.075   3.976   5.820
 2628SOL    HW1 8783   2.046   3.980   5.916
 2628SOL    HW2 8784   1.995   3.978   5.761
 2629SOL     OW 8785   3.824   2.982   2.437
 2629SOL    HW1 8786   3.820   2.882   2.436
 2629SOL    HW2 8787   3.816   3.017   2.344
 2630SOL     OW 8788   3.533   1.655   2.489
 2630SOL    HW1 8789   3.604   1.683   2.424
 2630SOL    HW2 8790   3.564   1.676   2.582
 2631SOL     OW 8791   5.486   0.624   5.993
 2631SOL    HW1 8792   5.397   0.578   5.992
 2631SOL    HW2 8793   5.556   0.558   6.020
 2632SOL     OW 8794   5.122   3.233   0.698
 2632SOL    HW1 8795   5.093   3.144   0.734
 2632SOL    HW2 8796   5.203   3.265   0.748
 2633SOL     OW 8797   0.518   1.418   4.579
 2633SOL    HW1 8798   0.517   1.380   4.672
 2633SOL    HW2 8799   0.516   1.343   4.513
 2634SOL     OW 8800   0.798   5.488   3.945
 2634SOL    HW1 8801   0.893   5.460   3.961
 2634SOL    HW2 8802   0.743   5.406   3.929
 2635SOL     OW 8803   0.237   5.927   4.606
 2635SOL    HW1 8804   0.185   5.853   4.649
 2635SOL    HW2 8805   0.176   5.980   4.548
 2636SOL     OW 8806   4.329   0.481   5.774
 2636SOL    HW1 8807   4.299   0.577   5.771
 2636SOL    HW2 8808   4.425   0.475   5.749
 2637SOL     OW 8809   6.430   2.123   3.393
 2637SOL    HW1 8810   6.422   2.122   3.493
 2637SOL    HW2 8811   6.474   2.209   3.365
 2638SOL     OW 8812   0.018   6.765   4.149
 2638SOL    HW1 8813   6.961   6.765   4.086
 2638SOL    HW2 8814   0.062   6.675   4.148
 2639SOL     OW 8815   0.280   6.242   0.493
 2639SOL    HW1 8816   0.369   6.287   0.499
 2639SOL    HW2 8817   0.226   6.285   0.420
 2640SOL     OW 8818   6.692   6.422   5.505
 2640SOL    HW1 8819   6.699   6.475   5.421
 2640SOL    HW2 8820   6.778   6.373   5.520
 2641SOL     OW 8821   5.618   2.852   2.301
 2641SOL    HW1 8822   5.653   2.832   2.392
 2641SOL    HW2 8823   5.694   2.856   2.236
 2642SOL     OW 8824   6.036   0.709   3.846
 2642SOL    HW1 8825   6.023   0.786   3.785
 2642SOL    HW2 8826   6.008   0.624   3.800
 2643SOL     OW 8827   1.581   3.534   3.597
 2643SOL    HW1 8828   1.631   3.618   3.618
 2643SOL    HW2 8829   1.484   3.548   3.614
 2644SOL     OW 8830   4.951   5.125   4.541
 2644SOL    HW1 8831   4.999   5.213   4.548
 2644SOL    HW2 8832   4.931   5.090   4.632
 2645SOL     OW 8833   4.461   5.774   3.637
 2645SOL    HW1 8834   4.435   5.691   3.686
 2645SOL    HW2 8835   4.479   5.752   3.541
 2646SOL     OW 8836   6.387   1.803   6.974
 2646SOL    HW1 8837   6.442   1.819   0.036
 2646SOL    HW2 8838   6.320   1.876   6.965
 2647SOL     OW 8839   6.468   0.159   1.775
 2647SOL    HW1 8840   6.563   0.163   1.744
 2647SOL    HW2 8841   6.419   0.240   1.745
 2648SOL     OW 8842   0.747   6.533   4.154
 2648SOL    HW1 8843   0.762   6.523   4.253
 2648SOL    HW2 8844   0.773   6.448   4.108
 2649SOL     OW 8845   6.575   3.385   1.092
 2649SOL    HW1 8846   6.646   3.362   1.025
 2649SOL    HW2 8847   6.486   3.361   1.056
 2650SOL     OW 8848   1.807   5.058   3.481
 2650SOL    HW1 8849   1.756   4.995   3.541
 2650SOL    HW2 8850   1.843   5.134   3.535
 2651SOL     OW 8851   2.583   1.905   1.312
 2651SOL    HW1 8852   2.548   1.812   1.296
 2651SOL    HW2 8853   2.660   1.922   1.251
 2652SOL     OW 8854   4.234   3.057   5.403
 2652SOL    HW1 8855   4.141   3.067   5.368
 2652SOL    HW2 8856   4.270   3.147   5.428
 2653SOL     OW 8857   4.533   6.492   6.061
 2653SOL    HW1 8858   4.623   6.466   6.026
 2653SOL    HW2 8859   4.537   6.586   6.094
 2654SOL     OW 8860   4.344   0.083   1.651
 2654SOL    HW1 8861   4.370   0.179   1.643
 2654SOL    HW2 8862   4.426   0.027   1.662
 2655SOL     OW 8863   5.468   6.119   3.690
 2655SOL    HW1 8864   5.558   6.090   3.724
 2655SOL    HW2 8865   5.481   6.188   3.618
 2656SOL     OW 8866   3.758   4.970   4.664
 2656SOL    HW1 8867   3.721   4.918   4.587
 2656SOL    HW2 8868   3.854   4.947   4.676
 2657SOL     OW 8869   1.760   4.191   6.939
 2657SOL    HW1 8870   1.788   4.244   6.859
 2657SOL    HW2 8871   1.774   4.246   0.001
 2658SOL     OW 8872   5.340   4.833   0.226
 2658SOL    HW1 8873   5.418   4.893   0.208
 2658SOL    HW2 8874   5.315   4.785   0.142
 2659SOL     OW 8875   4.983   3.146   4.904
 2659SOL    HW1 8876   4.987   3.090   4.987
 2659SOL    HW2 8877   4.959   3.088   4.827
 2660SOL     OW 8878   1.328   0.410   1.678
 2660SOL    HW1 8879   1.413   0.360   1.692
 2660SOL    HW2 8880   1.275   0.408   1.763
 2661SOL     OW 8881   2.213   6.632   1.258
 2661SOL    HW1 8882   2.181   6.618   1.165
 2661SOL    HW2 8883   2.309   6.603   1.265
 2662SOL     OW 8884   3.587   6.822   5.050
 2662SOL    HW1 8885   3.598   6.883   4.972
 2662SOL    HW2 8886   3.492   6.790   5.053
 2663SOL     OW 8887   4.326   4.024   6.661
 2663SOL    HW1 8888   4.423   4.047   6.667
 2663SOL    HW2 8889   4.273   4.089   6.716
 2664SOL     OW 8890   4.453   3.046   5.681
 2664SOL    HW1 8891   4.367   3.096   5.674
 2664SOL    HW2 8892   4.492   3.060   5.772
 2665SOL     OW 8893   2.582   3.424   5.365
 2665SOL    HW1 8894   2.646   3.351   5.346
 2665SOL    HW2 8895   2.489   3.395   5.342
 2666SOL     OW 8896   1.358   4.928   1.574
 2666SOL    HW1 8897   1.282   4.868   1.549
 2666SOL    HW2 8898   1.323   5.019   1.597
 2667SOL     OW 8899   1.617   5.455   4.022
 2667SOL    HW1 8900   1.713   5.480   4.035
 2667SOL    HW2 8901   1.586   5.402   4.101
 2668SOL     OW 8902   6.670   2.624   4.831
 2668SOL    HW1 8903   6.703   2.667   4.748
 2668SOL    HW2 8904   6.744   2.620   4.898
 2669SOL     OW 8905   2.679   5.124   5.877
 2669SOL    HW1 8906   2.732   5.141   5.961
 2669SOL    HW2 8907   2.732   5.153   5.798
 2670SOL     OW 8908   6.260   3.220   4.903
 2670SOL    HW1 8909   6.274   3.136   4.955
 2670SOL    HW2 8910   6.320   3.292   4.938
 2671SOL     OW 8911   4.387   5.603   6.987
 2671SOL    HW1 8912   4.307   5.661   7.004
 2671SOL    HW2 8913   4.356   5.511   6.964
 2672SOL     OW 8914   3.177   6.132   0.713
 2672SOL    HW1 8915   3.246   6.096   0.776
 2672SOL    HW2 8916   3.213   6.214   0.668
 2673SOL     OW 8917   6.096   2.147   1.919
 2673SOL    HW1 8918   6.014   2.098   1.891
 2673SOL    HW2 8919   6.070   2.232   1.965
 2674SOL     OW 8920   1.260   4.583   4.387
 2674SOL    HW1 8921   1.359   4.567   4.382
 2674SOL    HW2 8922   1.233   4.653   4.321
 2675SOL     OW 8923   6.527   6.267   3.994
 2675SOL    HW1 8924   6.573   6.300   4.077
 2675SOL    HW2 8925   6.441   6.223   4.019
 2676SOL     OW 8926   3.295   2.875   1.208
 2676SOL    HW1 8927   3.361   2.803   1.187
 2676SOL    HW2 8928   3.265   2.866   1.303
 2677SOL     OW 8929   2.880   3.887   0.753
 2677SOL    HW1 8930   2.884   3.787   0.753
 2677SOL    HW2 8931   2.972   3.925   0.752
 2678SOL     OW 8932   0.572   2.569   2.702
 2678SOL    HW1 8933   0.631   2.521   2.768
 2678SOL    HW2 8934   0.479   2.535   2.710
 2679SOL     OW 8935   2.261   4.882   2.468
 2679SOL    HW1 8936   2.287   4.846   2.378
 2679SOL    HW2 8937   2.238   4.979   2.459
 2680SOL     OW 8938   1.113   1.957   0.699
 2680SOL    HW1 8939   1.167   1.914   0.771
 2680SOL    HW2 8940   1.151   2.047   0.677
 2681SOL     OW 8941   1.310   2.431   4.624
 2681SOL    HW1 8942   1.210   2.430   4.617
 2681SOL    HW2 8943   1.351   2.392   4.542
 2682SOL     OW 8944   4.797   3.972   3.897
 2682SOL    HW1 8945   4.843   4.039   3.839
 2682SOL    HW2 8946   4.753   4.018   3.974
 2683SOL     OW 8947   2.676   4.638   2.184
 2683SOL    HW1 8948   2.664   4.543   2.213
 2683SOL    HW2 8949   2.740   4.641   2.107
 2684SOL     OW 8950   4.322   6.920   2.384
 2684SOL    HW1 8951   4.298   6.859   2.459
 2684SOL    HW2 8952   4.394   6.878   2.328
 2685SOL     OW 8953   5.663   5.773   5.568
 2685SOL    HW1 8954   5.680   5.702   5.500
 2685SOL    HW2 8955   5.749   5.816   5.594
 2686SOL     OW 8956   1.329   1.864   5.139
 2686SOL    HW1 8957   1.254   1.798   5.144
 2686SOL    HW2 8958   1.382   1.848   5.056
 2687SOL     OW 8959   4.383   5.494   0.969
 2687SOL    HW1 8960   4.286   5.507   0.992
 2687SOL    HW2 8961   4.430   5.452   1.046
 2688SOL     OW 8962   2.718   2.301   0.402
 2688SOL    HW1 8963   2.708   2.398   0.427
 2688SOL    HW2 8964   2.719   2.293   0.303
 2689SOL     OW 8965   0.124   3.606   2.061
 2689SOL    HW1 8966   0.050   3.541   2.077
 2689SOL    HW2 8967   0.095   3.697   2.093
 2690SOL     OW 8968   3.152   3.411   5.500
 2690SOL    HW1 8969   3.214   3.388   5.576
 2690SOL    HW2 8970   3.057   3.400   5.530
 2691SOL     OW 8971   0.442   5.031   3.718
 2691SOL    HW1 8972   0.404   4.951   3.672
 2691SOL    HW2 8973   0.531   5.009   3.756
 2692SOL     OW 8974   2.927   6.412   3.826
 2692SOL    HW1 8975   2.874   6.481   3.874
 2692SOL    HW2 8976   3.008   6.454   3.785
 2693SOL     OW 8977   2.786   4.825   4.087
 2693SOL    HW1 8978   2.807   4.784   3.999
 2693SOL    HW2 8979   2.697   4.870   4.082
 2694SOL     OW 8980   3.961   6.972   3.092
 2694SOL    HW1 8981   3.905   6.924   3.160
 2694SOL    HW2 8982   3.902   7.008   3.019
 2695SOL     OW 8983   6.173   0.374   3.062
 2695SOL    HW1 8984   6.161   0.375   3.161
 2695SOL    HW2 8985   6.271   0.371   3.041
 2696SOL     OW 8986   3.890   3.433   5.719
 2696SOL    HW1 8987   3.817   3.401   5.779
 2696SOL    HW2 8988   3.975   3.444   5.771
 2697SOL     OW 8989   3.631   1.651   3.228
 2697SOL    HW1 8990   3.606   1.655   3.132
 2697SOL    HW2 8991   3.603   1.735   3.274
 2698SOL     OW 8992   1.686   4.071   0.435
 2698SOL    HW1 8993   1.781   4.086   0.410
 2698SOL    HW2 8994   1.634   4.155   0.422
 2699SOL     OW 8995   2.791   5.726   1.006
 2699SOL    HW1 8996   2.698   5.759   1.022
 2699SOL    HW2 8997   2.833   5.781   0.933
 2700SOL     OW 8998   3.002   1.882   1.059
 2700SOL    HW1 8999   3.098   1.856   1.069
 2700SOL    HW2 9000   2.985   1.968   1.107
 2701SOL     OW 9001   4.858   2.131   6.048
 2701SOL    HW1 9002   4.833   2.045   6.092
 2701SOL    HW2 9003   4.879   2.115   5.952
 2702SOL     OW 9004   1.191   2.701   3.639
 2702SOL    HW1 9005   1.181   2.744   3.550
 2702SOL    HW2 9006   1.117   2.635   3.653
 2703SOL     OW 9007   0.797   5.884   0.962
 2703SOL    HW1 9008   0.822   5.818   0.891
 2703SOL    HW2 9009   0.814   5.977   0.928
 2704SOL     OW 9010   6.322   6.323   1.989
 2704SOL    HW1 9011   6.361   6.232   1.977
 2704SOL    HW2 9012   6.307   6.365   1.899
 2705SOL     OW 9013   6.339   0.110   5.146
 2705SOL    HW1 9014   6.432   0.077   5.160
 2705SOL    HW2 9015   6.342   0.200   5.102
 2706SOL     OW 9016   6.614   4.516   3.210
 2706SOL    HW1 9017   6.690   4.453   3.225
 2706SOL    HW2 9018   6.648   4.602   3.172
 2707SOL     OW 9019   3.650   0.034   4.115
 2707SOL    HW1 9020   3.699   0.115   4.080
 2707SOL    HW2 9021   3.692   0.005   4.200
 2708SOL     OW 9022   6.314   2.805   1.050
 2708SOL    HW1 9023   6.321   2.707   1.029
 2708SOL    HW2 9024   6.402   2.840   1.080
 2709SOL     OW 9025   5.456   6.755   6.931
 2709SOL    HW1 9026   5.541   6.770   6.982
 2709SOL    HW2 9027   5.468   6.788   6.837
 2710SOL     OW 9028   1.169   3.174   4.075
 2710SOL    HW1 9029   1.110   3.201   4.151
 2710SOL    HW2 9030   1.147   3.230   3.995
 2711SOL     OW 9031   2.821   0.751   4.033
 2711SOL    HW1 9032   2.787   0.657   4.027
 2711SOL    HW2 9033   2.776   0.798   4.110
 2712SOL     OW 9034   2.681   5.383   1.816
 2712SOL    HW1 9035   2.605   5.447   1.829
 2712SOL    HW2 9036   2.665   5.301   1.870
 2713SOL     OW 9037   2.561   3.522   6.212
 2713SOL    HW1 9038   2.570   3.460   6.290
 2713SOL    HW2 9039   2.644   3.517   6.156
 2714SOL     OW 9040   3.979   2.779   0.038
 2714SOL    HW1 9041   3.912   2.833   7.009
 2714SOL    HW2 9042   4.059   2.764   7.002
 2715SOL     OW 9043   4.998   2.352   0.444
 2715SOL    HW1 9044   4.946   2.336   0.528
 2715SOL    HW2 9045   5.079   2.293   0.443
 2716SOL     OW 9046   5.179   3.597   4.205
 2716SOL    HW1 9047   5.126   3.610   4.121
 2716SOL    HW2 9048   5.153   3.511   4.248
 2717SOL     OW 9049   0.633   6.782   1.825
 2717SOL    HW1 9050   0.542   6.766   1.863
 2717SOL    HW2 9051   0.702   6.770   1.897
 2718SOL     OW 9052   1.253   1.538   5.434
 2718SOL    HW1 9053   1.322   1.565   5.501
 2718SOL    HW2 9054   1.187   1.476   5.477
 2719SOL     OW 9055   0.965   5.184   1.457
 2719SOL    HW1 9056   0.957   5.216   1.362
 2719SOL    HW2 9057   0.885   5.129   1.481
 2720SOL     OW 9058   1.242   0.491   2.333
 2720SOL    HW1 9059   1.148   0.497   2.366
 2720SOL    HW2 9060   1.304   0.481   2.411
 2721SOL     OW 9061   2.980   6.222   3.147
 2721SOL    HW1 9062   2.984   6.144   3.085
 2721SOL    HW2 9063   2.991   6.190   3.242
 2722SOL     OW 9064   5.721   5.277   6.764
 2722SOL    HW1 9065   5.764   5.258   6.852
 2722SOL    HW2 9066   5.698   5.191   6.719
 2723SOL     OW 9067   1.470   6.028   6.865
 2723SOL    HW1 9068   1.479   6.125   6.888
 2723SOL    HW2 9069   1.391   5.990   6.912
 2724SOL     OW 9070   1.476   6.533   6.592
 2724SOL    HW1 9071   1.503   6.558   6.684
 2724SOL    HW2 9072   1.381   6.561   6.577
 2725SOL     OW 9073   5.220   4.708   4.834
 2725SOL    HW1 9074   5.172   4.675   4.916
 2725SOL    HW2 9075   5.293   4.770   4.861
 2726SOL     OW 9076   0.348   2.571   2.205
 2726SOL    HW1 9077   0.353   2.473   2.187
 2726SOL    HW2 9078   0.440   2.609   2.211
 2727SOL     OW 9079   0.482   4.369   4.275
 2727SOL    HW1 9080   0.533   4.411   4.349
 2727SOL    HW2 9081   0.528   4.286   4.244
 2728SOL     OW 9082   4.652   6.243   5.416
 2728SOL    HW1 9083   4.559   6.224   5.384
 2728SOL    HW2 9084   4.709   6.270   5.338
 2729SOL     OW 9085   6.971   6.521   0.743
 2729SOL    HW1 9086   6.921   6.478   0.668
 2729SOL    HW2 9087   0.017   6.456   0.779
 2730SOL     OW 9088   1.572   5.808   1.841
 2730SOL    HW1 9089   1.524   5.846   1.763
 2730SOL    HW2 9090   1.507   5.759   1.900
 2731SOL     OW 9091   2.925   3.544   3.210
 2731SOL    HW1 9092   2.917   3.630   3.159
 2731SOL    HW2 9093   2.903   3.467   3.149
 2732SOL     OW 9094   5.587   1.948   0.815
 2732SOL    HW1 9095   5.561   1.945   0.718
 2732SOL    HW2 9096   5.677   1.906   0.826
 2733SOL     OW 9097   6.658   1.762   5.045
 2733SOL    HW1 9098   6.641   1.682   4.988
 2733SOL    HW2 9099   6.593   1.834   5.022
 2734SOL     OW 9100   2.913   5.336   0.899
 2734SOL    HW1 9101   2.953   5.277   0.968
 2734SOL    HW2 9102   2.986   5.377   0.844
 2735SOL     OW 9103   1.596   2.590   2.199
 2735SOL    HW1 9104   1.609   2.492   2.212
 2735SOL    HW2 9105   1.531   2.625   2.267
 2736SOL     OW 9106   7.012   6.351   4.741
 2736SOL    HW1 9107   6.968   6.315   4.659
 2736SOL    HW2 9108   0.063   6.289   4.771
 2737SOL     OW 9109   2.813   3.893   5.553
 2737SOL    HW1 9110   2.731   3.885   5.610
 2737SOL    HW2 9111   2.829   3.806   5.507
 2738SOL     OW 9112   5.415   6.001   1.941
 2738SOL    HW1 9113   5.357   6.000   2.023
 2738SOL    HW2 9114   5.483   5.928   1.947
 2739SOL     OW 9115   1.196   4.826   0.666
 2739SOL    HW1 9116   1.266   4.834   0.738
 2739SOL    HW2 9117   1.238   4.844   0.577
 2740SOL     OW 9118   6.429   4.857   1.176
 2740SOL    HW1 9119   6.499   4.799   1.219
 2740SOL    HW2 9120   6.406   4.819   1.086
 2741SOL     OW 9121   6.528   0.622   4.276
 2741SOL    HW1 9122   6.482   0.587   4.194
 2741SOL    HW2 9123   6.601   0.685   4.250
 2742SOL     OW 9124   1.889   4.744   0.326
 2742SOL    HW1 9125   1.883   4.807   0.404
 2742SOL    HW2 9126   1.969   4.685   0.338
 2743SOL     OW 9127   0.533   4.464   2.583
 2743SOL    HW1 9128   0.505   4.375   2.620
 2743SOL    HW2 9129   0.454   4.525   2.581
 2744SOL     OW 9130   4.330   2.640   0.430
 2744SOL    HW1 9131   4.401   2.599   0.373
 2744SOL    HW2 9132   4.314   2.583   0.511
 2745SOL     OW 9133   0.072   0.999   4.742
 2745SOL    HW1 9134   0.062   0.908   4.703
 2745SOL    HW2 9135   7.015   1.056   4.715
 2746SOL     OW 9136   0.973   2.515   4.985
 2746SOL    HW1 9137   1.038   2.449   5.022
 2746SOL    HW2 9138   0.929   2.565   5.060
 2747SOL     OW 9139   4.804   5.504   6.690
 2747SOL    HW1 9140   4.803   5.577   6.759
 2747SOL    HW2 9141   4.834   5.541   6.602
 2748SOL     OW 9142   4.501   1.441   2.702
 2748SOL    HW1 9143   4.457   1.379   2.768
 2748SOL    HW2 9144   4.506   1.397   2.613
 2749SOL     OW 9145   6.614   4.464   1.039
 2749SOL    HW1 9146   6.706   4.429   1.056
 2749SOL    HW2 9147   6.547   4.393   1.061
 2750SOL     OW 9148   2.177   3.991   1.835
 2750SOL    HW1 9149   2.259   3.983   1.778
 2750SOL    HW2 9150   2.196   3.954   1.926
 2751SOL     OW 9151   1.223   2.913   1.532
 2751SOL    HW1 9152   1.158   2.850   1.576
 2751SOL    HW2 9153   1.310   2.908   1.580
 2752SOL     OW 9154   3.385   4.779   5.737
 2752SOL    HW1 9155   3.307   4.737   5.692
 2752SOL    HW2 9156   3.354   4.838   5.812
 2753SOL     OW 9157   6.981   6.756   4.884
 2753SOL    HW1 9158   6.982   6.729   4.788
 2753SOL    HW2 9159   0.051   6.748   4.923
 2754SOL     OW 9160   0.464   0.215   0.927
 2754SOL    HW1 9161   0.523   0.296   0.926
 2754SOL    HW2 9162   0.521   0.133   0.921
 2755SOL     OW 9163   3.558   6.823   2.206
 2755SOL    HW1 9164   3.579   6.747   2.146
 2755SOL    HW2 9165   3.631   6.891   2.202
 2756SOL     OW 9166   4.981   5.694   6.997
 2756SOL    HW1 9167   4.897   5.716   0.025
 2756SOL    HW2 9168   4.992   5.757   6.920
 2757SOL     OW 9169   2.497   6.417   0.364
 2757SOL    HW1 9170   2.464   6.343   0.305
 2757SOL    HW2 9171   2.590   6.397   0.395
 2758SOL     OW 9172   3.888   6.891   3.601
 2758SOL    HW1 9173   3.904   6.793   3.609
 2758SOL    HW2 9174   3.974   6.938   3.580
 2759SOL     OW 9175   5.424   6.379   5.935
 2759SOL    HW1 9176   5.338   6.338   5.966
 2759SOL    HW2 9177   5.423   6.386   5.835
 2760SOL     OW 9178   6.991   5.651   1.591
 2760SOL    HW1 9179   6.961   5.572   1.645
 2760SOL    HW2 9180   0.041   5.622   1.527
 2761SOL     OW 9181   2.004   5.086   4.471
 2761SOL    HW1 9182   1.917   5.124   4.501
 2761SOL    HW2 9183   2.078   5.128   4.525
 2762SOL     OW 9184   1.514   0.975   5.487
 2762SOL    HW1 9185   1.596   1.017   5.449
 2762SOL    HW2 9186   1.516   0.876   5.469
 2763SOL     OW 9187   4.938   1.531   3.650
 2763SOL    HW1 9188   4.856   1.533   3.708
 2763SOL    HW2 9189   4.948   1.619   3.604
 2764SOL     OW 9190   5.779   1.163   1.292
 2764SOL    HW1 9191   5.698   1.161   1.232
 2764SOL    HW2 9192   5.756   1.210   1.377
 2765SOL     OW 9193   5.734   0.199   0.876
 2765SOL    HW1 9194   5.669   0.131   0.909
 2765SOL    HW2 9195   5.825   0.180   0.914
 2766SOL     OW 9196   4.035   2.027   0.145
 2766SOL    HW1 9197   4.087   1.956   0.096
 2766SOL    HW2 9198   4.071   2.036   0.238
 2767SOL     OW 9199   6.820   5.437   0.408
 2767SOL    HW1 9200   6.811   5.352   0.356
 2767SOL    HW2 9201   6.750   5.502   0.377
 2768SOL     OW 9202   4.759   0.370   0.943
 2768SOL    HW1 9203   4.855   0.352   0.966
 2768SOL    HW2 9204   4.728   0.305   0.874
 2769SOL     OW 9205   0.719   4.082   4.226
 2769SOL    HW1 9206   0.790   4.138   4.267
 2769SOL    HW2 9207   0.740   4.066   4.130
 2770SOL     OW 9208   3.184   5.416   5.747
 2770SOL    HW1 9209   3.271   5.432   5.794
 2770SOL    HW2 9210   3.113   5.393   5.814
 2771SOL     OW 9211   6.598   0.779   2.976
 2771SOL    HW1 9212   6.658   0.727   3.037
 2771SOL    HW2 9213   6.648   0.858   2.940
 2772SOL     OW 9214   4.269   1.831   0.601
 2772SOL    HW1 9215   4.200   1.791   0.661
 2772SOL    HW2 9216   4.298   1.920   0.636
 2773SOL     OW 9217   6.015   2.298   5.528
 2773SOL    HW1 9218   5.967   2.337   5.450
 2773SOL    HW2 9219   6.109   2.275   5.503
 2774SOL     OW 9220   6.009   3.693   3.318
 2774SOL    HW1 9221   6.096   3.656   3.352
 2774SOL    HW2 9222   5.938   3.622   3.323
 2775SOL     OW 9223   6.735   5.415   0.025
 2775SOL    HW1 9224   6.736   5.407   6.946
 2775SOL    HW2 9225   6.644   5.444   0.055
 2776SOL     OW 9226   4.304   4.614   5.749
 2776SOL    HW1 9227   4.238   4.604   5.823
 2776SOL    HW2 9228   4.291   4.702   5.704
 2777SOL     OW 9229   2.833   1.246   2.087
 2777SOL    HW1 9230   2.790   1.207   2.005
 2777SOL    HW2 9231   2.853   1.342   2.071
 2778SOL     OW 9232   1.354   0.022   5.796
 2778SOL    HW1 9233   1.373   0.021   5.698
 2778SOL    HW2 9234   1.288   6.971   5.818
 2779SOL     OW 9235   5.348   6.139   0.813
 2779SOL    HW1 9236   5.351   6.175   0.906
 2779SOL    HW2 9237   5.253   6.119   0.788
 2780SOL     OW 9238   6.276   6.527   6.918
 2780SOL    HW1 9239   6.270   6.485   7.008
 2780SOL    HW2 9240   6.261   6.457   6.848
 2781SOL     OW 9241   5.104   6.298   1.719
 2781SOL    HW1 9242   5.020   6.244   1.724
 2781SOL    HW2 9243   5.168   6.255   1.655
 2782SOL     OW 9244   3.801   1.871   5.346
 2782SOL    HW1 9245   3.849   1.789   5.379
 2782SOL    HW2 9246   3.704   1.850   5.333
 2783SOL     OW 9247   5.083   4.088   3.835
 2783SOL    HW1 9248   5.100   4.178   3.874
 2783SOL    HW2 9249   5.105   4.089   3.738
 2784SOL     OW 9250   3.857   1.500   1.039
 2784SOL    HW1 9251   3.824   1.422   1.093
 2784SOL    HW2 9252   3.892   1.467   0.952
 2785SOL     OW 9253   5.107   1.511   1.039
 2785SOL    HW1 9254   5.010   1.525   1.057
 2785SOL    HW2 9255   5.161   1.544   1.116
 2786SOL     OW 9256   4.751   5.942   1.894
 2786SOL    HW1 9257   4.687   5.985   1.957
 2786SOL    HW2 9258   4.817   5.887   1.945
 2787SOL     OW 9259   3.397   1.865   6.731
 2787SOL    HW1 9260   3.337   1.907   6.800
 2787SOL    HW2 9261   3.361   1.775   6.706
 2788SOL     OW 9262   2.388   4.583   5.934
 2788SOL    HW1 9263   2.367   4.488   5.958
 2788SOL    HW2 9264   2.474   4.587   5.883
 2789SOL     OW 9265   2.276   2.298   3.643
 2789SOL    HW1 9266   2.291   2.326   3.548
 2789SOL    HW2 9267   2.346   2.339   3.701
 2790SOL     OW 9268   3.120   5.906   2.011
 2790SOL    HW1 9269   3.051   5.852   2.058
 2790SOL    HW2 9270   3.084   5.939   1.924
 2791SOL     OW 9271   1.320   3.887   3.304
 2791SOL    HW1 9272   1.307   3.873   3.402
 2791SOL    HW2 9273   1.253   3.833   3.253
 2792SOL     OW 9274   1.105   6.895   3.852
 2792SOL    HW1 9275   1.140   6.814   3.807
 2792SOL    HW2 9276   1.178   6.940   3.904
 2793SOL     OW 9277   4.934   3.497   3.047
 2793SOL    HW1 9278   4.949   3.565   2.975
 2793SOL    HW2 9279   4.938   3.542   3.137
 2794SOL     OW 9280   0.306   3.161   0.272
 2794SOL    HW1 9281   0.222   3.192   0.316
 2794SOL    HW2 9282   0.377   3.146   0.341
 2795SOL     OW 9283   1.785   2.870   0.707
 2795SOL    HW1 9284   1.870   2.900   0.665
 2795SOL    HW2 9285   1.798   2.861   0.806
 2796SOL     OW 9286   6.762   5.441   2.510
 2796SOL    HW1 9287   6.785   5.502   2.586
 2796SOL    HW2 9288   6.763   5.492   2.425
 2797SOL     OW 9289   5.819   5.107   4.531
 2797SOL    HW1 9290   5.783   5.197   4.503
 2797SOL    HW2 9291   5.823   5.103   4.630
 2798SOL     OW 9292   0.671   5.458   1.654
 2798SOL    HW1 9293   0.760   5.446   1.610
 2798SOL    HW2 9294   0.641   5.553   1.643
 2799SOL     OW 9295   6.621   6.791   0.324
 2799SOL    HW1 9296   6.656   6.710   0.277
 2799SOL    HW2 9297   6.685   6.817   0.397
 2800SOL     OW 9298   4.535   5.208   0.039
 2800SOL    HW1 9299   4.585   5.200   0.125
 2800SOL    HW2 9300   4.595   5.247   6.990
 2801SOL     OW 9301   5.902   5.126   5.099
 2801SOL    HW1 9302   5.841   5.050   5.078
 2801SOL    HW2 9303   5.874   5.169   5.185
 2802SOL     OW 9304   4.583   1.478   5.412
 2802SOL    HW1 9305   4.571   1.518   5.321
 2802SOL    HW2 9306   4.666   1.516   5.454
 2803SOL     OW 9307   3.708   5.913   6.247
 2803SOL    HW1 9308   3.776   5.986   6.240
 2803SOL    HW2 9309   3.627   5.937   6.194
 2804SOL     OW 9310   0.299   4.690   5.068
 2804SOL    HW1 9311   0.230   4.618   5.081
 2804SOL    HW2 9312   0.390   4.653   5.087
 2805SOL     OW 9313   5.334   2.968   1.922
 2805SOL    HW1 9314   5.302   2.960   2.017
 2805SOL    HW2 9315   5.356   3.063   1.902
 2806SOL     OW 9316   6.271   5.226   4.964
 2806SOL    HW1 9317   6.327   5.146   4.984
 2806SOL    HW2 9318   6.250   5.228   4.866
 2807SOL     OW 9319   4.786   5.514   3.169
 2807SOL    HW1 9320   4.838   5.557   3.096
 2807SOL    HW2 9321   4.805   5.560   3.255
 2808SOL     OW 9322   5.265   3.748   2.663
 2808SOL    HW1 9323   5.268   3.840   2.625
 2808SOL    HW2 9324   5.175   3.707   2.646
 2809SOL     OW 9325   5.988   3.092   1.014
 2809SOL    HW1 9326   5.951   3.172   0.967
 2809SOL    HW2 9327   6.041   3.037   0.950
 2810SOL     OW 9328   3.111   5.880   4.233
 2810SOL    HW1 9329   3.150   5.806   4.289
 2810SOL    HW2 9330   3.157   5.881   4.144
 2811SOL     OW 9331   1.376   1.511   3.405
 2811SOL    HW1 9332   1.469   1.547   3.403
 2811SOL    HW2 9333   1.314   1.578   3.364
 2812SOL     OW 9334   4.999   4.173   6.881
 2812SOL    HW1 9335   4.932   4.105   6.912
 2812SOL    HW2 9336   4.958   4.233   6.813
 2813SOL     OW 9337   6.662   6.821   5.897
 2813SOL    HW1 9338   6.568   6.856   5.889
 2813SOL    HW2 9339   6.688   6.777   5.811
 2814SOL     OW 9340   4.607   3.380   6.305
 2814SOL    HW1 9341   4.566   3.299   6.348
 2814SOL    HW2 9342   4.589   3.378   6.207
 2815SOL     OW 9343   6.109   0.482   5.527
 2815SOL    HW1 9344   6.185   0.507   5.585
 2815SOL    HW2 9345   6.023   0.509   5.570
 2816SOL     OW 9346   6.450   5.458   3.415
 2816SOL    HW1 9347   6.381   5.511   3.365
 2816SOL    HW2 9348   6.404   5.385   3.466
 2817SOL     OW 9349   2.624   6.993   1.394
 2817SOL    HW1 9350   2.709   7.020   1.439
 2817SOL    HW2 9351   2.590   0.047   1.338
 2818SOL     OW 9352   0.010   0.587   0.506
 2818SOL    HW1 9353   6.958   0.526   0.477
 2818SOL    HW2 9354   0.055   0.627   0.426
 2819SOL     OW 9355   0.853   1.149   1.185
 2819SOL    HW1 9356   0.802   1.066   1.159
 2819SOL    HW2 9357   0.842   1.218   1.114
 2820SOL     OW 9358   0.969   2.026   3.098
 2820SOL    HW1 9359   0.949   1.949   3.158
 2820SOL    HW2 9360   1.010   1.993   3.013
 2821SOL     OW 9361   4.032   3.314   0.158
 2821SOL    HW1 9362   4.071   3.392   0.206
 2821SOL    HW2 9363   3.996   3.344   0.070
 2822SOL     OW 9364   4.220   1.902   6.970
 2822SOL    HW1 9365   4.146   1.871   6.911
 2822SOL    HW2 9366   4.297   1.933   6.913
 2823SOL     OW 9367   4.292   6.313   0.613
 2823SOL    HW1 9368   4.317   6.216   0.606
 2823SOL    HW2 9369   4.315   6.359   0.527
 2824SOL     OW 9370   2.625   0.911   3.054
 2824SOL    HW1 9371   2.587   0.906   3.146
 2824SOL    HW2 9372   2.674   0.998   3.042
 2825SOL     OW 9373   6.630   0.054   6.897
 2825SOL    HW1 9374   6.590   0.011   6.816
 2825SOL    HW2 9375   6.621   0.153   6.890
 2826SOL     OW 9376   4.772   0.951   6.911
 2826SOL    HW1 9377   4.736   1.040   6.939
 2826SOL    HW2 9378   4.859   0.964   6.863
 2827SOL     OW 9379   6.726   0.633   5.554
 2827SOL    HW1 9380   6.629   0.611   5.559
 2827SOL    HW2 9381   6.739   0.713   5.495
 2828SOL     OW 9382   3.238   0.623   0.125
 2828SOL    HW1 9383   3.231   0.699   0.190
 2828SOL    HW2 9384   3.276   0.657   0.039
 2829SOL     OW 9385   3.452   3.596   5.281
 2829SOL    HW1 9386   3.401   3.612   5.196
 2829SOL    HW2 9387   3.401   3.634   5.358
 2830SOL     OW 9388   1.371   3.220   5.834
 2830SOL    HW1 9389   1.301   3.253   5.898
 2830SOL    HW2 9390   1.460   3.258   5.859
 2831SOL     OW 9391   0.874   5.632   3.724
 2831SOL    HW1 9392   0.880   5.580   3.639
 2831SOL    HW2 9393   0.829   5.576   3.794
 2832SOL     OW 9394   1.329   1.530   2.328
 2832SOL    HW1 9395   1.405   1.527   2.393
 2832SOL    HW2 9396   1.242   1.517   2.377
 2833SOL     OW 9397   4.352   1.990   2.257
 2833SOL    HW1 9398   4.295   1.983   2.339
 2833SOL    HW2 9399   4.327   2.074   2.208
 2834SOL     OW 9400   3.198   5.570   6.544
 2834SOL    HW1 9401   3.186   5.592   6.447
 2834SOL    HW2 9402   3.233   5.477   6.553
 2835SOL     OW 9403   0.026   0.353   1.432
 2835SOL    HW1 9404   6.993   0.403   1.366
 2835SOL    HW2 9405   6.999   0.269   1.459
 2836SOL     OW 9406   5.790   0.458   2.309
 2836SOL    HW1 9407   5.876   0.508   2.302
 2836SOL    HW2 9408   5.795   0.394   2.386
 2837SOL     OW 9409   5.387   4.073   2.815
 2837SOL    HW1 9410   5.429   4.084   2.725
 2837SOL    HW2 9411   5.458   4.050   2.882
 2838SOL     OW 9412   2.122   4.399   1.126
 2838SOL    HW1 9413   2.099   4.472   1.062
 2838SOL    HW2 9414   2.213   4.415   1.164
 2839SOL     OW 9415   6.902   1.665   1.623
 2839SOL    HW1 9416   6.915   1.646   1.526
 2839SOL    HW2 9417   6.811   1.634   1.651
 2840SOL     OW 9418   2.346   0.897   3.396
 2840SOL    HW1 9419   2.295   0.812   3.380
 2840SOL    HW2 9420   2.351   0.914   3.494
 2841SOL     OW 9421   0.447   0.865   5.926
 2841SOL    HW1 9422   0.445   0.784   5.868
 2841SOL    HW2 9423   0.429   0.839   6.021
 2842SOL     OW 9424   6.922   3.900   3.809
 2842SOL    HW1 9425   6.838   3.906   3.756
 2842SOL    HW2 9426   6.907   3.937   3.901
 2843SOL     OW 9427   2.628   1.403   2.887
 2843SOL    HW1 9428   2.653   1.338   2.959
 2843SOL    HW2 9429   2.538   1.441   2.906
 2844SOL     OW 9430   0.129   5.200   0.206
 2844SOL    HW1 9431   0.194   5.136   0.246
 2844SOL    HW2 9432   0.139   5.289   0.249
 2845SOL     OW 9433   6.368   3.158   1.314
 2845SOL    HW1 9434   6.372   3.058   1.306
 2845SOL    HW2 9435   6.276   3.190   1.292
 2846SOL     OW 9436   4.355   1.051   6.348
 2846SOL    HW1 9437   4.307   0.968   6.377
 2846SOL    HW2 9438   4.307   1.131   6.383
 2847SOL     OW 9439   5.139   3.534   3.737
 2847SOL    HW1 9440   5.069   3.601   3.712
 2847SOL    HW2 9441   5.225   3.581   3.755
 2848SOL     OW 9442   1.402   2.991   5.669
 2848SOL    HW1 9443   1.447   3.027   5.587
 2848SOL    HW2 9444   1.373   3.067   5.726
 2849SOL     OW 9445   3.922   6.236   0.827
 2849SOL    HW1 9446   3.857   6.179   0.778
 2849SOL    HW2 9447   4.004   6.182   0.848
 2850SOL     OW 9448   2.334   0.350   2.066
 2850SOL    HW1 9449   2.426   0.343   2.105
 2850SOL    HW2 9450   2.266   0.341   2.139
 2851SOL     OW 9451   6.546   1.702   5.676
 2851SOL    HW1 9452   6.612   1.631   5.652
 2851SOL    HW2 9453   6.462   1.688   5.623
 2852SOL     OW 9454   5.591   5.023   6.911
 2852SOL    HW1 9455   5.598   4.948   6.977
 2852SOL    HW2 9456   5.674   5.025   6.855
 2853SOL     OW 9457   1.618   3.039   6.741
 2853SOL    HW1 9458   1.679   3.046   6.819
 2853SOL    HW2 9459   1.637   2.955   6.690
 2854SOL     OW 9460   3.875   1.188   5.038
 2854SOL    HW1 9461   3.960   1.176   5.090
 2854SOL    HW2 9462   3.822   1.263   5.078
 2855SOL     OW 9463   2.622   1.642   6.881
 2855SOL    HW1 9464   2.702   1.595   6.844
 2855SOL    HW2 9465   2.586   1.705   6.813
 2856SOL     OW 9466   1.363   2.934   6.074
 2856SOL    HW1 9467   1.404   3.025   6.089
 2856SOL    HW2 9468   1.429   2.875   6.028
 2857SOL     OW 9469   3.089   1.606   2.140
 2857SOL    HW1 9470   3.083   1.530   2.205
 2857SOL    HW2 9471   3.114   1.689   2.190
 2858SOL     OW 9472   4.682   4.254   2.903
 2858SOL    HW1 9473   4.615   4.304   2.848
 2858SOL    HW2 9474   4.773   4.266   2.863
 2859SOL     OW 9475   4.784   1.864   6.791
 2859SOL    HW1 9476   4.863   1.810   6.763
 2859SOL    HW2 9477   4.747   1.912   6.712
 2860SOL     OW 9478   3.329   2.005   1.511
 2860SOL    HW1 9479   3.385   1.996   1.429
 2860SOL    HW2 9480   3.294   1.915   1.538
 2861SOL     OW 9481   3.853   3.929   5.935
 2861SOL    HW1 9482   3.876   3.945   6.031
 2861SOL    HW2 9483   3.761   3.964   5.917
 2862SOL     OW 9484   5.308   1.673   3.057
 2862SOL    HW1 9485   5.312   1.574   3.044
 2862SOL    HW2 9486   5.362   1.718   2.985
 2863SOL     OW 9487   5.296   0.998   6.759
 2863SOL    HW1 9488   5.357   0.919   6.757
 2863SOL    HW2 9489   5.344   1.076   6.797
 2864SOL     OW 9490   4.192   1.849   1.466
 2864SOL    HW1 9491   4.223   1.879   1.375
 2864SOL    HW2 9492   4.269   1.806   1.514
 2865SOL     OW 9493   4.474   4.170   6.342
 2865SOL    HW1 9494   4.507   4.079   6.366
 2865SOL    HW2 9495   4.427   4.166   6.254
 2866SOL     OW 9496   6.411   5.393   0.497
 2866SOL    HW1 9497   6.487   5.333   0.521
 2866SOL    HW2 9498   6.345   5.395   0.572
 2867SOL     OW 9499   5.818   4.026   2.552
 2867SOL    HW1 9500   5.793   3.956   2.618
 2867SOL    HW2 9501   5.899   3.997   2.500
 2868SOL     OW 9502   0.174   1.887   5.381
 2868SOL    HW1 9503   0.156   1.981   5.410
 2868SOL    HW2 9504   0.268   1.862   5.405
 2869SOL     OW 9505   6.351   0.670   2.929
 2869SOL    HW1 9506   6.430   0.731   2.935
 2869SOL    HW2 9507   6.380   0.576   2.946
 2870SOL     OW 9508   0.054   1.463   4.392
 2870SOL    HW1 9509   0.027   1.417   4.477
 2870SOL    HW2 9510   0.146   1.501   4.403
 2871SOL     OW 9511   0.363   1.830   0.327
 2871SOL    HW1 9512   0.313   1.808   0.411
 2871SOL    HW2 9513   0.430   1.902   0.345
 2872SOL     OW 9514   2.737   1.172   3.060
 2872SOL    HW1 9515   2.835   1.158   3.067
 2872SOL    HW2 9516   2.701   1.199   3.150
 2873SOL     OW 9517   6.968   4.729   2.845
 2873SOL    HW1 9518   7.006   4.682   2.765
 2873SOL    HW2 9519   0.021   4.748   2.910
 2874SOL     OW 9520   3.514   6.459   3.442
 2874SOL    HW1 9521   3.609   6.476   3.417
 2874SOL    HW2 9522   3.468   6.546   3.458
 2875SOL     OW 9523   5.014   6.856   0.659
 2875SOL    HW1 9524   4.944   6.789   0.682
 2875SOL    HW2 9525   5.098   6.809   0.631
 2876SOL     OW 9526   0.988   6.915   1.921
 2876SOL    HW1 9527   1.082   6.890   1.901
 2876SOL    HW2 9528   0.950   6.851   1.987
 2877SOL     OW 9529   3.204   2.549   5.371
 2877SOL    HW1 9530   3.196   2.473   5.307
 2877SOL    HW2 9531   3.301   2.571   5.385
 2878SOL     OW 9532   4.665   4.798   4.534
 2878SOL    HW1 9533   4.707   4.783   4.623
 2878SOL    HW2 9534   4.615   4.716   4.507
 2879SOL     OW 9535   5.214   4.844   0.721
 2879SOL    HW1 9536   5.129   4.894   0.707
 2879SOL    HW2 9537   5.202   4.749   0.691
 2880SOL     OW 9538   5.900   0.223   1.508
 2880SOL    HW1 9539   5.845   0.140   1.502
 2880SOL    HW2 9540   5.882   0.269   1.595
 2881SOL     OW 9541   5.342   6.033   6.920
 2881SOL    HW1 9542   5.406   6.099   6.882
 2881SOL    HW2 9543   5.333   6.049   7.019
 2882SOL     OW 9544   0.511   4.184   2.667
 2882SOL    HW1 9545   0.600   4.193   2.622
 2882SOL    HW2 9546   0.510   4.240   2.750
 2883SOL     OW 9547   5.972   0.424   3.806
 2883SOL    HW1 9548   5.884   0.412   3.852
 2883SOL    HW2 9549   6.032   0.348   3.830
 2884SOL     OW 9550   0.815   5.942   3.262
 2884SOL    HW1 9551   0.822   5.846   3.233
 2884SOL    HW2 9552   0.719   5.965   3.279
 2885SOL     OW 9553   0.983   3.067   2.400
 2885SOL    HW1 9554   1.030   3.007   2.465
 2885SOL    HW2 9555   1.018   3.050   2.308
 2886SOL     OW 9556   2.491   4.151   5.790
 2886SOL    HW1 9557   2.472   4.188   5.698
 2886SOL    HW2 9558   2.583   4.177   5.817
 2887SOL     OW 9559   0.502   0.436   4.562
 2887SOL    HW1 9560   0.450   0.502   4.507
 2887SOL    HW2 9561   0.597   0.436   4.533
 2888SOL     OW 9562   0.524   4.320   7.005
 2888SOL    HW1 9563   0.520   4.250   0.055
 2888SOL    HW2 9564   0.431   4.343   6.976
 2889SOL     OW 9565   1.641   0.092   2.148
 2889SOL    HW1 9566   1.723   0.120   2.098
 2889SOL    HW2 9567   1.629   0.151   2.227
 2890SOL     OW 9568   2.719   6.367   0.520
 2890SOL    HW1 9569   2.690   6.305   0.593
 2890SOL    HW2 9570   2.770   6.444   0.559
 2891SOL     OW 9571   1.371   4.295   3.413
 2891SOL    HW1 9572   1.272   4.282   3.405
 2891SOL    HW2 9573   1.418   4.225   3.360
 2892SOL     OW 9574   5.495   3.639   6.791
 2892SOL    HW1 9575   5.396   3.628   6.778
 2892SOL    HW2 9576   5.540   3.551   6.776
 2893SOL     OW 9577   0.441   6.107   4.702
 2893SOL    HW1 9578   0.435   6.154   4.614
 2893SOL    HW2 9579   0.382   6.026   4.701
 2894SOL     OW 9580   2.718   2.825   1.121
 2894SOL    HW1 9581   2.649   2.753   1.134
 2894SOL    HW2 9582   2.796   2.787   1.070
 2895SOL     OW 9583   4.533   2.249   5.882
 2895SOL    HW1 9584   4.480   2.253   5.967
 2895SOL    HW2 9585   4.608   2.314   5.886
 2896SOL     OW 9586   3.836   5.275   6.353
 2896SOL    HW1 9587   3.775   5.199   6.334
 2896SOL    HW2 9588   3.911   5.275   6.286
 2897SOL     OW 9589   3.564   4.898   3.507
 2897SOL    HW1 9590   3.485   4.926   3.454
 2897SOL    HW2 9591   3.543   4.907   3.605
 2898SOL     OW 9592   3.737   5.522   4.052
 2898SOL    HW1 9593   3.777   5.442   4.007
 2898SOL    HW2 9594   3.810   5.581   4.086
 2899SOL     OW 9595   0.802   1.931   0.811
 2899SOL    HW1 9596   0.887   1.970   0.775
 2899SOL    HW2 9597   0.761   1.870   0.743
 2900SOL     OW 9598   2.221   4.607   5.198
 2900SOL    HW1 9599   2.256   4.528   5.249
 2900SOL    HW2 9600   2.174   4.576   5.116
 2901SOL     OW 9601   2.229   6.192   4.051
 2901SOL    HW1 9602   2.223   6.254   4.129
 2901SOL    HW2 9603   2.276   6.108   4.079
 2902SOL     OW 9604   4.748   6.582   1.910
 2902SOL    HW1 9605   4.663   6.602   1.959
 2902SOL    HW2 9606   4.812   6.658   1.923
 2903SOL     OW 9607   4.081   0.768   0.759
 2903SOL    HW1 9608   4.068   0.865   0.782
 2903SOL    HW2 9609   4.010   0.714   0.802
 2904SOL     OW 9610   2.199   3.924   5.366
 2904SOL    HW1 9611   2.151   4.009   5.345
 2904SOL    HW2 9612   2.274   3.911   5.300
 2905SOL     OW 9613   1.420   2.448   3.932
 2905SOL    HW1 9614   1.431   2.465   3.835
 2905SOL    HW2 9615   1.432   2.533   3.983
 2906SOL     OW 9616   4.729   6.128   2.483
 2906SOL    HW1 9617   4.650   6.189   2.484
 2906SOL    HW2 9618   4.756   6.111   2.388
 2907SOL     OW 9619   0.612   1.743   3.614
 2907SOL    HW1 9620   0.651   1.827   3.576
 2907SOL    HW2 9621   0.682   1.672   3.616
 2908SOL     OW 9622   4.525   6.214   4.407
 2908SOL    HW1 9623   4.526   6.126   4.454
 2908SOL    HW2 9624   4.443   6.266   4.434
 2909SOL     OW 9625   1.109   6.613   3.269
 2909SOL    HW1 9626   1.188   6.551   3.265
 2909SOL    HW2 9627   1.141   6.708   3.271
 2910SOL     OW 9628   4.620   6.515   4.662
 2910SOL    HW1 9629   4.697   6.513   4.726
 2910SOL    HW2 9630   4.640   6.457   4.584
 2911SOL     OW 9631   1.633   5.409   3.588
 2911SOL    HW1 9632   1.600   5.338   3.526
 2911SOL    HW2 9633   1.556   5.443   3.642
 2912SOL     OW 9634   4.938   0.284   6.734
 2912SOL    HW1 9635   4.991   0.200   6.734
 2912SOL    HW2 9636   4.913   0.308   6.828
 2913SOL     OW 9637   2.277   4.417   3.213
 2913SOL    HW1 9638   2.243   4.427   3.119
 2913SOL    HW2 9639   2.337   4.494   3.236
 2914SOL     OW 9640   5.743   6.322   5.702
 2914SOL    HW1 9641   5.771   6.245   5.759
 2914SOL    HW2 9642   5.809   6.396   5.712
 2915SOL     OW 9643   5.697   1.821   4.908
 2915SOL    HW1 9644   5.747   1.865   4.833
 2915SOL    HW2 9645   5.657   1.736   4.875
 2916SOL     OW 9646   0.553   6.534   6.727
 2916SOL    HW1 9647   0.484   6.505   6.793
 2916SOL    HW2 9648   0.630   6.469   6.729
 2917SOL     OW 9649   3.489   6.903   2.472
 2917SOL    HW1 9650   3.483   6.866   2.379
 2917SOL    HW2 9651   3.485   7.003   2.468
 2918SOL     OW 9652   6.872   4.973   3.852
 2918SOL    HW1 9653   6.951   4.927   3.894
 2918SOL    HW2 9654   6.841   5.047   3.912
 2919SOL     OW 9655   6.254   1.091   0.974
 2919SOL    HW1 9656   6.204   1.111   0.890
 2919SOL    HW2 9657   6.327   1.026   0.955
 2920SOL     OW 9658   3.057   1.935   2.166
 2920SOL    HW1 9659   2.977   1.929   2.226
 2920SOL    HW2 9660   3.076   2.031   2.145
 2921SOL     OW 9661   1.487   0.835   3.203
 2921SOL    HW1 9662   1.430   0.893   3.261
 2921SOL    HW2 9663   1.447   0.831   3.111
 2922SOL     OW 9664   5.208   0.574   0.581
 2922SOL    HW1 9665   5.151   0.652   0.606
 2922SOL    HW2 9666   5.304   0.594   0.601
 2923SOL     OW 9667   6.917   4.952   2.152
 2923SOL    HW1 9668   6.957   5.005   2.078
 2923SOL    HW2 9669   6.840   5.002   2.191
 2924SOL     OW 9670   6.983   1.943   6.132
 2924SOL    HW1 9671   6.980   2.039   6.162
 2924SOL    HW2 9672   6.947   1.936   6.039
 2925SOL     OW 9673   4.503   1.024   2.780
 2925SOL    HW1 9674   4.481   0.967   2.701
 2925SOL    HW2 9675   4.435   1.097   2.788
 2926SOL     OW 9676   6.651   1.260   4.326
 2926SOL    HW1 9677   6.597   1.178   4.348
 2926SOL    HW2 9678   6.736   1.232   4.281
 2927SOL     OW 9679   0.852   2.230   2.642
 2927SOL    HW1 9680   0.876   2.260   2.550
 2927SOL    HW2 9681   0.815   2.137   2.638
 2928SOL     OW 9682   0.315   1.898   6.497
 2928SOL    HW1 9683   0.273   1.971   6.550
 2928SOL    HW2 9684   0.266   1.887   6.410
 2929SOL     OW 9685   0.656   1.566   6.703
 2929SOL    HW1 9686   0.590   1.596   6.773
 2929SOL    HW2 9687   0.625   1.596   6.613
 2930SOL     OW 9688   4.687   6.305   4.930
 2930SOL    HW1 9689   4.763   6.350   4.881
 2930SOL    HW2 9690   4.645   6.370   4.993
 2931SOL     OW 9691   5.608   4.856   0.124
 2931SOL    HW1 9692   5.649   4.923   0.185
 2931SOL    HW2 9693   5.642   4.765   0.146
 2932SOL     OW 9694   0.534   5.370   1.099
 2932SOL    HW1 9695   0.472   5.358   1.177
 2932SOL    HW2 9696   0.480   5.374   1.014
 2933SOL     OW 9697   6.186   4.671   3.528
 2933SOL    HW1 9698   6.238   4.737   3.473
 2933SOL    HW2 9699   6.089   4.681   3.510
 2934SOL     OW 9700   4.682   1.228   6.894
 2934SOL    HW1 9701   4.760   1.258   6.949
 2934SOL    HW2 9702   4.647   1.305   6.841
 2935SOL     OW 9703   6.598   3.098   1.121
 2935SOL    HW1 9704   6.544   3.160   1.178
 2935SOL    HW2 9705   6.668   3.150   1.072
 2936SOL     OW 9706   3.934   5.387   1.859
 2936SOL    HW1 9707   3.927   5.297   1.816
 2936SOL    HW2 9708   3.925   5.458   1.790
 2937SOL     OW 9709   4.442   4.377   0.227
 2937SOL    HW1 9710   4.406   4.329   0.306
 2937SOL    HW2 9711   4.442   4.476   0.244
 2938SOL     OW 9712   4.313   5.365   6.884
 2938SOL    HW1 9713   4.219   5.352   6.852
 2938SOL    HW2 9714   4.372   5.382   6.805
 2939SOL     OW 9715   0.891   1.036   3.870
 2939SOL    HW1 9716   0.913   1.133   3.876
 2939SOL    HW2 9717   0.967   0.986   3.830
 2940SOL     OW 9718   5.876   5.766   6.359
 2940SOL    HW1 9719   5.821   5.740   6.279
 2940SOL    HW2 9720   5.973   5.748   6.340
 2941SOL     OW 9721   1.708   3.365   4.126
 2941SOL    HW1 9722   1.762   3.423   4.065
 2941SOL    HW2 9723   1.638   3.317   4.073
 2942SOL     OW 9724   3.180   2.420   0.979
 2942SOL    HW1 9725   3.270   2.377   0.975
 2942SOL    HW2 9726   3.182   2.507   0.930
 2943SOL     OW 9727   4.987   4.514   2.909
 2943SOL    HW1 9728   4.957   4.437   2.852
 2943SOL    HW2 9729   4.923   4.525   2.985
 2944SOL     OW 9730   2.781   5.484   5.553
 2944SOL    HW1 9731   2.768   5.501   5.455
 2944SOL    HW2 9732   2.721   5.546   5.605
 2945SOL     OW 9733   3.324   4.044   3.491
 2945SOL    HW1 9734   3.362   3.993   3.414
 2945SOL    HW2 9735   3.395   4.061   3.558
 2946SOL     OW 9736   0.744   5.462   6.871
 2946SOL    HW1 9737   0.741   5.364   6.852
 2946SOL    HW2 9738   0.710   5.480   6.963
 2947SOL     OW 9739   0.235   3.484   6.980
 2947SOL    HW1 9740   0.226   3.493   6.881
 2947SOL    HW2 9741   0.252   3.388   7.004
 2948SOL     OW 9742   0.081   4.540   5.800
 2948SOL    HW1 9743   0.167   4.491   5.814
 2948SOL    HW2 9744   0.073   4.611   5.870
 2949SOL     OW 9745   2.794   5.407   0.584
 2949SOL    HW1 9746   2.780   5.485   0.524
 2949SOL    HW2 9747   2.764   5.430   0.677
 2950SOL     OW 9748   5.150   3.558   4.541
 2950SOL    HW1 9749   5.191   3.596   4.624
 2950SOL    HW2 9750   5.054   3.536   4.558
 2951SOL     OW 9751   5.936   1.682   0.985
 2951SOL    HW1 9752   6.025   1.637   0.974
 2951SOL    HW2 9753   5.940   1.774   0.945
 2952SOL     OW 9754   1.044   5.071   5.209
 2952SOL    HW1 9755   1.125   5.126   5.227
 2952SOL    HW2 9756   1.010   5.091   5.117
 2953SOL     OW 9757   5.214   3.357   3.268
 2953SOL    HW1 9758   5.281   3.421   3.230
 2953SOL    HW2 9759   5.240   3.332   3.361
 2954SOL     OW 9760   0.603   5.861   2.049
 2954SOL    HW1 9761   0.635   5.777   2.006
 2954SOL    HW2 9762   0.606   5.852   2.148
 2955SOL     OW 9763   1.186   3.773   1.662
 2955SOL    HW1 9764   1.153   3.857   1.620
 2955SOL    HW2 9765   1.256   3.731   1.604
 2956SOL     OW 9766   5.919   6.607   3.396
 2956SOL    HW1 9767   5.915   6.539   3.324
 2956SOL    HW2 9768   5.834   6.605   3.448
 2957SOL     OW 9769   6.288   3.044   2.002
 2957SOL    HW1 9770   6.241   2.956   2.007
 2957SOL    HW2 9771   6.361   3.046   2.071
 2958SOL     OW 9772   2.395   4.438   4.587
 2958SOL    HW1 9773   2.447   4.357   4.614
 2958SOL    HW2 9774   2.447   4.521   4.609
 2959SOL     OW 9775   5.080   4.613   0.660
 2959SOL    HW1 9776   4.998   4.586   0.710
 2959SOL    HW2 9777   5.054   4.679   0.589
 2960SOL     OW 9778   3.874   6.921   6.270
 2960SOL    HW1 9779   3.829   6.853   6.328
 2960SOL    HW2 9780   3.965   6.940   6.305
 2961SOL     OW 9781   4.816   2.960   3.436
 2961SOL    HW1 9782   4.847   2.895   3.366
 2961SOL    HW2 9783   4.752   2.913   3.498
 2962SOL     OW 9784   4.043   0.885   3.289
 2962SOL    HW1 9785   4.103   0.834   3.227
 2962SOL    HW2 9786   4.019   0.972   3.247
 2963SOL     OW 9787   2.235   0.708   6.409
 2963SOL    HW1 9788   2.297   0.725   6.485
 2963SOL    HW2 9789   2.279   0.735   6.324
 2964SOL     OW 9790   0.178   0.034   2.782
 2964SOL    HW1 9791   0.264   0.077   2.753
 2964SOL    HW2 9792   0.129   0.002   2.701
 2965SOL     OW 9793   6.706   1.064   4.832
 2965SOL    HW1 9794   6.738   0.972   4.854
 2965SOL    HW2 9795   6.730   1.127   4.906
 2966SOL     OW 9796   6.671   5.892   4.315
 2966SOL    HW1 9797   6.602   5.931   4.254
 2966SOL    HW2 9798   6.653   5.794   4.328
 2967SOL     OW 9799   5.972   1.443   5.007
 2967SOL    HW1 9800   6.033   1.411   4.934
 2967SOL    HW2 9801   5.893   1.489   4.966
 2968SOL     OW 9802   0.507   3.234   6.284
 2968SOL    HW1 9803   0.601   3.224   6.318
 2968SOL    HW2 9804   0.477   3.328   6.297
 2969SOL     OW 9805   5.690   0.985   4.422
 2969SOL    HW1 9806   5.763   1.036   4.376
 2969SOL    HW2 9807   5.712   0.975   4.519
 2970SOL     OW 9808   1.198   4.371   6.011
 2970SOL    HW1 9809   1.150   4.335   5.931
 2970SOL    HW2 9810   1.271   4.432   5.980
 2971SOL     OW 9811   5.586   4.125   6.180
 2971SOL    HW1 9812   5.672   4.076   6.168
 2971SOL    HW2 9813   5.570   4.143   6.277
 2972SOL     OW 9814   6.277   4.530   6.445
 2972SOL    HW1 9815   6.350   4.470   6.480
 2972SOL    HW2 9816   6.284   4.536   6.345
 2973SOL     OW 9817   5.855   1.356   4.089
 2973SOL    HW1 9818   5.759   1.333   4.105
 2973SOL    HW2 9819   5.870   1.366   3.990
 2974SOL     OW 9820   0.684   4.041   2.985
 2974SOL    HW1 9821   0.734   4.010   3.066
 2974SOL    HW2 9822   0.730   4.007   2.903
 2975SOL     OW 9823   6.883   2.426   5.241
 2975SOL    HW1 9824   6.785   2.413   5.257
 2975SOL    HW2 9825   6.896   2.488   5.164
 2976SOL     OW 9826   4.300   2.375   3.130
 2976SOL    HW1 9827   4.232   2.444   3.104
 2976SOL    HW2 9828   4.339   2.335   3.047
 2977SOL     OW 9829   2.109   6.908   3.559
 2977SOL    HW1 9830   2.129   6.892   3.656
 2977SOL    HW2 9831   2.081   7.003   3.546
 2978SOL     OW 9832   4.256   4.633   6.843
 2978SOL    HW1 9833   4.250   4.704   6.913
 2978SOL    HW2 9834   4.250   4.675   6.753
 2979SOL     OW 9835   4.588   0.931   4.345
 2979SOL    HW1 9836   4.513   0.915   4.281
 2979SOL    HW2 9837   4.574   1.019   4.390
 2980SOL     OW 9838   1.584   5.899   3.827
 2980SOL    HW1 9839   1.554   5.985   3.869
 2980SOL    HW2 9840   1.552   5.822   3.882
 2981SOL     OW 9841   1.952   0.936   6.118
 2981SOL    HW1 9842   1.989   0.849   6.085
 2981SOL    HW2 9843   1.985   0.953   6.211
 2982SOL     OW 9844   3.754   6.166   3.299
 2982SOL    HW1 9845   3.706   6.078   3.306
 2982SOL    HW2 9846   3.806   6.168   3.214
 2983SOL     OW 9847   0.974   1.679   3.858
 2983SOL    HW1 9848   0.995   1.689   3.761
 2983SOL    HW2 9849   0.919   1.596   3.872
 2984SOL     OW 9850   5.176   5.675   1.925
 2984SOL    HW1 9851   5.125   5.614   1.865
 2984SOL    HW2 9852   5.272   5.648   1.927
 2985SOL     OW 9853   1.363   2.484   5.816
 2985SOL    HW1 9854   1.453   2.449   5.791
 2985SOL    HW2 9855   1.319   2.422   5.881
 2986SOL     OW 9856   2.525   3.582   5.935
 2986SOL    HW1 9857   2.542   3.550   6.028
 2986SOL    HW2 9858   2.604   3.633   5.903
 2987SOL     OW 9859   5.632   1.632   4.106
 2987SOL    HW1 9860   5.617   1.535   4.124
 2987SOL    HW2 9861   5.671   1.675   4.187
 2988SOL     OW 9862   0.468   6.352   2.819
 2988SOL    HW1 9863   0.494   6.385   2.909
 2988SOL    HW2 9864   0.514   6.265   2.801
 2989SOL     OW 9865   6.489   6.108   0.038
 2989SOL    HW1 9866   6.394   6.138   0.027
 2989SOL    HW2 9867   6.512   6.108   0.135
 2990SOL     OW 9868   4.633   1.913   4.566
 2990SOL    HW1 9869   4.668   1.999   4.529
 2990SOL    HW2 9870   4.566   1.932   4.637
 2991SOL     OW 9871   6.181   4.100   6.159
 2991SOL    HW1 9872   6.089   4.137   6.166
 2991SOL    HW2 9873   6.209   4.097   6.063
 2992SOL     OW 9874   2.317   5.233   5.633
 2992SOL    HW1 9875   2.392   5.258   5.571
 2992SOL    HW2 9876   2.318   5.293   5.712
 2993SOL     OW 9877   0.412   5.341   1.344
 2993SOL    HW1 9878   0.469   5.311   1.421
 2993SOL    HW2 9879   0.320   5.303   1.354
 2994SOL     OW 9880   3.714   6.552   0.199
 2994SOL    HW1 9881   3.656   6.627   0.166
 2994SOL    HW2 9882   3.810   6.579   0.195
 2995SOL     OW 9883   1.763   3.125   6.952
 2995SOL    HW1 9884   1.853   3.085   6.966
 2995SOL    HW2 9885   1.774   3.218   6.916
 2996SOL     OW 9886   1.795   6.822   4.281
 2996SOL    HW1 9887   1.873   6.847   4.223
 2996SOL    HW2 9888   1.717   6.800   4.222
 2997SOL     OW 9889   5.101   0.574   2.366
 2997SOL    HW1 9890   5.090   0.569   2.267
 2997SOL    HW2 9891   5.142   0.662   2.391
 2998SOL     OW 9892   4.948   7.013   4.322
 2998SOL    HW1 9893   5.007   7.015   4.403
 2998SOL    HW2 9894   4.999   0.023   4.243
 2999SOL     OW 9895   3.084   4.873   4.457
 2999SOL    HW1 9896   3.084   4.905   4.552
 2999SOL    HW2 9897   3.000   4.820   4.441
 3000SOL     OW 9898   1.813   3.770   0.162
 3000SOL    HW1 9899   1.833   3.859   0.122
 3000SOL    HW2 9900   1.787   3.782   0.258
 3001SOL     OW 9901   5.649   6.208   6.238
 3001SOL    HW1 9902   5.603   6.142   6.180
 3001SOL    HW2 9903   5.718   6.257   6.184
 3002SOL     OW 9904   3.660   0.237   6.020
 3002SOL    HW1 9905   3.604   0.319   6.008
 3002SOL    HW2 9906   3.709   0.218   5.935
 3003SOL     OW 9907   2.214   6.698   0.012
 3003SOL    HW1 9908   2.245   6.680   0.106
 3003SOL    HW2 9909   2.187   6.794   0.004
 3004SOL     OW 9910   1.438   5.031   3.073
 3004SOL    HW1 9911   1.348   5.068   3.049
 3004SOL    HW2 9912   1.439   5.004   3.169
 3005SOL     OW 9913   3.345   2.405   6.638
 3005SOL    HW1 9914   3.334   2.334   6.568
 3005SOL    HW2 9915   3.256   2.445   6.659
 3006SOL     OW 9916   4.923   2.233   6.285
 3006SOL    HW1 9917   4.902   2.183   6.201
 3006SOL    HW2 9918   4.903   2.175   6.364
 3007SOL     OW 9919   5.727   5.795   1.433
 3007SOL    HW1 9920   5.692   5.881   1.471
 3007SOL    HW2 9921   5.824   5.804   1.414
 3008SOL     OW 9922   3.571   1.041   6.416
 3008SOL    HW1 9923   3.508   1.003   6.349
 3008SOL    HW2 9924   3.544   1.011   6.508
 3009SOL     OW 9925   0.917   0.815   2.758
 3009SOL    HW1 9926   0.852   0.748   2.722
 3009SOL    HW2 9927   1.004   0.807   2.709
 3010SOL     OW 9928   3.364   6.247   3.508
 3010SOL    HW1 9929   3.416   6.317   3.460
 3010SOL    HW2 9930   3.336   6.281   3.598
 3011SOL     OW 9931   5.043   1.470   1.419
 3011SOL    HW1 9932   5.136   1.506   1.428
 3011SOL    HW2 9933   5.028   1.401   1.490
 3012SOL     OW 9934   1.107   3.685   5.490
 3012SOL    HW1 9935   1.192   3.662   5.443
 3012SOL    HW2 9936   1.045   3.731   5.426
 3013SOL     OW 9937   5.400   5.792   4.618
 3013SOL    HW1 9938   5.398   5.795   4.518
 3013SOL    HW2 9939   5.382   5.883   4.655
 3014SOL     OW 9940   4.834   3.009   4.712
 3014SOL    HW1 9941   4.841   2.933   4.646
 3014SOL    HW2 9942   4.745   3.006   4.756
 3015SOL     OW 9943   2.819   2.391   6.826
 3015SOL    HW1 9944   2.779   2.449   6.755
 3015SOL    HW2 9945   2.880   2.446   6.883
 3016SOL     OW 9946   3.075   6.259   4.467
 3016SOL    HW1 9947   3.029   6.174   4.441
 3016SOL    HW2 9948   3.015   6.337   4.450
 3017SOL     OW 9949   0.575   5.509   2.062
 3017SOL    HW1 9950   0.528   5.435   2.109
 3017SOL    HW2 9951   0.661   5.475   2.023
 3018SOL     OW 9952   2.152   0.101   5.483
 3018SOL    HW1 9953   2.198   0.048   5.411
 3018SOL    HW2 9954   2.129   0.192   5.448
 3019SOL     OW 9955   1.358   0.317   6.938
 3019SOL    HW1 9956   1.365   0.352   6.844
 3019SOL    HW2 9957   1.266   0.334   6.972
 3020SOL     OW 9958   4.200   3.350   2.005
 3020SOL    HW1 9959   4.288   3.323   2.044
 3020SOL    HW2 9960   4.215   3.410   1.927
 3021SOL     OW 9961   3.117   0.010   6.863
 3021SOL    HW1 9962   3.149   6.961   6.927
 3021SOL    HW2 9963   3.064   0.079   6.912
 3022SOL     OW 9964   4.208   4.841   4.417
 3022SOL    HW1 9965   4.109   4.836   4.411
 3022SOL    HW2 9966   4.248   4.755   4.385
 3023SOL     OW 9967   4.158   0.160   2.514
 3023SOL    HW1 9968   4.150   0.109   2.600
 3023SOL    HW2 9969   4.254   0.165   2.487
 3024SOL     OW 9970   4.273   6.188   5.565
 3024SOL    HW1 9971   4.315   6.213   5.478
 3024SOL    HW2 9972   4.327   6.117   5.609
 3025SOL     OW 9973   3.549   0.871   0.051
 3025SOL    HW1 9974   3.561   0.894   6.975
 3025SOL    HW2 9975   3.629   0.901   0.102
 3026SOL     OW 9976   1.441   1.401   0.790
 3026SOL    HW1 9977   1.529   1.444   0.771
 3026SOL    HW2 9978   1.450   1.337   0.866
 3027SOL     OW 9979   3.981   0.594   2.576
 3027SOL    HW1 9980   4.043   0.669   2.599
 3027SOL    HW2 9981   4.033   0.518   2.538
 3028SOL     OW 9982   1.131   4.194   5.508
 3028SOL    HW1 9983   1.213   4.252   5.508
 3028SOL    HW2 9984   1.123   4.149   5.419
 3029SOL     OW 9985   0.038   2.893   4.988
 3029SOL    HW1 9986   0.110   2.844   4.938
 3029SOL    HW2 9987   0.070   2.911   5.081
 3030SOL     OW 9988   0.857   2.706   5.821
 3030SOL    HW1 9989   0.776   2.655   5.791
 3030SOL    HW2 9990   0.936   2.645   5.820
 3031SOL     OW 9991   0.631   2.897   0.837
 3031SOL    HW1 9992   0.591   2.825   0.780
 3031SOL    HW2 9993   0.570   2.977   0.837
 3032SOL     OW 9994   4.313   6.297   1.915
 3032SOL    HW1 9995   4.347   6.300   2.009
 3032SOL    HW2 9996   4.222   6.256   1.913
 3033SOL     OW 9997   0.014   1.957   1.491
 3033SOL    HW1 9998   0.059   2.027   1.435
 3033SOL    HW2 9999   6.980   1.898   1.432
 3034SOL     OW10000   1.872   5.287   3.627
 3034SOL    HW110001   1.869   5.245   3.718
 3034SOL    HW210002   1.783   5.328   3.607
 3035SOL     OW10003   6.860   3.168   0.593
 3035SOL    HW110004   6.886   3.199   0.502
 3035SOL    HW210005   6.760   3.166   0.600
 3036SOL     OW10006   1.453   2.767   6.839
 3036SOL    HW110007   1.503   2.682   6.850
 3036SOL    HW210008   1.414   2.771   6.746
 3037SOL     OW10009   0.536   5.840   5.172
 3037SOL    HW110010   0.541   5.777   5.094
 3037SOL    HW210011   0.516   5.788   5.255
 3038SOL     OW10012   5.866   5.985   5.667
 3038SOL    HW110013   5.848   5.969   5.764
 3038SOL    HW210014   5.924   6.066   5.657
 3039SOL     OW10015   6.906   3.821   1.330
 3039SOL    HW110016   6.926   3.854   1.422
 3039SOL    HW210017   6.930   3.892   1.263
 3040SOL     OW10018   3.891   3.415   6.180
 3040SOL    HW110019   3.926   3.322   6.181
 3040SOL    HW210020   3.927   3.463   6.099
 3041SOL     OW10021   2.236   3.010   4.566
 3041SOL    HW110022   2.256   2.934   4.627
 3041SOL    HW210023   2.263   2.986   4.473
 3042SOL     OW10024   4.812   6.392   2.251
 3042SOL    HW110025   4.822   6.312   2.191
 3042SOL    HW210026   4.881   6.460   2.227
 3043SOL     OW10027   1.244   5.665   1.778
 3043SOL    HW110028   1.219   5.754   1.814
 3043SOL    HW210029   1.161   5.611   1.762
 3044SOL     OW10030   3.046   3.469   5.886
 3044SOL    HW110031   3.106   3.548   5.878
 3044SOL    HW210032   3.099   3.385   5.873
 3045SOL     OW10033   4.729   1.634   3.041
 3045SOL    HW110034   4.726   1.538   3.013
 3045SOL    HW210035   4.763   1.640   3.135
 3046SOL     OW10036   2.379   1.300   6.639
 3046SOL    HW110037   2.415   1.372   6.579
 3046SOL    HW210038   2.415   1.212   6.610
 3047SOL     OW10039   4.951   0.131   2.550
 3047SOL    HW110040   4.945   0.163   2.644
 3047SOL    HW210041   5.017   0.187   2.499
 3048SOL     OW10042   3.902   2.544   1.701
 3048SOL    HW110043   3.865   2.524   1.611
 3048SOL    HW210044   3.843   2.505   1.772
 3049SOL     OW10045   0.953   6.745   1.521
 3049SOL    HW110046   0.975   6.733   1.425
 3049SOL    HW210047   0.858   6.720   1.538
 3050SOL     OW10048   3.359   1.081   2.145
 3050SOL    HW110049   3.279   1.129   2.108
 3050SOL    HW210050   3.378   1.001   2.090
 3051SOL     OW10051   2.070   3.919   0.457
 3051SOL    HW110052   2.162   3.950   0.482
 3051SOL    HW210053   2.023   3.991   0.407
 3052SOL     OW10054   5.173   6.819   2.300
 3052SOL    HW110055   5.087   6.837   2.347
 3052SOL    HW210056   5.172   6.865   2.211
 3053SOL     OW10057   7.014   1.432   6.906
 3053SOL    HW110058   0.012   1.503   6.973
 3053SOL    HW210059   0.078   1.388   6.879
 3054SOL     OW10060   6.800   2.077   1.190
 3054SOL    HW110061   6.898   2.096   1.195
 3054SOL    HW210062   6.774   2.064   1.094
 3055SOL     OW10063   5.322   0.119   3.996
 3055SOL    HW110064   5.259   0.126   4.074
 3055SOL    HW210065   5.290   0.049   3.933
 3056SOL     OW10066   6.318   1.136   5.389
 3056SOL    HW110067   6.275   1.093   5.468
 3056SOL    HW210068   6.247   1.167   5.325
 3057SOL     OW10069   3.586   6.299   3.761
 3057SOL    HW110070   3.633   6.295   3.673
 3057SOL    HW210071   3.629   6.236   3.825
 3058SOL     OW10072   6.864   5.605   0.810
 3058SOL    HW110073   6.900   5.684   0.861
 3058SOL    HW210074   6.769   5.624   0.783
 3059SOL     OW10075   2.417   1.911   4.364
 3059SOL    HW110076   2.349   1.984   4.359
 3059SOL    HW210077   2.377   1.826   4.331
 3060SOL     OW10078   0.468   5.336   0.213
 3060SOL    HW110079   0.466   5.415   0.274
 3060SOL    HW210080   0.437   5.364   0.122
 3061SOL     OW10081   5.757   0.298   5.088
 3061SOL    HW110082   5.855   0.285   5.098
 3061SOL    HW210083   5.737   0.334   4.997
 3062SOL     OW10084   1.170   6.940   6.999
 3062SOL    HW110085   1.094   6.886   0.014
 3062SOL    HW210086   1.240   6.950   0.049
 3063SOL     OW10087   2.556   5.523   1.489
 3063SOL    HW110088   2.497   5.488   1.561
 3063SOL    HW210089   2.567   5.454   1.417
 3064SOL     OW10090   5.735   4.152   3.343
 3064SOL    HW110091   5.765   4.057   3.356
 3064SOL    HW210092   5.720   4.194   3.432
 3065SOL     OW10093   2.438   1.151   0.078
 3065SOL    HW110094   2.421   1.156   7.001
 3065SOL    HW210095   2.418   1.239   0.121
 3066SOL     OW10096   5.270   5.162   1.258
 3066SOL    HW110097   5.256   5.064   1.267
 3066SOL    HW210098   5.262   5.205   1.348
 3067SOL     OW10099   3.688   2.296   5.298
 3067SOL    HW110100   3.618   2.368   5.291
 3067SOL    HW210101   3.676   2.231   5.223
 3068SOL     OW10102   6.315   6.443   1.693
 3068SOL    HW110103   6.392   6.487   1.739
 3068SOL    HW210104   6.318   6.463   1.595
 3069SOL     OW10105   6.389   6.342   2.245
 3069SOL    HW110106   6.379   6.344   2.145
 3069SOL    HW210107   6.486   6.328   2.267
 3070SOL     OW10108   1.262   1.035   2.023
 3070SOL    HW110109   1.208   0.955   2.049
 3070SOL    HW210110   1.349   1.004   1.985
 3071SOL     OW10111   6.265   5.955   3.062
 3071SOL    HW110112   6.300   6.047   3.082
 3071SOL    HW210113   6.193   5.932   3.127
 3072SOL     OW10114   1.268   0.176   0.227
 3072SOL    HW110115   1.335   0.250   0.222
 3072SOL    HW210116   1.313   0.088   0.210
 3073SOL     OW10117   6.410   2.640   4.976
 3073SOL    HW110118   6.371   2.729   4.999
 3073SOL    HW210119   6.466   2.648   4.894
 3074SOL     OW10120   5.957   3.354   0.891
 3074SOL    HW110121   5.939   3.433   0.832
 3074SOL    HW210122   5.943   3.380   0.987
 3075SOL     OW10123   2.223   5.831   1.755
 3075SOL    HW110124   2.203   5.921   1.717
 3075SOL    HW210125   2.289   5.785   1.696
 3076SOL     OW10126   0.119   0.762   4.225
 3076SOL    HW110127   0.068   0.695   4.280
 3076SOL    HW210128   0.192   0.803   4.281
 3077SOL     OW10129   4.546   5.755   2.532
 3077SOL    HW110130   4.565   5.670   2.484
 3077SOL    HW210131   4.628   5.786   2.580
 3078SOL     OW10132   1.240   3.373   1.916
 3078SOL    HW110133   1.296   3.454   1.900
 3078SOL    HW210134   1.263   3.334   2.005
 3079SOL     OW10135   2.282   1.729   4.264
 3079SOL    HW110136   2.326   1.662   4.324
 3079SOL    HW210137   2.184   1.730   4.280
 3080SOL     OW10138   4.904   3.787   3.536
 3080SOL    HW110139   4.915   3.715   3.468
 3080SOL    HW210140   4.893   3.875   3.491
 3081SOL     OW10141   0.806   2.741   6.089
 3081SOL    HW110142   0.857   2.809   6.142
 3081SOL    HW210143   0.837   2.743   5.994
 3082SOL     OW10144   2.788   0.180   4.108
 3082SOL    HW110145   2.799   0.271   4.148
 3082SOL    HW210146   2.830   0.112   4.167
 3083SOL     OW10147   4.071   6.401   2.895
 3083SOL    HW110148   4.169   6.389   2.880
 3083SOL    HW210149   4.055   6.490   2.938
 3084SOL     OW10150   5.364   4.206   5.028
 3084SOL    HW110151   5.414   4.138   5.081
 3084SOL    HW210152   5.345   4.171   4.937
 3085SOL     OW10153   0.146   4.623   1.729
 3085SOL    HW110154   0.112   4.641   1.822
 3085SOL    HW210155   0.229   4.677   1.713
 3086SOL     OW10156   3.939   2.135   2.037
 3086SOL    HW110157   3.848   2.166   2.007
 3086SOL    HW210158   3.939   2.035   2.044
 3087SOL     OW10159   0.582   5.281   4.109
 3087SOL    HW110160   0.536   5.204   4.154
 3087SOL    HW210161   0.632   5.248   4.029
 3088SOL     OW10162   2.616   4.847   5.601
 3088SOL    HW110163   2.540   4.908   5.624
 3088SOL    HW210164   2.596   4.755   5.634
 3089SOL     OW10165   1.066   3.505   0.263
 3089SOL    HW110166   1.049   3.448   0.183
 3089SOL    HW210167   1.081   3.600   0.234
 3090SOL     OW10168   2.016   2.025   2.295
 3090SOL    HW110169   1.994   1.928   2.296
 3090SOL    HW210170   2.084   2.043   2.225
 3091SOL     OW10171   1.689   0.544   1.180
 3091SOL    HW110172   1.729   0.628   1.214
 3091SOL    HW210173   1.702   0.470   1.246
 3092SOL     OW10174   5.202   6.604   0.577
 3092SOL    HW110175   5.201   6.625   0.675
 3092SOL    HW210176   5.131   6.537   0.556
 3093SOL     OW10177   5.171   6.301   5.979
 3093SOL    HW110178   5.127   6.390   5.967
 3093SOL    HW210179   5.125   6.251   6.052
 3094SOL     OW10180   2.400   6.650   4.187
 3094SOL    HW110181   2.442   6.665   4.276
 3094SOL    HW210182   2.309   6.691   4.185
 3095SOL     OW10183   2.158   5.459   6.095
 3095SOL    HW110184   2.104   5.397   6.037
 3095SOL    HW210185   2.140   5.437   6.191
 3096SOL     OW10186   1.358   6.569   4.997
 3096SOL    HW110187   1.290   6.499   4.976
 3096SOL    HW210188   1.387   6.613   4.912
 3097SOL     OW10189   6.872   2.727   0.558
 3097SOL    HW110190   6.933   2.648   0.568
 3097SOL    HW210191   6.900   2.779   0.477
 3098SOL     OW10192   2.949   3.007   1.137
 3098SOL    HW110193   2.958   2.909   1.154
 3098SOL    HW210194   2.997   3.058   1.209
 3099SOL     OW10195   0.697   6.743   3.442
 3099SOL    HW110196   0.616   6.693   3.473
 3099SOL    HW210197   0.747   6.778   3.522
 3100SOL     OW10198   6.549   6.595   4.615
 3100SOL    HW110199   6.466   6.650   4.606
 3100SOL    HW210200   6.581   6.598   4.710
 3101SOL     OW10201   4.844   6.636   5.952
 3101SOL    HW110202   4.811   6.550   5.913
 3101SOL    HW210203   4.837   6.633   6.051
 3102SOL     OW10204   0.500   4.615   2.251
 3102SOL    HW110205   0.426   4.632   2.317
 3102SOL    HW210206   0.586   4.603   2.301
 3103SOL     OW10207   3.325   0.456   2.131
 3103SOL    HW110208   3.230   0.438   2.105
 3103SOL    HW210209   3.364   0.524   2.069
 3104SOL     OW10210   5.494   6.589   5.254
 3104SOL    HW110211   5.474   6.613   5.349
 3104SOL    HW210212   5.513   6.672   5.202
 3105SOL     OW10213   6.553   4.271   2.008
 3105SOL    HW110214   6.462   4.278   1.966
 3105SOL    HW210215   6.622   4.300   1.942
 3106SOL     OW10216   5.658   1.804   2.503
 3106SOL    HW110217   5.645   1.893   2.547
 3106SOL    HW210218   5.686   1.818   2.408
 3107SOL     OW10219   4.206   1.151   4.185
 3107SOL    HW110220   4.136   1.081   4.171
 3107SOL    HW210221   4.283   1.135   4.124
 3108SOL     OW10222   0.681   6.953   4.142
 3108SOL    HW110223   0.687   6.985   4.237
 3108SOL    HW210224   0.763   6.900   4.119
 3109SOL     OW10225   5.212   6.404   2.231
 3109SOL    HW110226   5.120   6.444   2.228
 3109SOL    HW210227   5.233   6.364   2.141
 3110SOL     OW10228   1.962   2.396   3.695
 3110SOL    HW110229   1.927   2.325   3.634
 3110SOL    HW210230   2.054   2.372   3.724
 3111SOL     OW10231   5.876   6.228   3.746
 3111SOL    HW110232   5.943   6.284   3.795
 3111SOL    HW210233   5.924   6.163   3.687
 3112SOL     OW10234   4.873   2.518   6.294
 3112SOL    HW110235   4.895   2.420   6.287
 3112SOL    HW210236   4.904   2.553   6.382
 3113SOL     OW10237   1.821   6.008   3.932
 3113SOL    HW110238   1.865   5.935   3.985
 3113SOL    HW210239   1.729   5.979   3.906
 3114SOL     OW10240   4.099   2.260   0.465
 3114SOL    HW110241   4.020   2.217   0.509
 3114SOL    HW210242   4.154   2.191   0.419
 3115SOL     OW10243   4.066   3.182   6.396
 3115SOL    HW110244   3.995   3.233   6.445
 3115SOL    HW210245   4.099   3.107   6.453
 3116SOL     OW10246   0.090   3.252   0.368
 3116SOL    HW110247   0.100   3.284   0.462
 3116SOL    HW210248   0.029   3.313   0.317
 3117SOL     OW10249   4.299   3.318   5.516
 3117SOL    HW110250   4.366   3.377   5.471
 3117SOL    HW210251   4.214   3.369   5.531
 3118SOL     OW10252   0.103   4.516   0.987
 3118SOL    HW110253   0.153   4.472   0.913
 3118SOL    HW210254   0.168   4.555   1.053
 3119SOL     OW10255   1.866   3.595   5.665
 3119SOL    HW110256   1.945   3.578   5.607
 3119SOL    HW210257   1.887   3.567   5.759
 3120SOL     OW10258   2.969   6.762   4.445
 3120SOL    HW110259   2.941   6.712   4.363
 3120SOL    HW210260   3.055   6.724   4.480
 3121SOL     OW10261   6.674   1.780   2.914
 3121SOL    HW110262   6.753   1.778   2.853
 3121SOL    HW210263   6.692   1.721   2.993
 3122SOL     OW10264   3.492   6.496   5.819
 3122SOL    HW110265   3.534   6.562   5.758
 3122SOL    HW210266   3.562   6.439   5.862
 3123SOL     OW10267   4.217   1.585   4.116
 3123SOL    HW110268   4.303   1.568   4.164
 3123SOL    HW210269   4.235   1.599   4.019
 3124SOL     OW10270   4.319   6.380   4.482
 3124SOL    HW110271   4.309   6.375   4.582
 3124SOL    HW210272   4.245   6.437   4.445
 3125SOL     OW10273   6.490   1.967   5.044
 3125SOL    HW110274   6.494   2.026   4.963
 3125SOL    HW210275   6.414   1.996   5.103
 3126SOL     OW10276   4.164   4.673   6.346
 3126SOL    HW110277   4.084   4.612   6.351
 3126SOL    HW210278   4.240   4.624   6.302
 3127SOL     OW10279   1.086   3.325   3.881
 3127SOL    HW110280   1.124   3.416   3.897
 3127SOL    HW210281   1.000   3.333   3.830
 3128SOL     OW10282   1.967   0.673   6.682
 3128SOL    HW110283   2.044   0.627   6.727
 3128SOL    HW210284   1.981   0.673   6.583
 3129SOL     OW10285   0.542   4.135   6.746
 3129SOL    HW110286   0.488   4.083   6.812
 3129SOL    HW210287   0.482   4.196   6.694
 3130SOL     OW10288   1.631   4.606   1.782
 3130SOL    HW110289   1.542   4.592   1.825
 3130SOL    HW210290   1.661   4.699   1.797
 3131SOL     OW10291   6.775   2.791   1.507
 3131SOL    HW110292   6.846   2.773   1.575
 3131SOL    HW210293   6.686   2.794   1.552
 3132SOL     OW10294   4.629   5.226   5.653
 3132SOL    HW110295   4.640   5.296   5.723
 3132SOL    HW210296   4.629   5.136   5.695
 3133SOL     OW10297   3.479   2.139   3.842
 3133SOL    HW110298   3.481   2.215   3.907
 3133SOL    HW210299   3.510   2.055   3.887
 3134SOL     OW10300   4.610   4.278   1.401
 3134SOL    HW110301   4.690   4.300   1.345
 3134SOL    HW210302   4.537   4.344   1.383
 3135SOL     OW10303   5.230   0.322   5.303
 3135SOL    HW110304   5.292   0.346   5.377
 3135SOL    HW210305   5.142   0.293   5.340
 3136SOL     OW10306   5.427   0.764   0.809
 3136SOL    HW110307   5.493   0.703   0.853
 3136SOL    HW210308   5.336   0.748   0.848
 3137SOL     OW10309   6.326   0.726   3.224
 3137SOL    HW110310   6.262   0.801   3.204
 3137SOL    HW210311   6.337   0.669   3.143
 3138SOL     OW10312   6.295   3.103   4.019
 3138SOL    HW110313   6.227   3.044   4.063
 3138SOL    HW210314   6.386   3.077   4.050
 3139SOL     OW10315   5.017   6.754   0.229
 3139SOL    HW110316   4.945   6.691   0.258
 3139SOL    HW210317   5.106   6.714   0.248
 3140SOL     OW10318   5.958   0.050   6.742
 3140SOL    HW110319   5.971   7.004   6.669
 3140SOL    HW210320   5.872   0.032   6.789
 3141SOL     OW10321   6.857   5.881   6.248
 3141SOL    HW110322   6.860   5.923   6.339
 3141SOL    HW210323   6.903   5.793   6.250
 3142SOL     OW10324   4.255   6.519   1.751
 3142SOL    HW110325   4.180   6.513   1.685
 3142SOL    HW210326   4.258   6.435   1.805
 3143SOL     OW10327   6.887   1.685   6.806
 3143SOL    HW110328   6.969   1.631   6.825
 3143SOL    HW210329   6.887   1.767   6.863
 3144SOL     OW10330   4.156   3.915   1.070
 3144SOL    HW110331   4.238   3.972   1.063
 3144SOL    HW210332   4.078   3.972   1.099
 3145SOL     OW10333   1.674   5.229   2.297
 3145SOL    HW110334   1.630   5.259   2.382
 3145SOL    HW210335   1.771   5.249   2.301
 3146SOL     OW10336   1.609   0.129   2.571
 3146SOL    HW110337   1.657   0.042   2.557
 3146SOL    HW210338   1.540   0.118   2.642
 3147SOL     OW10339   2.760   4.987   0.321
 3147SOL    HW110340   2.721   5.010   0.232
 3147SOL    HW210341   2.823   5.059   0.350
 3148SOL     OW10342   5.051   6.064   4.688
 3148SOL    HW110343   5.074   6.066   4.590
 3148SOL    HW210344   5.012   5.975   4.711
 3149SOL     OW10345   2.586   0.947   5.242
 3149SOL    HW110346   2.628   1.026   5.286
 3149SOL    HW210347   2.575   0.964   5.144
 3150SOL     OW10348   6.835   6.093   4.257
 3150SOL    HW110349   6.820   6.150   4.339
 3150SOL    HW210350   6.772   6.016   4.259
 3151SOL     OW10351   4.394   1.362   6.496
 3151SOL    HW110352   4.313   1.352   6.554
 3151SOL    HW210353   4.448   1.278   6.500
 3152SOL     OW10354   1.340   5.536   1.016
 3152SOL    HW110355   1.368   5.500   1.104
 3152SOL    HW210356   1.303   5.462   0.959
 3153SOL     OW10357   6.681   4.508   2.153
 3153SOL    HW110358   6.594   4.458   2.148
 3153SOL    HW210359   6.676   4.577   2.225
 3154SOL     OW10360   6.830   1.289   0.013
 3154SOL    HW110361   6.893   1.240   0.073
 3154SOL    HW210362   6.883   1.338   6.964
 3155SOL     OW10363   6.642   4.690   1.234
 3155SOL    HW110364   6.678   4.610   1.283
 3155SOL    HW210365   6.700   4.710   1.156
 3156SOL     OW10366   3.334   3.299   3.375
 3156SOL    HW110367   3.250   3.248   3.391
 3156SOL    HW210368   3.408   3.236   3.352
 3157SOL     OW10369   1.953   2.915   4.898
 3157SOL    HW110370   1.859   2.891   4.873
 3157SOL    HW210371   2.013   2.838   4.879
 3158SOL     OW10372   4.262   6.922   2.010
 3158SOL    HW110373   4.214   6.976   2.079
 3158SOL    HW210374   4.357   6.909   2.037
 3159SOL     OW10375   5.922   1.143   0.231
 3159SOL    HW110376   5.926   1.044   0.239
 3159SOL    HW210377   5.893   1.183   0.318
 3160SOL     OW10378   0.400   6.314   5.034
 3160SOL    HW110379   0.321   6.268   4.993
 3160SOL    HW210380   0.445   6.252   5.099
 3161SOL     OW10381   2.053   1.576   3.785
 3161SOL    HW110382   2.026   1.627   3.703
 3161SOL    HW210383   2.089   1.487   3.757
 3162SOL     OW10384   1.215   6.493   1.498
 3162SOL    HW110385   1.194   6.519   1.592
 3162SOL    HW210386   1.256   6.571   1.451
 3163SOL     OW10387   3.462   1.994   6.488
 3163SOL    HW110388   3.425   1.959   6.574
 3163SOL    HW210389   3.527   1.927   6.450
 3164SOL     OW10390   4.442   4.051   1.384
 3164SOL    HW110391   4.442   3.953   1.364
 3164SOL    HW210392   4.536   4.086   1.379
 3165SOL     OW10393   1.020   5.680   1.045
 3165SOL    HW110394   0.925   5.704   1.023
 3165SOL    HW210395   1.041   5.591   1.003
 3166SOL     OW10396   4.488   0.680   6.126
 3166SOL    HW110397   4.531   0.751   6.182
 3166SOL    HW210398   4.528   0.681   6.034
 3167SOL     OW10399   6.688   3.843   1.178
 3167SOL    HW110400   6.772   3.822   1.228
 3167SOL    HW210401   6.609   3.810   1.230
 3168SOL     OW10402   4.839   2.995   6.458
 3168SOL    HW110403   4.772   3.009   6.385
 3168SOL    HW210404   4.856   2.897   6.469
 3169SOL     OW10405   2.097   3.342   4.901
 3169SOL    HW110406   2.084   3.268   4.835
 3169SOL    HW210407   2.108   3.428   4.852
 3170SOL     OW10408   4.250   0.935   1.506
 3170SOL    HW110409   4.329   0.943   1.567
 3170SOL    HW210410   4.170   0.976   1.550
 3171SOL     OW10411   0.398   6.545   1.231
 3171SOL    HW110412   0.305   6.556   1.266
 3171SOL    HW210413   0.401   6.467   1.168
 3172SOL     OW10414   0.647   5.069   5.973
 3172SOL    HW110415   0.725   5.036   5.921
 3172SOL    HW210416   0.573   5.096   5.911
 3173SOL     OW10417   3.429   2.040   1.058
 3173SOL    HW110418   3.372   2.019   0.979
 3173SOL    HW210419   3.379   2.020   1.142
 3174SOL     OW10420   2.789   2.568   6.159
 3174SOL    HW110421   2.859   2.570   6.088
 3174SOL    HW210422   2.698   2.563   6.117
 3175SOL     OW10423   0.623   6.631   0.805
 3175SOL    HW110424   0.690   6.609   0.733
 3175SOL    HW210425   0.644   6.578   0.887
 3176SOL     OW10426   2.082   5.027   4.781
 3176SOL    HW110427   2.022   4.962   4.733
 3176SOL    HW210428   2.161   5.048   4.723
 3177SOL     OW10429   4.817   4.787   4.753
 3177SOL    HW110430   4.877   4.774   4.832
 3177SOL    HW210431   4.765   4.872   4.764
 3178SOL     OW10432   6.737   2.515   0.044
 3178SOL    HW110433   6.813   2.570   0.078
 3178SOL    HW210434   6.753   2.418   0.065
 3179SOL     OW10435   1.696   2.776   2.397
 3179SOL    HW110436   1.716   2.720   2.316
 3179SOL    HW210437   1.780   2.819   2.429
 3180SOL     OW10438   4.733   0.206   0.358
 3180SOL    HW110439   4.672   0.161   0.292
 3180SOL    HW210440   4.802   0.140   0.390
 3181SOL     OW10441   1.291   1.058   3.261
 3181SOL    HW110442   1.211   1.110   3.292
 3181SOL    HW210443   1.374   1.110   3.280
 3182SOL     OW10444   1.814   1.459   5.583
 3182SOL    HW110445   1.832   1.480   5.487
 3182SOL    HW210446   1.787   1.543   5.631
 3183SOL     OW10447   4.820   3.842   1.130
 3183SOL    HW110448   4.757   3.910   1.094
 3183SOL    HW210449   4.827   3.853   1.230
 3184SOL     OW10450   1.621   2.438   3.062
 3184SOL    HW110451   1.598   2.536   3.063
 3184SOL    HW210452   1.720   2.428   3.068
 3185SOL     OW10453   5.788   0.223   6.385
 3185SOL    HW110454   5.848   0.276   6.325
 3185SOL    HW210455   5.807   0.246   6.480
 3186SOL     OW10456   3.913   2.150   2.710
 3186SOL    HW110457   3.936   2.159   2.613
 3186SOL    HW210458   3.816   2.130   2.719
 3187SOL     OW10459   4.861   4.422   0.417
 3187SOL    HW110460   4.862   4.363   0.497
 3187SOL    HW210461   4.953   4.457   0.399
 3188SOL     OW10462   3.429   6.647   4.587
 3188SOL    HW110463   3.373   6.651   4.670
 3188SOL    HW210464   3.525   6.632   4.613
 3189SOL     OW10465   1.991   1.159   2.247
 3189SOL    HW110466   1.981   1.230   2.317
 3189SOL    HW210467   1.903   1.116   2.230
 3190SOL     OW10468   0.554   5.719   1.606
 3190SOL    HW110469   0.556   5.764   1.517
 3190SOL    HW210470   0.485   5.763   1.664
 3191SOL     OW10471   4.337   6.571   0.862
 3191SOL    HW110472   4.268   6.631   0.900
 3191SOL    HW210473   4.322   6.478   0.894
 3192SOL     OW10474   7.010   2.260   1.006
 3192SOL    HW110475   0.020   2.225   1.094
 3192SOL    HW210476   6.926   2.213   0.979
 3193SOL     OW10477   4.361   1.577   5.896
 3193SOL    HW110478   4.373   1.595   5.798
 3193SOL    HW210479   4.446   1.539   5.933
 3194SOL     OW10480   1.019   3.330   5.864
 3194SOL    HW110481   0.926   3.314   5.897
 3194SOL    HW210482   1.032   3.284   5.776
 3195SOL     OW10483   2.195   2.765   2.515
 3195SOL    HW110484   2.255   2.777   2.595
 3195SOL    HW210485   2.251   2.749   2.434
 3196SOL     OW10486   6.994   0.486   4.967
 3196SOL    HW110487   6.925   0.552   4.996
 3196SOL    HW210488   0.036   0.468   5.042
 3197SOL     OW10489   1.999   5.957   3.599
 3197SOL    HW110490   2.015   6.026   3.669
 3197SOL    HW210491   2.008   5.999   3.508
 3198SOL     OW10492   6.532   2.304   5.954
 3198SOL    HW110493   6.438   2.338   5.962
 3198SOL    HW210494   6.541   2.220   6.008
 3199SOL     OW10495   4.518   2.820   1.681
 3199SOL    HW110496   4.477   2.877   1.610
 3199SOL    HW210497   4.586   2.873   1.731
 3200SOL     OW10498   0.155   1.983   2.048
 3200SOL    HW110499   0.216   1.939   2.113
 3200SOL    HW210500   0.068   1.932   2.044
 3201SOL     OW10501   5.334   4.492   4.701
 3201SOL    HW110502   5.414   4.473   4.758
 3201SOL    HW210503   5.277   4.560   4.746
 3202SOL     OW10504   1.100   4.743   1.729
 3202SOL    HW110505   1.119   4.817   1.794
 3202SOL    HW210506   1.070   4.662   1.780
 3203SOL     OW10507   5.456   1.767   0.611
 3203SOL    HW110508   5.361   1.780   0.582
 3203SOL    HW210509   5.516   1.816   0.548
 3204SOL     OW10510   4.950   5.813   2.003
 3204SOL    HW110511   5.019   5.757   1.957
 3204SOL    HW210512   4.963   5.808   2.102
 3205SOL     OW10513   0.122   3.825   6.554
 3205SOL    HW110514   0.144   3.828   6.652
 3205SOL    HW210515   0.156   3.740   6.515
 3206SOL     OW10516   0.058   6.322   6.086
 3206SOL    HW110517   0.002   6.284   6.012
 3206SOL    HW210518   0.088   6.414   6.061
 3207SOL     OW10519   0.181   1.367   5.967
 3207SOL    HW110520   0.111   1.436   5.949
 3207SOL    HW210521   0.147   1.301   6.033
 3208SOL     OW10522   4.886   6.081   5.723
 3208SOL    HW110523   4.940   6.103   5.642
 3208SOL    HW210524   4.790   6.105   5.707
 3209SOL     OW10525   3.120   5.388   3.619
 3209SOL    HW110526   3.207   5.378   3.668
 3209SOL    HW210527   3.112   5.315   3.552
 3210SOL     OW10528   0.817   3.944   2.164
 3210SOL    HW110529   0.850   4.030   2.203
 3210SOL    HW210530   0.717   3.940   2.170
 3211SOL     OW10531   2.670   3.620   0.977
 3211SOL    HW110532   2.571   3.613   0.991
 3211SOL    HW210533   2.710   3.678   1.048
 3212SOL     OW10534   3.650   1.324   6.682
 3212SOL    HW110535   3.627   1.335   6.586
 3212SOL    HW210536   3.636   1.411   6.730
 3213SOL     OW10537   6.091   5.435   2.643
 3213SOL    HW110538   6.064   5.510   2.583
 3213SOL    HW210539   6.026   5.360   2.635
 3214SOL     OW10540   5.257   5.754   0.141
 3214SOL    HW110541   5.310   5.714   0.066
 3214SOL    HW210542   5.179   5.694   0.162
 3215SOL     OW10543   0.067   3.431   1.573
 3215SOL    HW110544   0.078   3.496   1.648
 3215SOL    HW210545   0.151   3.430   1.518
 3216SOL     OW10546   5.247   5.878   1.752
 3216SOL    HW110547   5.209   5.800   1.801
 3216SOL    HW210548   5.286   5.942   1.818
 3217SOL     OW10549   0.877   5.362   2.565
 3217SOL    HW110550   0.807   5.347   2.635
 3217SOL    HW210551   0.833   5.371   2.476
 3218SOL     OW10552   3.663   6.527   3.857
 3218SOL    HW110553   3.572   6.568   3.853
 3218SOL    HW210554   3.656   6.429   3.837
 3219SOL     OW10555   7.010   1.762   3.017
 3219SOL    HW110556   0.074   1.710   3.020
 3219SOL    HW210557   7.009   1.829   3.092
 3220SOL     OW10558   6.458   5.677   5.941
 3220SOL    HW110559   6.466   5.727   6.027
 3220SOL    HW210560   6.501   5.729   5.868
 3221SOL     OW10561   3.188   0.361   2.462
 3221SOL    HW110562   3.131   0.315   2.395
 3221SOL    HW210563   3.283   0.332   2.452
 3222SOL     OW10564   4.961   2.084   3.743
 3222SOL    HW110565   5.021   2.030   3.802
 3222SOL    HW210566   5.010   2.109   3.659
 3223SOL     OW10567   1.594   5.219   6.567
 3223SOL    HW110568   1.680   5.184   6.529
 3223SOL    HW210569   1.546   5.145   6.614
 3224SOL     OW10570   4.008   4.974   6.316
 3224SOL    HW110571   3.968   4.963   6.225
 3224SOL    HW210572   4.049   4.887   6.345
 3225SOL     OW10573   4.412   2.592   5.622
 3225SOL    HW110574   4.343   2.638   5.677
 3225SOL    HW210575   4.487   2.655   5.603
 3226SOL     OW10576   1.752   1.731   5.156
 3226SOL    HW110577   1.733   1.811   5.212
 3226SOL    HW210578   1.745   1.755   5.059
 3227SOL     OW10579   3.325   2.009   6.254
 3227SOL    HW110580   3.380   2.000   6.337
 3227SOL    HW210581   3.362   1.950   6.183
 3228SOL     OW10582   5.355   3.382   4.420
 3228SOL    HW110583   5.337   3.373   4.323
 3228SOL    HW210584   5.285   3.439   4.463
 3229SOL     OW10585   3.364   1.679   5.761
 3229SOL    HW110586   3.448   1.723   5.791
 3229SOL    HW210587   3.386   1.607   5.696
 3230SOL     OW10588   1.012   2.387   4.107
 3230SOL    HW110589   0.945   2.460   4.093
 3230SOL    HW210590   1.074   2.413   4.181
 3231SOL     OW10591   3.332   6.304   2.213
 3231SOL    HW110592   3.295   6.215   2.187
 3231SOL    HW210593   3.269   6.350   2.276
 3232SOL     OW10594   4.177   5.085   3.871
 3232SOL    HW110595   4.158   5.088   3.970
 3232SOL    HW210596   4.259   5.030   3.855
 3233SOL     OW10597   2.176   3.235   1.164
 3233SOL    HW110598   2.239   3.310   1.143
 3233SOL    HW210599   2.084   3.271   1.176
 3234SOL     OW10600   6.971   2.918   0.350
 3234SOL    HW110601   6.959   2.961   0.260
 3234SOL    HW210602   0.042   2.937   0.384
 3235SOL     OW10603   4.953   6.265   1.348
 3235SOL    HW110604   4.997   6.335   1.292
 3235SOL    HW210605   5.022   6.200   1.381
 3236SOL     OW10606   1.635   3.494   1.313
 3236SOL    HW110607   1.645   3.396   1.328
 3236SOL    HW210608   1.688   3.544   1.381
 3237SOL     OW10609   5.521   1.303   3.650
 3237SOL    HW110610   5.559   1.251   3.726
 3237SOL    HW210611   5.434   1.262   3.622
 3238SOL     OW10612   6.947   4.959   0.199
 3238SOL    HW110613   7.017   4.898   0.161
 3238SOL    HW210614   6.985   5.051   0.209
 3239SOL     OW10615   6.205   1.477   0.389
 3239SOL    HW110616   6.277   1.433   0.335
 3239SOL    HW210617   6.153   1.540   0.332
 3240SOL     OW10618   1.200   6.139   4.996
 3240SOL    HW110619   1.148   6.162   5.078
 3240SOL    HW210620   1.185   6.210   4.926
 3241SOL     OW10621   5.322   1.657   4.285
 3241SOL    HW110622   5.244   1.720   4.290
 3241SOL    HW210623   5.354   1.651   4.191
 3242SOL     OW10624   3.507   4.906   1.201
 3242SOL    HW110625   3.539   4.988   1.153
 3242SOL    HW210626   3.534   4.825   1.149
 3243SOL     OW10627   6.013   5.303   0.548
 3243SOL    HW110628   5.917   5.274   0.550
 3243SOL    HW210629   6.068   5.231   0.506
 3244SOL     OW10630   4.846   5.256   6.584
 3244SOL    HW110631   4.847   5.349   6.620
 3244SOL    HW210632   4.939   5.219   6.585
 3245SOL     OW10633   4.955   2.126   5.788
 3245SOL    HW110634   5.019   2.188   5.743
 3245SOL    HW210635   5.000   2.038   5.804
 3246SOL     OW10636   6.449   0.434   2.980
 3246SOL    HW110637   6.477   0.385   3.063
 3246SOL    HW210638   6.510   0.409   2.905
 3247SOL     OW10639   0.088   5.167   2.997
 3247SOL    HW110640   0.089   5.146   3.095
 3247SOL    HW210641   7.014   5.180   2.967
 3248SOL     OW10642   5.779   3.178   1.734
 3248SOL    HW110643   5.817   3.107   1.676
 3248SOL    HW210644   5.853   3.225   1.783
 3249SOL     OW10645   3.956   3.835   5.691
 3249SOL    HW110646   4.040   3.872   5.651
 3249SOL    HW210647   3.923   3.898   5.762
 3250SOL     OW10648   5.532   0.500   2.577
 3250SOL    HW110649   5.610   0.512   2.638
 3250SOL    HW210650   5.556   0.532   2.485
 3251SOL     OW10651   4.121   0.825   2.680
 3251SOL    HW110652   4.119   0.878   2.765
 3251SOL    HW210653   4.212   0.831   2.640
 3252SOL     OW10654   3.111   1.158   2.039
 3252SOL    HW110655   3.015   1.134   2.055
 3252SOL    HW210656   3.122   1.187   1.944
 3253SOL     OW10657   4.884   3.514   2.761
 3253SOL    HW110658   4.899   3.450   2.686
 3253SOL    HW210659   4.847   3.464   2.840
 3254SOL     OW10660   4.003   5.053   4.892
 3254SOL    HW110661   3.913   5.080   4.926
 3254SOL    HW210662   4.052   5.006   4.965
 3255SOL     OW10663   4.568   5.994   1.601
 3255SOL    HW110664   4.621   6.070   1.563
 3255SOL    HW210665   4.574   5.997   1.701
 3256SOL     OW10666   5.364   0.477   6.659
 3256SOL    HW110667   5.443   0.430   6.620
 3256SOL    HW210668   5.284   0.462   6.602
 3257SOL     OW10669   1.352   1.921   1.289
 3257SOL    HW110670   1.302   1.909   1.203
 3257SOL    HW210671   1.418   1.847   1.300
 3258SOL     OW10672   4.331   5.798   2.708
 3258SOL    HW110673   4.278   5.875   2.670
 3258SOL    HW210674   4.412   5.782   2.651
 3259SOL     OW10675   4.830   6.153   4.355
 3259SOL    HW110676   4.791   6.237   4.318
 3259SOL    HW210677   4.757   6.095   4.392
 3260SOL     OW10678   2.074   2.543   1.465
 3260SOL    HW110679   2.159   2.581   1.501
 3260SOL    HW210680   2.091   2.500   1.377
 3261SOL     OW10681   4.510   6.164   0.215
 3261SOL    HW110682   4.587   6.148   0.277
 3261SOL    HW210683   4.469   6.077   0.188
 3262SOL     OW10684   3.683   1.710   2.238
 3262SOL    HW110685   3.734   1.740   2.319
 3262SOL    HW210686   3.674   1.786   2.174
 3263SOL     OW10687   4.970   0.620   3.819
 3263SOL    HW110688   4.947   0.636   3.723
 3263SOL    HW210689   5.039   0.548   3.826
 3264SOL     OW10690   0.853   4.664   0.084
 3264SOL    HW110691   0.920   4.591   0.100
 3264SOL    HW210692   0.832   4.709   0.171
 3265SOL     OW10693   4.274   2.015   5.771
 3265SOL    HW110694   4.250   2.072   5.850
 3265SOL    HW210695   4.278   2.072   5.689
 3266SOL     OW10696   1.057   2.821   0.227
 3266SOL    HW110697   1.139   2.838   0.173
 3266SOL    HW210698   1.075   2.841   0.323
 3267SOL     OW10699   3.341   2.581   0.604
 3267SOL    HW110700   3.371   2.487   0.621
 3267SOL    HW210701   3.303   2.588   0.512
 3268SOL     OW10702   0.835   3.793   6.702
 3268SOL    HW110703   0.901   3.868   6.699
 3268SOL    HW210704   0.856   3.732   6.778
 3269SOL     OW10705   4.505   5.307   1.701
 3269SOL    HW110706   4.413   5.339   1.679
 3269SOL    HW210707   4.499   5.214   1.739
 3270SOL     OW10708   1.570   5.248   5.061
 3270SOL    HW110709   1.473   5.269   5.075
 3270SOL    HW210710   1.616   5.245   5.150
 3271SOL     OW10711   5.454   3.368   2.487
 3271SOL    HW110712   5.396   3.332   2.415
 3271SOL    HW210713   5.400   3.382   2.570
 3272SOL     OW10714   3.569   4.791   0.753
 3272SOL    HW110715   3.514   4.717   0.714
 3272SOL    HW210716   3.563   4.872   0.695
 3273SOL     OW10717   0.903   6.429   2.155
 3273SOL    HW110718   0.995   6.392   2.145
 3273SOL    HW210719   0.840   6.356   2.179
 3274SOL     OW10720   3.756   2.243   6.852
 3274SOL    HW110721   3.774   2.325   6.797
 3274SOL    HW210722   3.745   2.164   6.791
 3275SOL     OW10723   1.612   0.549   6.989
 3275SOL    HW110724   1.643   0.627   0.022
 3275SOL    HW210725   1.682   0.478   6.990
 3276SOL     OW10726   3.056   4.916   6.182
 3276SOL    HW110727   3.050   4.826   6.226
 3276SOL    HW210728   3.116   4.911   6.102
 3277SOL     OW10729   5.565   6.851   6.097
 3277SOL    HW110730   5.618   6.931   6.126
 3277SOL    HW210731   5.614   6.802   6.025
 3278SOL     OW10732   6.632   1.227   5.657
 3278SOL    HW110733   6.670   1.265   5.742
 3278SOL    HW210734   6.534   1.216   5.667
 3279SOL     OW10735   0.544   1.157   1.264
 3279SOL    HW110736   0.584   1.067   1.249
 3279SOL    HW210737   0.490   1.156   1.348
 3280SOL     OW10738   3.010   5.311   6.270
 3280SOL    HW110739   3.085   5.245   6.267
 3280SOL    HW210740   3.015   5.370   6.189
 3281SOL     OW10741   1.781   5.108   1.164
 3281SOL    HW110742   1.873   5.146   1.150
 3281SOL    HW210743   1.717   5.154   1.102
 3282SOL     OW10744   2.421   5.330   4.412
 3282SOL    HW110745   2.460   5.263   4.350
 3282SOL    HW210746   2.473   5.415   4.408
 3283SOL     OW10747   3.172   1.332   1.805
 3283SOL    HW110748   3.221   1.375   1.881
 3283SOL    HW210749   3.080   1.371   1.798
 3284SOL     OW10750   6.154   6.931   6.353
 3284SOL    HW110751   6.080   6.935   6.420
 3284SOL    HW210752   6.229   6.990   6.382
 3285SOL     OW10753   6.220   3.276   3.414
 3285SOL    HW110754   6.293   3.344   3.401
 3285SOL    HW210755   6.139   3.305   3.362
 3286SOL     OW10756   4.079   3.243   3.828
 3286SOL    HW110757   4.075   3.229   3.927
 3286SOL    HW210758   4.043   3.162   3.781
 3287SOL     OW10759   0.952   5.838   0.525
 3287SOL    HW110760   1.025   5.785   0.567
 3287SOL    HW210761   0.977   5.935   0.525
 3288SOL     OW10762   0.710   5.196   6.795
 3288SOL    HW110763   0.802   5.158   6.801
 3288SOL    HW210764   0.652   5.155   6.865
 3289SOL     OW10765   1.995   6.739   5.678
 3289SOL    HW110766   1.921   6.781   5.625
 3289SOL    HW210767   2.014   6.795   5.759
 3290SOL     OW10768   0.444   6.605   1.959
 3290SOL    HW110769   0.507   6.576   2.031
 3290SOL    HW210770   0.463   6.555   1.875
 3291SOL     OW10771   1.176   6.683   6.797
 3291SOL    HW110772   1.128   6.768   6.774
 3291SOL    HW210773   1.228   6.696   6.882
 3292SOL     OW10774   0.414   1.540   6.951
 3292SOL    HW110775   0.347   1.552   6.878
 3292SOL    HW210776   0.450   1.447   6.949
 3293SOL     OW10777   6.378   2.587   3.135
 3293SOL    HW110778   6.406   2.541   3.050
 3293SOL    HW210779   6.415   2.679   3.137
 3294SOL     OW10780   6.960   0.282   5.946
 3294SOL    HW110781   6.938   0.295   5.849
 3294SOL    HW210782   0.015   0.342   5.971
 3295SOL     OW10783   2.126   2.570   0.904
 3295SOL    HW110784   2.224   2.554   0.887
 3295SOL    HW210785   2.074   2.539   0.825
 3296SOL     OW10786   2.454   6.552   1.153
 3296SOL    HW110787   2.486   6.485   1.086
 3296SOL    HW210788   2.446   6.642   1.110
 3297SOL     OW10789   2.844   1.009   4.665
 3297SOL    HW110790   2.900   1.084   4.700
 3297SOL    HW210791   2.900   0.952   4.604
 3298SOL     OW10792   6.079   2.774   3.372
 3298SOL    HW110793   6.086   2.721   3.287
 3298SOL    HW210794   6.136   2.732   3.442
 3299SOL     OW10795   1.905   6.705   3.614
 3299SOL    HW110796   1.982   6.767   3.602
 3299SOL    HW210797   1.831   6.751   3.663
 3300SOL     OW10798   6.918   0.033   6.140
 3300SOL    HW110799   6.983   0.003   6.210
 3300SOL    HW210800   6.964   0.096   6.077
 3301SOL     OW10801   2.197   4.139   3.557
 3301SOL    HW110802   2.244   4.222   3.589
 3301SOL    HW210803   2.201   4.135   3.457
 3302SOL     OW10804   1.563   5.742   4.682
 3302SOL    HW110805   1.622   5.823   4.683
 3302SOL    HW210806   1.489   5.753   4.749
 3303SOL     OW10807   3.420   3.020   1.575
 3303SOL    HW110808   3.346   2.958   1.549
 3303SOL    HW210809   3.507   2.985   1.541
 3304SOL     OW10810   1.562   5.224   3.429
 3304SOL    HW110811   1.473   5.208   3.471
 3304SOL    HW210812   1.606   5.136   3.410
 3305SOL     OW10813   2.915   2.007   2.665
 3305SOL    HW110814   3.011   2.036   2.670
 3305SOL    HW210815   2.909   1.918   2.621
 3306SOL     OW10816   2.480   4.928   3.825
 3306SOL    HW110817   2.556   4.938   3.761
 3306SOL    HW210818   2.394   4.947   3.778
 3307SOL     OW10819   0.955   5.865   6.363
 3307SOL    HW110820   0.861   5.835   6.348
 3307SOL    HW210821   1.002   5.875   6.275
 3308SOL     OW10822   4.714   5.881   6.289
 3308SOL    HW110823   4.793   5.873   6.228
 3308SOL    HW210824   4.630   5.880   6.235
 3309SOL     OW10825   0.621   5.379   2.792
 3309SOL    HW110826   0.635   5.459   2.850
 3309SOL    HW210827   0.654   5.297   2.840
 3310SOL     OW10828   6.704   4.059   3.478
 3310SOL    HW110829   6.781   4.071   3.540
 3310SOL    HW210830   6.622   4.097   3.520
 3311SOL     OW10831   2.881   4.870   1.339
 3311SOL    HW110832   2.830   4.786   1.359
 3311SOL    HW210833   2.899   4.875   1.240
 3312SOL     OW10834   2.824   4.322   6.235
 3312SOL    HW110835   2.911   4.371   6.239
 3312SOL    HW210836   2.833   4.243   6.173
 3313SOL     OW10837   0.386   5.232   2.600
 3313SOL    HW110838   0.350   5.225   2.693
 3313SOL    HW210839   0.485   5.220   2.602
 3314SOL     OW10840   1.901   2.534   5.381
 3314SOL    HW110841   1.888   2.435   5.369
 3314SOL    HW210842   1.838   2.584   5.322
 3315SOL     OW10843   6.643   2.808   4.266
 3315SOL    HW110844   6.670   2.711   4.263
 3315SOL    HW210845   6.709   2.858   4.323
 3316SOL     OW10846   3.386   1.190   5.734
 3316SOL    HW110847   3.422   1.184   5.641
 3316SOL    HW210848   3.461   1.208   5.797
 3317SOL     OW10849   4.785   2.795   2.034
 3317SOL    HW110850   4.756   2.852   1.958
 3317SOL    HW210851   4.728   2.814   2.114
 3318SOL     OW10852   2.977   6.818   0.264
 3318SOL    HW110853   3.027   6.754   0.322
 3318SOL    HW210854   3.034   6.899   0.246
 3319SOL     OW10855   6.473   6.674   3.648
 3319SOL    HW110856   6.379   6.644   3.663
 3319SOL    HW210857   6.532   6.632   3.717
 3320SOL     OW10858   5.531   1.112   5.664
 3320SOL    HW110859   5.518   1.160   5.577
 3320SOL    HW210860   5.444   1.109   5.713
 3321SOL     OW10861   3.088   2.502   1.517
 3321SOL    HW110862   3.118   2.465   1.428
 3321SOL    HW210863   3.045   2.429   1.570
 3322SOL     OW10864   5.135   2.523   1.854
 3322SOL    HW110865   5.052   2.545   1.905
 3322SOL    HW210866   5.179   2.608   1.824
 3323SOL     OW10867   1.900   3.732   6.729
 3323SOL    HW110868   1.950   3.799   6.783
 3323SOL    HW210869   1.811   3.713   6.771
 3324SOL     OW10870   0.774   3.948   0.106
 3324SOL    HW110871   0.708   3.873   0.100
 3324SOL    HW210872   0.829   3.938   0.189
 3325SOL     OW10873   1.961   3.293   0.108
 3325SOL    HW110874   2.041   3.233   0.115
 3325SOL    HW210875   1.890   3.264   0.172
 3326SOL     OW10876   5.045   1.796   1.588
 3326SOL    HW110877   5.113   1.755   1.527
 3326SOL    HW210878   4.992   1.864   1.538
 3327SOL     OW10879   2.924   6.143   0.895
 3327SOL    HW110880   2.863   6.086   0.950
 3327SOL    HW210881   3.016   6.104   0.897
 3328SOL     OW10882   4.735   1.171   2.752
 3328SOL    HW110883   4.746   1.217   2.840
 3328SOL    HW210884   4.647   1.123   2.750
 3329SOL     OW10885   4.352   0.357   5.323
 3329SOL    HW110886   4.263   0.402   5.328
 3329SOL    HW210887   4.423   0.426   5.308
 3330SOL     OW10888   5.645   6.323   2.231
 3330SOL    HW110889   5.741   6.324   2.261
 3330SOL    HW210890   5.586   6.355   2.305
 3331SOL     OW10891   1.570   3.532   2.357
 3331SOL    HW110892   1.501   3.551   2.427
 3331SOL    HW210893   1.542   3.451   2.305
 3332SOL     OW10894   6.386   4.121   0.011
 3332SOL    HW110895   6.346   4.129   0.103
 3332SOL    HW210896   6.399   4.025   7.010
 3333SOL     OW10897   2.637   3.695   7.005
 3333SOL    HW110898   2.614   3.632   6.931
 3333SOL    HW210899   2.704   3.652   0.044
 3334SOL     OW10900   1.928   3.165   1.988
 3334SOL    HW110901   1.853   3.119   1.940
 3334SOL    HW210902   1.931   3.261   1.961
 3335SOL     OW10903   4.467   5.920   6.153
 3335SOL    HW110904   4.368   5.926   6.167
 3335SOL    HW210905   4.501   6.007   6.116
 3336SOL     OW10906   2.150   0.215   4.365
 3336SOL    HW110907   2.199   0.135   4.331
 3336SOL    HW210908   2.178   0.235   4.459
 3337SOL     OW10909   3.467   3.705   1.565
 3337SOL    HW110910   3.540   3.638   1.577
 3337SOL    HW210911   3.454   3.756   1.651
 3338SOL     OW10912   0.475   2.448   1.799
 3338SOL    HW110913   0.456   2.380   1.870
 3338SOL    HW210914   0.574   2.454   1.785
 3339SOL     OW10915   1.708   0.076   6.393
 3339SOL    HW110916   1.692   0.171   6.422
 3339SOL    HW210917   1.715   0.018   6.474
 3340SOL     OW10918   4.351   0.890   4.231
 3340SOL    HW110919   4.283   0.906   4.303
 3340SOL    HW210920   4.357   0.792   4.214
 3341SOL     OW10921   2.251   4.242   3.881
 3341SOL    HW110922   2.308   4.293   3.817
 3341SOL    HW210923   2.168   4.294   3.901
 3342SOL     OW10924   0.482   0.423   2.595
 3342SOL    HW110925   0.428   0.505   2.579
 3342SOL    HW210926   0.543   0.407   2.517
 3343SOL     OW10927   5.414   5.334   6.229
 3343SOL    HW110928   5.405   5.337   6.328
 3343SOL    HW210929   5.325   5.313   6.188
 3344SOL     OW10930   6.259   3.014   3.745
 3344SOL    HW110931   6.274   3.033   3.842
 3344SOL    HW210932   6.322   2.942   3.715
 3345SOL     OW10933   0.813   4.037   6.465
 3345SOL    HW110934   0.733   4.003   6.415
 3345SOL    HW210935   0.886   3.968   6.461
 3346SOL     OW10936   1.525   1.135   6.929
 3346SOL    HW110937   1.569   1.176   6.849
 3346SOL    HW210938   1.430   1.165   6.934
 3347SOL     OW10939   1.788   2.543   6.401
 3347SOL    HW110940   1.838   2.480   6.341
 3347SOL    HW210941   1.784   2.633   6.359
 3348SOL     OW10942   4.405   3.737   5.283
 3348SOL    HW110943   4.449   3.675   5.218
 3348SOL    HW210944   4.307   3.717   5.287
 3349SOL     OW10945   2.691   4.917   3.663
 3349SOL    HW110946   2.789   4.937   3.658
 3349SOL    HW210947   2.654   4.907   3.571
 3350SOL     OW10948   0.648   2.984   5.837
 3350SOL    HW110949   0.674   2.908   5.897
 3350SOL    HW210950   0.585   3.044   5.885
 3351SOL     OW10951   4.812   1.132   1.319
 3351SOL    HW110952   4.745   1.206   1.326
 3351SOL    HW210953   4.768   1.044   1.336
 3352SOL     OW10954   5.487   2.403   0.925
 3352SOL    HW110955   5.514   2.485   0.874
 3352SOL    HW210956   5.569   2.352   0.951
 3353SOL     OW10957   2.098   6.516   0.551
 3353SOL    HW110958   2.165   6.453   0.589
 3353SOL    HW210959   2.073   6.584   0.619
 3354SOL     OW10960   3.970   2.685   5.331
 3354SOL    HW110961   4.013   2.644   5.251
 3354SOL    HW210962   4.039   2.701   5.402
 3355SOL     OW10963   2.100   1.593   6.044
 3355SOL    HW110964   2.136   1.654   6.115
 3355SOL    HW210965   2.050   1.646   5.976
 3356SOL     OW10966   0.909   6.492   6.479
 3356SOL    HW110967   0.975   6.448   6.540
 3356SOL    HW210968   0.939   6.480   6.384
 3357SOL     OW10969   3.206   3.214   1.532
 3357SOL    HW110970   3.263   3.136   1.557
 3357SOL    HW210971   3.261   3.297   1.534
 3358SOL     OW10972   5.479   1.017   3.432
 3358SOL    HW110973   5.421   0.983   3.357
 3358SOL    HW210974   5.475   1.116   3.435
 3359SOL     OW10975   0.382   5.759   3.493
 3359SOL    HW110976   0.314   5.711   3.548
 3359SOL    HW210977   0.363   5.743   3.396
 3360SOL     OW10978   0.906   2.214   6.113
 3360SOL    HW110979   0.973   2.217   6.188
 3360SOL    HW210980   0.831   2.277   6.133
 3361SOL     OW10981   0.890   0.207   4.147
 3361SOL    HW110982   0.958   0.237   4.215
 3361SOL    HW210983   0.798   0.218   4.185
 3362SOL     OW10984   3.804   1.325   2.753
 3362SOL    HW110985   3.797   1.291   2.659
 3362SOL    HW210986   3.786   1.251   2.817
 3363SOL     OW10987   6.928   3.199   1.664
 3363SOL    HW110988   6.879   3.167   1.582
 3363SOL    HW210989   6.955   3.295   1.650
 3364SOL     OW10990   1.887   4.436   2.867
 3364SOL    HW110991   1.903   4.514   2.807
 3364SOL    HW210992   1.898   4.351   2.816
 3365SOL     OW10993   0.856   2.518   4.574
 3365SOL    HW110994   0.909   2.601   4.562
 3365SOL    HW210995   0.797   2.504   4.494
 3366SOL     OW10996   6.402   4.656   3.713
 3366SOL    HW110997   6.473   4.715   3.675
 3366SOL    HW210998   6.327   4.647   3.647
 3367SOL     OW10999   3.074   3.171   2.781
 3367SOL    HW111000   3.041   3.178   2.687
 3367SOL    HW211001   3.174   3.172   2.781
 3368SOL     OW11002   0.475   5.658   6.645
 3368SOL    HW111003   0.452   5.562   6.660
 3368SOL    HW211004   0.392   5.709   6.624
 3369SOL     OW11005   4.495   2.143   1.623
 3369SOL    HW111006   4.450   2.118   1.709
 3369SOL    HW211007   4.574   2.084   1.609
 3370SOL     OW11008   6.093   6.672   1.650
 3370SOL    HW111009   6.179   6.716   1.674
 3370SOL    HW211010   6.077   6.681   1.552
 3371SOL     OW11011   2.224   3.656   1.730
 3371SOL    HW111012   2.274   3.593   1.790
 3371SOL    HW211013   2.126   3.651   1.750
 3372SOL     OW11014   6.819   2.275   0.130
 3372SOL    HW111015   6.876   2.265   0.212
 3372SOL    HW211016   6.845   2.205   0.063
 3373SOL     OW11017   0.215   2.403   3.705
 3373SOL    HW111018   0.189   2.384   3.800
 3373SOL    HW211019   0.206   2.501   3.687
 3374SOL     OW11020   1.175   0.639   3.855
 3374SOL    HW111021   1.153   0.597   3.943
 3374SOL    HW211022   1.146   0.735   3.856
 3375SOL     OW11023   6.706   4.441   0.727
 3375SOL    HW111024   6.733   4.353   0.687
 3375SOL    HW211025   6.706   4.434   0.827
 3376SOL     OW11026   3.025   3.250   4.774
 3376SOL    HW111027   3.005   3.177   4.709
 3376SOL    HW211028   3.111   3.230   4.821
 3377SOL     OW11029   6.627   4.688   4.910
 3377SOL    HW111030   6.673   4.767   4.949
 3377SOL    HW211031   6.692   4.635   4.855
 3378SOL     OW11032   0.750   0.137   6.815
 3378SOL    HW111033   0.697   0.066   6.768
 3378SOL    HW211034   0.839   0.147   6.771
 3379SOL     OW11035   0.782   2.784   4.847
 3379SOL    HW111036   0.776   2.685   4.840
 3379SOL    HW211037   0.870   2.815   4.812
 3380SOL     OW11038   4.170   5.431   5.020
 3380SOL    HW111039   4.115   5.401   4.942
 3380SOL    HW211040   4.177   5.530   5.020
 3381SOL     OW11041   6.860   3.090   1.407
 3381SOL    HW111042   6.837   3.171   1.352
 3381SOL    HW211043   6.789   3.020   1.394
 3382SOL     OW11044   0.377   2.980   1.043
 3382SOL    HW111045   0.356   3.060   1.098
 3382SOL    HW211046   0.412   2.907   1.102
 3383SOL     OW11047   3.461   5.172   0.726
 3383SOL    HW111048   3.446   5.106   0.653
 3383SOL    HW211049   3.425   5.261   0.699
 3384SOL     OW11050   2.782   4.485   0.762
 3384SOL    HW111051   2.785   4.582   0.741
 3384SOL    HW211052   2.813   4.470   0.856
 3385SOL     OW11053   6.659   3.450   4.061
 3385SOL    HW111054   6.590   3.511   4.022
 3385SOL    HW211055   6.750   3.481   4.034
 3386SOL     OW11056   6.200   4.492   6.810
 3386SOL    HW111057   6.242   4.573   6.769
 3386SOL    HW211058   6.228   4.411   6.759
 3387SOL     OW11059   5.032   0.646   2.899
 3387SOL    HW111060   4.945   0.634   2.947
 3387SOL    HW211061   5.018   0.706   2.820
 3388SOL     OW11062   5.240   3.963   2.503
 3388SOL    HW111063   5.315   4.021   2.537
 3388SOL    HW211064   5.248   3.954   2.404
 3389SOL     OW11065   6.521   5.441   6.358
 3389SOL    HW111066   6.556   5.376   6.426
 3389SOL    HW211067   6.452   5.499   6.400
 3390SOL     OW11068   3.970   6.573   6.572
 3390SOL    HW111069   3.947   6.665   6.605
 3390SOL    HW211070   3.937   6.505   6.637
 3391SOL     OW11071   5.191   2.060   3.167
 3391SOL    HW111072   5.206   2.127   3.239
 3391SOL    HW211073   5.264   2.065   3.100
 3392SOL     OW11074   3.313   0.166   3.934
 3392SOL    HW111075   3.251   0.245   3.934
 3392SOL    HW211076   3.407   0.198   3.945
 3393SOL     OW11077   5.811   6.507   0.267
 3393SOL    HW111078   5.726   6.560   0.270
 3393SOL    HW211079   5.861   6.528   0.182
 3394SOL     OW11080   4.296   4.439   0.651
 3394SOL    HW111081   4.257   4.395   0.571
 3394SOL    HW211082   4.232   4.508   0.686
 3395SOL     OW11083   4.795   1.856   2.886
 3395SOL    HW111084   4.706   1.896   2.865
 3395SOL    HW211085   4.788   1.801   2.969
 3396SOL     OW11086   5.695   1.687   3.854
 3396SOL    HW111087   5.721   1.781   3.833
 3396SOL    HW211088   5.708   1.670   3.952
 3397SOL     OW11089   3.199   5.618   6.278
 3397SOL    HW111090   3.299   5.621   6.275
 3397SOL    HW211091   3.164   5.577   6.193
 3398SOL     OW11092   0.684   0.175   5.452
 3398SOL    HW111093   0.634   0.239   5.394
 3398SOL    HW211094   0.745   0.119   5.396
 3399SOL     OW11095   6.420   4.767   2.747
 3399SOL    HW111096   6.370   4.681   2.758
 3399SOL    HW211097   6.383   4.818   2.669
 3400SOL     OW11098   6.205   3.401   0.159
 3400SOL    HW111099   6.177   3.422   0.252
 3400SOL    HW211100   6.146   3.328   0.122
 3401SOL     OW11101   6.041   3.603   6.303
 3401SOL    HW111102   6.073   3.612   6.209
 3401SOL    HW211103   6.066   3.686   6.355
 3402SOL     OW11104   6.018   5.574   0.818
 3402SOL    HW111105   6.004   5.646   0.887
 3402SOL    HW211106   5.936   5.565   0.762
 3403SOL     OW11107   4.908   5.521   6.273
 3403SOL    HW111108   4.880   5.430   6.242
 3403SOL    HW211109   5.007   5.530   6.265
 3404SOL     OW11110   4.668   3.029   6.715
 3404SOL    HW111111   4.621   3.115   6.694
 3404SOL    HW211112   4.764   3.037   6.689
 3405SOL     OW11113   5.535   4.556   6.294
 3405SOL    HW111114   5.545   4.586   6.199
 3405SOL    HW211115   5.614   4.500   6.319
 3406SOL     OW11116   1.869   3.551   2.316
 3406SOL    HW111117   1.938   3.555   2.388
 3406SOL    HW211118   1.778   3.548   2.357
 3407SOL     OW11119   2.795   4.253   0.269
 3407SOL    HW111120   2.715   4.286   0.219
 3407SOL    HW211121   2.781   4.269   0.367
 3408SOL     OW11122   4.788   2.677   4.967
 3408SOL    HW111123   4.772   2.579   4.976
 3408SOL    HW211124   4.725   2.716   4.900
 3409SOL     OW11125   3.755   6.066   0.627
 3409SOL    HW111126   3.671   6.113   0.601
 3409SOL    HW211127   3.739   5.967   0.629
 3410SOL     OW11128   5.721   6.229   2.840
 3410SOL    HW111129   5.638   6.285   2.836
 3410SOL    HW211130   5.755   6.228   2.934
 3411SOL     OW11131   6.945   2.979   0.082
 3411SOL    HW111132   6.862   3.031   0.106
 3411SOL    HW211133   7.016   3.043   0.052
 3412SOL     OW11134   5.163   3.683   1.351
 3412SOL    HW111135   5.133   3.742   1.276
 3412SOL    HW211136   5.156   3.733   1.438
 3413SOL     OW11137   6.208   2.016   6.976
 3413SOL    HW111138   6.221   2.066   6.891
 3413SOL    HW211139   6.155   2.072   0.019
 3414SOL     OW11140   3.132   1.666   5.448
 3414SOL    HW111141   3.127   1.729   5.371
 3414SOL    HW211142   3.132   1.717   5.534
 3415SOL     OW11143   2.572   2.476   4.174
 3415SOL    HW111144   2.645   2.428   4.125
 3415SOL    HW211145   2.613   2.533   4.246
 3416SOL     OW11146   5.859   0.283   6.645
 3416SOL    HW111147   5.876   0.191   6.680
 3416SOL    HW211148   5.862   0.349   6.721
 3417SOL     OW11149   0.100   6.732   2.683
 3417SOL    HW111150   0.179   6.682   2.720
 3417SOL    HW211151   0.132   6.797   2.614
 3418SOL     OW11152   3.709   5.972   3.665
 3418SOL    HW111153   3.620   5.970   3.620
 3418SOL    HW211154   3.700   6.012   3.756
 3419SOL     OW11155   4.011   5.236   6.136
 3419SOL    HW111156   3.940   5.180   6.094
 3419SOL    HW211157   4.044   5.304   6.071
 3420SOL     OW11158   5.558   2.957   4.606
 3420SOL    HW111159   5.564   2.882   4.540
 3420SOL    HW211160   5.499   2.931   4.682
 3421SOL     OW11161   5.824   1.805   3.114
 3421SOL    HW111162   5.802   1.831   3.020
 3421SOL    HW211163   5.911   1.755   3.116
 3422SOL     OW11164   2.675   0.593   0.743
 3422SOL    HW111165   2.601   0.621   0.681
 3422SOL    HW211166   2.636   0.543   0.820
 3423SOL     OW11167   0.171   4.138   6.078
 3423SOL    HW111168   0.172   4.210   6.147
 3423SOL    HW211169   0.089   4.149   6.021
 3424SOL     OW11170   3.403   0.584   1.292
 3424SOL    HW111171   3.428   0.678   1.317
 3424SOL    HW211172   3.310   0.583   1.255
 3425SOL     OW11173   4.620   4.620   1.918
 3425SOL    HW111174   4.523   4.595   1.921
 3425SOL    HW211175   4.672   4.547   1.874
 3426SOL     OW11176   4.911   3.119   0.039
 3426SOL    HW111177   4.975   3.145   0.111
 3426SOL    HW211178   4.885   3.200   7.008
 3427SOL     OW11179   0.696   2.360   1.593
 3427SOL    HW111180   0.719   2.451   1.558
 3427SOL    HW211181   0.616   2.325   1.543
 3428SOL     OW11182   4.569   4.579   6.428
 3428SOL    HW111183   4.485   4.629   6.412
 3428SOL    HW211184   4.643   4.618   6.373
 3429SOL     OW11185   0.778   1.549   0.837
 3429SOL    HW111186   0.813   1.522   0.747
 3429SOL    HW211187   0.855   1.566   0.899
 3430SOL     OW11188   2.410   5.288   5.960
 3430SOL    HW111189   2.450   5.198   5.945
 3430SOL    HW211190   2.323   5.279   6.009
 3431SOL     OW11191   1.822   6.891   1.880
 3431SOL    HW111192   1.881   6.809   1.880
 3431SOL    HW211193   1.839   6.944   1.962
 3432SOL     OW11194   2.601   4.916   6.234
 3432SOL    HW111195   2.667   4.849   6.200
 3432SOL    HW211196   2.535   4.870   6.294
 3433SOL     OW11197   1.722   1.106   6.086
 3433SOL    HW111198   1.704   1.088   5.989
 3433SOL    HW211199   1.778   1.032   6.124
 3434SOL     OW11200   3.607   1.829   1.571
 3434SOL    HW111201   3.542   1.824   1.647
 3434SOL    HW211202   3.688   1.879   1.601
 3435SOL     OW11203   2.877   1.078   0.363
 3435SOL    HW111204   2.884   1.066   0.264
 3435SOL    HW211205   2.803   1.021   0.398
 3436SOL     OW11206   3.580   5.508   0.469
 3436SOL    HW111207   3.673   5.481   0.443
 3436SOL    HW211208   3.548   5.449   0.543
 3437SOL     OW11209   2.120   6.840   5.907
 3437SOL    HW111210   2.099   6.900   5.985
 3437SOL    HW211211   2.113   6.745   5.936
 3438SOL     OW11212   0.503   4.174   1.211
 3438SOL    HW111213   0.542   4.140   1.126
 3438SOL    HW211214   0.509   4.103   1.281
 3439SOL     OW11215   3.276   6.062   3.813
 3439SOL    HW111216   3.194   6.030   3.766
 3439SOL    HW211217   3.342   6.096   3.746
 3440SOL     OW11218   4.102   3.237   3.062
 3440SOL    HW111219   4.188   3.188   3.076
 3440SOL    HW211220   4.085   3.299   3.139
 3441SOL     OW11221   0.644   6.166   6.637
 3441SOL    HW111222   0.715   6.099   6.618
 3441SOL    HW211223   0.679   6.235   6.701
 3442SOL     OW11224   3.047   3.540   0.797
 3442SOL    HW111225   3.144   3.549   0.778
 3442SOL    HW211226   2.994   3.582   0.723
 3443SOL     OW11227   3.335   6.024   2.138
 3443SOL    HW111228   3.358   5.969   2.218
 3443SOL    HW211229   3.242   6.002   2.108
 3444SOL     OW11230   5.267   5.195   1.540
 3444SOL    HW111231   5.354   5.240   1.561
 3444SOL    HW211232   5.264   5.105   1.583
 3445SOL     OW11233   0.126   5.220   4.049
 3445SOL    HW111234   0.133   5.229   4.149
 3445SOL    HW211235   0.198   5.159   4.017
 3446SOL     OW11236   5.510   0.510   1.184
 3446SOL    HW111237   5.587   0.448   1.194
 3446SOL    HW211238   5.530   0.596   1.232
 3447SOL     OW11239   5.140   0.388   0.379
 3447SOL    HW111240   5.165   0.460   0.444
 3447SOL    HW211241   5.050   0.408   0.341
 3448SOL     OW11242   2.977   6.527   6.010
 3448SOL    HW111243   2.897   6.587   6.016
 3448SOL    HW211244   3.059   6.578   6.038
 3449SOL     OW11245   6.177   5.017   4.762
 3449SOL    HW111246   6.270   4.982   4.770
 3449SOL    HW211247   6.117   4.945   4.727
 3450SOL     OW11248   1.342   1.215   6.638
 3450SOL    HW111249   1.267   1.150   6.652
 3450SOL    HW211250   1.428   1.165   6.636
 3451SOL     OW11251   1.578   5.750   0.488
 3451SOL    HW111252   1.517   5.685   0.533
 3451SOL    HW211253   1.591   5.830   0.547
 3452SOL     OW11254   5.856   0.511   5.678
 3452SOL    HW111255   5.761   0.527   5.652
 3452SOL    HW211256   5.867   0.529   5.776
 3453SOL     OW11257   5.692   5.648   6.000
 3453SOL    HW111258   5.753   5.628   5.924
 3453SOL    HW211259   5.608   5.690   5.966
 3454SOL     OW11260   1.309   3.887   4.619
 3454SOL    HW111261   1.396   3.927   4.590
 3454SOL    HW211262   1.320   3.788   4.626
 3455SOL     OW11263   2.335   1.416   5.112
 3455SOL    HW111264   2.302   1.341   5.055
 3455SOL    HW211265   2.419   1.387   5.158
 3456SOL     OW11266   4.368   4.504   1.872
 3456SOL    HW111267   4.419   4.420   1.890
 3456SOL    HW211268   4.292   4.484   1.811
 3457SOL     OW11269   4.243   5.059   4.553
 3457SOL    HW111270   4.153   5.071   4.595
 3457SOL    HW211271   4.237   4.993   4.479
 3458SOL     OW11272   4.626   1.925   2.211
 3458SOL    HW111273   4.528   1.910   2.206
 3458SOL    HW211274   4.661   1.949   2.120
 3459SOL     OW11275   5.240   1.879   3.462
 3459SOL    HW111276   5.240   1.978   3.473
 3459SOL    HW211277   5.191   1.855   3.378
 3460SOL     OW11278   3.124   1.789   5.695
 3460SOL    HW111279   3.085   1.865   5.747
 3460SOL    HW211280   3.219   1.774   5.723
 3461SOL     OW11281   5.911   4.422   6.909
 3461SOL    HW111282   5.853   4.497   6.878
 3461SOL    HW211283   6.007   4.444   6.889
 3462SOL     OW11284   0.872   3.824   5.419
 3462SOL    HW111285   0.919   3.880   5.488
 3462SOL    HW211286   0.776   3.813   5.445
 3463SOL     OW11287   0.914   4.288   0.829
 3463SOL    HW111288   0.928   4.343   0.747
 3463SOL    HW211289   0.929   4.344   0.910
 3464SOL     OW11290   0.168   4.339   6.263
 3464SOL    HW111291   0.205   4.425   6.299
 3464SOL    HW211292   0.073   4.329   6.291
 3465SOL     OW11293   2.216   2.066   2.145
 3465SOL    HW111294   2.242   1.977   2.107
 3465SOL    HW211295   2.284   2.134   2.120
 3466SOL     OW11296   7.001   5.635   6.216
 3466SOL    HW111297   6.956   5.586   6.290
 3466SOL    HW211298   0.057   5.580   6.182
 3467SOL     OW11299   1.644   1.794   6.727
 3467SOL    HW111300   1.581   1.785   6.650
 3467SOL    HW211301   1.591   1.805   6.812
 3468SOL     OW11302   3.482   5.042   2.970
 3468SOL    HW111303   3.424   4.986   2.911
 3468SOL    HW211304   3.465   5.019   3.066
 3469SOL     OW11305   6.408   1.733   3.978
 3469SOL    HW111306   6.455   1.762   3.895
 3469SOL    HW211307   6.398   1.811   4.040
 3470SOL     OW11308   0.016   5.114   0.942
 3470SOL    HW111309   0.113   5.098   0.956
 3470SOL    HW211310   0.003   5.204   0.900
 3471SOL     OW11311   4.743   5.349   4.715
 3471SOL    HW111312   4.722   5.255   4.743
 3471SOL    HW211313   4.838   5.354   4.686
 3472SOL     OW11314   2.626   0.831   3.727
 3472SOL    HW111315   2.709   0.792   3.688
 3472SOL    HW211316   2.590   0.770   3.798
 3473SOL     OW11317   5.504   1.262   5.978
 3473SOL    HW111318   5.530   1.337   5.917
 3473SOL    HW211319   5.585   1.212   6.007
 3474SOL     OW11320   2.893   5.099   1.538
 3474SOL    HW111321   2.832   5.176   1.520
 3474SOL    HW211322   2.910   5.049   1.454
 3475SOL     OW11323   1.275   6.507   4.189
 3475SOL    HW111324   1.205   6.513   4.260
 3475SOL    HW211325   1.358   6.465   4.226
 3476SOL     OW11326   3.721   0.409   4.262
 3476SOL    HW111327   3.682   0.496   4.292
 3476SOL    HW211328   3.664   0.334   4.295
 3477SOL     OW11329   3.057   5.600   1.411
 3477SOL    HW111330   3.127   5.551   1.462
 3477SOL    HW211331   2.978   5.618   1.470
 3478SOL     OW11332   2.853   6.070   5.898
 3478SOL    HW111333   2.821   6.074   5.993
 3478SOL    HW211334   2.897   6.156   5.874
 3479SOL     OW11335   0.492   6.942   2.983
 3479SOL    HW111336   0.476   0.018   2.995
 3479SOL    HW211337   0.424   6.890   3.036
 3480SOL     OW11338   6.588   1.015   4.395
 3480SOL    HW111339   6.491   1.003   4.372
 3480SOL    HW211340   6.643   0.947   4.347
 3481SOL     OW11341   4.664   6.615   6.661
 3481SOL    HW111342   4.680   6.714   6.660
 3481SOL    HW211343   4.601   6.591   6.588
 3482SOL     OW11344   5.316   1.334   1.003
 3482SOL    HW111345   5.365   1.407   0.956
 3482SOL    HW211346   5.222   1.362   1.021
 3483SOL     OW11347   3.337   0.473   0.776
 3483SOL    HW111348   3.428   0.447   0.744
 3483SOL    HW211349   3.284   0.391   0.797
 3484SOL     OW11350   2.864   3.341   2.219
 3484SOL    HW111351   2.950   3.294   2.233
 3484SOL    HW211352   2.789   3.286   2.256
 3485SOL     OW11353   1.534   0.821   5.204
 3485SOL    HW111354   1.631   0.810   5.223
 3485SOL    HW211355   1.481   0.772   5.273
 3486SOL     OW11356   3.969   1.316   2.024
 3486SOL    HW111357   3.988   1.331   2.121
 3486SOL    HW211358   3.873   1.294   2.012
 3487SOL     OW11359   5.516   1.654   6.537
 3487SOL    HW111360   5.587   1.710   6.494
 3487SOL    HW211361   5.464   1.606   6.466
 3488SOL     OW11362   5.831   3.096   4.239
 3488SOL    HW111363   5.791   3.137   4.321
 3488SOL    HW211364   5.931   3.100   4.245
 3489SOL     OW11365   3.393   6.812   0.357
 3489SOL    HW111366   3.457   6.849   0.290
 3489SOL    HW211367   3.404   6.860   0.444
 3490SOL     OW11368   4.691   4.423   0.103
 3490SOL    HW111369   4.597   4.437   0.134
 3490SOL    HW211370   4.726   4.337   0.140
 3491SOL     OW11371   6.727   2.863   5.926
 3491SOL    HW111372   6.797   2.932   5.914
 3491SOL    HW211373   6.637   2.904   5.913
 3492SOL     OW11374   0.900   5.665   0.786
 3492SOL    HW111375   0.879   5.577   0.827
 3492SOL    HW211376   0.984   5.658   0.732
 3493SOL     OW11377   6.418   4.993   6.714
 3493SOL    HW111378   6.417   5.059   6.639
 3493SOL    HW211379   6.402   5.041   6.800
 3494SOL     OW11380   4.330   6.861   0.580
 3494SOL    HW111381   4.323   6.948   0.530
 3494SOL    HW211382   4.239   6.819   0.586
 3495SOL     OW11383   4.654   4.602   2.598
 3495SOL    HW111384   4.599   4.574   2.519
 3495SOL    HW211385   4.705   4.523   2.633
 3496SOL     OW11386   0.945   3.050   1.185
 3496SOL    HW111387   0.909   3.129   1.135
 3496SOL    HW211388   1.003   3.083   1.260
 3497SOL     OW11389   3.854   0.575   2.891
 3497SOL    HW111390   3.838   0.666   2.929
 3497SOL    HW211391   3.881   0.583   2.795
 3498SOL     OW11392   3.247   2.045   0.853
 3498SOL    HW111393   3.186   2.099   0.910
 3498SOL    HW211394   3.242   2.078   0.759
 3499SOL     OW11395   5.975   3.085   4.712
 3499SOL    HW111396   6.046   3.116   4.649
 3499SOL    HW211397   5.938   3.163   4.761
 3500SOL     OW11398   6.503   4.332   6.396
 3500SOL    HW111399   6.507   4.390   6.315
 3500SOL    HW211400   6.522   4.237   6.371
 3501SOL     OW11401   0.208   4.998   4.856
 3501SOL    HW111402   0.170   4.916   4.898
 3501SOL    HW211403   0.216   4.985   4.758
 3502SOL     OW11404   0.422   2.254   1.986
 3502SOL    HW111405   0.487   2.204   1.929
 3502SOL    HW211406   0.338   2.200   1.996
 3503SOL     OW11407   5.145   5.488   5.157
 3503SOL    HW111408   5.050   5.471   5.184
 3503SOL    HW211409   5.186   5.555   5.217
 3504SOL     OW11410   2.747   2.958   1.379
 3504SOL    HW111411   2.777   2.921   1.291
 3504SOL    HW211412   2.774   2.897   1.453
 3505SOL     OW11413   5.186   5.272   4.981
 3505SOL    HW111414   5.204   5.353   5.037
 3505SOL    HW211415   5.099   5.231   5.007
 3506SOL     OW11416   4.135   5.406   4.616
 3506SOL    HW111417   4.091   5.376   4.701
 3506SOL    HW211418   4.234   5.392   4.623
 3507SOL     OW11419   1.720   0.541   6.735
 3507SOL    HW111420   1.797   0.591   6.776
 3507SOL    HW211421   1.644   0.539   6.800
 3508SOL     OW11422   4.363   2.143   6.493
 3508SOL    HW111423   4.300   2.168   6.566
 3508SOL    HW211424   4.335   2.056   6.452
 3509SOL     OW11425   5.674   5.845   6.768
 3509SOL    HW111426   5.727   5.767   6.736
 3509SOL    HW211427   5.695   5.862   6.864
 3510SOL     OW11428   1.481   2.648   1.961
 3510SOL    HW111429   1.386   2.670   1.986
 3510SOL    HW211430   1.535   2.636   2.044
 3511SOL     OW11431   1.666   3.419   6.602
 3511SOL    HW111432   1.650   3.345   6.536
 3511SOL    HW211433   1.589   3.482   6.599
 3512SOL     OW11434   0.923   4.625   0.577
 3512SOL    HW111435   0.946   4.647   0.482
 3512SOL    HW211436   1.001   4.581   0.621
 3513SOL     OW11437   6.162   4.326   0.544
 3513SOL    HW111438   6.090   4.391   0.519
 3513SOL    HW211439   6.159   4.310   0.643
 3514SOL     OW11440   0.555   0.476   1.758
 3514SOL    HW111441   0.489   0.443   1.825
 3514SOL    HW211442   0.530   0.569   1.729
 3515SOL     OW11443   3.351   6.017   2.573
 3515SOL    HW111444   3.363   5.930   2.620
 3515SOL    HW211445   3.427   6.078   2.596
 3516SOL     OW11446   3.747   0.878   1.007
 3516SOL    HW111447   3.744   0.975   1.033
 3516SOL    HW211448   3.670   0.857   0.947
 3517SOL     OW11449   0.783   1.419   0.155
 3517SOL    HW111450   0.757   1.363   0.077
 3517SOL    HW211451   0.851   1.370   0.210
 3518SOL     OW11452   4.874   3.893   5.694
 3518SOL    HW111453   4.920   3.978   5.669
 3518SOL    HW211454   4.780   3.914   5.724
 3519SOL     OW11455   0.940   0.604   6.404
 3519SOL    HW111456   0.878   0.683   6.410
 3519SOL    HW211457   0.903   0.528   6.458
 3520SOL     OW11458   3.496   4.662   1.442
 3520SOL    HW111459   3.438   4.690   1.366
 3520SOL    HW211460   3.577   4.721   1.446
 3521SOL     OW11461   5.537   2.834   1.248
 3521SOL    HW111462   5.548   2.792   1.157
 3521SOL    HW211463   5.616   2.812   1.305
 3522SOL     OW11464   3.160   5.372   2.037
 3522SOL    HW111465   3.184   5.455   1.987
 3522SOL    HW211466   3.238   5.308   2.034
 3523SOL     OW11467   3.114   4.701   5.236
 3523SOL    HW111468   3.042   4.634   5.252
 3523SOL    HW211469   3.195   4.676   5.289
 3524SOL     OW11470   2.908   0.901   1.256
 3524SOL    HW111471   2.835   0.914   1.322
 3524SOL    HW211472   2.968   0.981   1.256
 3525SOL     OW11473   0.706   3.294   2.145
 3525SOL    HW111474   0.664   3.384   2.161
 3525SOL    HW211475   0.786   3.305   2.087
 3526SOL     OW11476   1.582   0.422   4.267
 3526SOL    HW111477   1.495   0.395   4.227
 3526SOL    HW211478   1.624   0.492   4.209
 3527SOL     OW11479   4.897   2.705   5.633
 3527SOL    HW111480   4.954   2.629   5.663
 3527SOL    HW211481   4.907   2.717   5.534
 3528SOL     OW11482   0.778   6.460   3.555
 3528SOL    HW111483   0.700   6.522   3.554
 3528SOL    HW211484   0.805   6.438   3.462
 3529SOL     OW11485   3.913   6.801   5.462
 3529SOL    HW111486   3.824   6.846   5.461
 3529SOL    HW211487   3.944   6.787   5.368
 3530SOL     OW11488   2.326   5.637   2.733
 3530SOL    HW111489   2.251   5.645   2.798
 3530SOL    HW211490   2.321   5.549   2.686
 3531SOL     OW11491   5.852   3.802   0.379
 3531SOL    HW111492   5.901   3.866   0.320
 3531SOL    HW211493   5.821   3.724   0.326
 3532SOL     OW11494   2.820   0.555   6.997
 3532SOL    HW111495   2.781   0.483   0.032
 3532SOL    HW211496   2.809   0.531   6.900
 3533SOL     OW11497   1.348   2.080   3.625
 3533SOL    HW111498   1.424   2.144   3.639
 3533SOL    HW211499   1.372   1.992   3.665
 3534SOL     OW11500   5.670   1.644   5.446
 3534SOL    HW111501   5.580   1.601   5.445
 3534SOL    HW211502   5.692   1.677   5.354
 3535SOL     OW11503   6.789   6.017   0.374
 3535SOL    HW111504   6.862   6.039   0.309
 3535SOL    HW211505   6.709   6.074   0.355
 3536SOL     OW11506   1.682   3.419   3.339
 3536SOL    HW111507   1.615   3.345   3.344
 3536SOL    HW211508   1.688   3.465   3.428
 3537SOL     OW11509   2.167   4.820   0.531
 3537SOL    HW111510   2.187   4.900   0.476
 3537SOL    HW211511   2.150   4.848   0.626
 3538SOL     OW11512   3.435   1.010   3.995
 3538SOL    HW111513   3.414   1.053   4.083
 3538SOL    HW211514   3.534   1.001   3.984
 3539SOL     OW11515   6.179   3.357   5.514
 3539SOL    HW111516   6.276   3.335   5.500
 3539SOL    HW211517   6.155   3.436   5.457
 3540SOL     OW11518   2.242   3.190   6.525
 3540SOL    HW111519   2.155   3.238   6.522
 3540SOL    HW211520   2.239   3.119   6.596
 3541SOL     OW11521   2.698   2.833   0.508
 3541SOL    HW111522   2.657   2.850   0.598
 3541SOL    HW211523   2.714   2.921   0.462
 3542SOL     OW11524   5.404   2.298   0.284
 3542SOL    HW111525   5.455   2.383   0.297
 3542SOL    HW211526   5.307   2.320   0.272
 3543SOL     OW11527   1.208   3.681   3.047
 3543SOL    HW111528   1.122   3.733   3.045
 3543SOL    HW211529   1.223   3.638   2.958
 3544SOL     OW11530   2.980   4.375   0.124
 3544SOL    HW111531   2.914   4.350   0.195
 3544SOL    HW211532   3.025   4.292   0.090
 3545SOL     OW11533   3.961   5.205   0.422
 3545SOL    HW111534   3.948   5.189   0.520
 3545SOL    HW211535   4.057   5.188   0.398
 3546SOL     OW11536   6.353   4.477   3.240
 3546SOL    HW111537   6.307   4.471   3.151
 3546SOL    HW211538   6.447   4.511   3.227
 3547SOL     OW11539   6.826   3.224   4.420
 3547SOL    HW111540   6.746   3.241   4.362
 3547SOL    HW211541   6.823   3.285   4.499
 3548SOL     OW11542   5.078   1.016   5.745
 3548SOL    HW111543   5.175   1.040   5.759
 3548SOL    HW211544   5.021   1.076   5.801
 3549SOL     OW11545   2.248   5.068   6.540
 3549SOL    HW111546   2.285   4.993   6.595
 3549SOL    HW211547   2.175   5.114   6.591
 3550SOL     OW11548   5.633   2.386   5.202
 3550SOL    HW111549   5.585   2.451   5.143
 3550SOL    HW211550   5.596   2.294   5.188
 3551SOL     OW11551   3.252   1.826   4.907
 3551SOL    HW111552   3.245   1.734   4.947
 3551SOL    HW211553   3.280   1.891   4.978
 3552SOL     OW11554   6.459   5.494   2.025
 3552SOL    HW111555   6.418   5.403   2.031
 3552SOL    HW211556   6.387   5.563   2.037
 3553SOL     OW11557   3.220   5.927   6.205
 3553SOL    HW111558   3.172   5.840   6.200
 3553SOL    HW211559   3.154   6.002   6.216
 3554SOL     OW11560   3.660   4.052   0.709
 3554SOL    HW111561   3.717   4.027   0.630
 3554SOL    HW211562   3.595   4.123   0.682
 3555SOL     OW11563   2.213   2.307   4.378
 3555SOL    HW111564   2.272   2.369   4.326
 3555SOL    HW211565   2.160   2.251   4.314
 3556SOL     OW11566   3.915   1.103   4.447
 3556SOL    HW111567   3.881   1.109   4.541
 3556SOL    HW211568   4.015   1.100   4.448
 3557SOL     OW11569   0.433   6.955   2.577
 3557SOL    HW111570   0.506   6.891   2.598
 3557SOL    HW211571   0.443   0.016   2.634
 3558SOL     OW11572   2.637   5.654   0.658
 3558SOL    HW111573   2.725   5.687   0.691
 3558SOL    HW211574   2.573   5.647   0.735
 3559SOL     OW11575   2.820   0.226   5.081
 3559SOL    HW111576   2.802   0.281   5.163
 3559SOL    HW211577   2.762   0.145   5.081
 3560SOL     OW11578   1.537   4.847   4.221
 3560SOL    HW111579   1.564   4.855   4.317
 3560SOL    HW211580   1.566   4.758   4.186
 3561SOL     OW11581   5.570   4.524   5.725
 3561SOL    HW111582   5.646   4.476   5.680
 3561SOL    HW211583   5.484   4.482   5.699
 3562SOL     OW11584   3.540   1.640   4.021
 3562SOL    HW111585   3.489   1.569   4.071
 3562SOL    HW211586   3.636   1.613   4.016
 3563SOL     OW11587   5.651   2.026   6.234
 3563SOL    HW111588   5.590   2.078   6.295
 3563SOL    HW211589   5.669   2.080   6.152
 3564SOL     OW11590   0.478   4.821   2.719
 3564SOL    HW111591   0.417   4.880   2.666
 3564SOL    HW211592   0.434   4.733   2.734
 3565SOL     OW11593   3.710   4.898   2.767
 3565SOL    HW111594   3.768   4.893   2.686
 3565SOL    HW211595   3.765   4.877   2.848
 3566SOL     OW11596   6.720   1.198   5.382
 3566SOL    HW111597   6.683   1.186   5.475
 3566SOL    HW211598   6.656   1.158   5.316
 3567SOL     OW11599   0.447   2.936   6.250
 3567SOL    HW111600   0.418   2.971   6.338
 3567SOL    HW211601   0.382   2.964   6.179
 3568SOL     OW11602   6.646   3.972   5.738
 3568SOL    HW111603   6.583   3.902   5.705
 3568SOL    HW211604   6.605   4.062   5.728
 3569SOL     OW11605   2.474   2.009   5.246
 3569SOL    HW111606   2.426   2.017   5.159
 3569SOL    HW211607   2.448   1.924   5.291
 3570SOL     OW11608   4.806   0.314   5.857
 3570SOL    HW111609   4.797   0.215   5.862
 3570SOL    HW211610   4.804   0.353   5.949
 3571SOL     OW11611   0.214   5.599   0.096
 3571SOL    HW111612   0.282   5.570   0.028
 3571SOL    HW211613   0.125   5.610   0.053
 3572SOL     OW11614   5.515   3.590   3.999
 3572SOL    HW111615   5.606   3.555   4.021
 3572SOL    HW211616   5.493   3.666   4.061
 3573SOL     OW11617   0.425   4.509   4.022
 3573SOL    HW111618   0.508   4.508   3.966
 3573SOL    HW211619   0.438   4.451   4.102
 3574SOL     OW11620   0.535   4.588   0.015
 3574SOL    HW111621   0.610   4.652   0.003
 3574SOL    HW211622   0.568   4.495   7.021
 3575SOL     OW11623   5.587   5.046   3.510
 3575SOL    HW111624   5.685   5.051   3.489
 3575SOL    HW211625   5.556   4.952   3.499
 3576SOL     OW11626   1.993   1.692   5.815
 3576SOL    HW111627   2.054   1.746   5.757
 3576SOL    HW211628   1.950   1.620   5.761
 3577SOL     OW11629   1.586   2.539   6.850
 3577SOL    HW111630   1.670   2.589   6.870
 3577SOL    HW211631   1.604   2.441   6.848
 3578SOL     OW11632   3.689   3.338   6.781
 3578SOL    HW111633   3.631   3.419   6.789
 3578SOL    HW211634   3.641   3.260   6.821
 3579SOL     OW11635   0.064   3.772   4.552
 3579SOL    HW111636   6.999   3.720   4.556
 3579SOL    HW211637   0.120   3.736   4.478
 3580SOL     OW11638   6.014   1.814   1.429
 3580SOL    HW111639   5.990   1.832   1.524
 3580SOL    HW211640   6.051   1.722   1.420
 3581SOL     OW11641   6.290   0.768   3.902
 3581SOL    HW111642   6.354   0.760   3.826
 3581SOL    HW211643   6.204   0.724   3.878
 3582SOL     OW11644   0.704   2.466   6.154
 3582SOL    HW111645   0.756   2.548   6.178
 3582SOL    HW211646   0.720   2.442   6.059
 3583SOL     OW11647   0.812   4.141   6.933
 3583SOL    HW111648   0.736   4.150   6.868
 3583SOL    HW211649   0.792   4.068   6.997
 3584SOL     OW11650   6.003   6.185   6.455
 3584SOL    HW111651   6.058   6.138   6.387
 3584SOL    HW211652   5.951   6.118   6.509
 3585SOL     OW11653   3.654   5.532   5.360
 3585SOL    HW111654   3.747   5.555   5.332
 3585SOL    HW211655   3.594   5.610   5.344
 3586SOL     OW11656   6.743   2.133   5.291
 3586SOL    HW111657   6.688   2.209   5.255
 3586SOL    HW211658   6.685   2.073   5.345
 3587SOL     OW11659   2.633   5.262   0.277
 3587SOL    HW111660   2.696   5.245   0.352
 3587SOL    HW211661   2.643   5.192   0.207
 3588SOL     OW11662   1.027   3.172   5.642
 3588SOL    HW111663   1.009   3.083   5.685
 3588SOL    HW211664   1.062   3.158   5.550
 3589SOL     OW11665   4.031   1.321   3.817
 3589SOL    HW111666   3.938   1.287   3.797
 3589SOL    HW211667   4.037   1.345   3.914
 3590SOL     OW11668   6.859   4.302   6.300
 3590SOL    HW111669   6.854   4.222   6.361
 3590SOL    HW211670   6.766   4.329   6.273
 3591SOL     OW11671   4.954   3.476   6.440
 3591SOL    HW111672   4.911   3.556   6.482
 3591SOL    HW211673   4.923   3.467   6.346
 3592SOL     OW11674   5.606   3.897   3.017
 3592SOL    HW111675   5.588   3.992   3.041
 3592SOL    HW211676   5.592   3.839   3.097
 3593SOL     OW11677   2.120   6.109   4.753
 3593SOL    HW111678   2.038   6.053   4.763
 3593SOL    HW211679   2.105   6.197   4.799
 3594SOL     OW11680   3.734   0.647   2.475
 3594SOL    HW111681   3.714   0.743   2.458
 3594SOL    HW211682   3.819   0.640   2.528
 3595SOL     OW11683   1.835   6.206   6.499
 3595SOL    HW111684   1.884   6.155   6.569
 3595SOL    HW211685   1.749   6.160   6.477
 3596SOL     OW11686   6.673   2.036   2.975
 3596SOL    HW111687   6.663   1.939   2.952
 3596SOL    HW211688   6.582   2.077   2.985
 3597SOL     OW11689   2.790   6.603   5.130
 3597SOL    HW111690   2.762   6.543   5.055
 3597SOL    HW211691   2.719   6.602   5.201
 3598SOL     OW11692   1.303   0.298   5.827
 3598SOL    HW111693   1.216   0.335   5.797
 3598SOL    HW211694   1.302   0.199   5.820
 3599SOL     OW11695   0.779   2.100   5.531
 3599SOL    HW111696   0.751   2.081   5.436
 3599SOL    HW211697   0.863   2.154   5.530
 3600SOL     OW11698   0.264   3.306   1.071
 3600SOL    HW111699   0.291   3.239   1.141
 3600SOL    HW211700   0.266   3.263   0.981
 3601SOL     OW11701   6.646   3.929   0.359
 3601SOL    HW111702   6.557   3.963   0.391
 3601SOL    HW211703   6.712   4.004   0.359
 3602SOL     OW11704   1.726   1.479   1.076
 3602SOL    HW111705   1.803   1.416   1.084
 3602SOL    HW211706   1.717   1.509   0.981
 3603SOL     OW11707   3.231   6.509   3.956
 3603SOL    HW111708   3.206   6.602   3.929
 3603SOL    HW211709   3.190   6.488   4.045
 3604SOL     OW11710   6.181   4.715   3.834
 3604SOL    HW111711   6.196   4.813   3.832
 3604SOL    HW211712   6.267   4.667   3.817
 3605SOL     OW11713   5.945   4.747   5.829
 3605SOL    HW111714   5.943   4.700   5.917
 3605SOL    HW211715   5.949   4.846   5.844
 3606SOL     OW11716   6.615   5.124   5.555
 3606SOL    HW111717   6.704   5.147   5.593
 3606SOL    HW211718   6.559   5.207   5.550
 3607SOL     OW11719   5.142   6.617   0.841
 3607SOL    HW111720   5.134   6.529   0.886
 3607SOL    HW211721   5.129   6.691   0.907
 3608SOL     OW11722   6.951   1.744   1.887
 3608SOL    HW111723   6.962   1.717   1.791
 3608SOL    HW211724   0.008   1.712   1.940
 3609SOL     OW11725   0.307   0.380   4.101
 3609SOL    HW111726   0.311   0.427   4.013
 3609SOL    HW211727   0.245   0.429   4.162
 3610SOL     OW11728   0.517   0.309   5.947
 3610SOL    HW111729   0.605   0.268   5.969
 3610SOL    HW211730   0.530   0.387   5.886
 3611SOL     OW11731   3.819   5.208   5.201
 3611SOL    HW111732   3.762   5.230   5.281
 3611SOL    HW211733   3.822   5.109   5.188
 3612SOL     OW11734   6.299   0.474   5.720
 3612SOL    HW111735   6.366   0.521   5.662
 3612SOL    HW211736   6.300   0.376   5.699
 3613SOL     OW11737   5.660   5.185   1.373
 3613SOL    HW111738   5.718   5.258   1.412
 3613SOL    HW211739   5.618   5.133   1.447
 3614SOL     OW11740   3.450   3.392   3.119
 3614SOL    HW111741   3.410   3.394   3.210
 3614SOL    HW211742   3.382   3.420   3.051
 3615SOL     OW11743   5.855   6.167   5.902
 3615SOL    HW111744   5.853   6.078   5.948
 3615SOL    HW211745   5.828   6.238   5.966
 3616SOL     OW11746   6.873   1.605   6.456
 3616SOL    HW111747   6.931   1.686   6.452
 3616SOL    HW211748   6.875   1.567   6.548
 3617SOL     OW11749   5.428   1.202   6.861
 3617SOL    HW111750   5.421   1.295   6.826
 3617SOL    HW211751   5.495   1.199   6.935
 3618SOL     OW11752   1.924   2.041   5.481
 3618SOL    HW111753   1.895   2.121   5.429
 3618SOL    HW211754   1.929   1.962   5.421
 3619SOL     OW11755   6.063   2.636   3.954
 3619SOL    HW111756   6.025   2.546   3.976
 3619SOL    HW211757   5.989   2.702   3.943
 3620SOL     OW11758   5.899   5.580   5.838
 3620SOL    HW111759   5.974   5.574   5.903
 3620SOL    HW211760   5.933   5.615   5.751
 3621SOL     OW11761   3.060   1.987   5.872
 3621SOL    HW111762   2.986   2.025   5.817
 3621SOL    HW211763   3.079   2.049   5.949
 3622SOL     OW11764   2.801   1.819   3.113
 3622SOL    HW111765   2.839   1.880   3.044
 3622SOL    HW211766   2.800   1.725   3.077
 3623SOL     OW11767   5.560   6.234   3.976
 3623SOL    HW111768   5.651   6.196   3.992
 3623SOL    HW211769   5.543   6.236   3.877
 3624SOL     OW11770   2.168   0.338   2.283
 3624SOL    HW111771   2.125   0.288   2.358
 3624SOL    HW211772   2.111   0.416   2.258
 3625SOL     OW11773   5.881   2.962   6.912
 3625SOL    HW111774   5.889   2.900   6.834
 3625SOL    HW211775   5.942   2.932   6.985
 3626SOL     OW11776   1.689   3.592   5.463
 3626SOL    HW111777   1.731   3.606   5.373
 3626SOL    HW211778   1.760   3.595   5.533
 3627SOL     OW11779   3.711   2.908   3.571
 3627SOL    HW111780   3.730   2.950   3.482
 3627SOL    HW211781   3.613   2.895   3.581
 3628SOL     OW11782   2.234   6.695   1.563
 3628SOL    HW111783   2.307   6.762   1.551
 3628SOL    HW211784   2.203   6.664   1.473
 3629SOL     OW11785   6.580   2.081   4.088
 3629SOL    HW111786   6.533   2.141   4.023
 3629SOL    HW211787   6.514   2.020   4.130
 3630SOL     OW11788   5.630   2.826   3.496
 3630SOL    HW111789   5.714   2.838   3.443
 3630SOL    HW211790   5.621   2.901   3.561
 3631SOL     OW11791   1.943   6.744   3.947
 3631SOL    HW111792   1.862   6.742   3.889
 3631SOL    HW211793   1.946   6.830   3.997
 3632SOL     OW11794   5.449   0.254   0.692
 3632SOL    HW111795   5.359   0.273   0.731
 3632SOL    HW211796   5.515   0.240   0.766
 3633SOL     OW11797   3.258   1.535   5.983
 3633SOL    HW111798   3.295   1.572   5.898
 3633SOL    HW211799   3.159   1.525   5.975
 3634SOL     OW11800   0.284   5.204   5.604
 3634SOL    HW111801   0.188   5.181   5.587
 3634SOL    HW211802   0.341   5.125   5.581
 3635SOL     OW11803   2.478   0.213   6.166
 3635SOL    HW111804   2.412   0.212   6.242
 3635SOL    HW211805   2.429   0.213   6.079
 3636SOL     OW11806   0.817   5.971   6.613
 3636SOL    HW111807   0.851   5.966   6.707
 3636SOL    HW211808   0.883   5.928   6.551
 3637SOL     OW11809   6.539   2.210   1.372
 3637SOL    HW111810   6.605   2.191   1.300
 3637SOL    HW211811   6.514   2.307   1.371
 3638SOL     OW11812   6.992   4.583   4.086
 3638SOL    HW111813   6.933   4.604   4.009
 3638SOL    HW211814   0.017   4.666   4.116
 3639SOL     OW11815   4.024   3.760   0.679
 3639SOL    HW111816   4.081   3.683   0.706
 3639SOL    HW211817   3.954   3.776   0.749
 3640SOL     OW11818   3.563   0.113   6.668
 3640SOL    HW111819   3.515   0.141   6.751
 3640SOL    HW211820   3.517   0.034   6.628
 3641SOL     OW11821   4.797   3.041   4.016
 3641SOL    HW111822   4.792   2.981   3.936
 3641SOL    HW211823   4.710   3.089   4.028
 3642SOL     OW11824   5.073   0.789   0.325
 3642SOL    HW111825   5.032   0.867   0.278
 3642SOL    HW211826   5.159   0.765   0.280
 3643SOL     OW11827   2.945   5.720   4.904
 3643SOL    HW111828   2.974   5.796   4.963
 3643SOL    HW211829   3.008   5.643   4.915
 3644SOL     OW11830   6.857   1.251   1.592
 3644SOL    HW111831   6.911   1.175   1.629
 3644SOL    HW211832   6.913   1.304   1.529
 3645SOL     OW11833   6.714   1.533   3.911
 3645SOL    HW111834   6.658   1.457   3.943
 3645SOL    HW211835   6.655   1.602   3.869
 3646SOL     OW11836   6.515   4.175   6.632
 3646SOL    HW111837   6.548   4.085   6.602
 3646SOL    HW211838   6.528   4.242   6.559
 3647SOL     OW11839   2.332   3.519   0.162
 3647SOL    HW111840   2.234   3.532   0.147
 3647SOL    HW211841   2.363   3.581   0.234
 3648SOL     OW11842   3.141   5.153   3.110
 3648SOL    HW111843   3.091   5.186   3.029
 3648SOL    HW211844   3.216   5.093   3.081
 3649SOL     OW11845   4.719   3.127   1.562
 3649SOL    HW111846   4.649   3.107   1.631
 3649SOL    HW211847   4.810   3.108   1.600
 3650SOL     OW11848   7.016   4.933   0.464
 3650SOL    HW111849   6.986   4.948   0.370
 3650SOL    HW211850   0.004   4.835   0.481
 3651SOL     OW11851   0.466   6.431   3.663
 3651SOL    HW111852   0.392   6.363   3.659
 3651SOL    HW211853   0.544   6.392   3.713
 3652SOL     OW11854   5.896   6.394   3.197
 3652SOL    HW111855   5.967   6.366   3.133
 3652SOL    HW211856   5.831   6.454   3.150
 3653SOL     OW11857   0.140   0.625   3.644
 3653SOL    HW111858   0.171   0.710   3.686
 3653SOL    HW211859   0.055   0.596   3.688
 3654SOL     OW11860   2.330   6.009   0.405
 3654SOL    HW111861   2.382   5.938   0.359
 3654SOL    HW211862   2.355   6.012   0.502
 3655SOL     OW11863   1.771   0.044   3.437
 3655SOL    HW111864   1.719   0.121   3.475
 3655SOL    HW211865   1.862   0.043   3.478
 3656SOL     OW11866   1.010   3.420   2.302
 3656SOL    HW111867   0.917   3.394   2.328
 3656SOL    HW211868   1.055   3.467   2.378
 3657SOL     OW11869   5.256   5.460   6.477
 3657SOL    HW111870   5.250   5.526   6.402
 3657SOL    HW211871   5.268   5.508   6.564
 3658SOL     OW11872   1.826   6.272   3.565
 3658SOL    HW111873   1.870   6.271   3.655
 3658SOL    HW211874   1.835   6.363   3.525
 3659SOL     OW11875   2.525   3.049   5.992
 3659SOL    HW111876   2.529   3.138   6.038
 3659SOL    HW211877   2.558   2.978   6.055
 3660SOL     OW11878   4.517   0.120   2.992
 3660SOL    HW111879   4.573   0.084   3.067
 3660SOL    HW211880   4.423   0.132   3.024
 3661SOL     OW11881   4.853   1.493   5.538
 3661SOL    HW111882   4.922   1.539   5.482
 3661SOL    HW211883   4.846   1.538   5.627
 3662SOL     OW11884   4.253   0.656   3.455
 3662SOL    HW111885   4.157   0.683   3.458
 3662SOL    HW211886   4.284   0.632   3.547
 3663SOL     OW11887   2.148   1.820   0.513
 3663SOL    HW111888   2.228   1.868   0.549
 3663SOL    HW211889   2.167   1.722   0.509
 3664SOL     OW11890   4.735   1.960   1.604
 3664SOL    HW111891   4.813   2.022   1.604
 3664SOL    HW211892   4.738   1.902   1.685
 3665SOL     OW11893   1.287   6.312   5.720
 3665SOL    HW111894   1.231   6.240   5.760
 3665SOL    HW211895   1.359   6.339   5.783
 3666SOL     OW11896   1.834   3.776   3.134
 3666SOL    HW111897   1.802   3.871   3.127
 3666SOL    HW211898   1.756   3.714   3.122
 3667SOL     OW11899   6.996   0.782   0.906
 3667SOL    HW111900   6.978   0.821   0.816
 3667SOL    HW211901   6.943   0.831   0.975
 3668SOL     OW11902   1.726   1.036   2.212
 3668SOL    HW111903   1.742   0.983   2.129
 3668SOL    HW211904   1.664   1.112   2.193
 3669SOL     OW11905   6.073   1.354   3.615
 3669SOL    HW111906   5.975   1.347   3.633
 3669SOL    HW211907   6.095   1.303   3.531
 3670SOL     OW11908   1.947   4.450   0.360
 3670SOL    HW111909   1.960   4.388   0.437
 3670SOL    HW211910   2.027   4.510   0.350
 3671SOL     OW11911   6.194   0.336   4.091
 3671SOL    HW111912   6.118   0.401   4.094
 3671SOL    HW211913   6.159   0.243   4.106
 3672SOL     OW11914   5.450   2.478   1.529
 3672SOL    HW111915   5.471   2.557   1.471
 3672SOL    HW211916   5.353   2.456   1.522
 3673SOL     OW11917   3.774   0.166   6.256
 3673SOL    HW111918   3.793   0.068   6.262
 3673SOL    HW211919   3.725   0.185   6.171
 3674SOL     OW11920   0.353   7.003   5.296
 3674SOL    HW111921   0.289   0.036   5.350
 3674SOL    HW211922   0.446   0.018   5.308
 3675SOL     OW11923   1.687   3.094   5.041
 3675SOL    HW111924   1.644   3.063   5.126
 3675SOL    HW211925   1.631   3.164   4.999
 3676SOL     OW11926   4.829   4.514   4.668
 3676SOL    HW111927   4.828   4.600   4.719
 3676SOL    HW211928   4.873   4.528   4.580
 3677SOL     OW11929   1.773   6.443   3.195
 3677SOL    HW111930   1.865   6.418   3.165
 3677SOL    HW211931   1.770   6.446   3.295
 3678SOL     OW11932   0.865   3.715   4.335
 3678SOL    HW111933   0.911   3.696   4.421
 3678SOL    HW211934   0.769   3.685   4.340
 3679SOL     OW11935   1.869   0.312   3.087
 3679SOL    HW111936   1.931   0.307   3.009
 3679SOL    HW211937   1.843   0.220   3.115
 3680SOL     OW11938   5.892   2.221   2.932
 3680SOL    HW111939   5.804   2.268   2.940
 3680SOL    HW211940   5.919   2.186   3.021
 3681SOL     OW11941   0.755   0.468   5.289
 3681SOL    HW111942   0.789   0.552   5.245
 3681SOL    HW211943   0.801   0.456   5.377
 3682SOL     OW11944   5.096   2.278   6.869
 3682SOL    HW111945   5.118   2.181   6.878
 3682SOL    HW211946   5.034   2.290   6.790
 3683SOL     OW11947   6.802   6.487   3.177
 3683SOL    HW111948   6.876   6.470   3.113
 3683SOL    HW211949   6.714   6.480   3.130
 3684SOL     OW11950   1.374   4.348   0.116
 3684SOL    HW111951   1.331   4.439   0.116
 3684SOL    HW211952   1.439   4.341   0.192
 3685SOL     OW11953   6.599   6.378   6.264
 3685SOL    HW111954   6.557   6.405   6.351
 3685SOL    HW211955   6.698   6.369   6.276
 3686SOL     OW11956   6.316   6.215   3.123
 3686SOL    HW111957   6.304   6.279   3.199
 3686SOL    HW211958   6.288   6.260   3.038
 3687SOL     OW11959   3.801   6.138   5.696
 3687SOL    HW111960   3.878   6.083   5.729
 3687SOL    HW211961   3.812   6.156   5.599
 3688SOL     OW11962   0.080   3.008   6.469
 3688SOL    HW111963   0.177   3.025   6.449
 3688SOL    HW211964   0.043   2.945   6.401
 3689SOL     OW11965   1.946   0.896   6.977
 3689SOL    HW111966   1.932   0.835   0.034
 3689SOL    HW211967   1.857   0.919   6.936
 3690SOL     OW11968   4.374   6.829   6.660
 3690SOL    HW111969   4.441   6.766   6.701
 3690SOL    HW211970   4.304   6.852   6.727
 3691SOL     OW11971   3.005   2.520   0.002
 3691SOL    HW111972   3.003   2.619   7.013
 3691SOL    HW211973   3.037   2.496   0.094
 3692SOL     OW11974   0.841   5.890   5.290
 3692SOL    HW111975   0.755   5.922   5.250
 3692SOL    HW211976   0.821   5.827   5.365
 3693SOL     OW11977   2.343   2.825   2.729
 3693SOL    HW111978   2.324   2.878   2.812
 3693SOL    HW211979   2.346   2.728   2.751
 3694SOL     OW11980   1.419   5.322   2.906
 3694SOL    HW111981   1.489   5.273   2.959
 3694SOL    HW211982   1.377   5.260   2.841
 3695SOL     OW11983   6.378   2.763   2.151
 3695SOL    HW111984   6.457   2.823   2.145
 3695SOL    HW211985   6.383   2.694   2.080
 3696SOL     OW11986   3.023   5.902   5.117
 3696SOL    HW111987   2.956   5.865   5.181
 3696SOL    HW211988   3.038   5.999   5.136
 3697SOL     OW11989   0.175   6.167   3.717
 3697SOL    HW111990   0.181   6.140   3.813
 3697SOL    HW211991   0.115   6.247   3.709
 3698SOL     OW11992   2.658   0.016   5.088
 3698SOL    HW111993   2.644   6.987   5.174
 3698SOL    HW211994   2.714   6.982   5.026
 3699SOL     OW11995   0.343   3.405   3.331
 3699SOL    HW111996   0.267   3.350   3.298
 3699SOL    HW211997   0.391   3.446   3.252
 3700SOL     OW11998   0.113   0.378   4.531
 3700SOL    HW111999   0.031   0.365   4.588
 3700SOL    HW212000   0.158   0.290   4.517
 3701SOL     OW12001   0.430   0.456   3.517
 3701SOL    HW112002   0.488   0.421   3.590
 3701SOL    HW212003   0.411   0.383   3.451
 3702SOL     OW12004   5.625   6.537   2.476
 3702SOL    HW112005   5.565   6.501   2.547
 3702SOL    HW212006   5.576   6.604   2.420
 3703SOL     OW12007   4.196   1.948   6.380
 3703SOL    HW112008   4.238   1.902   6.301
 3703SOL    HW212009   4.109   1.989   6.353
 3704SOL     OW12010   3.686   1.306   0.811
 3704SOL    HW112011   3.776   1.331   0.846
 3704SOL    HW212012   3.645   1.384   0.764
 3705SOL     OW12013   5.245   5.636   3.627
 3705SOL    HW112014   5.149   5.623   3.651
 3705SOL    HW212015   5.276   5.725   3.661
 3706SOL     OW12016   1.534   3.475   5.268
 3706SOL    HW112017   1.439   3.490   5.296
 3706SOL    HW212018   1.595   3.489   5.346
 3707SOL     OW12019   5.889   3.806   5.396
 3707SOL    HW112020   5.851   3.854   5.475
 3707SOL    HW212021   5.826   3.734   5.367
 3708SOL     OW12022   6.431   0.780   6.248
 3708SOL    HW112023   6.423   0.876   6.223
 3708SOL    HW212024   6.524   0.762   6.282
 3709SOL     OW12025   3.777   0.626   0.781
 3709SOL    HW112026   3.777   0.570   0.864
 3709SOL    HW212027   3.741   0.717   0.803
 3710SOL     OW12028   0.063   5.817   0.338
 3710SOL    HW112029   0.065   5.909   0.378
 3710SOL    HW212030   7.002   5.769   0.369
 3711SOL     OW12031   6.856   6.469   2.202
 3711SOL    HW112032   6.794   6.547   2.202
 3711SOL    HW212033   6.945   6.497   2.238
 3712SOL     OW12034   6.937   6.448   6.879
 3712SOL    HW112035   6.942   6.481   6.785
 3712SOL    HW212036   6.857   6.389   6.889
 3713SOL     OW12037   1.884   6.435   4.519
 3713SOL    HW112038   1.878   6.411   4.616
 3713SOL    HW212039   1.844   6.361   4.464
 3714SOL     OW12040   4.724   5.016   5.099
 3714SOL    HW112041   4.816   4.977   5.095
 3714SOL    HW212042   4.728   5.110   5.134
 3715SOL     OW12043   6.156   3.852   3.134
 3715SOL    HW112044   6.246   3.849   3.178
 3715SOL    HW212045   6.094   3.789   3.181
 3716SOL     OW12046   5.858   6.470   5.141
 3716SOL    HW112047   5.858   6.562   5.180
 3716SOL    HW212048   5.951   6.434   5.139
 3717SOL     OW12049   5.627   5.483   6.182
 3717SOL    HW112050   5.642   5.551   6.110
 3717SOL    HW212051   5.533   5.450   6.178
 3718SOL     OW12052   2.188   0.510   6.772
 3718SOL    HW112053   2.175   0.475   6.864
 3718SOL    HW212054   2.121   0.467   6.710
 3719SOL     OW12055   5.389   4.632   0.869
 3719SOL    HW112056   5.473   4.615   0.921
 3719SOL    HW212057   5.404   4.612   0.773
 3720SOL     OW12058   6.560   1.994   5.423
 3720SOL    HW112059   6.476   2.005   5.369
 3720SOL    HW212060   6.584   1.897   5.427
 3721SOL     OW12061   5.450   4.745   1.214
 3721SOL    HW112062   5.491   4.654   1.203
 3721SOL    HW212063   5.385   4.762   1.139
 3722SOL     OW12064   6.097   6.983   1.563
 3722SOL    HW112065   6.167   6.977   1.492
 3722SOL    HW212066   6.109   6.908   1.628
 3723SOL     OW12067   6.018   6.379   1.677
 3723SOL    HW112068   5.964   6.404   1.597
 3723SOL    HW212069   6.110   6.418   1.668
 3724SOL     OW12070   1.726   5.160   6.303
 3724SOL    HW112071   1.777   5.235   6.262
 3724SOL    HW212072   1.633   5.159   6.266
 3725SOL     OW12073   5.749   5.400   0.220
 3725SOL    HW112074   5.720   5.396   0.316
 3725SOL    HW212075   5.827   5.463   0.212
 3726SOL     OW12076   6.634   5.714   0.711
 3726SOL    HW112077   6.569   5.733   0.785
 3726SOL    HW212078   6.584   5.692   0.628
 3727SOL     OW12079   6.619   1.905   6.022
 3727SOL    HW112080   6.624   1.976   6.093
 3727SOL    HW212081   6.709   1.893   5.980
 3728SOL     OW12082   1.332   4.092   0.365
 3728SOL    HW112083   1.404   4.158   0.347
 3728SOL    HW212084   1.278   4.078   0.282
 3729SOL     OW12085   1.086   2.114   3.712
 3729SOL    HW112086   1.186   2.111   3.713
 3729SOL    HW212087   1.051   2.077   3.799
 3730SOL     OW12088   2.455   5.236   6.470
 3730SOL    HW112089   2.413   5.279   6.390
 3730SOL    HW212090   2.403   5.153   6.494
 3731SOL     OW12091   5.053   0.309   1.004
 3731SOL    HW112092   5.086   0.289   0.912
 3731SOL    HW212093   5.120   0.365   1.053
 3732SOL     OW12094   1.543   2.265   6.415
 3732SOL    HW112095   1.583   2.191   6.470
 3732SOL    HW212096   1.500   2.332   6.476
 3733SOL     OW12097   1.432   3.645   1.571
 3733SOL    HW112098   1.496   3.698   1.516
 3733SOL    HW212099   1.360   3.609   1.512
 3734SOL     OW12100   4.802   1.154   1.785
 3734SOL    HW112101   4.804   1.205   1.871
 3734SOL    HW212102   4.852   1.068   1.797
 3735SOL     OW12103   2.174   0.643   3.357
 3735SOL    HW112104   2.151   0.648   3.260
 3735SOL    HW212105   2.176   0.548   3.387
 3736SOL     OW12106   6.556   2.562   0.743
 3736SOL    HW112107   6.575   2.536   0.648
 3736SOL    HW212108   6.517   2.654   0.745
 3737SOL     OW12109   4.968   0.748   3.565
 3737SOL    HW112110   4.972   0.837   3.610
 3737SOL    HW212111   5.054   0.733   3.515
 3738SOL     OW12112   0.091   5.622   2.201
 3738SOL    HW112113   0.180   5.580   2.182
 3738SOL    HW212114   0.074   5.621   2.299
 3739SOL     OW12115   2.368   4.832   1.424
 3739SOL    HW112116   2.368   4.810   1.522
 3739SOL    HW212117   2.277   4.862   1.396
 3740SOL     OW12118   5.386   6.951   0.505
 3740SOL    HW112119   5.394   0.030   0.500
 3740SOL    HW212120   5.334   6.918   0.426
 3741SOL     OW12121   4.822   3.212   1.312
 3741SOL    HW112122   4.873   3.298   1.322
 3741SOL    HW212123   4.761   3.200   1.390
 3742SOL     OW12124   2.597   1.801   6.391
 3742SOL    HW112125   2.584   1.900   6.397
 3742SOL    HW212126   2.688   1.781   6.354
 3743SOL     OW12127   5.464   3.893   0.971
 3743SOL    HW112128   5.533   3.960   0.943
 3743SOL    HW212129   5.509   3.812   1.008
 3744SOL     OW12130   0.567   6.087   2.690
 3744SOL    HW112131   0.572   5.987   2.681
 3744SOL    HW212132   0.660   6.125   2.685
 3745SOL     OW12133   3.817   5.212   2.368
 3745SOL    HW112134   3.881   5.274   2.413
 3745SOL    HW212135   3.777   5.257   2.288
 3746SOL     OW12136   5.182   1.886   2.858
 3746SOL    HW112137   5.114   1.813   2.861
 3746SOL    HW212138   5.199   1.920   2.951
 3747SOL     OW12139   3.087   0.208   5.560
 3747SOL    HW112140   3.040   0.255   5.635
 3747SOL    HW212141   3.167   0.263   5.532
 3748SOL     OW12142   5.204   0.506   1.721
 3748SOL    HW112143   5.175   0.418   1.758
 3748SOL    HW212144   5.252   0.557   1.793
 3749SOL     OW12145   1.603   6.788   4.108
 3749SOL    HW112146   1.508   6.812   4.131
 3749SOL    HW212147   1.610   6.689   4.094
 3750SOL     OW12148   1.487   3.889   0.877
 3750SOL    HW112149   1.496   3.889   0.777
 3750SOL    HW212150   1.577   3.870   0.918
 3751SOL     OW12151   6.709   3.603   2.068
 3751SOL    HW112152   6.706   3.504   2.052
 3751SOL    HW212153   6.623   3.644   2.036
 3752SOL     OW12154   5.213   0.586   6.952
 3752SOL    HW112155   5.117   0.576   6.925
 3752SOL    HW212156   5.270   0.596   6.870
 3753SOL     OW12157   6.415   0.854   5.423
 3753SOL    HW112158   6.408   0.775   5.484
 3753SOL    HW212159   6.460   0.929   5.472
 3754SOL     OW12160   2.309   0.498   1.594
 3754SOL    HW112161   2.397   0.458   1.571
 3754SOL    HW212162   2.239   0.426   1.595
 3755SOL     OW12163   4.363   5.248   5.016
 3755SOL    HW112164   4.411   5.227   4.931
 3755SOL    HW212165   4.287   5.310   4.997
 3756SOL     OW12166   2.586   5.418   6.830
 3756SOL    HW112167   2.652   5.487   6.799
 3756SOL    HW212168   2.632   5.330   6.838
 3757SOL     OW12169   6.182   5.205   1.802
 3757SOL    HW112170   6.179   5.296   1.842
 3757SOL    HW212171   6.090   5.166   1.799
 3758SOL     OW12172   2.210   1.180   4.324
 3758SOL    HW112173   2.153   1.152   4.401
 3758SOL    HW212174   2.298   1.133   4.329
 3759SOL     OW12175   4.268   0.105   5.155
 3759SOL    HW112176   4.269   0.203   5.176
 3759SOL    HW212177   4.263   0.053   5.240
 3760SOL     OW12178   0.761   1.534   3.695
 3760SOL    HW112179   0.737   1.503   3.786
 3760SOL    HW212180   0.853   1.503   3.672
 3761SOL     OW12181   6.750   1.266   5.019
 3761SOL    HW112182   6.779   1.342   4.961
 3761SOL    HW212183   6.705   1.302   5.101
 3762SOL     OW12184   1.936   4.006   1.244
 3762SOL    HW112185   1.877   3.964   1.314
 3762SOL    HW212186   1.880   4.032   1.165
 3763SOL     OW12187   6.669   3.678   0.031
 3763SOL    HW112188   6.746   3.679   6.989
 3763SOL    HW212189   6.672   3.759   0.089
 3764SOL     OW12190   1.669   6.860   2.505
 3764SOL    HW112191   1.688   6.872   2.408
 3764SOL    HW212192   1.738   6.798   2.544
 3765SOL     OW12193   6.023   1.456   1.316
 3765SOL    HW112194   6.086   1.530   1.340
 3765SOL    HW212195   6.053   1.411   1.233
 3766SOL     OW12196   2.299   2.484   4.205
 3766SOL    HW112197   2.262   2.412   4.146
 3766SOL    HW212198   2.398   2.490   4.193
 3767SOL     OW12199   3.069   4.167   6.158
 3767SOL    HW112200   3.008   4.131   6.087
 3767SOL    HW212201   3.106   4.091   6.211
 3768SOL     OW12202   0.533   6.961   4.893
 3768SOL    HW112203   0.592   6.900   4.946
 3768SOL    HW212204   0.590   0.002   4.839
 3769SOL     OW12205   6.356   5.408   5.158
 3769SOL    HW112206   6.338   5.341   5.086
 3769SOL    HW212207   6.271   5.427   5.207
 3770SOL     OW12208   1.386   0.933   0.102
 3770SOL    HW112209   1.425   0.869   0.168
 3770SOL    HW212210   1.391   1.026   0.139
 3771SOL     OW12211   5.413   4.048   6.470
 3771SOL    HW112212   5.347   4.072   6.541
 3771SOL    HW212213   5.395   3.955   6.438
 3772SOL     OW12214   0.874   0.377   0.151
 3772SOL    HW112215   0.852   0.414   0.241
 3772SOL    HW212216   0.874   0.277   0.155
 3773SOL     OW12217   6.695   3.321   5.480
 3773SOL    HW112218   6.749   3.299   5.399
 3773SOL    HW212219   6.756   3.331   5.559
 3774SOL     OW12220   5.640   5.772   1.779
 3774SOL    HW112221   5.730   5.742   1.748
 3774SOL    HW212222   5.644   5.792   1.877
 3775SOL     OW12223   4.205   5.191   3.400
 3775SOL    HW112224   4.156   5.225   3.319
 3775SOL    HW212225   4.142   5.184   3.477
 3776SOL     OW12226   4.014   2.277   6.603
 3776SOL    HW112227   3.986   2.262   6.508
 3776SOL    HW212228   3.959   2.351   6.643
 3777SOL     OW12229   2.626   5.297   3.822
 3777SOL    HW112230   2.639   5.377   3.881
 3777SOL    HW212231   2.638   5.214   3.876
 3778SOL     OW12232   2.474   5.815   3.559
 3778SOL    HW112233   2.469   5.903   3.511
 3778SOL    HW212234   2.382   5.777   3.567
 3779SOL     OW12235   0.661   5.172   0.984
 3779SOL    HW112236   0.619   5.099   1.039
 3779SOL    HW212237   0.644   5.260   1.028
 3780SOL     OW12238   6.431   3.692   4.486
 3780SOL    HW112239   6.441   3.692   4.386
 3780SOL    HW212240   6.519   3.668   4.528
 3781SOL     OW12241   0.309   0.113   4.174
 3781SOL    HW112242   0.292   0.200   4.128
 3781SOL    HW212243   0.387   0.122   4.237
 3782SOL     OW12244   3.205   6.976   2.566
 3782SOL    HW112245   3.270   7.016   2.501
 3782SOL    HW212246   3.116   7.021   2.555
 3783SOL     OW12247   6.482   5.768   3.806
 3783SOL    HW112248   6.513   5.863   3.807
 3783SOL    HW212249   6.512   5.722   3.890
 3784SOL     OW12250   5.366   2.933   2.752
 3784SOL    HW112251   5.341   3.021   2.792
 3784SOL    HW212252   5.439   2.947   2.685
 3785SOL     OW12253   1.349   3.297   4.681
 3785SOL    HW112254   1.251   3.316   4.681
 3785SOL    HW212255   1.389   3.324   4.769
 3786SOL     OW12256   2.196   4.166   3.291
 3786SOL    HW112257   2.205   4.096   3.221
 3786SOL    HW212258   2.235   4.252   3.257
 3787SOL     OW12259   5.615   0.640   2.361
 3787SOL    HW112260   5.666   0.557   2.339
 3787SOL    HW212261   5.679   0.713   2.385
 3788SOL     OW12262   6.207   3.987   4.877
 3788SOL    HW112263   6.182   4.039   4.959
 3788SOL    HW212264   6.137   4.000   4.806
 3789SOL     OW12265   0.304   3.898   3.416
 3789SOL    HW112266   0.221   3.856   3.454
 3789SOL    HW212267   0.333   3.848   3.335
 3790SOL     OW12268   0.821   4.663   6.155
 3790SOL    HW112269   0.871   4.579   6.135
 3790SOL    HW212270   0.869   4.715   6.225
 3791SOL     OW12271   5.487   2.137   6.459
 3791SOL    HW112272   5.432   2.179   6.532
 3791SOL    HW212273   5.576   2.111   6.496
 3792SOL     OW12274   1.570   1.868   4.114
 3792SOL    HW112275   1.527   1.788   4.071
 3792SOL    HW212276   1.521   1.951   4.088
 3793SOL     OW12277   4.935   6.528   1.602
 3793SOL    HW112278   4.995   6.450   1.622
 3793SOL    HW212279   4.974   6.611   1.640
 3794SOL     OW12280   2.743   3.055   1.705
 3794SOL    HW112281   2.755   2.984   1.635
 3794SOL    HW212282   2.646   3.066   1.724
 3795SOL     OW12283   3.927   5.532   1.320
 3795SOL    HW112284   3.933   5.445   1.369
 3795SOL    HW212285   3.995   5.596   1.357
 3796SOL     OW12286   4.294   2.062   1.832
 3796SOL    HW112287   4.271   2.137   1.893
 3796SOL    HW212288   4.210   2.025   1.791
 3797SOL     OW12289   0.762   3.536   3.319
 3797SOL    HW112290   0.806   3.447   3.329
 3797SOL    HW212291   0.786   3.575   3.230
 3798SOL     OW12292   2.765   6.483   2.370
 3798SOL    HW112293   2.714   6.417   2.315
 3798SOL    HW212294   2.815   6.545   2.309
 3799SOL     OW12295   0.082   2.930   3.618
 3799SOL    HW112296   0.163   2.972   3.577
 3799SOL    HW212297   0.057   2.847   3.568
 3800SOL     OW12298   5.287   1.747   3.722
 3800SOL    HW112299   5.312   1.787   3.633
 3800SOL    HW212300   5.350   1.673   3.745
 3801SOL     OW12301   5.966   6.713   2.131
 3801SOL    HW112302   6.034   6.640   2.136
 3801SOL    HW212303   5.874   6.674   2.132
 3802SOL     OW12304   0.610   1.476   2.235
 3802SOL    HW112305   0.571   1.499   2.146
 3802SOL    HW212306   0.679   1.545   2.261
 3803SOL     OW12307   4.045   3.402   3.259
 3803SOL    HW112308   3.959   3.434   3.298
 3803SOL    HW212309   4.083   3.473   3.200
 3804SOL     OW12310   4.243   1.491   3.700
 3804SOL    HW112311   4.226   1.520   3.605
 3804SOL    HW212312   4.168   1.434   3.731
 3805SOL     OW12313   1.688   2.646   1.789
 3805SOL    HW112314   1.612   2.669   1.851
 3805SOL    HW212315   1.716   2.727   1.738
 3806SOL     OW12316   3.565   3.662   5.614
 3806SOL    HW112317   3.661   3.651   5.588
 3806SOL    HW212318   3.506   3.638   5.536
 3807SOL     OW12319   2.458   5.247   3.619
 3807SOL    HW112320   2.444   5.334   3.571
 3807SOL    HW212321   2.519   5.262   3.696
 3808SOL     OW12322   4.404   1.107   6.691
 3808SOL    HW112323   4.378   1.157   6.774
 3808SOL    HW212324   4.322   1.088   6.637
 3809SOL     OW12325   5.298   2.692   1.367
 3809SOL    HW112326   5.290   2.607   1.316
 3809SOL    HW212327   5.363   2.753   1.321
 3810SOL     OW12328   5.882   2.688   3.629
 3810SOL    HW112329   5.863   2.654   3.721
 3810SOL    HW212330   5.966   2.647   3.594
 3811SOL     OW12331   0.422   6.566   4.904
 3811SOL    HW112332   0.401   6.540   4.810
 3811SOL    HW212333   0.420   6.485   4.962
 3812SOL     OW12334   3.483   4.531   5.618
 3812SOL    HW112335   3.454   4.623   5.643
 3812SOL    HW212336   3.468   4.469   5.694
 3813SOL     OW12337   6.057   3.657   0.516
 3813SOL    HW112338   6.000   3.729   0.475
 3813SOL    HW212339   6.023   3.636   0.607
 3814SOL     OW12340   6.814   6.930   4.670
 3814SOL    HW112341   6.736   6.924   4.607
 3814SOL    HW212342   6.862   6.842   4.672
 3815SOL     OW12343   3.819   3.033   0.917
 3815SOL    HW112344   3.830   2.940   0.883
 3815SOL    HW212345   3.725   3.063   0.903
 3816SOL     OW12346   1.075   5.111   6.337
 3816SOL    HW112347   1.148   5.153   6.391
 3816SOL    HW212348   0.996   5.172   6.336
 3817SOL     OW12349   5.003   3.752   2.318
 3817SOL    HW112350   5.056   3.747   2.233
 3817SOL    HW212351   4.950   3.837   2.319
 3818SOL     OW12352   6.293   1.168   0.490
 3818SOL    HW112353   6.264   1.237   0.424
 3818SOL    HW212354   6.388   1.186   0.517
 3819SOL     OW12355   5.999   4.643   2.741
 3819SOL    HW112356   6.028   4.588   2.663
 3819SOL    HW212357   5.930   4.592   2.793
 3820SOL     OW12358   5.517   0.324   4.077
 3820SOL    HW112359   5.568   0.340   3.993
 3820SOL    HW212360   5.445   0.257   4.061
 3821SOL     OW12361   1.281   0.686   1.811
 3821SOL    HW112362   1.214   0.618   1.841
 3821SOL    HW212363   1.373   0.656   1.836
 3822SOL     OW12364   1.560   0.065   0.283
 3822SOL    HW112365   1.584   0.126   0.359
 3822SOL    HW212366   1.589   0.107   0.197
 3823SOL     OW12367   3.621   3.520   6.237
 3823SOL    HW112368   3.712   3.482   6.222
 3823SOL    HW212369   3.556   3.479   6.172
 3824SOL     OW12370   0.796   2.437   0.676
 3824SOL    HW112371   0.786   2.502   0.601
 3824SOL    HW212372   0.766   2.346   0.646
 3825SOL     OW12373   0.711   4.763   6.899
 3825SOL    HW112374   0.777   4.739   6.971
 3825SOL    HW212375   0.761   4.792   6.817
 3826SOL     OW12376   0.193   3.564   1.089
 3826SOL    HW112377   0.215   3.472   1.059
 3826SOL    HW212378   0.198   3.569   1.189
 3827SOL     OW12379   1.294   1.025   1.400
 3827SOL    HW112380   1.256   1.033   1.492
 3827SOL    HW212381   1.331   0.933   1.386
 3828SOL     OW12382   3.432   3.771   3.811
 3828SOL    HW112383   3.412   3.864   3.780
 3828SOL    HW212384   3.494   3.774   3.889
 3829SOL     OW12385   0.651   4.674   1.789
 3829SOL    HW112386   0.584   4.607   1.756
 3829SOL    HW212387   0.665   4.744   1.719
 3830SOL     OW12388   0.741   1.432   5.591
 3830SOL    HW112389   0.733   1.369   5.668
 3830SOL    HW212390   0.726   1.383   5.506
 3831SOL     OW12391   4.519   2.475   2.044
 3831SOL    HW112392   4.554   2.551   2.098
 3831SOL    HW212393   4.480   2.510   1.959
 3832SOL     OW12394   6.776   0.602   2.388
 3832SOL    HW112395   6.763   0.504   2.380
 3832SOL    HW212396   6.803   0.625   2.482
 3833SOL     OW12397   0.680   5.801   6.351
 3833SOL    HW112398   0.644   5.708   6.341
 3833SOL    HW212399   0.646   5.840   6.436
 3834SOL     OW12400   3.576   4.316   0.607
 3834SOL    HW112401   3.544   4.404   0.642
 3834SOL    HW212402   3.528   4.295   0.522
 3835SOL     OW12403   4.162   6.239   4.943
 3835SOL    HW112404   4.166   6.176   5.020
 3835SOL    HW212405   4.212   6.202   4.865
 3836SOL     OW12406   6.868   4.976   5.869
 3836SOL    HW112407   6.810   5.056   5.884
 3836SOL    HW212408   6.964   5.003   5.872
 3837SOL     OW12409   4.657   4.225   5.780
 3837SOL    HW112410   4.590   4.178   5.723
 3837SOL    HW212411   4.611   4.261   5.862
 3838SOL     OW12412   0.866   2.654   4.144
 3838SOL    HW112413   0.840   2.618   4.054
 3838SOL    HW212414   0.932   2.728   4.133
 3839SOL     OW12415   5.275   1.557   2.714
 3839SOL    HW112416   5.184   1.586   2.743
 3839SOL    HW212417   5.315   1.497   2.784
 3840SOL     OW12418   2.862   1.131   6.152
 3840SOL    HW112419   2.915   1.213   6.130
 3840SOL    HW212420   2.765   1.155   6.158
 3841SOL     OW12421   0.283   3.139   4.243
 3841SOL    HW112422   0.203   3.118   4.186
 3841SOL    HW212423   0.324   3.054   4.275
 3842SOL     OW12424   1.883   2.474   3.193
 3842SOL    HW112425   1.827   2.555   3.208
 3842SOL    HW212426   1.973   2.487   3.234
 3843SOL     OW12427   5.518   3.775   2.568
 3843SOL    HW112428   5.426   3.756   2.604
 3843SOL    HW212429   5.582   3.707   2.604
 3844SOL     OW12430   1.123   3.148   5.391
 3844SOL    HW112431   1.222   3.158   5.401
 3844SOL    HW212432   1.101   3.051   5.377
 3845SOL     OW12433   3.358   4.456   5.886
 3845SOL    HW112434   3.306   4.411   5.959
 3845SOL    HW212435   3.298   4.517   5.835
 3846SOL     OW12436   1.316   4.658   3.685
 3846SOL    HW112437   1.367   4.583   3.727
 3846SOL    HW212438   1.239   4.683   3.744
 3847SOL     OW12439   5.199   2.903   4.716
 3847SOL    HW112440   5.194   2.849   4.632
 3847SOL    HW212441   5.175   2.998   4.697
 3848SOL     OW12442   4.689   4.638   3.288
 3848SOL    HW112443   4.623   4.668   3.356
 3848SOL    HW212444   4.779   4.674   3.310
 3849SOL     OW12445   0.740   1.558   6.410
 3849SOL    HW112446   0.778   1.625   6.473
 3849SOL    HW212447   0.814   1.517   6.356
 3850SOL     OW12448   2.918   3.287   1.582
 3850SOL    HW112449   2.877   3.219   1.641
 3850SOL    HW212450   3.014   3.301   1.608
 3851SOL     OW12451   0.611   3.929   3.342
 3851SOL    HW112452   0.622   3.997   3.269
 3851SOL    HW212453   0.549   3.857   3.311
 3852SOL     OW12454   4.181   6.605   3.916
 3852SOL    HW112455   4.085   6.579   3.920
 3852SOL    HW212456   4.212   6.603   3.821
 3853SOL     OW12457   0.941   4.111   3.804
 3853SOL    HW112458   0.958   4.078   3.897
 3853SOL    HW212459   0.998   4.061   3.740
 3854SOL     OW12460   1.617   2.209   2.935
 3854SOL    HW112461   1.600   2.293   2.986
 3854SOL    HW212462   1.670   2.229   2.853
 3855SOL     OW12463   4.722   6.409   6.309
 3855SOL    HW112464   4.686   6.334   6.253
 3855SOL    HW212465   4.798   6.453   6.260
 3856SOL     OW12466   6.626   0.353   5.659
 3856SOL    HW112467   6.645   0.433   5.715
 3856SOL    HW212468   6.547   0.304   5.697
 3857SOL     OW12469   0.939   6.195   6.372
 3857SOL    HW112470   0.919   6.102   6.403
 3857SOL    HW212471   0.860   6.254   6.390
 3858SOL     OW12472   2.289   0.952   5.481
 3858SOL    HW112473   2.248   0.918   5.396
 3858SOL    HW212474   2.219   0.998   5.536
 3859SOL     OW12475   5.862   1.561   1.512
 3859SOL    HW112476   5.870   1.661   1.512
 3859SOL    HW212477   5.913   1.523   1.434
 3860SOL     OW12478   1.804   1.909   3.957
 3860SOL    HW112479   1.843   1.818   3.968
 3860SOL    HW212480   1.717   1.914   4.006
 3861SOL     OW12481   4.353   5.496   3.796
 3861SOL    HW112482   4.448   5.471   3.779
 3861SOL    HW212483   4.300   5.485   3.711
 3862SOL     OW12484   0.497   0.687   4.994
 3862SOL    HW112485   0.562   0.763   5.001
 3862SOL    HW212486   0.533   0.619   4.931
 3863SOL     OW12487   5.808   2.455   6.964
 3863SOL    HW112488   5.712   2.427   6.954
 3863SOL    HW212489   5.826   2.477   0.038
 3864SOL     OW12490   2.036   1.077   5.886
 3864SOL    HW112491   2.126   1.118   5.897
 3864SOL    HW212492   2.001   1.047   5.975
 3865SOL     OW12493   4.333   0.842   0.682
 3865SOL    HW112494   4.402   0.851   0.753
 3865SOL    HW212495   4.251   0.798   0.720
 3866SOL     OW12496   4.366   7.013   0.203
 3866SOL    HW112497   4.376   6.946   0.130
 3866SOL    HW212498   4.373   0.084   0.166
 3867SOL     OW12499   0.447   5.942   4.424
 3867SOL    HW112500   0.523   5.946   4.488
 3867SOL    HW212501   0.363   5.918   4.474
 3868SOL     OW12502   3.146   6.840   0.645
 3868SOL    HW112503   3.132   6.771   0.574
 3868SOL    HW212504   3.108   6.807   0.731
 3869SOL     OW12505   6.348   3.342   4.429
 3869SOL    HW112506   6.308   3.342   4.337
 3869SOL    HW212507   6.340   3.433   4.469
 3870SOL     OW12508   6.434   6.758   0.082
 3870SOL    HW112509   6.450   6.817   0.161
 3870SOL    HW212510   6.515   6.760   0.023
 3871SOL     OW12511   3.862   1.457   3.042
 3871SOL    HW112512   3.774   1.419   3.071
 3871SOL    HW212513   3.932   1.434   3.109
 3872SOL     OW12514   3.867   3.005   4.073
 3872SOL    HW112515   3.951   2.973   4.028
 3872SOL    HW212516   3.882   3.009   4.172
 3873SOL     OW12517   6.499   3.539   1.290
 3873SOL    HW112518   6.578   3.585   1.331
 3873SOL    HW212519   6.528   3.488   1.209
 3874SOL     OW12520   4.696   6.135   6.649
 3874SOL    HW112521   4.747   6.219   6.667
 3874SOL    HW212522   4.695   6.079   6.731
 3875SOL     OW12523   2.154   3.107   2.337
 3875SOL    HW112524   2.163   3.206   2.350
 3875SOL    HW212525   2.202   3.079   2.255
 3876SOL     OW12526   3.963   5.927   1.257
 3876SOL    HW112527   4.004   5.895   1.343
 3876SOL    HW212528   4.018   6.003   1.221
 3877SOL     OW12529   5.572   2.584   0.671
 3877SOL    HW112530   5.487   2.628   0.642
 3877SOL    HW212531   5.649   2.626   0.622
 3878SOL     OW12532   3.583   6.966   4.528
 3878SOL    HW112533   3.580   0.045   4.539
 3878SOL    HW212534   3.504   6.937   4.473
 3879SOL     OW12535   5.921   4.903   0.648
 3879SOL    HW112536   5.947   4.976   0.585
 3879SOL    HW212537   5.865   4.835   0.599
 3880SOL     OW12538   6.017   4.964   4.134
 3880SOL    HW112539   5.945   4.901   4.165
 3880SOL    HW212540   6.033   5.033   4.203
 3881SOL     OW12541   1.578   3.357   1.860
 3881SOL    HW112542   1.662   3.335   1.810
 3881SOL    HW212543   1.537   3.439   1.821
 3882SOL     OW12544   1.439   0.963   5.738
 3882SOL    HW112545   1.346   0.928   5.744
 3882SOL    HW212546   1.467   0.968   5.643
 3883SOL     OW12547   4.734   1.301   3.002
 3883SOL    HW112548   4.795   1.253   3.065
 3883SOL    HW212549   4.646   1.317   3.047
 3884SOL     OW12550   0.599   5.533   2.545
 3884SOL    HW112551   0.666   5.605   2.565
 3884SOL    HW212552   0.565   5.496   2.631
 3885SOL     OW12553   5.706   6.654   2.753
 3885SOL    HW112554   5.645   6.726   2.720
 3885SOL    HW212555   5.759   6.618   2.677
 3886SOL     OW12556   5.561   5.276   4.840
 3886SOL    HW112557   5.487   5.296   4.775
 3886SOL    HW212558   5.584   5.359   4.890
 3887SOL     OW12559   0.863   0.652   0.106
 3887SOL    HW112560   0.961   0.671   0.100
 3887SOL    HW212561   0.850   0.558   0.136
 3888SOL     OW12562   6.746   0.612   5.101
 3888SOL    HW112563   6.765   0.663   5.017
 3888SOL    HW212564   6.659   0.642   5.140
 3889SOL     OW12565   0.072   3.809   0.427
 3889SOL    HW112566   0.022   3.785   0.344
 3889SOL    HW212567   0.157   3.856   0.403
 3890SOL     OW12568   5.938   5.829   3.471
 3890SOL    HW112569   5.846   5.844   3.505
 3890SOL    HW212570   5.953   5.731   3.458
 3891SOL     OW12571   6.199   4.698   4.228
 3891SOL    HW112572   6.150   4.682   4.142
 3891SOL    HW212573   6.135   4.730   4.298
 3892SOL     OW12574   6.781   2.231   1.687
 3892SOL    HW112575   6.868   2.194   1.718
 3892SOL    HW212576   6.719   2.155   1.663
 3893SOL     OW12577   4.663   4.649   0.458
 3893SOL    HW112578   4.723   4.726   0.479
 3893SOL    HW212579   4.719   4.569   0.437
 3894SOL     OW12580   3.877   1.708   0.648
 3894SOL    HW112581   3.912   1.760   0.571
 3894SOL    HW212582   3.821   1.632   0.615
 3895SOL     OW12583   1.428   0.713   5.413
 3895SOL    HW112584   1.493   0.658   5.464
 3895SOL    HW212585   1.336   0.701   5.452
 3896SOL     OW12586   6.581   0.790   5.961
 3896SOL    HW112587   6.545   0.702   5.993
 3896SOL    HW212588   6.506   0.855   5.954
 3897SOL     OW12589   3.224   5.353   2.624
 3897SOL    HW112590   3.233   5.365   2.723
 3897SOL    HW212591   3.148   5.291   2.605
 3898SOL     OW12592   2.885   3.796   5.173
 3898SOL    HW112593   2.902   3.880   5.123
 3898SOL    HW212594   2.795   3.802   5.217
 3899SOL     OW12595   5.868   0.056   4.931
 3899SOL    HW112596   5.867   0.114   4.849
 3899SOL    HW212597   5.794   7.010   4.926
 3900SOL     OW12598   4.911   3.601   3.992
 3900SOL    HW112599   4.959   3.634   3.910
 3900SOL    HW212600   4.899   3.502   3.986
 3901SOL     OW12601   2.938   0.336   6.011
 3901SOL    HW112602   3.003   0.374   6.077
 3901SOL    HW212603   2.871   0.279   6.058
 3902SOL     OW12604   5.319   3.559   1.922
 3902SOL    HW112605   5.347   3.543   1.828
 3902SOL    HW212606   5.323   3.657   1.942
 3903SOL     OW12607   3.761   6.138   6.547
 3903SOL    HW112608   3.690   6.068   6.546
 3903SOL    HW212609   3.770   6.178   6.456
 3904SOL     OW12610   2.168   1.197   4.644
 3904SOL    HW112611   2.199   1.205   4.739
 3904SOL    HW212612   2.081   1.244   4.634
 3905SOL     OW12613   0.089   6.992   6.383
 3905SOL    HW112614   0.145   6.920   6.343
 3905SOL    HW212615   0.000   6.955   6.409
 3906SOL     OW12616   4.178   5.093   5.790
 3906SOL    HW112617   4.129   5.153   5.726
 3906SOL    HW212618   4.216   5.015   5.740
 3907SOL     OW12619   5.273   0.035   5.130
 3907SOL    HW112620   5.204   0.094   5.171
 3907SOL    HW212621   5.229   6.973   5.095
 3908SOL     OW12622   1.221   1.515   0.690
 3908SOL    HW112623   1.132   1.470   0.694
 3908SOL    HW212624   1.291   1.455   0.729
 3909SOL     OW12625   0.083   5.098   5.409
 3909SOL    HW112626   0.031   5.118   5.326
 3909SOL    HW212627   0.169   5.052   5.385
 3910SOL     OW12628   3.610   3.775   1.936
 3910SOL    HW112629   3.669   3.828   1.875
 3910SOL    HW212630   3.650   3.685   1.952
 3911SOL     OW12631   4.502   0.736   0.026
 3911SOL    HW112632   4.559   0.760   6.969
 3911SOL    HW212633   4.463   0.645   0.013
 3912SOL     OW12634   4.095   0.101   5.897
 3912SOL    HW112635   4.112   0.199   5.895
 3912SOL    HW212636   4.033   0.076   5.822
 3913SOL     OW12637   2.350   6.723   5.836
 3913SOL    HW112638   2.335   6.715   5.738
 3913SOL    HW212639   2.276   6.775   5.878
 3914SOL     OW12640   4.479   1.078   0.577
 3914SOL    HW112641   4.478   1.144   0.652
 3914SOL    HW212642   4.411   1.007   0.594
 3915SOL     OW12643   3.339   5.784   2.341
 3915SOL    HW112644   3.337   5.866   2.398
 3915SOL    HW212645   3.270   5.719   2.372
 3916SOL     OW12646   1.520   5.702   3.997
 3916SOL    HW112647   1.561   5.615   3.970
 3916SOL    HW212648   1.533   5.716   4.095
 3917SOL     OW12649   1.145   4.802   0.075
 3917SOL    HW112650   1.092   4.784   0.158
 3917SOL    HW212651   1.085   4.840   0.005
 3918SOL     OW12652   4.701   0.215   2.460
 3918SOL    HW112653   4.628   0.152   2.486
 3918SOL    HW212654   4.790   0.170   2.474
 3919SOL     OW12655   2.424   5.818   6.534
 3919SOL    HW112656   2.362   5.748   6.500
 3919SOL    HW212657   2.408   5.904   6.484
 3920SOL     OW12658   2.819   3.128   0.386
 3920SOL    HW112659   2.838   3.226   0.384
 3920SOL    HW212660   2.841   3.087   0.297
 3921SOL     OW12661   6.751   3.310   1.291
 3921SOL    HW112662   6.690   3.348   1.222
 3921SOL    HW212663   6.836   3.363   1.293
 3922SOL     OW12664   6.015   4.368   1.186
 3922SOL    HW112665   6.108   4.382   1.153
 3922SOL    HW212666   6.006   4.406   1.278
 3923SOL     OW12667   6.766   1.838   0.060
 3923SOL    HW112668   6.813   1.776   0.124
 3923SOL    HW212669   6.682   1.871   0.102
 3924SOL     OW12670   0.489   4.981   2.938
 3924SOL    HW112671   0.456   4.933   3.019
 3924SOL    HW212672   0.472   4.925   2.857
 3925SOL     OW12673   4.092   4.520   0.841
 3925SOL    HW112674   3.995   4.541   0.826
 3925SOL    HW212675   4.100   4.433   0.890
 3926SOL     OW12676   6.829   5.521   3.069
 3926SOL    HW112677   6.747   5.560   3.112
 3926SOL    HW212678   6.909   5.574   3.095
 3927SOL     OW12679   6.794   3.727   3.511
 3927SOL    HW112680   6.807   3.704   3.607
 3927SOL    HW212681   6.735   3.807   3.504
 3928SOL     OW12682   2.869   5.496   5.858
 3928SOL    HW112683   2.830   5.564   5.796
 3928SOL    HW212684   2.797   5.459   5.916
 3929SOL     OW12685   0.637   1.946   5.723
 3929SOL    HW112686   0.678   2.018   5.668
 3929SOL    HW212687   0.706   1.907   5.784
 3930SOL     OW12688   2.503   1.475   4.106
 3930SOL    HW112689   2.593   1.434   4.088
 3930SOL    HW212690   2.507   1.525   4.192
 3931SOL     OW12691   1.739   1.959   2.960
 3931SOL    HW112692   1.656   2.014   2.948
 3931SOL    HW212693   1.777   1.977   3.051
 3932SOL     OW12694   2.017   3.858   2.666
 3932SOL    HW112695   2.076   3.870   2.745
 3932SOL    HW212696   1.921   3.868   2.694
 3933SOL     OW12697   1.993   6.776   0.273
 3933SOL    HW112698   1.931   6.854   0.273
 3933SOL    HW212699   1.944   6.695   0.241
 3934SOL     OW12700   6.845   0.911   1.090
 3934SOL    HW112701   6.913   0.952   1.150
 3934SOL    HW212702   6.805   0.982   1.032
 3935SOL     OW12703   2.069   6.948   6.945
 3935SOL    HW112704   2.011   6.895   7.006
 3935SOL    HW212705   2.075   0.021   6.978
 3936SOL     OW12706   6.871   5.178   5.611
 3936SOL    HW112707   6.874   5.087   5.652
 3936SOL    HW212708   6.938   5.183   5.537
 3937SOL     OW12709   6.900   0.203   2.031
 3937SOL    HW112710   6.877   0.105   2.027
 3937SOL    HW212711   6.936   0.225   2.122
 3938SOL     OW12712   0.005   1.856   3.733
 3938SOL    HW112713   7.002   1.890   3.642
 3938SOL    HW212714   6.972   1.904   3.802
 3939SOL     OW12715   3.094   1.873   1.845
 3939SOL    HW112716   3.086   1.970   1.867
 3939SOL    HW212717   3.076   1.819   1.926
 3940SOL     OW12718   4.085   5.372   2.220
 3940SOL    HW112719   4.139   5.450   2.250
 3940SOL    HW212720   4.011   5.403   2.162
 3941SOL     OW12721   5.044   1.375   6.091
 3941SOL    HW112722   5.002   1.438   6.158
 3941SOL    HW212723   5.141   1.365   6.112
 3942SOL     OW12724   0.156   0.264   6.338
 3942SOL    HW112725   0.246   0.238   6.302
 3942SOL    HW212726   0.099   0.182   6.344
 3943SOL     OW12727   1.412   4.079   2.768
 3943SOL    HW112728   1.316   4.070   2.742
 3943SOL    HW212729   1.435   4.176   2.780
 3944SOL     OW12730   5.789   3.447   5.742
 3944SOL    HW112731   5.730   3.439   5.823
 3944SOL    HW212732   5.760   3.380   5.673
 3945SOL     OW12733   0.929   2.664   1.947
 3945SOL    HW112734   0.864   2.731   1.984
 3945SOL    HW212735   0.904   2.572   1.978
 3946SOL     OW12736   5.820   5.474   5.571
 3946SOL    HW112737   5.827   5.505   5.665
 3946SOL    HW212738   5.834   5.375   5.567
 3947SOL     OW12739   6.226   5.025   1.265
 3947SOL    HW112740   6.170   5.047   1.185
 3947SOL    HW212741   6.291   4.953   1.241
 3948SOL     OW12742   0.930   5.408   1.625
 3948SOL    HW112743   0.966   5.340   1.560
 3948SOL    HW212744   0.971   5.497   1.606
 3949SOL     OW12745   6.024   0.540   2.830
 3949SOL    HW112746   6.079   0.480   2.888
 3949SOL    HW212747   5.963   0.595   2.887
 3950SOL     OW12748   3.075   4.292   1.722
 3950SOL    HW112749   3.156   4.346   1.700
 3950SOL    HW212750   3.016   4.344   1.785
 3951SOL     OW12751   0.035   6.951   1.059
 3951SOL    HW112752   7.021   6.969   0.968
 3951SOL    HW212753   0.125   6.995   1.070
 3952SOL     OW12754   6.704   4.023   3.216
 3952SOL    HW112755   6.693   4.013   3.315
 3952SOL    HW212756   6.624   3.985   3.170
 3953SOL     OW12757   3.983   4.107   0.781
 3953SOL    HW112758   3.963   4.127   0.685
 3953SOL    HW212759   3.924   4.033   0.813
 3954SOL     OW12760   5.602   5.522   4.935
 3954SOL    HW112761   5.595   5.514   5.034
 3954SOL    HW212762   5.524   5.574   4.900
 3955SOL     OW12763   3.577   5.787   5.881
 3955SOL    HW112764   3.673   5.814   5.870
 3955SOL    HW212765   3.543   5.751   5.794
 3956SOL     OW12766   0.286   1.156   2.799
 3956SOL    HW112767   0.223   1.082   2.823
 3956SOL    HW212768   0.373   1.142   2.846
 3957SOL     OW12769   5.095   6.841   3.604
 3957SOL    HW112770   4.999   6.864   3.593
 3957SOL    HW212771   5.105   6.770   3.673
 3958SOL     OW12772   5.617   0.850   5.921
 3958SOL    HW112773   5.607   0.854   5.821
 3958SOL    HW212774   5.573   0.768   5.956
 3959SOL     OW12775   3.985   6.306   1.366
 3959SOL    HW112776   4.021   6.239   1.302
 3959SOL    HW212777   3.946   6.384   1.316
 3960SOL     OW12778   4.188   1.360   6.670
 3960SOL    HW112779   4.092   1.340   6.692
 3960SOL    HW212780   4.247   1.313   6.736
 3961SOL     OW12781   5.837   2.492   1.664
 3961SOL    HW112782   5.776   2.563   1.629
 3961SOL    HW212783   5.806   2.462   1.754
 3962SOL     OW12784   2.012   4.673   6.954
 3962SOL    HW112785   1.937   4.717   7.003
 3962SOL    HW212786   2.099   4.700   6.996
 3963SOL     OW12787   4.801   4.078   4.516
 3963SOL    HW112788   4.880   4.120   4.471
 3963SOL    HW212789   4.781   3.990   4.473
 3964SOL     OW12790   4.398   4.934   3.738
 3964SOL    HW112791   4.348   4.852   3.712
 3964SOL    HW212792   4.480   4.908   3.790
 3965SOL     OW12793   4.176   3.165   5.914
 3965SOL    HW112794   4.140   3.102   5.845
 3965SOL    HW212795   4.270   3.140   5.936
 3966SOL     OW12796   5.775   5.675   0.344
 3966SOL    HW112797   5.808   5.768   0.329
 3966SOL    HW212798   5.675   5.676   0.349
 3967SOL     OW12799   1.401   4.250   2.454
 3967SOL    HW112800   1.423   4.154   2.433
 3967SOL    HW212801   1.471   4.288   2.515
 3968SOL     OW12802   6.087   0.191   1.282
 3968SOL    HW112803   6.139   0.110   1.309
 3968SOL    HW212804   6.012   0.206   1.347
 3969SOL     OW12805   1.769   3.626   2.851
 3969SOL    HW112806   1.780   3.724   2.835
 3969SOL    HW212807   1.727   3.611   2.941
 3970SOL     OW12808   5.707   6.014   3.768
 3970SOL    HW112809   5.732   5.960   3.687
 3970SOL    HW212810   5.781   6.078   3.789
 3971SOL     OW12811   2.666   5.130   2.018
 3971SOL    HW112812   2.749   5.133   1.963
 3971SOL    HW212813   2.689   5.104   2.112
 3972SOL     OW12814   1.247   5.289   0.872
 3972SOL    HW112815   1.266   5.217   0.804
 3972SOL    HW212816   1.200   5.249   0.950
 3973SOL     OW12817   0.952   4.425   6.101
 3973SOL    HW112818   0.896   4.370   6.039
 3973SOL    HW212819   1.048   4.400   6.091
 3974SOL     OW12820   1.276   0.720   4.899
 3974SOL    HW112821   1.193   0.753   4.944
 3974SOL    HW212822   1.292   0.624   4.926
 3975SOL     OW12823   5.137   7.018   5.862
 3975SOL    HW112824   5.068   6.952   5.835
 3975SOL    HW212825   5.227   6.988   5.828
 3976SOL     OW12826   1.434   5.388   2.242
 3976SOL    HW112827   1.459   5.292   2.227
 3976SOL    HW212828   1.341   5.403   2.209
 3977SOL     OW12829   2.817   4.447   5.752
 3977SOL    HW112830   2.818   4.352   5.784
 3977SOL    HW212831   2.856   4.451   5.659
 3978SOL     OW12832   5.660   6.561   4.886
 3978SOL    HW112833   5.656   6.470   4.928
 3978SOL    HW212834   5.620   6.556   4.794
 3979SOL     OW12835   2.972   5.800   1.255
 3979SOL    HW112836   2.998   5.720   1.309
 3979SOL    HW212837   2.920   5.771   1.175
 3980SOL     OW12838   0.221   5.781   6.674
 3980SOL    HW112839   0.212   5.774   6.575
 3980SOL    HW212840   0.145   5.734   6.718
 3981SOL     OW12841   2.057   1.534   0.375
 3981SOL    HW112842   2.138   1.560   0.322
 3981SOL    HW212843   1.975   1.544   0.319
 3982SOL     OW12844   1.956   0.261   4.113
 3982SOL    HW112845   1.881   0.308   4.066
 3982SOL    HW212846   1.919   0.187   4.169
 3983SOL     OW12847   4.716   5.489   4.449
 3983SOL    HW112848   4.710   5.398   4.489
 3983SOL    HW212849   4.631   5.511   4.402
 3984SOL     OW12850   0.196   0.756   2.258
 3984SOL    HW112851   0.244   0.764   2.346
 3984SOL    HW212852   0.203   0.662   2.225
 3985SOL     OW12853   3.380   4.755   6.394
 3985SOL    HW112854   3.424   4.845   6.393
 3985SOL    HW212855   3.404   4.707   6.478
 3986SOL     OW12856   6.270   2.040   2.789
 3986SOL    HW112857   6.320   2.107   2.843
 3986SOL    HW212858   6.229   1.972   2.849
 3987SOL     OW12859   2.978   5.205   4.187
 3987SOL    HW112860   2.918   5.167   4.257
 3987SOL    HW212861   3.072   5.175   4.204
 3988SOL     OW12862   4.024   3.635   6.810
 3988SOL    HW112863   4.099   3.698   6.831
 3988SOL    HW212864   4.053   3.574   6.736
 3989SOL     OW12865   6.732   2.226   6.808
 3989SOL    HW112866   6.778   2.162   6.869
 3989SOL    HW212867   6.647   2.257   6.850
 3990SOL     OW12868   5.354   2.415   2.869
 3990SOL    HW112869   5.288   2.487   2.888
 3990SOL    HW212870   5.438   2.455   2.832
 3991SOL     OW12871   6.091   1.098   1.904
 3991SOL    HW112872   6.069   1.020   1.963
 3991SOL    HW212873   6.051   1.084   1.813
 3992SOL     OW12874   3.449   2.185   6.828
 3992SOL    HW112875   3.549   2.192   6.834
 3992SOL    HW212876   3.414   2.259   6.770
 3993SOL     OW12877   0.704   2.060   3.107
 3993SOL    HW112878   0.803   2.043   3.114
 3993SOL    HW212879   0.658   2.021   3.186
 3994SOL     OW12880   0.237   0.989   6.331
 3994SOL    HW112881   0.165   0.972   6.264
 3994SOL    HW212882   0.286   0.904   6.349
 3995SOL     OW12883   1.793   3.976   4.670
 3995SOL    HW112884   1.850   3.897   4.649
 3995SOL    HW212885   1.850   4.057   4.683
 3996SOL     OW12886   1.004   1.307   4.398
 3996SOL    HW112887   0.979   1.244   4.471
 3996SOL    HW212888   1.063   1.379   4.435
 3997SOL     OW12889   5.363   1.536   3.487
 3997SOL    HW112890   5.264   1.528   3.500
 3997SOL    HW212891   5.409   1.527   3.575
 3998SOL     OW12892   4.095   1.378   2.834
 3998SOL    HW112893   4.089   1.311   2.760
 3998SOL    HW212894   4.003   1.403   2.864
 3999SOL     OW12895   5.774   3.512   4.106
 3999SOL    HW112896   5.820   3.518   4.194
 3999SOL    HW212897   5.729   3.422   4.098
 4000SOL     OW12898   3.366   5.662   3.239
 4000SOL    HW112899   3.328   5.750   3.209
 4000SOL    HW212900   3.420   5.676   3.322
 4001SOL     OW12901   2.835   2.134   4.023
 4001SOL    HW112902   2.737   2.117   4.033
 4001SOL    HW212903   2.856   2.154   3.928
 4002SOL     OW12904   2.902   2.566   0.698
 4002SOL    HW112905   2.978   2.503   0.711
 4002SOL    HW212906   2.936   2.660   0.694
 4003SOL     OW12907   3.214   6.224   5.092
 4003SOL    HW112908   3.152   6.266   5.158
 4003SOL    HW212909   3.287   6.289   5.070
 4004SOL     OW12910   5.775   2.341   3.542
 4004SOL    HW112911   5.677   2.355   3.554
 4004SOL    HW212912   5.797   2.334   3.445
 4005SOL     OW12913   5.417   5.716   0.635
 4005SOL    HW112914   5.453   5.798   0.680
 4005SOL    HW212915   5.345   5.675   0.691
 4006SOL     OW12916   3.769   5.618   3.186
 4006SOL    HW112917   3.801   5.536   3.138
 4006SOL    HW212918   3.739   5.593   3.278
 4007SOL     OW12919   1.048   2.741   1.708
 4007SOL    HW112920   1.098   2.662   1.672
 4007SOL    HW212921   0.991   2.713   1.785
 4008SOL     OW12922   3.534   1.984   3.633
 4008SOL    HW112923   3.467   1.910   3.633
 4008SOL    HW212924   3.503   2.058   3.692
 4009SOL     OW12925   5.586   3.035   0.778
 4009SOL    HW112926   5.490   3.018   0.801
 4009SOL    HW212927   5.607   3.132   0.791
 4010SOL     OW12928   2.533   2.791   1.757
 4010SOL    HW112929   2.471   2.715   1.780
 4010SOL    HW212930   2.481   2.866   1.717
 4011SOL     OW12931   0.268   1.067   1.833
 4011SOL    HW112932   0.231   1.061   1.926
 4011SOL    HW212933   0.289   1.162   1.811
 4012SOL     OW12934   3.924   5.575   1.671
 4012SOL    HW112935   3.872   5.652   1.710
 4012SOL    HW212936   3.863   5.518   1.617
 4013SOL     OW12937   3.032   6.565   0.021
 4013SOL    HW112938   3.113   6.559   6.983
 4013SOL    HW212939   3.057   6.537   0.114
 4014SOL     OW12940   3.788   6.237   3.589
 4014SOL    HW112941   3.781   6.153   3.643
 4014SOL    HW212942   3.781   6.214   3.491
 4015SOL     OW12943   4.983   5.076   6.287
 4015SOL    HW112944   4.905   5.137   6.270
 4015SOL    HW212945   4.949   4.985   6.308
 4016SOL     OW12946   1.922   6.072   6.742
 4016SOL    HW112947   2.017   6.051   6.765
 4016SOL    HW212948   1.876   5.990   6.708
 4017SOL     OW12949   0.390   6.319   1.078
 4017SOL    HW112950   0.325   6.256   1.122
 4017SOL    HW212951   0.406   6.291   0.984
 4018SOL     OW12952   5.159   6.166   3.411
 4018SOL    HW112953   5.065   6.179   3.379
 4018SOL    HW212954   5.201   6.256   3.427
 4019SOL     OW12955   5.814   3.812   2.798
 4019SOL    HW112956   5.793   3.753   2.720
 4019SOL    HW212957   5.737   3.810   2.862
 4020SOL     OW12958   5.304   2.421   6.035
 4020SOL    HW112959   5.351   2.458   5.955
 4020SOL    HW212960   5.299   2.322   6.028
 4021SOL     OW12961   3.679   3.692   6.024
 4021SOL    HW112962   3.764   3.673   5.976
 4021SOL    HW212963   3.656   3.616   6.085
 4022SOL     OW12964   4.047   0.060   0.275
 4022SOL    HW112965   4.147   0.060   0.275
 4022SOL    HW212966   4.013   0.147   0.311
 4023SOL     OW12967   6.327   2.029   5.278
 4023SOL    HW112968   6.288   2.112   5.320
 4023SOL    HW212969   6.257   1.958   5.274
 4024SOL     OW12970   3.731   6.092   3.918
 4024SOL    HW112971   3.696   6.061   4.006
 4024SOL    HW212972   3.813   6.146   3.932
 4025SOL     OW12973   0.950   6.005   4.404
 4025SOL    HW112974   0.904   6.005   4.316
 4025SOL    HW212975   0.972   5.910   4.430
 4026SOL     OW12976   6.608   6.142   4.573
 4026SOL    HW112977   6.564   6.080   4.507
 4026SOL    HW212978   6.606   6.101   4.664
 4027SOL     OW12979   3.863   4.065   1.882
 4027SOL    HW112980   3.952   4.021   1.898
 4027SOL    HW212981   3.877   4.147   1.827
 4028SOL     OW12982   1.214   2.280   3.980
 4028SOL    HW112983   1.132   2.331   4.009
 4028SOL    HW212984   1.292   2.342   3.977
 4029SOL     OW12985   1.652   4.033   6.647
 4029SOL    HW112986   1.677   3.975   6.725
 4029SOL    HW212987   1.589   3.983   6.587
 4030SOL     OW12988   1.292   1.952   5.908
 4030SOL    HW112989   1.211   1.975   5.962
 4030SOL    HW212990   1.270   1.878   5.844
 4031SOL     OW12991   4.927   6.222   3.300
 4031SOL    HW112992   4.940   6.191   3.206
 4031SOL    HW212993   4.833   6.202   3.330
 4032SOL     OW12994   5.652   0.237   2.932
 4032SOL    HW112995   5.599   0.168   2.982
 4032SOL    HW212996   5.651   0.216   2.835
 4033SOL     OW12997   3.206   2.960   2.963
 4033SOL    HW112998   3.272   2.916   2.902
 4033SOL    HW212999   3.154   3.028   2.911
 4034SOL     OW13000   5.525   1.912   5.434
 4034SOL    HW113001   5.578   1.949   5.510
 4034SOL    HW213002   5.585   1.856   5.376
 4035SOL     OW13003   6.427   3.816   1.315
 4035SOL    HW113004   6.434   3.717   1.308
 4035SOL    HW213005   6.382   3.841   1.400
 4036SOL     OW13006   5.622   6.448   3.266
 4036SOL    HW113007   5.643   6.499   3.349
 4036SOL    HW213008   5.628   6.509   3.186
 4037SOL     OW13009   1.679   2.365   0.857
 4037SOL    HW113010   1.652   2.278   0.897
 4037SOL    HW213011   1.768   2.393   0.895
 4038SOL     OW13012   5.200   4.839   1.840
 4038SOL    HW113013   5.133   4.779   1.884
 4038SOL    HW213014   5.170   4.861   1.747
 4039SOL     OW13015   5.079   5.351   1.123
 4039SOL    HW113016   5.144   5.303   1.181
 4039SOL    HW213017   5.056   5.439   1.164
 4040SOL     OW13018   2.875   6.395   0.284
 4040SOL    HW113019   2.954   6.363   0.336
 4040SOL    HW213020   2.793   6.386   0.339
 4041SOL     OW13021   1.699   5.523   2.142
 4041SOL    HW113022   1.609   5.488   2.169
 4041SOL    HW213023   1.690   5.620   2.117
 4042SOL     OW13024   6.197   4.148   3.120
 4042SOL    HW113025   6.156   4.059   3.138
 4042SOL    HW213026   6.285   4.135   3.074
 4043SOL     OW13027   5.458   2.254   4.208
 4043SOL    HW113028   5.462   2.169   4.261
 4043SOL    HW213029   5.543   2.265   4.156
 4044SOL     OW13030   4.872   0.808   4.716
 4044SOL    HW113031   4.956   0.779   4.670
 4044SOL    HW213032   4.884   0.800   4.815
 4045SOL     OW13033   2.935   4.267   6.481
 4045SOL    HW113034   2.873   4.284   6.404
 4045SOL    HW213035   2.951   4.169   6.490
 4046SOL     OW13036   0.732   2.156   3.441
 4046SOL    HW113037   0.651   2.104   3.418
 4046SOL    HW213038   0.808   2.094   3.460
 4047SOL     OW13039   2.665   2.610   0.831
 4047SOL    HW113040   2.732   2.576   0.765
 4047SOL    HW213041   2.643   2.705   0.810
 4048SOL     OW13042   5.621   0.840   1.640
 4048SOL    HW113043   5.593   0.930   1.606
 4048SOL    HW213044   5.721   0.836   1.644
 4049SOL     OW13045   6.273   6.417   6.441
 4049SOL    HW113046   6.209   6.442   6.369
 4049SOL    HW213047   6.352   6.479   6.439
 4050SOL     OW13048   1.277   0.225   0.513
 4050SOL    HW113049   1.222   0.246   0.432
 4050SOL    HW213050   1.256   0.291   0.586
 4051SOL     OW13051   2.979   3.307   6.637
 4051SOL    HW113052   2.951   3.386   6.583
 4051SOL    HW213053   2.960   3.324   6.734
 4052SOL     OW13054   1.168   0.184   1.281
 4052SOL    HW113055   1.134   0.214   1.191
 4052SOL    HW213056   1.091   0.160   1.339
 4053SOL     OW13057   3.241   5.199   4.167
 4053SOL    HW113058   3.290   5.240   4.244
 4053SOL    HW213059   3.293   5.121   4.132
 4054SOL     OW13060   2.085   3.057   0.868
 4054SOL    HW113061   2.115   3.105   0.785
 4054SOL    HW213062   2.165   3.030   0.921
 4055SOL     OW13063   2.954   3.149   5.518
 4055SOL    HW113064   2.872   3.167   5.572
 4055SOL    HW213065   2.929   3.117   5.427
 4056SOL     OW13066   4.158   2.964   6.521
 4056SOL    HW113067   4.219   2.953   6.599
 4056SOL    HW213068   4.201   2.924   6.439
 4057SOL     OW13069   5.117   3.182   0.199
 4057SOL    HW113070   5.179   3.141   0.267
 4057SOL    HW213071   5.170   3.209   0.118
 4058SOL     OW13072   1.228   1.533   3.968
 4058SOL    HW113073   1.248   1.446   4.013
 4058SOL    HW213074   1.177   1.515   3.883
 4059SOL     OW13075   2.269   2.229   3.119
 4059SOL    HW113076   2.239   2.168   3.192
 4059SOL    HW213077   2.320   2.177   3.051
 4060SOL     OW13078   3.754   4.935   5.192
 4060SOL    HW113079   3.829   4.872   5.210
 4060SOL    HW213080   3.759   4.966   5.097
 4061SOL     OW13081   3.387   4.744   1.671
 4061SOL    HW113082   3.463   4.713   1.727
 4061SOL    HW213083   3.412   4.738   1.574
 4062SOL     OW13084   4.138   1.661   2.892
 4062SOL    HW113085   4.110   1.568   2.867
 4062SOL    HW213086   4.181   1.660   2.982
 4063SOL     OW13087   4.276   6.552   5.310
 4063SOL    HW113088   4.324   6.594   5.233
 4063SOL    HW213089   4.273   6.617   5.386
 4064SOL     OW13090   2.362   6.809   2.627
 4064SOL    HW113091   2.275   6.798   2.578
 4064SOL    HW213092   2.433   6.756   2.582
 4065SOL     OW13093   1.277   6.973   0.457
 4065SOL    HW113094   1.350   6.937   0.398
 4065SOL    HW213095   1.303   0.042   0.491
 4066SOL     OW13096   5.478   4.788   2.384
 4066SOL    HW113097   5.491   4.861   2.317
 4066SOL    HW213098   5.414   4.720   2.348
 4067SOL     OW13099   5.906   2.609   2.605
 4067SOL    HW113100   5.859   2.522   2.587
 4067SOL    HW213101   5.996   2.609   2.561
 4068SOL     OW13102   4.670   0.361   4.611
 4068SOL    HW113103   4.723   0.313   4.542
 4068SOL    HW213104   4.699   0.331   4.702
 4069SOL     OW13105   4.703   3.472   6.850
 4069SOL    HW113106   4.772   3.532   6.809
 4069SOL    HW213107   4.612   3.508   6.830
 4070SOL     OW13108   1.671   3.423   2.690
 4070SOL    HW113109   1.706   3.493   2.751
 4070SOL    HW213110   1.695   3.332   2.725
 4071SOL     OW13111   1.623   1.132   5.165
 4071SOL    HW113112   1.588   1.039   5.160
 4071SOL    HW213113   1.560   1.193   5.116
 4072SOL     OW13114   1.739   6.692   4.502
 4072SOL    HW113115   1.808   6.620   4.490
 4072SOL    HW213116   1.726   6.740   4.416
 4073SOL     OW13117   2.678   5.418   6.065
 4073SOL    HW113118   2.655   5.465   6.151
 4073SOL    HW213119   2.605   5.355   6.040
 4074SOL     OW13120   0.956   3.313   1.976
 4074SOL    HW113121   0.922   3.232   1.927
 4074SOL    HW213122   1.040   3.345   1.932
 4075SOL     OW13123   4.852   2.418   2.622
 4075SOL    HW113124   4.877   2.506   2.582
 4075SOL    HW213125   4.888   2.412   2.715
 4076SOL     OW13126   2.263   3.923   5.649
 4076SOL    HW113127   2.184   3.947   5.707
 4076SOL    HW213128   2.246   3.954   5.556
 4077SOL     OW13129   2.806   6.034   1.544
 4077SOL    HW113130   2.878   5.965   1.548
 4077SOL    HW213131   2.727   5.998   1.494
 4078SOL     OW13132   6.139   5.462   1.909
 4078SOL    HW113133   6.186   5.497   1.990
 4078SOL    HW213134   6.124   5.537   1.844
 4079SOL     OW13135   1.542   0.592   2.971
 4079SOL    HW113136   1.493   0.678   2.959
 4079SOL    HW213137   1.601   0.598   3.052
 4080SOL     OW13138   2.564   3.547   6.787
 4080SOL    HW113139   2.600   3.594   6.706
 4080SOL    HW213140   2.511   3.467   6.757
 4081SOL     OW13141   1.679   1.083   4.286
 4081SOL    HW113142   1.739   1.161   4.272
 4081SOL    HW213143   1.584   1.114   4.284
 4082SOL     OW13144   1.537   1.854   6.983
 4082SOL    HW113145   1.594   1.835   0.042
 4082SOL    HW213146   1.486   1.939   6.998
 4083SOL     OW13147   5.818   4.458   3.789
 4083SOL    HW113148   5.777   4.406   3.715
 4083SOL    HW213149   5.918   4.450   3.784
 4084SOL     OW13150   4.802   3.056   3.148
 4084SOL    HW113151   4.788   3.073   3.246
 4084SOL    HW213152   4.884   3.106   3.118
 4085SOL     OW13153   2.650   5.081   1.265
 4085SOL    HW113154   2.688   5.061   1.174
 4085SOL    HW213155   2.690   5.019   1.332
 4086SOL     OW13156   0.226   4.991   0.646
 4086SOL    HW113157   0.301   5.016   0.584
 4086SOL    HW213158   0.147   4.961   0.593
 4087SOL     OW13159   2.802   1.334   2.695
 4087SOL    HW113160   2.740   1.380   2.760
 4087SOL    HW213161   2.766   1.344   2.603
 4088SOL     OW13162   6.400   1.188   4.996
 4088SOL    HW113163   6.433   1.133   4.919
 4088SOL    HW213164   6.310   1.156   5.024
 4089SOL     OW13165   0.399   5.557   4.426
 4089SOL    HW113166   0.463   5.618   4.380
 4089SOL    HW213167   0.305   5.590   4.413
 4090SOL     OW13168   1.871   6.119   5.377
 4090SOL    HW113169   1.791   6.180   5.382
 4090SOL    HW213170   1.846   6.029   5.413
 4091SOL     OW13171   0.997   5.366   0.250
 4091SOL    HW113172   0.957   5.330   0.166
 4091SOL    HW213173   0.925   5.403   0.309
 4092SOL     OW13174   5.065   3.336   4.290
 4092SOL    HW113175   5.140   3.280   4.324
 4092SOL    HW213176   4.984   3.322   4.348
 4093SOL     OW13177   5.647   6.051   1.758
 4093SOL    HW113178   5.604   5.961   1.750
 4093SOL    HW213179   5.587   6.112   1.810
 4094SOL     OW13180   1.242   4.587   6.965
 4094SOL    HW113181   1.186   4.635   0.013
 4094SOL    HW213182   1.294   4.655   6.913
 4095SOL     OW13183   0.708   3.147   0.535
 4095SOL    HW113184   0.771   3.124   0.609
 4095SOL    HW213185   0.740   3.229   0.487
 4096SOL     OW13186   1.926   0.730   6.386
 4096SOL    HW113187   2.019   0.765   6.392
 4096SOL    HW213188   1.928   0.634   6.357
 4097SOL     OW13189   5.766   4.360   5.610
 4097SOL    HW113190   5.840   4.333   5.673
 4097SOL    HW213191   5.781   4.317   5.521
 4098SOL     OW13192   2.106   2.799   1.692
 4098SOL    HW113193   2.098   2.872   1.624
 4098SOL    HW213194   2.018   2.751   1.699
 4099SOL     OW13195   3.626   5.153   0.403
 4099SOL    HW113196   3.618   5.173   0.306
 4099SOL    HW213197   3.682   5.224   0.447
 4100SOL     OW13198   1.133   0.937   4.132
 4100SOL    HW113199   1.103   0.854   4.085
 4100SOL    HW213200   1.233   0.941   4.131
 4101SOL     OW13201   6.721   0.814   6.290
 4101SOL    HW113202   6.756   0.839   6.199
 4101SOL    HW213203   6.759   0.876   6.358
 4102SOL     OW13204   2.162   0.909   0.617
 4102SOL    HW113205   2.148   1.003   0.585
 4102SOL    HW213206   2.128   0.901   0.711
 4103SOL     OW13207   0.262   6.813   1.921
 4103SOL    HW113208   0.191   6.814   1.991
 4103SOL    HW213209   0.324   6.736   1.937
 4104SOL     OW13210   0.127   5.101   3.262
 4104SOL    HW113211   0.209   5.154   3.283
 4104SOL    HW213212   0.145   5.004   3.279
 4105SOL     OW13213   5.023   1.430   2.125
 4105SOL    HW113214   5.121   1.413   2.131
 4105SOL    HW213215   4.974   1.343   2.129
 4106SOL     OW13216   0.287   1.921   3.901
 4106SOL    HW113217   0.192   1.888   3.898
 4106SOL    HW213218   0.303   1.966   3.989
 4107SOL     OW13219   0.368   6.016   6.719
 4107SOL    HW113220   0.321   5.931   6.697
 4107SOL    HW213221   0.418   6.048   6.639
 4108SOL     OW13222   0.757   5.602   4.513
 4108SOL    HW113223   0.731   5.507   4.534
 4108SOL    HW213224   0.680   5.649   4.471
 4109SOL     OW13225   5.502   6.306   3.508
 4109SOL    HW113226   5.408   6.339   3.516
 4109SOL    HW213227   5.532   6.314   3.413
 4110SOL     OW13228   3.866   2.837   6.257
 4110SOL    HW113229   3.829   2.858   6.348
 4110SOL    HW213230   3.791   2.829   6.191
 4111SOL     OW13231   5.913   5.158   6.309
 4111SOL    HW113232   5.884   5.124   6.220
 4111SOL    HW213233   5.854   5.233   6.337
 4112SOL     OW13234   5.154   6.856   4.689
 4112SOL    HW113235   5.246   6.879   4.660
 4112SOL    HW213236   5.145   6.756   4.696
 4113SOL     OW13237   4.722   5.031   4.405
 4113SOL    HW113238   4.686   4.950   4.451
 4113SOL    HW213239   4.816   5.047   4.434
 4114SOL     OW13240   6.181   1.506   2.836
 4114SOL    HW113241   6.196   1.465   2.746
 4114SOL    HW213242   6.144   1.598   2.826
 4115SOL     OW13243   2.529   4.729   3.498
 4115SOL    HW113244   2.506   4.634   3.522
 4115SOL    HW213245   2.627   4.735   3.479
 4116SOL     OW13246   4.720   2.901   3.820
 4116SOL    HW113247   4.792   2.834   3.804
 4116SOL    HW213248   4.654   2.898   3.745
 4117SOL     OW13249   1.422   2.002   2.972
 4117SOL    HW113250   1.469   2.090   2.964
 4117SOL    HW213251   1.430   1.968   3.065
 4118SOL     OW13252   6.368   6.642   5.835
 4118SOL    HW113253   6.415   6.594   5.909
 4118SOL    HW213254   6.372   6.588   5.752
 4119SOL     OW13255   2.913   0.795   3.409
 4119SOL    HW113256   2.855   0.871   3.379
 4119SOL    HW213257   2.922   0.729   3.335
 4120SOL     OW13258   4.074   1.513   6.259
 4120SOL    HW113259   4.070   1.413   6.255
 4120SOL    HW213260   4.038   1.544   6.347
 4121SOL     OW13261   6.687   6.710   2.206
 4121SOL    HW113262   6.655   6.737   2.115
 4121SOL    HW213263   6.690   6.790   2.266
 4122SOL     OW13264   1.041   6.796   4.792
 4122SOL    HW113265   0.962   6.756   4.837
 4122SOL    HW213266   1.015   6.832   4.703
 4123SOL     OW13267   4.152   5.006   4.131
 4123SOL    HW113268   4.229   4.987   4.193
 4123SOL    HW213269   4.080   5.053   4.182
 4124SOL     OW13270   6.865   6.561   1.001
 4124SOL    HW113271   6.896   6.562   0.907
 4124SOL    HW213272   6.938   6.594   1.061
 4125SOL     OW13273   4.645   2.692   2.580
 4125SOL    HW113274   4.612   2.733   2.495
 4125SOL    HW213275   4.613   2.598   2.587
 4126SOL     OW13276   1.674   2.940   2.124
 4126SOL    HW113277   1.665   2.989   2.210
 4126SOL    HW213278   1.757   2.885   2.124
 4127SOL     OW13279   5.014   2.566   5.088
 4127SOL    HW113280   4.938   2.619   5.049
 4127SOL    HW213281   4.993   2.544   5.183
 4128SOL     OW13282   0.956   3.141   1.758
 4128SOL    HW113283   1.050   3.156   1.725
 4128SOL    HW213284   0.907   3.083   1.693
 4129SOL     OW13285   3.266   1.161   0.249
 4129SOL    HW113286   3.215   1.185   0.166
 4129SOL    HW213287   3.204   1.161   0.327
 4130SOL     OW13288   5.961   1.984   0.465
 4130SOL    HW113289   6.056   2.002   0.490
 4130SOL    HW213290   5.911   2.070   0.457
 4131SOL     OW13291   6.621   0.735   2.702
 4131SOL    HW113292   6.591   0.830   2.694
 4131SOL    HW213293   6.629   0.711   2.799
 4132SOL     OW13294   5.657   3.973   4.341
 4132SOL    HW113295   5.724   3.947   4.411
 4132SOL    HW213296   5.623   4.065   4.360
 4133SOL     OW13297   4.483   6.424   1.475
 4133SOL    HW113298   4.475   6.493   1.403
 4133SOL    HW213299   4.494   6.469   1.563
 4134SOL     OW13300   2.382   3.276   0.822
 4134SOL    HW113301   2.473   3.318   0.829
 4134SOL    HW213302   2.376   3.200   0.886
 4135SOL     OW13303   0.197   2.259   2.820
 4135SOL    HW113304   0.212   2.201   2.740
 4135SOL    HW213305   0.100   2.284   2.825
 4136SOL     OW13306   1.389   3.590   1.839
 4136SOL    HW113307   1.398   3.620   1.744
 4136SOL    HW213308   1.331   3.654   1.889
 4137SOL     OW13309   1.171   2.941   6.944
 4137SOL    HW113310   1.165   2.841   6.950
 4137SOL    HW213311   1.267   2.967   6.936
 4138SOL     OW13312   3.936   5.026   1.380
 4138SOL    HW113313   3.962   4.984   1.467
 4138SOL    HW213314   3.837   5.031   1.373
 4139SOL     OW13315   1.276   1.753   3.713
 4139SOL    HW113316   1.341   1.678   3.731
 4139SOL    HW213317   1.272   1.813   3.792
 4140SOL     OW13318   3.253   2.092   4.151
 4140SOL    HW113319   3.352   2.074   4.157
 4140SOL    HW213320   3.227   2.155   4.225
 4141SOL     OW13321   5.118   0.111   0.193
 4141SOL    HW113322   5.051   0.112   0.267
 4141SOL    HW213323   5.157   0.202   0.183
 4142SOL     OW13324   6.929   3.905   1.585
 4142SOL    HW113325   6.996   3.977   1.601
 4142SOL    HW213326   6.909   3.858   1.671
 4143SOL     OW13327   5.650   3.075   0.533
 4143SOL    HW113328   5.619   3.027   0.615
 4143SOL    HW213329   5.638   3.016   0.454
 4144SOL     OW13330   4.907   1.637   0.095
 4144SOL    HW113331   4.816   1.676   0.082
 4144SOL    HW213332   4.919   1.612   0.191
 4145SOL     OW13333   1.336   6.033   0.845
 4145SOL    HW113334   1.260   6.094   0.867
 4145SOL    HW213335   1.322   5.944   0.890
 4146SOL     OW13336   6.828   0.668   3.616
 4146SOL    HW113337   6.783   0.691   3.702
 4146SOL    HW213338   6.763   0.679   3.540
 4147SOL     OW13339   5.048   4.562   6.228
 4147SOL    HW113340   5.021   4.470   6.256
 4147SOL    HW213341   5.049   4.623   6.307
 4148SOL     OW13342   2.747   0.695   5.413
 4148SOL    HW113343   2.657   0.717   5.376
 4148SOL    HW213344   2.817   0.750   5.366
 4149SOL     OW13345   0.444   3.574   1.940
 4149SOL    HW113346   0.378   3.500   1.925
 4149SOL    HW213347   0.434   3.643   1.868
 4150SOL     OW13348   6.889   1.805   5.188
 4150SOL    HW113349   6.941   1.724   5.214
 4150SOL    HW213350   6.816   1.779   5.124
 4151SOL     OW13351   1.674   0.160   6.003
 4151SOL    HW113352   1.757   0.124   6.043
 4151SOL    HW213353   1.693   0.192   5.910
 4152SOL     OW13354   3.806   5.386   2.100
 4152SOL    HW113355   3.793   5.482   2.124
 4152SOL    HW213356   3.858   5.379   2.015
 4153SOL     OW13357   6.388   5.052   1.712
 4153SOL    HW113358   6.315   5.116   1.737
 4153SOL    HW213359   6.419   5.072   1.619
 4154SOL     OW13360   0.384   5.940   3.951
 4154SOL    HW113361   0.416   5.871   3.886
 4154SOL    HW213362   0.436   6.025   3.939
 4155SOL     OW13363   0.308   2.091   1.186
 4155SOL    HW113364   0.369   2.165   1.156
 4155SOL    HW213365   0.360   2.025   1.240
 4156SOL     OW13366   6.630   5.338   5.245
 4156SOL    HW113367   6.539   5.335   5.204
 4156SOL    HW213368   6.624   5.380   5.336
 4157SOL     OW13369   5.688   6.013   3.381
 4157SOL    HW113370   5.763   6.063   3.337
 4157SOL    HW213371   5.602   6.037   3.336
 4158SOL     OW13372   1.915   2.602   2.286
 4158SOL    HW113373   1.870   2.537   2.224
 4158SOL    HW213374   1.990   2.646   2.239
 4159SOL     OW13375   2.769   2.360   3.410
 4159SOL    HW113376   2.680   2.390   3.375
 4159SOL    HW213377   2.762   2.339   3.507
 4160SOL     OW13378   5.591   0.128   0.043
 4160SOL    HW113379   5.562   0.078   0.124
 4160SOL    HW213380   5.560   0.223   0.050
 4161SOL     OW13381   1.737   1.754   1.901
 4161SOL    HW113382   1.738   1.666   1.949
 4161SOL    HW213383   1.767   1.826   1.964
 4162SOL     OW13384   6.199   5.688   1.400
 4162SOL    HW113385   6.289   5.730   1.411
 4162SOL    HW213386   6.205   5.613   1.334
 4163SOL     OW13387   5.779   1.458   3.108
 4163SOL    HW113388   5.867   1.411   3.106
 4163SOL    HW213389   5.777   1.527   3.036
 4164SOL     OW13390   0.826   6.807   5.558
 4164SOL    HW113391   0.819   6.838   5.652
 4164SOL    HW213392   0.917   6.826   5.522
 4165SOL     OW13393   4.794   0.018   5.881
 4165SOL    HW113394   4.782   7.017   5.978
 4165SOL    HW213395   4.852   6.970   5.838
 4166SOL     OW13396   5.479   1.436   1.484
 4166SOL    HW113397   5.544   1.467   1.415
 4166SOL    HW213398   5.425   1.360   1.448
 4167SOL     OW13399   3.206   5.143   6.259
 4167SOL    HW113400   3.269   5.146   6.182
 4167SOL    HW213401   3.145   5.064   6.250
 4168SOL     OW13402   0.396   4.086   0.712
 4168SOL    HW113403   0.326   4.050   0.774
 4168SOL    HW213404   0.452   4.153   0.761
 4169SOL     OW13405   6.161   3.782   5.076
 4169SOL    HW113406   6.164   3.853   5.006
 4169SOL    HW213407   6.136   3.823   5.164
 4170SOL     OW13408   4.681   2.856   5.157
 4170SOL    HW113409   4.705   2.804   5.075
 4170SOL    HW213410   4.759   2.855   5.220
 4171SOL     OW13411   0.709   5.573   1.058
 4171SOL    HW113412   0.662   5.495   1.099
 4171SOL    HW213413   0.642   5.638   1.022
 4172SOL     OW13414   2.389   2.544   0.502
 4172SOL    HW113415   2.314   2.560   0.566
 4172SOL    HW213416   2.369   2.464   0.446
 4173SOL     OW13417   5.292   3.136   4.934
 4173SOL    HW113418   5.204   3.128   4.888
 4173SOL    HW213419   5.283   3.107   5.030
 4174SOL     OW13420   5.272   1.357   2.287
 4174SOL    HW113421   5.270   1.281   2.352
 4174SOL    HW213422   5.216   1.432   2.322
 4175SOL     OW13423   1.612   4.696   4.819
 4175SOL    HW113424   1.668   4.778   4.810
 4175SOL    HW213425   1.644   4.627   4.754
 4176SOL     OW13426   4.140   0.012   1.419
 4176SOL    HW113427   4.179   7.003   1.332
 4176SOL    HW213428   4.209   0.004   1.491
 4177SOL     OW13429   5.595   4.655   5.088
 4177SOL    HW113430   5.559   4.738   5.045
 4177SOL    HW213431   5.694   4.652   5.074
 4178SOL     OW13432   4.135   0.392   3.494
 4178SOL    HW113433   4.202   0.459   3.526
 4178SOL    HW213434   4.063   0.438   3.443
 4179SOL     OW13435   5.169   4.132   3.199
 4179SOL    HW113436   5.209   4.128   3.290
 4179SOL    HW213437   5.215   4.066   3.140
 4180SOL     OW13438   4.791   2.669   0.850
 4180SOL    HW113439   4.856   2.649   0.777
 4180SOL    HW213440   4.825   2.632   0.937
 4181SOL     OW13441   4.382   0.663   6.716
 4181SOL    HW113442   4.435   0.579   6.703
 4181SOL    HW213443   4.442   0.735   6.751
 4182SOL     OW13444   0.346   5.204   2.882
 4182SOL    HW113445   0.259   5.185   2.927
 4182SOL    HW213446   0.419   5.149   2.924
 4183SOL     OW13447   3.110   1.138   0.502
 4183SOL    HW113448   3.031   1.111   0.446
 4183SOL    HW213449   3.083   1.211   0.565
 4184SOL     OW13450   3.769   7.016   2.203
 4184SOL    HW113451   3.764   0.051   2.120
 4184SOL    HW213452   3.821   0.043   2.273
 4185SOL     OW13453   0.817   4.183   3.275
 4185SOL    HW113454   0.792   4.268   3.321
 4185SOL    HW213455   0.829   4.111   3.344
 4186SOL     OW13456   2.385   5.463   6.628
 4186SOL    HW113457   2.427   5.405   6.558
 4186SOL    HW213458   2.437   5.457   6.713
 4187SOL     OW13459   2.497   2.778   6.066
 4187SOL    HW113460   2.472   2.781   6.163
 4187SOL    HW213461   2.414   2.775   6.011
 4188SOL     OW13462   5.060   0.566   5.248
 4188SOL    HW113463   4.977   0.510   5.239
 4188SOL    HW213464   5.140   0.507   5.246
 4189SOL     OW13465   3.611   4.926   4.433
 4189SOL    HW113466   3.514   4.912   4.417
 4189SOL    HW213467   3.659   4.933   4.345
 4190SOL     OW13468   1.088   0.320   1.038
 4190SOL    HW113469   1.021   0.280   0.976
 4190SOL    HW213470   1.058   0.412   1.065
 4191SOL     OW13471   5.499   4.429   4.917
 4191SOL    HW113472   5.524   4.516   4.959
 4191SOL    HW213473   5.451   4.371   4.983
 4192SOL     OW13474   0.888   1.596   2.788
 4192SOL    HW113475   0.844   1.508   2.775
 4192SOL    HW213476   0.819   1.668   2.796
 4193SOL     OW13477   5.722   0.454   0.762
 4193SOL    HW113478   5.695   0.522   0.830
 4193SOL    HW213479   5.740   0.367   0.808
 4194SOL     OW13480   4.848   0.265   4.412
 4194SOL    HW113481   4.895   0.186   4.372
 4194SOL    HW213482   4.832   0.334   4.341
 4195SOL     OW13483   4.304   4.984   1.636
 4195SOL    HW113484   4.352   4.990   1.724
 4195SOL    HW213485   4.306   5.074   1.591
 4196SOL     OW13486   6.669   2.692   2.857
 4196SOL    HW113487   6.662   2.601   2.816
 4196SOL    HW213488   6.577   2.726   2.879
 4197SOL     OW13489   4.883   5.122   5.433
 4197SOL    HW113490   4.969   5.089   5.472
 4197SOL    HW213491   4.807   5.095   5.492
 4198SOL     OW13492   6.493   1.955   0.929
 4198SOL    HW113493   6.462   1.919   1.017
 4198SOL    HW213494   6.462   2.049   0.919
 4199SOL     OW13495   1.283   2.371   5.564
 4199SOL    HW113496   1.189   2.345   5.545
 4199SOL    HW213497   1.289   2.414   5.654
 4200SOL     OW13498   2.661   6.950   6.649
 4200SOL    HW113499   2.726   6.902   6.591
 4200SOL    HW213500   2.701   6.965   6.739
 4201SOL     OW13501   6.142   0.108   3.766
 4201SOL    HW113502   6.217   0.048   3.794
 4201SOL    HW213503   6.063   0.092   3.825
 4202SOL     OW13504   2.632   5.578   6.273
 4202SOL    HW113505   2.541   5.537   6.278
 4202SOL    HW213506   2.646   5.638   6.352
 4203SOL     OW13507   4.884   3.941   0.529
 4203SOL    HW113508   4.940   3.887   0.466
 4203SOL    HW213509   4.823   3.879   0.579
 4204SOL     OW13510   4.111   3.626   4.194
 4204SOL    HW113511   4.118   3.571   4.111
 4204SOL    HW213512   4.175   3.703   4.188
 4205SOL     OW13513   4.287   6.107   4.698
 4205SOL    HW113514   4.224   6.151   4.633
 4205SOL    HW213515   4.347   6.044   4.649
 4206SOL     OW13516   6.594   1.518   4.942
 4206SOL    HW113517   6.556   1.503   4.851
 4206SOL    HW213518   6.524   1.500   5.010
 4207SOL     OW13519   2.147   2.505   1.926
 4207SOL    HW113520   2.050   2.503   1.949
 4207SOL    HW213521   2.166   2.435   1.857
 4208SOL     OW13522   7.012   3.612   5.438
 4208SOL    HW113523   0.074   3.662   5.462
 4208SOL    HW213524   6.956   3.599   5.520
 4209SOL     OW13525   6.863   6.072   3.802
 4209SOL    HW113526   6.946   6.016   3.795
 4209SOL    HW213527   6.873   6.137   3.877
 4210SOL     OW13528   3.455   3.256   2.488
 4210SOL    HW113529   3.464   3.354   2.475
 4210SOL    HW213530   3.463   3.209   2.400
 4211SOL     OW13531   3.674   0.921   5.805
 4211SOL    HW113532   3.578   0.935   5.829
 4211SOL    HW213533   3.703   0.832   5.840
 4212SOL     OW13534   6.405   2.488   2.786
 4212SOL    HW113535   6.439   2.507   2.694
 4212SOL    HW213536   6.415   2.391   2.807
 4213SOL     OW13537   2.823   0.743   2.418
 4213SOL    HW113538   2.820   0.798   2.502
 4213SOL    HW213539   2.781   0.795   2.343
 4214SOL     OW13540   0.379   5.575   5.745
 4214SOL    HW113541   0.453   5.635   5.776
 4214SOL    HW213542   0.297   5.631   5.728
 4215SOL     OW13543   4.498   6.576   5.694
 4215SOL    HW113544   4.407   6.547   5.723
 4215SOL    HW213545   4.568   6.523   5.743
 4216SOL     OW13546   1.914   0.959   3.293
 4216SOL    HW113547   1.888   0.950   3.197
 4216SOL    HW213548   1.894   0.874   3.342
 4217SOL     OW13549   1.201   1.109   3.002
 4217SOL    HW113550   1.234   1.082   3.092
 4217SOL    HW213551   1.114   1.063   2.983
 4218SOL     OW13552   3.463   1.046   1.341
 4218SOL    HW113553   3.395   1.081   1.405
 4218SOL    HW213554   3.447   1.085   1.250
 4219SOL     OW13555   4.485   5.544   4.287
 4219SOL    HW113556   4.395   5.501   4.301
 4219SOL    HW213557   4.472   5.640   4.263
 4220SOL     OW13558   6.551   3.031   2.998
 4220SOL    HW113559   6.553   3.028   2.899
 4220SOL    HW213560   6.550   3.126   3.029
 4221SOL     OW13561   6.101   5.218   6.032
 4221SOL    HW113562   6.083   5.148   5.964
 4221SOL    HW213563   6.017   5.268   6.052
 4222SOL     OW13564   0.092   1.693   2.110
 4222SOL    HW113565   0.149   1.620   2.146
 4222SOL    HW213566   0.008   1.699   2.163
 4223SOL     OW13567   3.068   3.709   1.033
 4223SOL    HW113568   3.041   3.650   0.957
 4223SOL    HW213569   2.986   3.747   1.076
 4224SOL     OW13570   5.557   5.285   4.042
 4224SOL    HW113571   5.533   5.373   4.000
 4224SOL    HW213572   5.592   5.224   3.971
 4225SOL     OW13573   2.174   2.897   5.190
 4225SOL    HW113574   2.255   2.929   5.141
 4225SOL    HW213575   2.200   2.868   5.283
 4226SOL     OW13576   0.902   6.679   2.688
 4226SOL    HW113577   0.846   6.627   2.624
 4226SOL    HW213578   0.846   6.708   2.765
 4227SOL     OW13579   3.508   5.533   1.719
 4227SOL    HW113580   3.568   5.469   1.768
 4227SOL    HW213581   3.413   5.505   1.731
 4228SOL     OW13582   0.693   5.800   5.521
 4228SOL    HW113583   0.596   5.825   5.526
 4228SOL    HW213584   0.732   5.798   5.613
 4229SOL     OW13585   4.749   5.717   5.965
 4229SOL    HW113586   4.817   5.691   6.034
 4229SOL    HW213587   4.733   5.816   5.971
 4230SOL     OW13588   1.403   5.572   2.982
 4230SOL    HW113589   1.409   5.475   2.958
 4230SOL    HW213590   1.478   5.622   2.940
 4231SOL     OW13591   5.110   6.585   5.940
 4231SOL    HW113592   5.173   6.626   6.005
 4231SOL    HW213593   5.016   6.614   5.961
 4232SOL     OW13594   1.157   4.658   3.227
 4232SOL    HW113595   1.196   4.595   3.294
 4232SOL    HW213596   1.213   4.659   3.145
 4233SOL     OW13597   6.162   0.663   5.303
 4233SOL    HW113598   6.243   0.719   5.282
 4233SOL    HW213599   6.176   0.617   5.391
 4234SOL     OW13600   2.233   5.491   5.349
 4234SOL    HW113601   2.315   5.520   5.399
 4234SOL    HW213602   2.227   5.392   5.350
 4235SOL     OW13603   5.537   3.868   6.018
 4235SOL    HW113604   5.535   3.951   6.073
 4235SOL    HW213605   5.631   3.844   5.997
 4236SOL     OW13606   6.522   3.958   2.023
 4236SOL    HW113607   6.603   4.016   2.034
 4236SOL    HW213608   6.476   3.947   2.111
 4237SOL     OW13609   6.116   5.348   3.572
 4237SOL    HW113610   6.169   5.431   3.586
 4237SOL    HW213611   6.030   5.370   3.525
 4238SOL     OW13612   1.903   6.161   2.980
 4238SOL    HW113613   1.943   6.223   3.047
 4238SOL    HW213614   1.922   6.195   2.887
 4239SOL     OW13615   5.133   1.099   2.757
 4239SOL    HW113616   5.204   1.059   2.814
 4239SOL    HW213617   5.085   1.171   2.808
 4240SOL     OW13618   1.905   5.668   0.364
 4240SOL    HW113619   1.978   5.616   0.409
 4240SOL    HW213620   1.851   5.607   0.306
 4241SOL     OW13621   5.395   1.121   0.823
 4241SOL    HW113622   5.383   1.036   0.873
 4241SOL    HW213623   5.386   1.198   0.886
 4242SOL     OW13624   3.147   2.196   4.384
 4242SOL    HW113625   3.222   2.189   4.449
 4242SOL    HW213626   3.068   2.239   4.428
 4243SOL     OW13627   6.390   2.780   2.464
 4243SOL    HW113628   6.474   2.747   2.420
 4243SOL    HW213629   6.405   2.871   2.502
 4244SOL     OW13630   4.201   4.344   1.387
 4244SOL    HW113631   4.285   4.392   1.363
 4244SOL    HW213632   4.205   4.314   1.483
 4245SOL     OW13633   6.654   1.343   6.192
 4245SOL    HW113634   6.706   1.309   6.271
 4245SOL    HW213635   6.606   1.427   6.219
 4246SOL     OW13636   0.005   3.766   3.182
 4246SOL    HW113637   6.946   3.776   3.123
 4246SOL    HW213638   7.016   3.827   3.261
 4247SOL     OW13639   2.789   6.256   3.554
 4247SOL    HW113640   2.732   6.183   3.591
 4247SOL    HW213641   2.808   6.323   3.626
 4248SOL     OW13642   3.681   1.435   3.574
 4248SOL    HW113643   3.681   1.339   3.604
 4248SOL    HW213644   3.760   1.452   3.516
 4249SOL     OW13645   6.340   2.904   4.787
 4249SOL    HW113646   6.241   2.902   4.803
 4249SOL    HW213647   6.362   2.977   4.722
 4250SOL     OW13648   6.687   3.960   2.900
 4250SOL    HW113649   6.600   3.988   2.940
 4250SOL    HW213650   6.716   4.027   2.831
 4251SOL     OW13651   5.667   4.726   0.719
 4251SOL    HW113652   5.750   4.683   0.753
 4251SOL    HW213653   5.641   4.800   0.781
 4252SOL     OW13654   5.432   6.257   5.324
 4252SOL    HW113655   5.376   6.336   5.347
 4252SOL    HW213656   5.492   6.235   5.401
 4253SOL     OW13657   3.606   6.276   0.528
 4253SOL    HW113658   3.670   6.353   0.520
 4253SOL    HW213659   3.554   6.267   0.443
 4254SOL     OW13660   0.774   2.434   2.281
 4254SOL    HW113661   0.783   2.523   2.327
 4254SOL    HW213662   0.701   2.381   2.325
 4255SOL     OW13663   5.848   3.923   3.391
 4255SOL    HW113664   5.894   3.934   3.479
 4255SOL    HW213665   5.886   3.844   3.343
 4256SOL     OW13666   1.800   7.003   0.611
 4256SOL    HW113667   1.751   0.046   0.551
 4256SOL    HW213668   1.738   6.929   0.637
 4257SOL     OW13669   3.322   0.735   4.029
 4257SOL    HW113670   3.235   0.784   4.036
 4257SOL    HW213671   3.397   0.801   4.028
 4258SOL     OW13672   5.247   5.825   0.986
 4258SOL    HW113673   5.163   5.845   1.036
 4258SOL    HW213674   5.225   5.798   0.892
 4259SOL     OW13675   2.777   0.753   0.287
 4259SOL    HW113676   2.778   0.654   0.270
 4259SOL    HW213677   2.849   0.797   0.233
 4260SOL     OW13678   5.234   6.856   6.678
 4260SOL    HW113679   5.160   6.812   6.628
 4260SOL    HW213680   5.321   6.813   6.654
 4261SOL     OW13681   1.816   6.924   1.494
 4261SOL    HW113682   1.798   6.998   1.428
 4261SOL    HW213683   1.756   6.936   1.574
 4262SOL     OW13684   0.518   4.636   5.369
 4262SOL    HW113685   0.466   4.650   5.454
 4262SOL    HW213686   0.597   4.697   5.369
 4263SOL     OW13687   2.773   6.586   3.399
 4263SOL    HW113688   2.747   6.643   3.477
 4263SOL    HW213689   2.842   6.520   3.428
 4264SOL     OW13690   0.560   2.850   2.820
 4264SOL    HW113691   0.497   2.856   2.897
 4264SOL    HW213692   0.579   2.754   2.799
 4265SOL     OW13693   5.470   1.548   0.854
 4265SOL    HW113694   5.468   1.606   0.772
 4265SOL    HW213695   5.562   1.511   0.866
 4266SOL     OW13696   1.833   5.181   0.415
 4266SOL    HW113697   1.837   5.096   0.468
 4266SOL    HW213698   1.884   5.252   0.462
 4267SOL     OW13699   2.066   3.674   4.520
 4267SOL    HW113700   2.052   3.586   4.474
 4267SOL    HW213701   2.006   3.742   4.478
 4268SOL     OW13702   1.346   5.928   6.428
 4268SOL    HW113703   1.407   5.854   6.457
 4268SOL    HW213704   1.253   5.893   6.420
 4269SOL     OW13705   2.437   1.216   1.838
 4269SOL    HW113706   2.388   1.195   1.923
 4269SOL    HW213707   2.386   1.283   1.785
 4270SOL     OW13708   3.995   3.881   3.321
 4270SOL    HW113709   3.924   3.817   3.292
 4270SOL    HW213710   3.980   3.906   3.417
 4271SOL     OW13711   0.167   1.162   6.771
 4271SOL    HW113712   0.208   1.222   6.703
 4271SOL    HW213713   0.084   1.121   6.734
 4272SOL     OW13714   6.695   2.993   5.185
 4272SOL    HW113715   6.716   2.953   5.096
 4272SOL    HW213716   6.701   2.922   5.255
 4273SOL     OW13717   4.376   6.290   5.330
 4273SOL    HW113718   4.324   6.237   5.263
 4273SOL    HW213719   4.329   6.376   5.349
 4274SOL     OW13720   1.628   6.573   1.931
 4274SOL    HW113721   1.719   6.612   1.914
 4274SOL    HW213722   1.582   6.627   2.002
 4275SOL     OW13723   6.348   0.690   4.462
 4275SOL    HW113724   6.348   0.783   4.427
 4275SOL    HW213725   6.427   0.640   4.425
 4276SOL     OW13726   2.053   4.907   3.712
 4276SOL    HW113727   2.102   4.994   3.705
 4276SOL    HW213728   2.078   4.848   3.636
 4277SOL     OW13729   6.266   4.941   3.998
 4277SOL    HW113730   6.181   4.922   4.047
 4277SOL    HW213731   6.326   4.998   4.054
 4278SOL     OW13732   0.275   0.561   4.398
 4278SOL    HW113733   0.252   0.653   4.431
 4278SOL    HW213734   0.214   0.494   4.440
 4279SOL     OW13735   3.646   0.281   4.994
 4279SOL    HW113736   3.660   0.336   4.912
 4279SOL    HW213737   3.562   0.228   4.984
 4280SOL     OW13738   5.122   0.171   6.058
 4280SOL    HW113739   5.174   0.133   6.135
 4280SOL    HW213740   5.105   0.098   5.991
 4281SOL     OW13741   1.050   5.317   3.957
 4281SOL    HW113742   1.029   5.298   3.862
 4281SOL    HW213743   1.108   5.398   3.963
 4282SOL     OW13744   3.121   3.755   6.681
 4282SOL    HW113745   3.132   3.700   6.598
 4282SOL    HW213746   3.153   3.702   6.760
 4283SOL     OW13747   1.900   0.724   3.436
 4283SOL    HW113748   1.850   0.639   3.418
 4283SOL    HW213749   1.996   0.711   3.415
 4284SOL     OW13750   4.576   4.953   1.168
 4284SOL    HW113751   4.545   5.048   1.169
 4284SOL    HW213752   4.674   4.950   1.189
 4285SOL     OW13753   0.384   0.756   6.189
 4285SOL    HW113754   0.400   0.759   6.287
 4285SOL    HW213755   0.295   0.714   6.171
 4286SOL     OW13756   4.930   5.846   6.160
 4286SOL    HW113757   4.973   5.867   6.073
 4286SOL    HW213758   5.000   5.844   6.232
 4287SOL     OW13759   5.569   1.433   6.953
 4287SOL    HW113760   5.549   1.526   6.982
 4287SOL    HW213761   5.556   1.370   0.009
 4288SOL     OW13762   1.076   5.861   3.540
 4288SOL    HW113763   1.015   5.892   3.612
 4288SOL    HW213764   1.123   5.778   3.570
 4289SOL     OW13765   6.754   3.283   0.914
 4289SOL    HW113766   6.812   3.201   0.915
 4289SOL    HW213767   6.784   3.344   0.842
 4290SOL     OW13768   1.967   0.060   2.683
 4290SOL    HW113769   1.940   7.006   2.743
 4290SOL    HW213770   2.064   0.049   2.659
 4291SOL     OW13771   3.908   3.558   1.090
 4291SOL    HW113772   3.912   3.459   1.103
 4291SOL    HW213773   3.978   3.603   1.145
 4292SOL     OW13774   6.335   4.573   6.181
 4292SOL    HW113775   6.259   4.617   6.134
 4292SOL    HW213776   6.421   4.611   6.147
 4293SOL     OW13777   1.431   3.195   0.656
 4293SOL    HW113778   1.494   3.132   0.610
 4293SOL    HW213779   1.374   3.144   0.720
 4294SOL     OW13780   2.767   3.036   6.834
 4294SOL    HW113781   2.741   3.132   6.840
 4294SOL    HW213782   2.746   3.001   6.743
 4295SOL     OW13783   3.982   5.626   4.127
 4295SOL    HW113784   3.944   5.562   4.194
 4295SOL    HW213785   4.081   5.615   4.123
 4296SOL     OW13786   4.482   0.695   0.441
 4296SOL    HW113787   4.409   0.698   0.508
 4296SOL    HW213788   4.467   0.767   0.373
 4297SOL     OW13789   5.405   0.740   6.734
 4297SOL    HW113790   5.399   0.643   6.710
 4297SOL    HW213791   5.491   0.758   6.782
 4298SOL     OW13792   3.234   5.547   0.017
 4298SOL    HW113793   3.316   5.497   0.045
 4298SOL    HW213794   3.253   5.645   0.020
 4299SOL     OW13795   1.210   2.649   6.946
 4299SOL    HW113796   1.299   2.691   6.927
 4299SOL    HW213797   1.191   2.580   6.876
 4300SOL     OW13798   3.994   0.473   0.098
 4300SOL    HW113799   4.034   0.445   0.010
 4300SOL    HW213800   3.916   0.534   0.080
 4301SOL     OW13801   3.872   1.823   0.904
 4301SOL    HW113802   3.830   1.757   0.966
 4301SOL    HW213803   3.864   1.790   0.810
 4302SOL     OW13804   1.545   6.783   5.710
 4302SOL    HW113805   1.592   6.871   5.715
 4302SOL    HW213806   1.604   6.717   5.662
 4303SOL     OW13807   6.227   4.417   4.422
 4303SOL    HW113808   6.210   4.345   4.354
 4303SOL    HW213809   6.304   4.473   4.393
 4304SOL     OW13810   3.332   3.916   2.993
 4304SOL    HW113811   3.363   3.971   2.916
 4304SOL    HW213812   3.372   3.952   3.078
 4305SOL     OW13813   6.682   0.482   4.697
 4305SOL    HW113814   6.732   0.442   4.774
 4305SOL    HW213815   6.743   0.542   4.645
 4306SOL     OW13816   6.416   3.263   0.074
 4306SOL    HW113817   6.348   3.323   0.116
 4306SOL    HW213818   6.383   3.232   7.006
 4307SOL     OW13819   4.166   3.563   6.106
 4307SOL    HW113820   4.196   3.471   6.133
 4307SOL    HW213821   4.191   3.628   6.178
 4308SOL     OW13822   5.976   5.447   6.640
 4308SOL    HW113823   6.006   5.351   6.641
 4308SOL    HW213824   5.978   5.483   6.733
 4309SOL     OW13825   1.096   1.313   0.503
 4309SOL    HW113826   1.195   1.319   0.509
 4309SOL    HW213827   1.068   1.307   0.407
 4310SOL     OW13828   1.614   3.078   3.040
 4310SOL    HW113829   1.682   3.005   3.047
 4310SOL    HW213830   1.615   3.133   3.124
 4311SOL     OW13831   1.796   5.776   3.684
 4311SOL    HW113832   1.719   5.835   3.707
 4311SOL    HW213833   1.870   5.831   3.645
 4312SOL     OW13834   1.376   4.970   0.862
 4312SOL    HW113835   1.432   4.964   0.945
 4312SOL    HW213836   1.280   4.955   0.886
 4313SOL     OW13837   4.733   1.892   1.169
 4313SOL    HW113838   4.822   1.890   1.213
 4313SOL    HW213839   4.663   1.920   1.235
 4314SOL     OW13840   5.388   1.650   4.012
 4314SOL    HW113841   5.377   1.596   3.928
 4314SOL    HW213842   5.484   1.671   4.026
 4315SOL     OW13843   2.829   0.093   1.948
 4315SOL    HW113844   2.733   0.069   1.936
 4315SOL    HW213845   2.839   0.153   2.028
 4316SOL     OW13846   5.361   6.768   1.314
 4316SOL    HW113847   5.382   6.804   1.223
 4316SOL    HW213848   5.313   6.838   1.367
 4317SOL     OW13849   4.329   1.373   5.003
 4317SOL    HW113850   4.384   1.297   4.968
 4317SOL    HW213851   4.255   1.393   4.939
 4318SOL     OW13852   0.587   3.673   4.318
 4318SOL    HW113853   0.559   3.675   4.222
 4318SOL    HW213854   0.513   3.636   4.375
 4319SOL     OW13855   2.103   2.743   0.473
 4319SOL    HW113856   2.117   2.826   0.420
 4319SOL    HW213857   2.021   2.695   0.441
 4320SOL     OW13858   5.843   6.308   1.887
 4320SOL    HW113859   5.922   6.312   1.825
 4320SOL    HW213860   5.773   6.372   1.855
 4321SOL     OW13861   0.249   6.707   5.288
 4321SOL    HW113862   0.236   6.713   5.189
 4321SOL    HW213863   0.211   6.789   5.331
 4322SOL     OW13864   6.336   2.126   6.743
 4322SOL    HW113865   6.412   2.154   6.802
 4322SOL    HW213866   6.371   2.072   6.667
 4323SOL     OW13867   5.086   3.888   1.149
 4323SOL    HW113868   5.141   3.911   1.069
 4323SOL    HW213869   4.994   3.861   1.120
 4324SOL     OW13870   5.058   4.021   6.061
 4324SOL    HW113871   5.044   4.008   6.159
 4324SOL    HW213872   5.114   4.102   6.046
 4325SOL     OW13873   2.790   1.211   1.590
 4325SOL    HW113874   2.764   1.260   1.507
 4325SOL    HW213875   2.799   1.277   1.665
 4326SOL     OW13876   5.276   4.236   5.326
 4326SOL    HW113877   5.325   4.213   5.242
 4326SOL    HW213878   5.284   4.161   5.391
 4327SOL     OW13879   6.215   5.620   2.125
 4327SOL    HW113880   6.156   5.698   2.107
 4327SOL    HW213881   6.189   5.578   2.212
 4328SOL     OW13882   4.418   3.340   5.787
 4328SOL    HW113883   4.375   3.339   5.697
 4328SOL    HW213884   4.476   3.259   5.797
 4329SOL     OW13885   3.825   1.736   5.642
 4329SOL    HW113886   3.902   1.745   5.705
 4329SOL    HW213887   3.856   1.700   5.554
 4330SOL     OW13888   3.110   0.471   5.249
 4330SOL    HW113889   3.096   0.561   5.207
 4330SOL    HW213890   3.085   0.476   5.346
 4331SOL     OW13891   5.144   2.817   0.385
 4331SOL    HW113892   5.166   2.805   0.288
 4331SOL    HW213893   5.167   2.911   0.413
 4332SOL     OW13894   4.930   4.797   2.059
 4332SOL    HW113895   4.973   4.713   2.025
 4332SOL    HW213896   4.840   4.775   2.096
 4333SOL     OW13897   3.661   0.759   5.496
 4333SOL    HW113898   3.681   0.847   5.453
 4333SOL    HW213899   3.737   0.697   5.482
 4334SOL     OW13900   1.972   2.155   2.654
 4334SOL    HW113901   2.025   2.187   2.732
 4334SOL    HW213902   2.033   2.115   2.586
 4335SOL     OW13903   3.507   3.859   2.758
 4335SOL    HW113904   3.435   3.917   2.722
 4335SOL    HW213905   3.550   3.809   2.683
 4336SOL     OW13906   1.464   6.655   0.070
 4336SOL    HW113907   1.532   6.637   0.141
 4336SOL    HW213908   1.405   6.574   0.060
 4337SOL     OW13909   0.494   4.692   0.539
 4337SOL    HW113910   0.523   4.624   0.471
 4337SOL    HW213911   0.575   4.736   0.578
 4338SOL     OW13912   5.156   5.639   4.620
 4338SOL    HW113913   5.232   5.701   4.641
 4338SOL    HW213914   5.089   5.643   4.694
 4339SOL     OW13915   5.629   3.064   5.266
 4339SOL    HW113916   5.685   2.983   5.281
 4339SOL    HW213917   5.665   3.140   5.320
 4340SOL     OW13918   6.561   4.154   1.653
 4340SOL    HW113919   6.609   4.175   1.568
 4340SOL    HW213920   6.628   4.127   1.722
 4341SOL     OW13921   0.310   5.826   2.195
 4341SOL    HW113922   0.302   5.734   2.156
 4341SOL    HW213923   0.306   5.894   2.122
 4342SOL     OW13924   6.103   3.573   4.352
 4342SOL    HW113925   6.007   3.603   4.355
 4342SOL    HW213926   6.138   3.585   4.260
 4343SOL     OW13927   2.486   6.208   6.013
 4343SOL    HW113928   2.456   6.302   6.032
 4343SOL    HW213929   2.562   6.184   6.072
 4344SOL     OW13930   1.698   5.113   3.026
 4344SOL    HW113931   1.715   5.203   3.067
 4344SOL    HW213932   1.604   5.085   3.046
 4345SOL     OW13933   2.549   2.961   5.431
 4345SOL    HW113934   2.520   3.000   5.344
 4345SOL    HW213935   2.615   3.022   5.475
 4346SOL     OW13936   1.761   3.346   2.181
 4346SOL    HW113937   1.793   3.437   2.208
 4346SOL    HW213938   1.673   3.354   2.136
 4347SOL     OW13939   6.148   6.932   2.805
 4347SOL    HW113940   6.110   6.840   2.800
 4347SOL    HW213941   6.234   6.936   2.753
 4348SOL     OW13942   0.060   4.347   2.809
 4348SOL    HW113943   0.086   4.437   2.774
 4348SOL    HW213944   0.138   4.304   2.854
 4349SOL     OW13945   0.064   1.877   2.457
 4349SOL    HW113946   0.058   1.791   2.506
 4349SOL    HW213947   7.001   1.893   2.406
 4350SOL     OW13948   5.607   2.017   3.994
 4350SOL    HW113949   5.664   2.021   3.912
 4350SOL    HW213950   5.514   1.992   3.969
 4351SOL     OW13951   2.267   6.106   1.213
 4351SOL    HW113952   2.281   6.072   1.306
 4351SOL    HW213953   2.185   6.164   1.211
 4352SOL     OW13954   1.368   2.941   2.179
 4352SOL    HW113955   1.465   2.925   2.193
 4352SOL    HW213956   1.325   2.859   2.142
 4353SOL     OW13957   3.357   3.329   7.002
 4353SOL    HW113958   3.428   3.383   6.957
 4353SOL    HW213959   3.317   3.265   6.937
 4354SOL     OW13960   2.613   0.183   5.821
 4354SOL    HW113961   2.516   0.157   5.820
 4354SOL    HW213962   2.667   0.110   5.864
 4355SOL     OW13963   3.051   0.610   2.512
 4355SOL    HW113964   3.106   0.536   2.472
 4355SOL    HW213965   2.983   0.640   2.445
 4356SOL     OW13966   5.010   4.199   0.933
 4356SOL    HW113967   5.070   4.126   0.900
 4356SOL    HW213968   5.061   4.285   0.933
 4357SOL     OW13969   6.095   0.575   0.243
 4357SOL    HW113970   6.028   0.616   0.304
 4357SOL    HW213971   6.141   0.499   0.290
 4358SOL     OW13972   0.355   6.421   0.003
 4358SOL    HW113973   0.409   6.336   0.007
 4358SOL    HW213974   0.313   6.428   6.934
 4359SOL     OW13975   2.425   2.214   6.494
 4359SOL    HW113976   2.490   2.224   6.419
 4359SOL    HW213977   2.340   2.263   6.471
 4360SOL     OW13978   1.494   2.455   4.296
 4360SOL    HW113979   1.559   2.528   4.276
 4360SOL    HW213980   1.544   2.370   4.316
 4361SOL     OW13981   2.530   3.313   1.191
 4361SOL    HW113982   2.595   3.371   1.239
 4361SOL    HW213983   2.579   3.236   1.149
 4362SOL     OW13984   6.260   5.059   2.776
 4362SOL    HW113985   6.304   5.053   2.686
 4362SOL    HW213986   6.234   4.968   2.806
 4363SOL     OW13987   4.727   2.917   6.980
 4363SOL    HW113988   4.716   2.842   0.025
 4363SOL    HW213989   4.789   2.985   7.018
 4364SOL     OW13990   3.285   3.682   5.060
 4364SOL    HW113991   3.203   3.630   5.037
 4364SOL    HW213992   3.278   3.775   5.023
 4365SOL     OW13993   2.203   2.303   1.754
 4365SOL    HW113994   2.162   2.213   1.741
 4365SOL    HW213995   2.280   2.314   1.691
 4366SOL     OW13996   6.280   6.531   0.185
 4366SOL    HW113997   6.328   6.601   0.132
 4366SOL    HW213998   6.200   6.571   0.229
 4367SOL     OW13999   2.466   4.501   4.895
 4367SOL    HW114000   2.541   4.563   4.873
 4367SOL    HW214001   2.479   4.462   4.986
 4368SOL     OW14002   4.101   4.279   0.956
 4368SOL    HW114003   4.061   4.255   1.044
 4368SOL    HW214004   4.073   4.212   0.887
 4369SOL     OW14005   3.896   5.495   3.767
 4369SOL    HW114006   3.833   5.430   3.724
 4369SOL    HW214007   3.870   5.588   3.742
 4370SOL     OW14008   5.014   5.455   2.796
 4370SOL    HW114009   5.097   5.407   2.824
 4370SOL    HW214010   4.974   5.410   2.716
 4371SOL     OW14011   0.869   1.753   1.536
 4371SOL    HW114012   0.881   1.761   1.635
 4371SOL    HW214013   0.940   1.806   1.490
 4372SOL     OW14014   3.456   1.068   2.861
 4372SOL    HW114015   3.415   1.158   2.873
 4372SOL    HW214016   3.422   1.026   2.777
 4373SOL     OW14017   0.004   2.195   6.675
 4373SOL    HW114018   6.955   2.130   6.704
 4373SOL    HW214019   6.995   2.288   6.695
 4374SOL     OW14020   1.405   1.907   2.354
 4374SOL    HW114021   1.495   1.866   2.370
 4374SOL    HW214022   1.337   1.835   2.340
 4375SOL     OW14023   3.590   0.494   3.238
 4375SOL    HW114024   3.556   0.401   3.224
 4375SOL    HW214025   3.613   0.535   3.150
 4376SOL     OW14026   6.500   6.736   2.016
 4376SOL    HW114027   6.451   6.803   1.960
 4376SOL    HW214028   6.503   6.648   1.969
 4377SOL     OW14029   5.405   4.034   0.542
 4377SOL    HW114030   5.497   4.060   0.570
 4377SOL    HW214031   5.341   4.108   0.564
 4378SOL     OW14032   2.129   1.680   2.747
 4378SOL    HW114033   2.201   1.611   2.744
 4378SOL    HW214034   2.162   1.760   2.796
 4379SOL     OW14035   2.077   1.254   2.788
 4379SOL    HW114036   2.111   1.302   2.708
 4379SOL    HW214037   2.113   1.161   2.789
 4380SOL     OW14038   1.610   6.949   2.878
 4380SOL    HW114039   1.547   6.989   2.811
 4380SOL    HW214040   1.698   6.931   2.834
 4381SOL     OW14041   0.648   5.418   5.478
 4381SOL    HW114042   0.683   5.374   5.560
 4381SOL    HW214043   0.595   5.499   5.503
 4382SOL     OW14044   0.628   3.813   5.154
 4382SOL    HW114045   0.587   3.902   5.133
 4382SOL    HW214046   0.618   3.793   5.251
 4383SOL     OW14047   0.567   3.300   6.801
 4383SOL    HW114048   0.591   3.392   6.835
 4383SOL    HW214049   0.554   3.239   6.879
 4384SOL     OW14050   5.816   0.588   4.659
 4384SOL    HW114051   5.745   0.633   4.605
 4384SOL    HW214052   5.906   0.615   4.625
 4385SOL     OW14053   5.497   2.605   5.078
 4385SOL    HW114054   5.536   2.682   5.028
 4385SOL    HW214055   5.420   2.638   5.133
 4386SOL     OW14056   1.760   3.542   5.972
 4386SOL    HW114057   1.820   3.621   5.966
 4386SOL    HW214058   1.725   3.534   6.066
 4387SOL     OW14059   6.765   2.479   1.474
 4387SOL    HW114060   6.734   2.448   1.564
 4387SOL    HW214061   6.774   2.579   1.474
 4388SOL     OW14062   4.259   2.342   5.815
 4388SOL    HW114063   4.345   2.299   5.841
 4388SOL    HW214064   4.232   2.409   5.885
 4389SOL     OW14065   5.844   3.006   1.289
 4389SOL    HW114066   5.913   2.996   1.217
 4389SOL    HW214067   5.805   2.917   1.311
 4390SOL     OW14068   3.684   0.070   1.671
 4390SOL    HW114069   3.771   0.023   1.659
 4390SOL    HW214070   3.697   0.168   1.662
 4391SOL     OW14071   2.208   5.751   6.913
 4391SOL    HW114072   2.153   5.683   6.865
 4391SOL    HW214073   2.305   5.739   6.889
 4392SOL     OW14074   0.357   2.800   5.398
 4392SOL    HW114075   0.347   2.730   5.468
 4392SOL    HW214076   0.454   2.811   5.375
 4393SOL     OW14077   6.345   1.114   2.014
 4393SOL    HW114078   6.345   1.047   2.088
 4393SOL    HW214079   6.254   1.120   1.973
 4394SOL     OW14080   6.771   5.179   2.247
 4394SOL    HW114081   6.741   5.189   2.341
 4394SOL    HW214082   6.696   5.202   2.185
 4395SOL     OW14083   1.980   0.228   1.802
 4395SOL    HW114084   1.978   0.195   1.708
 4395SOL    HW214085   1.904   0.290   1.818
 4396SOL     OW14086   1.813   1.414   4.084
 4396SOL    HW114087   1.760   1.485   4.131
 4396SOL    HW214088   1.844   1.347   4.151
 4397SOL     OW14089   2.094   2.569   3.967
 4397SOL    HW114090   2.170   2.632   3.948
 4397SOL    HW214091   2.027   2.615   4.025
 4398SOL     OW14092   0.984   3.600   5.912
 4398SOL    HW114093   0.976   3.636   6.004
 4398SOL    HW214094   0.997   3.501   5.916
 4399SOL     OW14095   3.516   6.666   2.730
 4399SOL    HW114096   3.521   6.573   2.695
 4399SOL    HW214097   3.546   6.729   2.658
 4400SOL     OW14098   2.168   6.412   5.246
 4400SOL    HW114099   2.105   6.476   5.289
 4400SOL    HW214100   2.259   6.452   5.242
 4401SOL     OW14101   2.830   0.097   5.636
 4401SOL    HW114102   2.763   0.059   5.699
 4401SOL    HW214103   2.869   0.180   5.676
 4402SOL     OW14104   1.591   0.560   2.396
 4402SOL    HW114105   1.591   0.575   2.495
 4402SOL    HW214106   1.590   0.648   2.349
 4403SOL     OW14107   0.936   0.362   0.650
 4403SOL    HW114108   0.904   0.427   0.719
 4403SOL    HW214109   1.028   0.389   0.620
 4404SOL     OW14110   1.890   6.433   6.037
 4404SOL    HW114111   1.920   6.386   6.120
 4404SOL    HW214112   1.960   6.425   5.967
 4405SOL     OW14113   1.930   4.492   1.844
 4405SOL    HW114114   1.921   4.394   1.864
 4405SOL    HW214115   1.840   4.534   1.840
 4406SOL     OW14116   0.444   2.709   0.743
 4406SOL    HW114117   0.465   2.642   0.672
 4406SOL    HW214118   0.350   2.696   0.774
 4407SOL     OW14119   6.573   5.675   1.085
 4407SOL    HW114120   6.545   5.587   1.123
 4407SOL    HW214121   6.666   5.696   1.114
 4408SOL     OW14122   2.272   6.975   0.697
 4408SOL    HW114123   2.179   6.964   0.663
 4408SOL    HW214124   2.322   0.018   0.638
 4409SOL     OW14125   4.465   1.336   2.440
 4409SOL    HW114126   4.506   1.427   2.438
 4409SOL    HW214127   4.370   1.341   2.408
 4410SOL     OW14128   0.566   4.517   0.332
 4410SOL    HW114129   0.500   4.480   0.267
 4410SOL    HW214130   0.649   4.460   0.331
 4411SOL     OW14131   3.871   4.084   5.184
 4411SOL    HW114132   3.870   4.183   5.173
 4411SOL    HW214133   3.809   4.042   5.116
 4412SOL     OW14134   4.694   6.255   4.002
 4412SOL    HW114135   4.755   6.305   3.942
 4412SOL    HW214136   4.734   6.166   4.024
 4413SOL     OW14137   5.870   4.758   4.235
 4413SOL    HW114138   5.925   4.720   4.160
 4413SOL    HW214139   5.811   4.686   4.272
 4414SOL     OW14140   3.664   5.683   1.349
 4414SOL    HW114141   3.703   5.607   1.402
 4414SOL    HW214142   3.731   5.714   1.282
 4415SOL     OW14143   4.518   2.529   0.242
 4415SOL    HW114144   4.480   2.545   0.151
 4415SOL    HW214145   4.597   2.588   0.256
 4416SOL     OW14146   4.363   1.996   3.645
 4416SOL    HW114147   4.312   1.914   3.671
 4416SOL    HW214148   4.420   1.976   3.566
 4417SOL     OW14149   5.918   3.959   4.051
 4417SOL    HW114150   5.918   3.962   4.150
 4417SOL    HW214151   5.875   4.041   4.014
 4418SOL     OW14152   6.388   2.031   2.324
 4418SOL    HW114153   6.422   2.119   2.357
 4418SOL    HW214154   6.368   2.037   2.226
 4419SOL     OW14155   6.189   0.062   5.392
 4419SOL    HW114156   6.110   0.041   5.334
 4419SOL    HW214157   6.265   0.094   5.335
 4420SOL     OW14158   4.132   1.259   1.796
 4420SOL    HW114159   4.069   1.263   1.873
 4420SOL    HW214160   4.136   1.349   1.751
 4421SOL     OW14161   1.867   1.792   4.886
 4421SOL    HW114162   1.939   1.735   4.925
 4421SOL    HW214163   1.893   1.888   4.893
 4422SOL     OW14164   1.184   4.402   6.780
 4422SOL    HW114165   1.242   4.320   6.781
 4422SOL    HW214166   1.195   4.451   6.867
 4423SOL     OW14167   0.379   3.615   5.615
 4423SOL    HW114168   0.315   3.604   5.691
 4423SOL    HW214169   0.337   3.675   5.546
 4424SOL     OW14170   5.566   0.916   4.001
 4424SOL    HW114171   5.538   0.961   4.086
 4424SOL    HW214172   5.486   0.882   3.953
 4425SOL     OW14173   3.392   4.974   0.546
 4425SOL    HW114174   3.346   4.910   0.609
 4425SOL    HW214175   3.326   5.004   0.476
 4426SOL     OW14176   1.005   1.210   4.139
 4426SOL    HW114177   1.043   1.118   4.128
 4426SOL    HW214178   1.040   1.250   4.224
 4427SOL     OW14179   5.876   6.562   2.558
 4427SOL    HW114180   5.901   6.645   2.508
 4427SOL    HW214181   5.793   6.523   2.519
 4428SOL     OW14182   4.067   0.836   3.610
 4428SOL    HW114183   4.137   0.828   3.681
 4428SOL    HW214184   4.079   0.923   3.561
 4429SOL     OW14185   3.035   0.279   2.232
 4429SOL    HW114186   3.062   0.316   2.143
 4429SOL    HW214187   2.939   0.303   2.250
 4430SOL     OW14188   5.071   4.635   5.057
 4430SOL    HW114189   4.980   4.594   5.067
 4430SOL    HW214190   5.123   4.621   5.141
 4431SOL     OW14191   2.349   0.897   3.001
 4431SOL    HW114192   2.298   0.945   3.072
 4431SOL    HW214193   2.447   0.900   3.022
 4432SOL     OW14194   2.881   3.049   5.858
 4432SOL    HW114195   2.844   3.089   5.775
 4432SOL    HW214196   2.834   2.962   5.877
 4433SOL     OW14197   6.157   2.109   4.046
 4433SOL    HW114198   6.128   2.132   4.139
 4433SOL    HW214199   6.096   2.154   3.981
 4434SOL     OW14200   5.809   1.606   2.898
 4434SOL    HW114201   5.841   1.682   2.842
 4434SOL    HW214202   5.754   1.544   2.842
 4435SOL     OW14203   4.368   3.604   1.033
 4435SOL    HW114204   4.376   3.599   1.132
 4435SOL    HW214205   4.337   3.515   0.998
 4436SOL     OW14206   4.545   1.151   1.645
 4436SOL    HW114207   4.633   1.155   1.694
 4436SOL    HW214208   4.473   1.188   1.704
 4437SOL     OW14209   1.166   2.829   2.670
 4437SOL    HW114210   1.177   2.849   2.572
 4437SOL    HW214211   1.254   2.805   2.709
 4438SOL     OW14212   4.748   6.881   6.667
 4438SOL    HW114213   4.696   6.944   6.609
 4438SOL    HW214214   4.838   6.921   6.687
 4439SOL     OW14215   0.253   4.275   1.509
 4439SOL    HW114216   0.305   4.200   1.550
 4439SOL    HW214217   0.208   4.242   1.425
 4440SOL     OW14218   3.060   5.064   1.013
 4440SOL    HW114219   3.158   5.084   1.020
 4440SOL    HW214220   3.015   5.085   1.099
 4441SOL     OW14221   0.570   1.592   1.963
 4441SOL    HW114222   0.635   1.529   1.919
 4441SOL    HW214223   0.606   1.685   1.957
 4442SOL     OW14224   1.683   4.844   4.454
 4442SOL    HW114225   1.613   4.814   4.519
 4442SOL    HW214226   1.726   4.928   4.488
 4443SOL     OW14227   1.477   3.569   5.821
 4443SOL    HW114228   1.474   3.645   5.755
 4443SOL    HW214229   1.572   3.544   5.839
 4444SOL     OW14230   3.484   3.740   6.759
 4444SOL    HW114231   3.510   3.751   6.664
 4444SOL    HW214232   3.446   3.826   6.794
 4445SOL     OW14233   1.228   6.558   0.447
 4445SOL    HW114234   1.280   6.640   0.427
 4445SOL    HW214235   1.276   6.504   0.517
 4446SOL     OW14236   5.297   2.471   0.745
 4446SOL    HW114237   5.235   2.473   0.824
 4446SOL    HW214238   5.367   2.401   0.759
 4447SOL     OW14239   5.782   3.991   5.582
 4447SOL    HW114240   5.700   4.028   5.627
 4447SOL    HW214241   5.805   4.050   5.504
 4448SOL     OW14242   2.390   5.428   1.680
 4448SOL    HW114243   2.306   5.467   1.720
 4448SOL    HW214244   2.372   5.334   1.653
 4449SOL     OW14245   5.285   0.852   6.288
 4449SOL    HW114246   5.350   0.776   6.285
 4449SOL    HW214247   5.197   0.820   6.323
 4450SOL     OW14248   3.509   2.102   5.945
 4450SOL    HW114249   3.605   2.094   5.918
 4450SOL    HW214250   3.500   2.177   6.010
 4451SOL     OW14251   5.289   4.701   4.010
 4451SOL    HW114252   5.276   4.633   4.081
 4451SOL    HW214253   5.203   4.716   3.961
 4452SOL     OW14254   5.665   5.733   4.354
 4452SOL    HW114255   5.661   5.702   4.260
 4452SOL    HW214256   5.573   5.729   4.395
 4453SOL     OW14257   1.744   2.931   1.700
 4453SOL    HW114258   1.678   2.973   1.763
 4453SOL    HW214259   1.699   2.912   1.613
 4454SOL     OW14260   1.259   1.823   0.031
 4454SOL    HW114261   1.220   1.739   0.070
 4454SOL    HW214262   1.296   1.804   6.961
 4455SOL     OW14263   5.474   5.322   5.419
 4455SOL    HW114264   5.515   5.413   5.421
 4455SOL    HW214265   5.488   5.281   5.329
 4456SOL     OW14266   2.411   6.533   3.133
 4456SOL    HW114267   2.397   6.434   3.135
 4456SOL    HW214268   2.411   6.565   3.038
 4457SOL     OW14269   3.794   1.708   2.911
 4457SOL    HW114270   3.806   1.612   2.933
 4457SOL    HW214271   3.823   1.765   2.988
 4458SOL     OW14272   1.993   3.417   0.554
 4458SOL    HW114273   1.965   3.328   0.588
 4458SOL    HW214274   2.058   3.406   0.479
 4459SOL     OW14275   4.213   2.038   4.599
 4459SOL    HW114276   4.195   2.130   4.634
 4459SOL    HW214277   4.149   1.973   4.640
 4460SOL     OW14278   1.097   3.094   0.146
 4460SOL    HW114279   1.143   3.057   0.065
 4460SOL    HW214280   1.067   3.019   0.205
 4461SOL     OW14281   2.084   0.879   0.900
 4461SOL    HW114282   2.119   0.794   0.940
 4461SOL    HW214283   2.065   0.944   0.973
 4462SOL     OW14284   6.424   4.814   2.325
 4462SOL    HW114285   6.411   4.741   2.258
 4462SOL    HW214286   6.395   4.901   2.285
 4463SOL     OW14287   4.608   1.051   1.006
 4463SOL    HW114288   4.582   1.040   1.102
 4463SOL    HW214289   4.586   0.967   0.956
 4464SOL     OW14290   0.335   5.803   0.409
 4464SOL    HW114291   0.335   5.856   0.494
 4464SOL    HW214292   0.255   5.827   0.355
 4465SOL     OW14293   3.744   5.252   0.994
 4465SOL    HW114294   3.819   5.188   0.977
 4465SOL    HW214295   3.657   5.207   0.977
 4466SOL     OW14296   0.990   2.289   3.519
 4466SOL    HW114297   0.909   2.247   3.479
 4466SOL    HW214298   1.035   2.224   3.580
 4467SOL     OW14299   2.118   5.392   3.524
 4467SOL    HW114300   2.107   5.337   3.441
 4467SOL    HW214301   2.040   5.378   3.585
 4468SOL     OW14302   1.663   3.959   0.673
 4468SOL    HW114303   1.750   3.932   0.714
 4468SOL    HW214304   1.677   3.986   0.578
 4469SOL     OW14305   3.673   1.126   1.052
 4469SOL    HW114306   3.667   1.163   0.960
 4469SOL    HW214307   3.587   1.083   1.077
 4470SOL     OW14308   0.520   1.754   2.593
 4470SOL    HW114309   0.517   1.830   2.528
 4470SOL    HW214310   0.429   1.741   2.633
 4471SOL     OW14311   0.692   2.666   6.609
 4471SOL    HW114312   0.784   2.705   6.603
 4471SOL    HW214313   0.699   2.567   6.623
 4472SOL     OW14314   0.339   2.469   1.558
 4472SOL    HW114315   0.387   2.435   1.640
 4472SOL    HW214316   0.383   2.553   1.527
 4473SOL     OW14317   5.756   3.135   4.512
 4473SOL    HW114318   5.839   3.117   4.565
 4473SOL    HW214319   5.682   3.075   4.543
 4474SOL     OW14320   3.037   6.869   1.956
 4474SOL    HW114321   2.980   6.920   1.891
 4474SOL    HW214322   3.035   6.915   2.045
 4475SOL     OW14323   1.414   4.033   1.924
 4475SOL    HW114324   1.470   4.067   1.848
 4475SOL    HW214325   1.348   4.103   1.950
 4476SOL     OW14326   6.290   1.328   3.259
 4476SOL    HW114327   6.339   1.314   3.345
 4476SOL    HW214328   6.192   1.318   3.275
 4477SOL     OW14329   1.661   0.571   5.416
 4477SOL    HW114330   1.604   0.515   5.356
 4477SOL    HW214331   1.671   0.525   5.504
 4478SOL     OW14332   2.788   0.054   2.436
 4478SOL    HW114333   2.732   0.016   2.510
 4478SOL    HW214334   2.828   0.141   2.466
 4479SOL     OW14335   0.328   2.121   1.721
 4479SOL    HW114336   0.263   2.191   1.751
 4479SOL    HW214337   0.284   2.031   1.727
 4480SOL     OW14338   0.020   4.018   5.123
 4480SOL    HW114339   0.002   4.014   5.025
 4480SOL    HW214340   0.115   4.044   5.138
 4481SOL     OW14341   2.646   5.441   5.088
 4481SOL    HW114342   2.566   5.496   5.111
 4481SOL    HW214343   2.696   5.484   5.012
 4482SOL     OW14344   1.889   2.958   5.176
 4482SOL    HW114345   1.981   2.946   5.139
 4482SOL    HW214346   1.832   3.006   5.109
 4483SOL     OW14347   6.800   2.215   2.137
 4483SOL    HW114348   6.788   2.158   2.056
 4483SOL    HW214349   6.727   2.283   2.141
 4484SOL     OW14350   3.225   2.199   6.504
 4484SOL    HW114351   3.246   2.119   6.448
 4484SOL    HW214352   3.172   2.170   6.584
 4485SOL     OW14353   5.981   2.488   4.573
 4485SOL    HW114354   5.907   2.480   4.507
 4485SOL    HW214355   5.955   2.552   4.645
 4486SOL     OW14356   6.199   5.513   4.594
 4486SOL    HW114357   6.221   5.418   4.613
 4486SOL    HW214358   6.100   5.525   4.595
 4487SOL     OW14359   3.056   2.401   6.464
 4487SOL    HW114360   3.080   2.474   6.528
 4487SOL    HW214361   3.109   2.318   6.486
 4488SOL     OW14362   1.349   3.414   5.631
 4488SOL    HW114363   1.414   3.457   5.693
 4488SOL    HW214364   1.330   3.321   5.662
 4489SOL     OW14365   5.309   5.314   4.741
 4489SOL    HW114366   5.275   5.400   4.702
 4489SOL    HW214367   5.241   5.277   4.804
 4490SOL     OW14368   5.035   2.126   1.436
 4490SOL    HW114369   4.994   2.167   1.517
 4490SOL    HW214370   5.134   2.116   1.449
 4491SOL     OW14371   0.193   3.469   4.001
 4491SOL    HW114372   0.206   3.566   3.982
 4491SOL    HW214373   0.213   3.451   4.097
 4492SOL     OW14374   6.124   3.871   1.883
 4492SOL    HW114375   6.198   3.938   1.882
 4492SOL    HW214376   6.159   3.783   1.916
 4493SOL     OW14377   5.344   6.014   4.772
 4493SOL    HW114378   5.287   5.966   4.840
 4493SOL    HW214379   5.436   6.028   4.809
 4494SOL     OW14380   0.125   0.707   6.129
 4494SOL    HW114381   0.088   0.798   6.148
 4494SOL    HW214382   0.063   0.658   6.068
 4495SOL     OW14383   4.714   0.475   3.897
 4495SOL    HW114384   4.782   0.548   3.888
 4495SOL    HW214385   4.735   0.402   3.832
 4496SOL     OW14386   5.573   6.131   0.564
 4496SOL    HW114387   5.547   6.072   0.642
 4496SOL    HW214388   5.659   6.099   0.526
 4497SOL     OW14389   4.179   1.845   6.683
 4497SOL    HW114390   4.178   1.855   6.583
 4497SOL    HW214391   4.221   1.757   6.707
 4498SOL     OW14392   0.040   4.731   6.952
 4498SOL    HW114393   7.014   4.681   6.879
 4498SOL    HW214394   0.128   4.765   6.919
 4499SOL     OW14395   6.152   3.422   3.639
 4499SOL    HW114396   6.200   3.354   3.583
 4499SOL    HW214397   6.201   3.509   3.636
 4500SOL     OW14398   3.493   3.771   5.832
 4500SOL    HW114399   3.517   3.724   5.747
 4500SOL    HW214400   3.559   3.746   5.903
 4501SOL     OW14401   6.684   3.310   2.892
 4501SOL    HW114402   6.670   3.398   2.936
 4501SOL    HW214403   6.772   3.271   2.922
 4502SOL     OW14404   0.549   3.206   0.055
 4502SOL    HW114405   0.454   3.214   0.087
 4502SOL    HW214406   0.579   3.112   0.063
 4503SOL     OW14407   3.707   6.993   1.370
 4503SOL    HW114408   3.675   6.972   1.463
 4503SOL    HW214409   3.629   7.008   1.311
 4504SOL     OW14410   1.122   1.531   4.501
 4504SOL    HW114411   1.195   1.536   4.569
 4504SOL    HW214412   1.129   1.609   4.439
 4505SOL     OW14413   6.342   4.800   1.844
 4505SOL    HW114414   6.376   4.871   1.783
 4505SOL    HW214415   6.417   4.739   1.870
 4506SOL     OW14416   5.178   2.802   3.392
 4506SOL    HW114417   5.268   2.811   3.349
 4506SOL    HW214418   5.107   2.801   3.321
 4507SOL     OW14419   0.048   3.789   3.461
 4507SOL    HW114420   6.977   3.767   3.494
 4507SOL    HW214421   0.109   3.712   3.478
 4508SOL     OW14422   1.414   4.859   6.396
 4508SOL    HW114423   1.420   4.913   6.480
 4508SOL    HW214424   1.445   4.766   6.414
 4509SOL     OW14425   5.014   2.215   2.993
 4509SOL    HW114426   5.072   2.178   3.066
 4509SOL    HW214427   5.009   2.150   2.918
 4510SOL     OW14428   4.144   1.880   4.191
 4510SOL    HW114429   4.125   1.900   4.095
 4510SOL    HW214430   4.158   1.781   4.203
 4511SOL     OW14431   5.962   3.329   6.308
 4511SOL    HW114432   6.007   3.415   6.332
 4511SOL    HW214433   6.002   3.294   6.223
 4512SOL     OW14434   3.012   0.647   6.156
 4512SOL    HW114435   2.943   0.706   6.199
 4512SOL    HW214436   3.058   0.593   6.227
 4513SOL     OW14437   0.981   4.859   6.305
 4513SOL    HW114438   0.898   4.849   6.359
 4513SOL    HW214439   1.022   4.949   6.321
 4514SOL     OW14440   3.245   2.357   5.953
 4514SOL    HW114441   3.174   2.419   5.919
 4514SOL    HW214442   3.322   2.356   5.890
 4515SOL     OW14443   5.825   2.099   5.308
 4515SOL    HW114444   5.727   2.102   5.285
 4515SOL    HW214445   5.836   2.061   5.399
 4516SOL     OW14446   2.666   0.057   0.212
 4516SOL    HW114447   2.700   0.063   0.306
 4516SOL    HW214448   2.654   6.983   0.186
 4517SOL     OW14449   5.014   6.695   6.551
 4517SOL    HW114450   4.930   6.741   6.579
 4517SOL    HW214451   4.998   6.597   6.542
 4518SOL     OW14452   0.309   6.688   2.256
 4518SOL    HW114453   0.340   6.636   2.335
 4518SOL    HW214454   0.330   6.637   2.172
 4519SOL     OW14455   5.390   6.837   1.037
 4519SOL    HW114456   5.348   6.841   0.946
 4519SOL    HW214457   5.441   6.752   1.046
 4520SOL     OW14458   4.194   5.950   6.183
 4520SOL    HW114459   4.123   6.009   6.220
 4520SOL    HW214460   4.163   5.855   6.183
 4521SOL     OW14461   5.931   1.993   5.559
 4521SOL    HW114462   5.995   2.070   5.556
 4521SOL    HW214463   5.957   1.931   5.633
 4522SOL     OW14464   5.836   5.151   3.515
 4522SOL    HW114465   5.863   5.245   3.491
 4522SOL    HW214466   5.899   5.086   3.474
 4523SOL     OW14467   1.534   4.310   0.404
 4523SOL    HW114468   1.585   4.395   0.407
 4523SOL    HW214469   1.473   4.304   0.483
 4524SOL     OW14470   6.139   3.239   2.421
 4524SOL    HW114471   6.086   3.251   2.505
 4524SOL    HW214472   6.234   3.265   2.438
 4525SOL     OW14473   4.031   2.039   5.288
 4525SOL    HW114474   3.972   1.974   5.337
 4525SOL    HW214475   4.020   2.130   5.328
 4526SOL     OW14476   6.466   0.253   6.748
 4526SOL    HW114477   6.372   0.264   6.716
 4526SOL    HW214478   6.478   0.305   6.833
 4527SOL     OW14479   6.657   6.853   2.608
 4527SOL    HW114480   6.731   6.815   2.552
 4527SOL    HW214481   6.631   6.943   2.573
 4528SOL     OW14482   4.354   0.300   6.251
 4528SOL    HW114483   4.298   0.294   6.169
 4528SOL    HW214484   4.311   0.361   6.318
 4529SOL     OW14485   2.206   0.940   5.090
 4529SOL    HW114486   2.256   0.868   5.139
 4529SOL    HW214487   2.169   1.005   5.156
 4530SOL     OW14488   2.847   5.467   3.330
 4530SOL    HW114489   2.930   5.522   3.339
 4530SOL    HW214490   2.813   5.443   3.421
 4531SOL     OW14491   0.529   3.196   6.000
 4531SOL    HW114492   0.512   3.230   6.092
 4531SOL    HW214493   0.624   3.214   5.974
 4532SOL     OW14494   6.582   1.175   2.403
 4532SOL    HW114495   6.650   1.111   2.367
 4532SOL    HW214496   6.627   1.241   2.463
 4533SOL     OW14497   2.012   0.939   3.016
 4533SOL    HW114498   2.062   0.969   3.098
 4533SOL    HW214499   2.069   0.956   2.935
 4534SOL     OW14500   5.458   3.740   5.388
 4534SOL    HW114501   5.370   3.694   5.394
 4534SOL    HW214502   5.509   3.727   5.473
 4535SOL     OW14503   3.954   0.899   2.135
 4535SOL    HW114504   3.891   0.975   2.121
 4535SOL    HW214505   3.983   0.864   2.046
 4536SOL     OW14506   3.469   1.730   4.760
 4536SOL    HW114507   3.532   1.769   4.827
 4536SOL    HW214508   3.375   1.737   4.795
 4537SOL     OW14509   4.256   3.257   1.220
 4537SOL    HW114510   4.191   3.189   1.254
 4537SOL    HW214511   4.314   3.288   1.296
 4538SOL     OW14512   2.667   0.628   2.009
 4538SOL    HW114513   2.729   0.700   1.980
 4538SOL    HW214514   2.588   0.625   1.948
 4539SOL     OW14515   3.285   5.744   5.108
 4539SOL    HW114516   3.353   5.817   5.106
 4539SOL    HW214517   3.194   5.783   5.115
 4540SOL     OW14518   2.362   1.427   0.133
 4540SOL    HW114519   2.277   1.375   0.142
 4540SOL    HW214520   2.389   1.432   0.037
 4541SOL     OW14521   5.294   1.433   6.421
 4541SOL    HW114522   5.255   1.368   6.486
 4541SOL    HW214523   5.353   1.385   6.356
 4542SOL     OW14524   0.227   2.752   1.816
 4542SOL    HW114525   0.308   2.693   1.806
 4542SOL    HW214526   0.243   2.838   1.767
 4543SOL     OW14527   5.084   2.305   0.926
 4543SOL    HW114528   5.099   2.209   0.899
 4543SOL    HW214529   5.067   2.309   1.024
 4544SOL     OW14530   3.514   5.490   0.172
 4544SOL    HW114531   3.520   5.489   0.272
 4544SOL    HW214532   3.575   5.560   0.135
 4545SOL     OW14533   6.204   3.005   5.087
 4545SOL    HW114534   6.271   3.049   5.147
 4545SOL    HW214535   6.113   3.037   5.110
 4546SOL     OW14536   2.562   6.938   4.487
 4546SOL    HW114537   2.560   6.988   4.401
 4546SOL    HW214538   2.476   6.952   4.536
 4547SOL     OW14539   6.361   1.541   0.593
 4547SOL    HW114540   6.291   1.535   0.521
 4547SOL    HW214541   6.450   1.557   0.551
 4548SOL     OW14542   2.451   2.520   3.747
 4548SOL    HW114543   2.399   2.605   3.736
 4548SOL    HW214544   2.545   2.534   3.715
 4549SOL     OW14545   5.540   3.884   2.129
 4549SOL    HW114546   5.587   3.970   2.150
 4549SOL    HW214547   5.557   3.819   2.203
 4550SOL     OW14548   1.144   4.364   3.066
 4550SOL    HW114549   1.168   4.371   3.163
 4550SOL    HW214550   1.079   4.436   3.041
 4551SOL     OW14551   0.389   3.718   4.760
 4551SOL    HW114552   0.448   3.655   4.811
 4551SOL    HW214553   0.301   3.726   4.806
 4552SOL     OW14554   5.383   2.169   1.031
 4552SOL    HW114555   5.445   2.096   1.003
 4552SOL    HW214556   5.416   2.257   0.995
 4553SOL     OW14557   5.276   3.440   0.258
 4553SOL    HW114558   5.330   3.358   0.238
 4553SOL    HW214559   5.244   3.480   0.172
 4554SOL     OW14560   6.730   0.321   1.755
 4554SOL    HW114561   6.784   0.282   1.681
 4554SOL    HW214562   6.716   0.418   1.739
 4555SOL     OW14563   1.686   1.081   5.819
 4555SOL    HW114564   1.601   1.035   5.793
 4555SOL    HW214565   1.716   1.141   5.744
 4556SOL     OW14566   5.744   3.572   4.688
 4556SOL    HW114567   5.827   3.627   4.693
 4556SOL    HW214568   5.745   3.518   4.604
 4557SOL     OW14569   4.906   5.628   4.263
 4557SOL    HW114570   4.840   5.587   4.326
 4557SOL    HW214571   4.969   5.557   4.230
 4558SOL     OW14572   6.949   4.065   4.836
 4558SOL    HW114573   6.869   4.098   4.786
 4558SOL    HW214574   7.009   4.016   4.773
 4559SOL     OW14575   6.949   3.201   2.720
 4559SOL    HW114576   0.007   3.199   2.659
 4559SOL    HW214577   6.926   3.296   2.742
 4560SOL     OW14578   5.894   3.377   1.531
 4560SOL    HW114579   5.814   3.389   1.589
 4560SOL    HW214580   5.916   3.279   1.525
 4561SOL     OW14581   3.458   2.114   3.262
 4561SOL    HW114582   3.381   2.139   3.204
 4561SOL    HW214583   3.543   2.133   3.214
 4562SOL     OW14584   1.360   6.814   0.732
 4562SOL    HW114585   1.267   6.795   0.701
 4562SOL    HW214586   1.357   6.869   0.815
 4563SOL     OW14587   0.136   3.039   1.431
 4563SOL    HW114588   0.038   3.048   1.413
 4563SOL    HW214589   0.162   2.942   1.427
 4564SOL     OW14590   6.740   6.081   1.988
 4564SOL    HW114591   6.834   6.104   1.962
 4564SOL    HW214592   6.721   6.119   2.079
 4565SOL     OW14593   1.450   0.461   4.505
 4565SOL    HW114594   1.454   0.384   4.569
 4565SOL    HW214595   1.508   0.440   4.425
 4566SOL     OW14596   6.978   3.488   1.312
 4566SOL    HW114597   7.008   3.466   1.405
 4566SOL    HW214598   6.992   3.585   1.295
 4567SOL     OW14599   6.899   1.580   6.190
 4567SOL    HW114600   6.879   1.596   6.287
 4567SOL    HW214601   6.846   1.501   6.158
 4568SOL     OW14602   2.016   3.712   6.003
 4568SOL    HW114603   2.116   3.709   6.010
 4568SOL    HW214604   1.982   3.795   6.046
 4569SOL     OW14605   2.406   0.165   3.211
 4569SOL    HW114606   2.430   0.087   3.154
 4569SOL    HW214607   2.365   0.237   3.154
 4570SOL     OW14608   6.104   6.345   2.589
 4570SOL    HW114609   6.175   6.333   2.659
 4570SOL    HW214610   6.119   6.432   2.543
 4571SOL     OW14611   4.889   3.182   6.199
 4571SOL    HW114612   4.802   3.134   6.189
 4571SOL    HW214613   4.961   3.131   6.152
 4572SOL     OW14614   2.052   1.003   6.343
 4572SOL    HW114615   2.103   1.088   6.342
 4572SOL    HW214616   2.055   0.964   6.435
 4573SOL     OW14617   6.958   0.242   0.567
 4573SOL    HW114618   7.009   0.174   0.513
 4573SOL    HW214619   6.915   0.308   0.506
 4574SOL     OW14620   5.602   3.942   0.287
 4574SOL    HW114621   5.526   3.968   0.347
 4574SOL    HW214622   5.642   3.856   0.320
 4575SOL     OW14623   5.387   0.345   5.066
 4575SOL    HW114624   5.318   0.320   5.134
 4575SOL    HW214625   5.362   0.305   4.978
 4576SOL     OW14626   3.476   5.307   5.345
 4576SOL    HW114627   3.532   5.389   5.350
 4576SOL    HW214628   3.502   5.244   5.419
 4577SOL     OW14629   0.855   3.011   4.216
 4577SOL    HW114630   0.869   2.973   4.125
 4577SOL    HW214631   0.779   3.076   4.214
 4578SOL     OW14632   0.978   2.020   4.969
 4578SOL    HW114633   0.889   2.065   4.969
 4578SOL    HW214634   1.039   2.066   4.905
 4579SOL     OW14635   4.553   0.798   2.930
 4579SOL    HW114636   4.489   0.764   2.999
 4579SOL    HW214637   4.530   0.893   2.908
 4580SOL     OW14638   5.691   3.465   0.653
 4580SOL    HW114639   5.681   3.377   0.701
 4580SOL    HW214640   5.637   3.463   0.569
 4581SOL     OW14641   2.474   6.071   2.944
 4581SOL    HW114642   2.570   6.053   2.966
 4581SOL    HW214643   2.444   6.008   2.871
 4582SOL     OW14644   4.925   1.008   3.995
 4582SOL    HW114645   4.849   0.954   3.960
 4582SOL    HW214646   4.945   0.982   4.089
 4583SOL     OW14647   3.044   1.743   6.848
 4583SOL    HW114648   3.128   1.717   6.801
 4583SOL    HW214649   3.007   1.665   6.898
 4584SOL     OW14650   1.737   5.188   5.286
 4584SOL    HW114651   1.693   5.194   5.376
 4584SOL    HW214652   1.822   5.240   5.287
 4585SOL     OW14653   2.342   5.110   3.348
 4585SOL    HW114654   2.399   5.136   3.427
 4585SOL    HW214655   2.277   5.040   3.376
 4586SOL     OW14656   3.988   3.899   0.430
 4586SOL    HW114657   4.043   3.859   0.504
 4586SOL    HW214658   3.900   3.930   0.467
 4587SOL     OW14659   3.300   3.568   3.488
 4587SOL    HW114660   3.324   3.476   3.460
 4587SOL    HW214661   3.264   3.619   3.410
 4588SOL     OW14662   3.259   2.855   5.875
 4588SOL    HW114663   3.209   2.808   5.803
 4588SOL    HW214664   3.238   2.812   5.963
 4589SOL     OW14665   5.965   0.866   2.038
 4589SOL    HW114666   5.900   0.860   1.962
 4589SOL    HW214667   6.035   0.795   2.026
 4590SOL     OW14668   4.091   5.307   1.085
 4590SOL    HW114669   4.149   5.227   1.068
 4590SOL    HW214670   4.034   5.291   1.165
 4591SOL     OW14671   1.576   0.260   5.160
 4591SOL    HW114672   1.652   0.311   5.119
 4591SOL    HW214673   1.609   0.171   5.192
 4592SOL     OW14674   3.211   1.369   3.140
 4592SOL    HW114675   3.177   1.463   3.150
 4592SOL    HW214676   3.191   1.318   3.223
 4593SOL     OW14677   6.136   6.517   2.134
 4593SOL    HW114678   6.115   6.429   2.091
 4593SOL    HW214679   6.227   6.512   2.176
 4594SOL     OW14680   3.143   0.314   3.134
 4594SOL    HW114681   3.204   0.235   3.136
 4594SOL    HW214682   3.093   0.316   3.047
 4595SOL     OW14683   4.606   2.725   5.835
 4595SOL    HW114684   4.634   2.793   5.767
 4595SOL    HW214685   4.507   2.730   5.849
 4596SOL     OW14686   6.664   0.344   2.817
 4596SOL    HW114687   6.621   0.272   2.762
 4596SOL    HW214688   6.707   0.411   2.757
 4597SOL     OW14689   2.996   5.313   6.678
 4597SOL    HW114690   2.985   5.389   6.614
 4597SOL    HW214691   3.093   5.295   6.692
 4598SOL     OW14692   1.475   5.539   1.303
 4598SOL    HW114693   1.448   5.617   1.247
 4598SOL    HW214694   1.479   5.567   1.399
 4599SOL     OW14695   1.160   4.904   0.991
 4599SOL    HW114696   1.063   4.893   0.970
 4599SOL    HW214697   1.178   4.869   1.083
 4600SOL     OW14698   0.431   5.963   5.622
 4600SOL    HW114699   0.487   5.949   5.704
 4600SOL    HW214700   0.340   5.924   5.637
 4601SOL     OW14701   1.234   1.517   4.886
 4601SOL    HW114702   1.200   1.609   4.906
 4601SOL    HW214703   1.284   1.482   4.965
 4602SOL     OW14704   3.297   6.069   0.408
 4602SOL    HW114705   3.249   6.005   0.349
 4602SOL    HW214706   3.322   6.024   0.494
 4603SOL     OW14707   3.663   5.794   0.705
 4603SOL    HW114708   3.592   5.740   0.749
 4603SOL    HW214709   3.691   5.750   0.620
 4604SOL     OW14710   4.486   6.865   6.978
 4604SOL    HW114711   4.487   6.765   6.975
 4604SOL    HW214712   4.575   6.897   7.010
 4605SOL     OW14713   1.638   6.301   1.889
 4605SOL    HW114714   1.663   6.267   1.979
 4605SOL    HW214715   1.636   6.401   1.891
 4606SOL     OW14716   0.611   6.474   2.629
 4606SOL    HW114717   0.669   6.422   2.567
 4606SOL    HW214718   0.561   6.410   2.688
 4607SOL     OW14719   1.989   3.385   3.310
 4607SOL    HW114720   2.023   3.468   3.266
 4607SOL    HW214721   1.889   3.387   3.313
 4608SOL     OW14722   0.164   4.908   3.590
 4608SOL    HW114723   0.201   4.820   3.562
 4608SOL    HW214724   0.136   4.904   3.686
 4609SOL     OW14725   5.048   4.966   6.627
 4609SOL    HW114726   5.083   5.058   6.609
 4609SOL    HW214727   5.124   4.900   6.625
 4610SOL     OW14728   4.375   1.501   7.011
 4610SOL    HW114729   4.417   1.440   0.057
 4610SOL    HW214730   4.358   1.590   0.032
 4611SOL     OW14731   0.914   6.651   6.046
 4611SOL    HW114732   0.957   6.630   5.958
 4611SOL    HW214733   0.815   6.651   6.035
 4612SOL     OW14734   2.298   6.703   0.742
 4612SOL    HW114735   2.334   6.652   0.664
 4612SOL    HW214736   2.271   6.794   0.712
 4613SOL     OW14737   1.316   5.827   2.362
 4613SOL    HW114738   1.268   5.829   2.275
 4613SOL    HW214739   1.327   5.920   2.397
 4614SOL     OW14740   5.695   3.588   3.373
 4614SOL    HW114741   5.716   3.534   3.454
 4614SOL    HW214742   5.699   3.529   3.292
 4615SOL     OW14743   0.730   1.783   0.603
 4615SOL    HW114744   0.634   1.754   0.594
 4615SOL    HW214745   0.785   1.734   0.535
 4616SOL     OW14746   5.583   1.611   4.425
 4616SOL    HW114747   5.518   1.651   4.360
 4616SOL    HW214748   5.537   1.542   4.480
 4617SOL     OW14749   1.338   1.857   2.710
 4617SOL    HW114750   1.357   1.916   2.789
 4617SOL    HW214751   1.419   1.852   2.652
 4618SOL     OW14752   2.068   3.595   5.454
 4618SOL    HW114753   2.062   3.518   5.390
 4618SOL    HW214754   2.004   3.666   5.425
 4619SOL     OW14755   3.073   5.983   3.644
 4619SOL    HW114756   3.096   5.974   3.547
 4619SOL    HW214757   3.064   6.080   3.668
 4620SOL     OW14758   0.908   4.834   0.931
 4620SOL    HW114759   0.851   4.896   0.878
 4620SOL    HW214760   0.867   4.818   1.020
 4621SOL     OW14761   4.910   1.182   2.188
 4621SOL    HW114762   4.973   1.105   2.197
 4621SOL    HW214763   4.819   1.148   2.162
 4622SOL     OW14764   4.080   4.758   0.577
 4622SOL    HW114765   4.011   4.776   0.646
 4622SOL    HW214766   4.163   4.722   0.621
 4623SOL     OW14767   4.917   5.807   1.431
 4623SOL    HW114768   4.830   5.837   1.392
 4623SOL    HW214769   4.928   5.844   1.523
 4624SOL     OW14770   3.470   0.314   2.859
 4624SOL    HW114771   3.524   0.237   2.826
 4624SOL    HW214772   3.514   0.352   2.941
 4625SOL     OW14773   1.813   5.275   2.021
 4625SOL    HW114774   1.857   5.207   2.080
 4625SOL    HW214775   1.775   5.348   2.077
 4626SOL     OW14776   4.767   4.033   1.570
 4626SOL    HW114777   4.720   4.108   1.616
 4626SOL    HW214778   4.866   4.051   1.569
 4627SOL     OW14779   1.378   4.902   5.131
 4627SOL    HW114780   1.477   4.895   5.143
 4627SOL    HW214781   1.345   4.985   5.176
 4628SOL     OW14782   4.615   4.394   4.874
 4628SOL    HW114783   4.531   4.442   4.901
 4628SOL    HW214784   4.614   4.378   4.776
 4629SOL     OW14785   2.529   5.281   5.448
 4629SOL    HW114786   2.623   5.259   5.421
 4629SOL    HW214787   2.519   5.380   5.454
 4630SOL     OW14788   2.283   5.676   2.116
 4630SOL    HW114789   2.306   5.688   2.212
 4630SOL    HW214790   2.190   5.711   2.099
 4631SOL     OW14791   1.319   6.412   3.241
 4631SOL    HW114792   1.402   6.359   3.221
 4631SOL    HW214793   1.278   6.379   3.326
 4632SOL     OW14794   2.309   4.344   2.776
 4632SOL    HW114795   2.403   4.374   2.766
 4632SOL    HW214796   2.266   4.337   2.686
 4633SOL     OW14797   5.959   1.083   4.417
 4633SOL    HW114798   5.977   1.115   4.323
 4633SOL    HW214799   5.980   0.985   4.423
 4634SOL     OW14800   2.644   3.894   5.252
 4634SOL    HW114801   2.607   3.829   5.318
 4634SOL    HW214802   2.571   3.955   5.221
 4635SOL     OW14803   4.241   4.332   1.665
 4635SOL    HW114804   4.313   4.282   1.715
 4635SOL    HW214805   4.151   4.298   1.694
 4636SOL     OW14806   2.470   4.120   0.752
 4636SOL    HW114807   2.473   4.164   0.842
 4636SOL    HW214808   2.563   4.098   0.723
 4637SOL     OW14809   0.991   6.798   1.241
 4637SOL    HW114810   0.960   6.888   1.210
 4637SOL    HW214811   1.054   6.759   1.174
 4638SOL     OW14812   3.714   5.918   6.794
 4638SOL    HW114813   3.667   5.934   6.707
 4638SOL    HW214814   3.803   5.876   6.777
 4639SOL     OW14815   3.152   2.491   6.246
 4639SOL    HW114816   3.106   2.450   6.325
 4639SOL    HW214817   3.090   2.556   6.201
 4640SOL     OW14818   5.495   3.888   4.649
 4640SOL    HW114819   5.437   3.943   4.589
 4640SOL    HW214820   5.478   3.791   4.631
 4641SOL     OW14821   2.282   0.268   4.082
 4641SOL    HW114822   2.370   0.287   4.039
 4641SOL    HW214823   2.279   0.172   4.110
 4642SOL     OW14824   1.319   6.378   2.674
 4642SOL    HW114825   1.315   6.402   2.771
 4642SOL    HW214826   1.405   6.409   2.635
 4643SOL     OW14827   6.576   1.620   0.234
 4643SOL    HW114828   6.481   1.603   0.206
 4643SOL    HW214829   6.607   1.706   0.194
 4644SOL     OW14830   0.315   0.386   5.554
 4644SOL    HW114831   0.284   0.304   5.507
 4644SOL    HW214832   0.238   0.428   5.602
 4645SOL     OW14833   1.517   0.720   4.577
 4645SOL    HW114834   1.562   0.722   4.666
 4645SOL    HW214835   1.487   0.627   4.557
 4646SOL     OW14836   2.655   5.638   3.678
 4646SOL    HW114837   2.623   5.710   3.617
 4646SOL    HW214838   2.576   5.591   3.718
 4647SOL     OW14839   1.830   0.491   2.535
 4647SOL    HW114840   1.785   0.430   2.600
 4647SOL    HW214841   1.772   0.504   2.455
 4648SOL     OW14842   3.649   1.102   3.382
 4648SOL    HW114843   3.617   1.073   3.472
 4648SOL    HW214844   3.572   1.131   3.326
 4649SOL     OW14845   6.492   0.912   0.878
 4649SOL    HW114846   6.560   0.985   0.876
 4649SOL    HW214847   6.502   0.858   0.961
 4650SOL     OW14848   4.745   5.192   1.973
 4650SOL    HW114849   4.678   5.192   2.048
 4650SOL    HW214850   4.828   5.145   2.003
 4651SOL     OW14851   6.892   3.191   6.423
 4651SOL    HW114852   6.963   3.125   6.447
 4651SOL    HW214853   6.804   3.144   6.414
 4652SOL     OW14854   6.718   5.993   4.939
 4652SOL    HW114855   6.650   5.945   4.884
 4652SOL    HW214856   6.801   6.008   4.884
 4653SOL     OW14857   5.210   6.140   1.115
 4653SOL    HW114858   5.300   6.098   1.124
 4653SOL    HW214859   5.140   6.069   1.110
 4654SOL     OW14860   0.758   5.713   5.963
 4654SOL    HW114861   0.699   5.715   6.043
 4654SOL    HW214862   0.819   5.634   5.968
 4655SOL     OW14863   5.901   3.575   1.346
 4655SOL    HW114864   5.817   3.620   1.377
 4655SOL    HW214865   5.915   3.492   1.399
 4656SOL     OW14866   1.175   1.229   1.812
 4656SOL    HW114867   1.268   1.255   1.785
 4656SOL    HW214868   1.179   1.148   1.870
 4657SOL     OW14869   4.568   5.677   1.840
 4657SOL    HW114870   4.620   5.596   1.870
 4657SOL    HW214871   4.631   5.753   1.827
 4658SOL     OW14872   3.004   1.197   4.779
 4658SOL    HW114873   3.060   1.153   4.849
 4658SOL    HW214874   3.063   1.244   4.713
 4659SOL     OW14875   2.766   3.973   6.607
 4659SOL    HW114876   2.726   3.882   6.598
 4659SOL    HW214877   2.862   3.970   6.582
 4660SOL     OW14878   1.186   6.228   4.608
 4660SOL    HW114879   1.278   6.195   4.627
 4660SOL    HW214880   1.179   6.254   4.512
 4661SOL     OW14881   3.084   4.839   5.888
 4661SOL    HW114882   3.093   4.741   5.869
 4661SOL    HW214883   2.989   4.860   5.912
 4662SOL     OW14884   2.851   0.577   5.618
 4662SOL    HW114885   2.801   0.604   5.535
 4662SOL    HW214886   2.946   0.607   5.610
 4663SOL     OW14887   0.684   0.482   1.026
 4663SOL    HW114888   0.776   0.502   0.991
 4663SOL    HW214889   0.620   0.552   0.994
 4664SOL     OW14890   0.827   0.463   0.406
 4664SOL    HW114891   0.850   0.422   0.494
 4664SOL    HW214892   0.736   0.505   0.412
 4665SOL     OW14893   2.716   6.885   6.268
 4665SOL    HW114894   2.662   6.925   6.194
 4665SOL    HW214895   2.662   6.814   6.314
 4666SOL     OW14896   1.860   2.497   0.173
 4666SOL    HW114897   1.877   2.531   0.266
 4666SOL    HW214898   1.819   2.570   0.118
 4667SOL     OW14899   6.328   3.840   1.569
 4667SOL    HW114900   6.305   3.748   1.536
 4667SOL    HW214901   6.247   3.881   1.612
 4668SOL     OW14902   4.424   1.788   4.407
 4668SOL    HW114903   4.496   1.801   4.474
 4668SOL    HW214904   4.397   1.877   4.368
 4669SOL     OW14905   5.083   6.241   6.437
 4669SOL    HW114906   5.018   6.165   6.431
 4669SOL    HW214907   5.032   6.326   6.453
 4670SOL     OW14908   1.054   2.709   6.651
 4670SOL    HW114909   1.004   2.785   6.691
 4670SOL    HW214910   1.149   2.736   6.635
 4671SOL     OW14911   0.152   3.452   6.699
 4671SOL    HW114912   0.167   3.518   6.625
 4671SOL    HW214913   0.053   3.444   6.716
 4672SOL     OW14914   3.119   4.694   6.324
 4672SOL    HW114915   3.209   4.733   6.345
 4672SOL    HW214916   3.097   4.624   6.392
 4673SOL     OW14917   4.926   0.113   1.193
 4673SOL    HW114918   4.935   0.207   1.159
 4673SOL    HW214919   4.873   0.060   1.127
 4674SOL     OW14920   5.133   1.757   0.306
 4674SOL    HW114921   5.067   1.690   0.338
 4674SOL    HW214922   5.181   1.797   0.384
 4675SOL     OW14923   3.769   0.667   0.294
 4675SOL    HW114924   3.771   0.604   0.372
 4675SOL    HW214925   3.697   0.639   0.231
 4676SOL     OW14926   0.347   6.289   4.493
 4676SOL    HW114927   0.257   6.246   4.501
 4676SOL    HW214928   0.340   6.386   4.517
 4677SOL     OW14929   3.106   0.758   0.616
 4677SOL    HW114930   3.170   0.800   0.551
 4677SOL    HW214931   3.083   0.824   0.687
 4678SOL     OW14932   1.878   4.327   2.491
 4678SOL    HW114933   1.879   4.266   2.412
 4678SOL    HW214934   1.930   4.285   2.566
 4679SOL     OW14935   3.569   1.055   6.712
 4679SOL    HW114936   3.609   1.138   6.673
 4679SOL    HW214937   3.635   1.012   6.774
 4680SOL     OW14938   1.764   0.379   1.864
 4680SOL    HW114939   1.777   0.462   1.811
 4680SOL    HW214940   1.765   0.401   1.962
 4681SOL     OW14941   5.751   5.615   5.340
 4681SOL    HW114942   5.806   5.635   5.258
 4681SOL    HW214943   5.807   5.568   5.407
 4682SOL     OW14944   4.365   4.435   6.686
 4682SOL    HW114945   4.308   4.500   6.736
 4682SOL    HW214946   4.461   4.462   6.694
 4683SOL     OW14947   4.667   4.868   2.665
 4683SOL    HW114948   4.572   4.899   2.666
 4683SOL    HW214949   4.671   4.771   2.640
 4684SOL     OW14950   0.109   1.561   4.053
 4684SOL    HW114951   0.089   1.463   4.059
 4684SOL    HW214952   0.026   1.613   4.069
 4685SOL     OW14953   0.557   6.100   5.169
 4685SOL    HW114954   0.544   6.001   5.169
 4685SOL    HW214955   0.566   6.133   5.263
 4686SOL     OW14956   5.515   5.836   0.028
 4686SOL    HW114957   5.571   5.753   0.019
 4686SOL    HW214958   5.456   5.844   6.969
 4687SOL     OW14959   0.006   4.858   5.073
 4687SOL    HW114960   0.053   4.845   5.161
 4687SOL    HW214961   6.929   4.868   5.090
 4688SOL     OW14962   6.818   3.589   6.179
 4688SOL    HW114963   6.910   3.629   6.177
 4688SOL    HW214964   6.751   3.659   6.154
 4689SOL     OW14965   6.113   0.541   6.972
 4689SOL    HW114966   6.159   0.528   0.039
 4689SOL    HW214967   6.113   0.455   6.922
 4690SOL     OW14968   0.974   1.293   0.261
 4690SOL    HW114969   1.038   1.293   0.184
 4690SOL    HW214970   0.929   1.204   0.266
 4691SOL     OW14971   2.994   4.806   1.910
 4691SOL    HW114972   2.940   4.742   1.964
 4691SOL    HW214973   2.938   4.845   1.837
 4692SOL     OW14974   6.857   5.606   2.704
 4692SOL    HW114975   6.818   5.691   2.738
 4692SOL    HW214976   6.925   5.571   2.769
 4693SOL     OW14977   0.629   0.716   4.413
 4693SOL    HW114978   0.570   0.764   4.478
 4693SOL    HW214979   0.702   0.778   4.383
 4694SOL     OW14980   3.212   0.034   0.488
 4694SOL    HW114981   3.178   6.968   0.525
 4694SOL    HW214982   3.145   0.071   0.424
 4695SOL     OW14983   2.477   3.352   1.693
 4695SOL    HW114984   2.423   3.392   1.766
 4695SOL    HW214985   2.416   3.311   1.625
 4696SOL     OW14986   0.539   4.386   5.688
 4696SOL    HW114987   0.587   4.455   5.743
 4696SOL    HW214988   0.605   4.343   5.626
 4697SOL     OW14989   1.641   3.030   1.025
 4697SOL    HW114990   1.567   3.095   1.044
 4697SOL    HW214991   1.603   2.949   0.980
 4698SOL     OW14992   3.912   5.862   3.126
 4698SOL    HW114993   3.883   5.780   3.176
 4698SOL    HW214994   3.955   5.926   3.190
 4699SOL     OW14995   0.947   6.700   2.102
 4699SOL    HW114996   0.907   6.608   2.100
 4699SOL    HW214997   1.029   6.700   2.160
 4700SOL     OW14998   5.925   1.476   2.250
 4700SOL    HW114999   5.968   1.458   2.162
 4700SOL    HW215000   5.975   1.427   2.322
 4701SOL     OW15001   1.298   2.191   0.683
 4701SOL    HW115002   1.397   2.195   0.674
 4701SOL    HW215003   1.257   2.260   0.622
 4702SOL     OW15004   6.032   4.898   6.355
 4702SOL    HW115005   6.005   4.994   6.351
 4702SOL    HW215006   6.132   4.892   6.356
 4703SOL     OW15007   1.222   2.487   1.927
 4703SOL    HW115008   1.242   2.508   1.831
 4703SOL    HW215009   1.305   2.454   1.971
 4704SOL     OW15010   0.878   6.834   0.034
 4704SOL    HW115011   0.829   6.752   0.064
 4704SOL    HW215012   0.858   6.851   6.958
 4705SOL     OW15013   3.696   3.461   2.855
 4705SOL    HW115014   3.729   3.385   2.912
 4705SOL    HW215015   3.758   3.473   2.777
 4706SOL     OW15016   3.803   6.241   6.308
 4706SOL    HW115017   3.754   6.327   6.315
 4706SOL    HW215018   3.819   6.218   6.212
 4707SOL     OW15019   2.450   5.602   0.909
 4707SOL    HW115020   2.418   5.539   0.980
 4707SOL    HW215021   2.375   5.621   0.845
 4708SOL     OW15022   1.386   2.101   6.775
 4708SOL    HW115023   1.327   2.032   6.817
 4708SOL    HW215024   1.356   2.192   6.805
 4709SOL     OW15025   4.019   5.431   5.266
 4709SOL    HW115026   4.103   5.398   5.224
 4709SOL    HW215027   3.942   5.374   5.237
 4710SOL     OW15028   3.521   1.164   5.485
 4710SOL    HW115029   3.459   1.102   5.438
 4710SOL    HW215030   3.596   1.111   5.526
 4711SOL     OW15031   5.149   0.735   2.127
 4711SOL    HW115032   5.243   0.748   2.094
 4711SOL    HW215033   5.092   0.701   2.052
 4712SOL     OW15034   3.106   4.911   0.469
 4712SOL    HW115035   3.036   4.858   0.422
 4712SOL    HW215036   3.081   4.920   0.566
 4713SOL     OW15037   2.950   3.996   1.202
 4713SOL    HW115038   2.940   4.061   1.126
 4713SOL    HW215039   2.903   4.033   1.282
 4714SOL     OW15040   2.014   2.109   0.036
 4714SOL    HW115041   2.059   2.079   6.973
 4714SOL    HW215042   2.043   2.051   0.112
 4715SOL     OW15043   6.563   3.777   1.676
 4715SOL    HW115044   6.535   3.739   1.763
 4715SOL    HW215045   6.485   3.819   1.631
 4716SOL     OW15046   4.013   6.043   6.576
 4716SOL    HW115047   3.928   6.089   6.552
 4716SOL    HW215048   3.993   5.959   6.626
 4717SOL     OW15049   0.012   6.419   3.349
 4717SOL    HW115050   6.947   6.435   3.302
 4717SOL    HW215051   0.062   6.345   3.303
 4718SOL     OW15052   5.782   1.897   6.678
 4718SOL    HW115053   5.733   1.924   6.761
 4718SOL    HW215054   5.791   1.976   6.617
 4719SOL     OW15055   4.987   3.302   2.569
 4719SOL    HW115056   5.012   3.240   2.643
 4719SOL    HW215057   4.994   3.254   2.482
 4720SOL     OW15058   2.318   6.151   5.672
 4720SOL    HW115059   2.321   6.124   5.768
 4720SOL    HW215060   2.224   6.152   5.640
 4721SOL     OW15061   6.951   2.505   1.080
 4721SOL    HW115062   6.968   2.413   1.045
 4721SOL    HW215063   0.016   2.547   1.108
 4722SOL     OW15064   0.915   5.947   6.876
 4722SOL    HW115065   0.997   5.982   6.922
 4722SOL    HW215066   0.837   5.956   6.937
 4723SOL     OW15067   2.106   4.853   6.151
 4723SOL    HW115068   2.166   4.851   6.071
 4723SOL    HW215069   2.152   4.806   6.227
 4724SOL     OW15070   5.143   5.794   2.986
 4724SOL    HW115071   5.221   5.734   3.001
 4724SOL    HW215072   5.168   5.867   2.923
 4725SOL     OW15073   6.043   6.637   2.782
 4725SOL    HW115074   6.123   6.578   2.786
 4725SOL    HW215075   5.988   6.613   2.702
 4726SOL     OW15076   1.430   3.208   6.631
 4726SOL    HW115077   1.485   3.228   6.549
 4726SOL    HW215078   1.479   3.142   6.688
 4727SOL     OW15079   0.429   6.641   0.192
 4727SOL    HW115080   0.403   6.594   0.108
 4727SOL    HW215081   0.434   6.574   0.267
 4728SOL     OW15082   4.650   1.419   0.679
 4728SOL    HW115083   4.652   1.359   0.758
 4728SOL    HW215084   4.563   1.470   0.678
 4729SOL     OW15085   2.213   1.521   2.067
 4729SOL    HW115086   2.114   1.506   2.071
 4729SOL    HW215087   2.256   1.447   2.016
 4730SOL     OW15088   2.374   5.799   5.453
 4730SOL    HW115089   2.382   5.892   5.416
 4730SOL    HW215090   2.309   5.799   5.529
 4731SOL     OW15091   4.467   6.991   6.274
 4731SOL    HW115092   4.426   7.016   6.186
 4731SOL    HW215093   4.427   6.905   6.307
 4732SOL     OW15094   0.024   3.943   5.767
 4732SOL    HW115095   0.046   4.028   5.719
 4732SOL    HW215096   6.992   3.884   5.706
 4733SOL     OW15097   1.300   4.373   2.829
 4733SOL    HW115098   1.237   4.385   2.905
 4733SOL    HW215099   1.291   4.451   2.766
 4734SOL     OW15100   4.823   3.274   6.559
 4734SOL    HW115101   4.823   3.193   6.501
 4734SOL    HW215102   4.871   3.349   6.513
 4735SOL     OW15103   0.809   5.965   4.141
 4735SOL    HW115104   0.734   6.030   4.150
 4735SOL    HW215105   0.774   5.879   4.105
 4736SOL     OW15106   0.327   1.629   6.516
 4736SOL    HW115107   0.388   1.585   6.450
 4736SOL    HW215108   0.341   1.728   6.514
 4737SOL     OW15109   1.204   5.211   2.108
 4737SOL    HW115110   1.253   5.153   2.172
 4737SOL    HW215111   1.114   5.234   2.145
 4738SOL     OW15112   0.151   5.840   3.045
 4738SOL    HW115113   0.169   5.919   3.104
 4738SOL    HW215114   0.155   5.869   2.950
 4739SOL     OW15115   4.421   6.463   3.464
 4739SOL    HW115116   4.456   6.555   3.445
 4739SOL    HW215117   4.428   6.406   3.383
 4740SOL     OW15118   0.501   1.541   0.827
 4740SOL    HW115119   0.492   1.450   0.786
 4740SOL    HW215120   0.598   1.561   0.843
 4741SOL     OW15121   3.383   2.434   1.556
 4741SOL    HW115122   3.311   2.496   1.524
 4741SOL    HW215123   3.391   2.357   1.493
 4742SOL     OW15124   1.949   6.590   5.380
 4742SOL    HW115125   1.984   6.684   5.385
 4742SOL    HW215126   1.873   6.586   5.314
 4743SOL     OW15127   2.147   3.766   2.920
 4743SOL    HW115128   2.100   3.683   2.891
 4743SOL    HW215129   2.244   3.759   2.896
 4744SOL     OW15130   1.891   5.054   0.890
 4744SOL    HW115131   1.842   5.122   0.835
 4744SOL    HW215132   1.917   5.095   0.978
 4745SOL     OW15133   3.027   3.967   6.511
 4745SOL    HW115134   3.068   3.974   6.420
 4745SOL    HW215135   3.076   3.897   6.563
 4746SOL     OW15136   4.552   6.664   3.843
 4746SOL    HW115137   4.580   6.719   3.922
 4746SOL    HW215138   4.619   6.675   3.770
 4747SOL     OW15139   0.783   3.981   0.533
 4747SOL    HW115140   0.831   3.908   0.484
 4747SOL    HW215141   0.844   4.023   0.600
 4748SOL     OW15142   2.023   6.037   1.401
 4748SOL    HW115143   1.995   5.947   1.366
 4748SOL    HW215144   1.972   6.058   1.484
 4749SOL     OW15145   1.910   6.961   6.607
 4749SOL    HW115146   1.986   6.897   6.623
 4749SOL    HW215147   1.891   6.966   6.509
 4750SOL     OW15148   0.013   3.419   5.248
 4750SOL    HW115149   6.938   3.391   5.256
 4750SOL    HW215150   0.033   3.487   5.318
 4751SOL     OW15151   4.724   2.651   2.898
 4751SOL    HW115152   4.637   2.619   2.861
 4751SOL    HW215153   4.709   2.692   2.988
 4752SOL     OW15154   4.512   0.511   0.213
 4752SOL    HW115155   4.484   0.581   0.280
 4752SOL    HW215156   4.606   0.483   0.232
 4753SOL     OW15157   0.959   0.019   3.667
 4753SOL    HW115158   0.991   7.019   3.574
 4753SOL    HW215159   1.008   6.982   3.732
 4754SOL     OW15160   5.037   3.859   5.104
 4754SOL    HW115161   5.006   3.895   5.192
 4754SOL    HW215162   4.958   3.843   5.045
 4755SOL     OW15163   3.004   0.884   0.860
 4755SOL    HW115164   2.961   0.834   0.935
 4755SOL    HW215165   3.076   0.944   0.896
 4756SOL     OW15166   6.102   3.606   5.421
 4756SOL    HW115167   6.016   3.648   5.449
 4756SOL    HW215168   6.175   3.674   5.426
 4757SOL     OW15169   1.759   2.201   1.694
 4757SOL    HW115170   1.716   2.143   1.625
 4757SOL    HW215171   1.805   2.277   1.648
 4758SOL     OW15172   1.554   6.258   3.221
 4758SOL    HW115173   1.569   6.174   3.169
 4758SOL    HW215174   1.638   6.311   3.223
 4759SOL     OW15175   0.751   5.106   6.447
 4759SOL    HW115176   0.732   5.147   6.358
 4759SOL    HW215177   0.703   5.157   6.519
 4760SOL     OW15178   2.103   1.175   0.642
 4760SOL    HW115179   2.198   1.166   0.671
 4760SOL    HW215180   2.065   1.260   0.678
 4761SOL     OW15181   1.640   0.811   0.756
 4761SOL    HW115182   1.672   0.886   0.815
 4761SOL    HW215183   1.596   0.741   0.812
 4762SOL     OW15184   1.421   6.022   2.119
 4762SOL    HW115185   1.350   5.951   2.123
 4762SOL    HW215186   1.404   6.081   2.040
 4763SOL     OW15187   4.875   0.328   2.773
 4763SOL    HW115188   4.803   0.382   2.817
 4763SOL    HW215189   4.925   0.386   2.708
 4764SOL     OW15190   4.550   3.389   5.322
 4764SOL    HW115191   4.601   3.461   5.275
 4764SOL    HW215192   4.573   3.300   5.282
 4765SOL     OW15193   3.753   1.022   5.534
 4765SOL    HW115194   3.845   1.060   5.529
 4765SOL    HW215195   3.739   0.979   5.624
 4766SOL     OW15196   6.257   6.150   4.063
 4766SOL    HW115197   6.196   6.195   3.998
 4766SOL    HW215198   6.229   6.055   4.075
 4767SOL     OW15199   3.186   4.946   5.138
 4767SOL    HW115200   3.251   4.974   5.210
 4767SOL    HW215201   3.149   4.856   5.160
 4768SOL     OW15202   3.400   2.635   5.653
 4768SOL    HW115203   3.389   2.547   5.698
 4768SOL    HW215204   3.310   2.671   5.627
 4769SOL     OW15205   4.079   6.033   0.950
 4769SOL    HW115206   4.166   5.987   0.966
 4769SOL    HW215207   4.010   5.966   0.920
 4770SOL     OW15208   0.685   1.864   4.579
 4770SOL    HW115209   0.731   1.799   4.519
 4770SOL    HW215210   0.646   1.816   4.657
 4771SOL     OW15211   2.520   6.510   6.464
 4771SOL    HW115212   2.434   6.553   6.491
 4771SOL    HW215213   2.520   6.415   6.495
 4772SOL     OW15214   3.178   4.779   1.007
 4772SOL    HW115215   3.090   4.794   1.052
 4772SOL    HW215216   3.208   4.863   0.964
 4773SOL     OW15217   0.304   5.714   5.368
 4773SOL    HW115218   0.293   5.796   5.424
 4773SOL    HW215219   0.304   5.633   5.427
 4774SOL     OW15220   1.503   4.101   1.170
 4774SOL    HW115221   1.475   4.005   1.176
 4774SOL    HW215222   1.488   4.146   1.258
 4775SOL     OW15223   4.966   0.336   4.057
 4775SOL    HW115224   5.045   0.290   4.097
 4775SOL    HW215225   4.979   0.435   4.064
 4776SOL     OW15226   1.060   0.900   5.443
 4776SOL    HW115227   0.978   0.895   5.387
 4776SOL    HW215228   1.072   0.992   5.479
 4777SOL     OW15229   2.053   5.823   0.884
 4777SOL    HW115230   1.995   5.811   0.965
 4777SOL    HW215231   1.995   5.850   0.806
 4778SOL     OW15232   6.970   2.643   4.649
 4778SOL    HW115233   0.012   2.675   4.578
 4778SOL    HW215234   6.877   2.671   4.625
 4779SOL     OW15235   5.672   0.142   3.802
 4779SOL    HW115236   5.627   0.061   3.765
 4779SOL    HW215237   5.646   0.222   3.749
 4780SOL     OW15238   5.558   2.319   6.889
 4780SOL    HW115239   5.567   2.340   6.792
 4780SOL    HW215240   5.497   2.386   6.932
 4781SOL     OW15241   2.850   5.508   1.977
 4781SOL    HW115242   2.947   5.484   1.966
 4781SOL    HW215243   2.796   5.465   1.904
 4782SOL     OW15244   6.221   5.840   6.562
 4782SOL    HW115245   6.274   5.911   6.609
 4782SOL    HW215246   6.124   5.851   6.584
 4783SOL     OW15247   5.940   3.692   6.992
 4783SOL    HW115248   5.889   3.668   0.053
 4783SOL    HW215249   5.921   3.787   6.968
 4784SOL     OW15250   6.249   2.003   6.080
 4784SOL    HW115251   6.312   1.992   6.004
 4784SOL    HW215252   6.155   1.987   6.049
 4785SOL     OW15253   0.241   6.490   3.065
 4785SOL    HW115254   0.314   6.510   3.131
 4785SOL    HW215255   0.186   6.414   3.098
 4786SOL     OW15256   2.365   6.579   6.784
 4786SOL    HW115257   2.336   6.644   6.853
 4786SOL    HW215258   2.418   6.505   6.827
 4787SOL     OW15259   3.902   1.886   3.091
 4787SOL    HW115260   3.840   1.868   3.167
 4787SOL    HW215261   3.942   1.977   3.102
 4788SOL     OW15262   6.844   5.778   0.448
 4788SOL    HW115263   6.771   5.714   0.474
 4788SOL    HW215264   6.807   5.871   0.448
 4789SOL     OW15265   4.907   2.234   1.652
 4789SOL    HW115266   4.894   2.323   1.609
 4789SOL    HW215267   4.951   2.245   1.741
 4790SOL     OW15268   5.960   1.849   5.795
 4790SOL    HW115269   5.907   1.867   5.879
 4790SOL    HW215270   6.047   1.806   5.819
 4791SOL     OW15271   0.058   3.126   1.880
 4791SOL    HW115272   7.000   3.154   1.825
 4791SOL    HW215273   0.142   3.152   1.832
 4792SOL     OW15274   2.130   4.382   4.610
 4792SOL    HW115275   2.127   4.310   4.679
 4792SOL    HW215276   2.225   4.401   4.585
 4793SOL     OW15277   1.784   3.691   5.206
 4793SOL    HW115278   1.744   3.647   5.126
 4793SOL    HW215279   1.870   3.734   5.181
 4794SOL     OW15280   4.222   6.801   4.545
 4794SOL    HW115281   4.215   6.736   4.469
 4794SOL    HW215282   4.299   6.775   4.604
 4795SOL     OW15283   6.416   1.548   4.188
 4795SOL    HW115284   6.513   1.560   4.210
 4795SOL    HW215285   6.391   1.609   4.112
 4796SOL     OW15286   4.036   0.233   6.311
 4796SOL    HW115287   4.099   0.158   6.289
 4796SOL    HW215288   3.944   0.209   6.282
 4797SOL     OW15289   0.638   5.931   4.841
 4797SOL    HW115290   0.550   5.979   4.845
 4797SOL    HW215291   0.709   5.988   4.882
 4798SOL     OW15292   6.420   4.891   4.883
 4798SOL    HW115293   6.481   4.814   4.901
 4798SOL    HW215294   6.396   4.936   4.969
 4799SOL     OW15295   4.417   1.555   0.640
 4799SOL    HW115296   4.386   1.649   0.622
 4799SOL    HW215297   4.387   1.495   0.567
 4800SOL     OW15298   1.517   3.835   6.804
 4800SOL    HW115299   1.445   3.891   6.844
 4800SOL    HW215300   1.478   3.776   6.733
 4801SOL     OW15301   3.830   2.467   6.725
 4801SOL    HW115302   3.885   2.539   6.682
 4801SOL    HW215303   3.735   2.473   6.693
 4802SOL     OW15304   6.845   6.414   1.883
 4802SOL    HW115305   6.815   6.442   1.974
 4802SOL    HW215306   6.894   6.326   1.889
 4803SOL     OW15307   6.892   4.416   1.068
 4803SOL    HW115308   6.846   4.379   0.987
 4803SOL    HW215309   6.983   4.447   1.043
 4804SOL     OW15310   6.394   0.059   1.110
 4804SOL    HW115311   6.485   0.026   1.133
 4804SOL    HW215312   6.359   0.009   1.031
 4805SOL     OW15313   6.433   1.377   2.280
 4805SOL    HW115314   6.494   1.312   2.326
 4805SOL    HW215315   6.431   1.357   2.182
 4806SOL     OW15316   0.833   3.684   2.665
 4806SOL    HW115317   0.825   3.595   2.712
 4806SOL    HW215318   0.909   3.680   2.600
 4807SOL     OW15319   1.298   4.117   6.472
 4807SOL    HW115320   1.260   4.199   6.429
 4807SOL    HW215321   1.298   4.128   6.571
 4808SOL     OW15322   4.607   5.291   0.517
 4808SOL    HW115323   4.687   5.292   0.577
 4808SOL    HW215324   4.524   5.303   0.572
 4809SOL     OW15325   3.896   4.664   1.271
 4809SOL    HW115326   3.863   4.569   1.269
 4809SOL    HW215327   3.913   4.691   1.365
 4810SOL     OW15328   1.568   4.704   3.300
 4810SOL    HW115329   1.502   4.630   3.312
 4810SOL    HW215330   1.549   4.776   3.367
 4811SOL     OW15331   3.618   3.818   3.480
 4811SOL    HW115332   3.537   3.772   3.445
 4811SOL    HW215333   3.626   3.909   3.439
 4812SOL     OW15334   0.322   0.226   2.343
 4812SOL    HW115335   0.400   0.215   2.405
 4812SOL    HW215336   0.347   0.190   2.253
 4813SOL     OW15337   6.002   1.380   6.320
 4813SOL    HW115338   6.006   1.455   6.385
 4813SOL    HW215339   5.927   1.395   6.256
 4814SOL     OW15340   0.000   3.369   2.107
 4814SOL    HW115341   0.058   3.360   2.188
 4814SOL    HW215342   0.017   3.293   2.045
 4815SOL     OW15343   5.334   4.539   2.857
 4815SOL    HW115344   5.409   4.603   2.845
 4815SOL    HW215345   5.254   4.570   2.805
 4816SOL     OW15346   2.146   5.178   1.742
 4816SOL    HW115347   2.124   5.272   1.719
 4816SOL    HW215348   2.127   5.119   1.663
 4817SOL     OW15349   3.251   1.143   1.506
 4817SOL    HW115350   3.214   1.096   1.586
 4817SOL    HW215351   3.305   1.222   1.536
 4818SOL     OW15352   0.751   1.559   3.982
 4818SOL    HW115353   0.685   1.635   3.983
 4818SOL    HW215354   0.780   1.540   4.076
 4819SOL     OW15355   3.184   2.394   1.294
 4819SOL    HW115356   3.132   2.397   1.209
 4819SOL    HW215357   3.231   2.306   1.302
 4820SOL     OW15358   6.239   2.323   0.277
 4820SOL    HW115359   6.233   2.397   0.209
 4820SOL    HW215360   6.330   2.321   0.316
 4821SOL     OW15361   6.838   6.997   1.496
 4821SOL    HW115362   6.932   7.000   1.463
 4821SOL    HW215363   6.784   6.937   1.436
 4822SOL     OW15364   1.742   3.015   3.905
 4822SOL    HW115365   1.662   2.995   3.849
 4822SOL    HW215366   1.790   3.094   3.866
 4823SOL     OW15367   0.131   1.319   3.436
 4823SOL    HW115368   0.229   1.303   3.434
 4823SOL    HW215369   0.107   1.366   3.521
 4824SOL     OW15370   5.884   1.991   3.517
 4824SOL    HW115371   5.949   2.065   3.537
 4824SOL    HW215372   5.807   2.027   3.466
 4825SOL     OW15373   2.231   2.691   4.338
 4825SOL    HW115374   2.269   2.614   4.285
 4825SOL    HW215375   2.298   2.719   4.407
 4826SOL     OW15376   0.752   0.806   6.925
 4826SOL    HW115377   0.781   0.740   6.994
 4826SOL    HW215378   0.769   0.769   6.834
 4827SOL     OW15379   5.892   0.821   1.614
 4827SOL    HW115380   5.945   0.746   1.653
 4827SOL    HW215381   5.929   0.908   1.647
 4828SOL     OW15382   5.655   3.288   0.873
 4828SOL    HW115383   5.735   3.348   0.878
 4828SOL    HW215384   5.641   3.245   0.963
 4829SOL     OW15385   3.678   6.574   6.644
 4829SOL    HW115386   3.735   6.500   6.681
 4829SOL    HW215387   3.720   6.610   6.561
 4830SOL     OW15388   5.423   6.130   4.179
 4830SOL    HW115389   5.358   6.072   4.131
 4830SOL    HW215390   5.474   6.186   4.114
 4831SOL     OW15391   6.829   5.593   6.015
 4831SOL    HW115392   6.734   5.568   6.035
 4831SOL    HW215393   6.877   5.615   6.100
 4832SOL     OW15394   2.331   2.565   5.905
 4832SOL    HW115395   2.320   2.635   5.835
 4832SOL    HW215396   2.283   2.482   5.876
 4833SOL     OW15397   5.517   1.109   2.950
 4833SOL    HW115398   5.461   1.031   2.923
 4833SOL    HW215399   5.591   1.121   2.884
 4834SOL     OW15400   3.724   0.513   0.506
 4834SOL    HW115401   3.748   0.568   0.586
 4834SOL    HW215402   3.656   0.445   0.531
 4835SOL     OW15403   0.871   1.240   6.489
 4835SOL    HW115404   0.931   1.206   6.416
 4835SOL    HW215405   0.777   1.246   6.455
 4836SOL     OW15406   4.647   2.745   3.565
 4836SOL    HW115407   4.552   2.718   3.576
 4836SOL    HW215408   4.706   2.664   3.570
 4837SOL     OW15409   4.461   3.351   1.699
 4837SOL    HW115410   4.387   3.412   1.725
 4837SOL    HW215411   4.455   3.267   1.753
 4838SOL     OW15412   2.407   5.416   2.079
 4838SOL    HW115413   2.353   5.348   2.030
 4838SOL    HW215414   2.355   5.500   2.088
 4839SOL     OW15415   1.675   3.834   5.683
 4839SOL    HW115416   1.581   3.829   5.650
 4839SOL    HW215417   1.716   3.742   5.682
 4840SOL     OW15418   0.724   6.555   5.637
 4840SOL    HW115419   0.752   6.645   5.605
 4840SOL    HW215420   0.625   6.554   5.651
 4841SOL     OW15421   3.232   6.195   1.387
 4841SOL    HW115422   3.266   6.130   1.455
 4841SOL    HW215423   3.136   6.216   1.407
 4842SOL     OW15424   3.343   4.898   1.907
 4842SOL    HW115425   3.320   4.969   1.974
 4842SOL    HW215426   3.433   4.859   1.928
 4843SOL     OW15427   5.833   4.048   0.552
 4843SOL    HW115428   5.851   3.977   0.484
 4843SOL    HW215429   5.903   4.044   0.623
 4844SOL     OW15430   6.695   3.324   5.940
 4844SOL    HW115431   6.667   3.413   5.904
 4844SOL    HW215432   6.634   3.297   6.014
 4845SOL     OW15433   6.814   5.893   4.548
 4845SOL    HW115434   6.741   5.895   4.481
 4845SOL    HW215435   6.815   5.804   4.594
 4846SOL     OW15436   6.556   3.231   3.202
 4846SOL    HW115437   6.548   3.134   3.229
 4846SOL    HW215438   6.547   3.288   3.283
 4847SOL     OW15439   3.532   1.493   5.577
 4847SOL    HW115440   3.533   1.470   5.480
 4847SOL    HW215441   3.597   1.566   5.595
 4848SOL     OW15442   1.433   0.592   3.680
 4848SOL    HW115443   1.417   0.580   3.582
 4848SOL    HW215444   1.346   0.605   3.727
 4849SOL     OW15445   0.975   6.906   6.770
 4849SOL    HW115446   1.043   6.975   6.793
 4849SOL    HW215447   0.931   6.929   6.683
 4850SOL     OW15448   3.957   1.195   2.422
 4850SOL    HW115449   3.862   1.226   2.430
 4850SOL    HW215450   4.014   1.271   2.393
 4851SOL     OW15451   3.390   5.850   4.597
 4851SOL    HW115452   3.409   5.758   4.632
 4851SOL    HW215453   3.416   5.918   4.666
 4852SOL     OW15454   0.729   0.536   5.828
 4852SOL    HW115455   0.681   0.470   5.770
 4852SOL    HW215456   0.715   0.628   5.793
 4853SOL     OW15457   3.055   1.238   2.738
 4853SOL    HW115458   2.970   1.288   2.719
 4853SOL    HW215459   3.049   1.194   2.827
 4854SOL     OW15460   4.862   6.640   2.505
 4854SOL    HW115461   4.892   6.736   2.505
 4854SOL    HW215462   4.772   6.634   2.462
 4855SOL     OW15463   5.472   2.626   2.401
 4855SOL    HW115464   5.516   2.708   2.365
 4855SOL    HW215465   5.383   2.614   2.358
 4856SOL     OW15466   2.218   4.100   2.783
 4856SOL    HW115467   2.260   4.191   2.779
 4856SOL    HW215468   2.236   4.051   2.698
 4857SOL     OW15469   1.996   2.956   5.432
 4857SOL    HW115470   2.091   2.925   5.423
 4857SOL    HW215471   1.961   2.979   5.341
 4858SOL     OW15472   1.487   1.392   4.468
 4858SOL    HW115473   1.408   1.433   4.515
 4858SOL    HW215474   1.556   1.461   4.452
 4859SOL     OW15475   1.223   0.535   4.380
 4859SOL    HW115476   1.314   0.519   4.417
 4859SOL    HW215477   1.173   0.598   4.439
 4860SOL     OW15478   3.770   4.911   1.843
 4860SOL    HW115479   3.708   4.859   1.901
 4860SOL    HW215480   3.735   4.913   1.749
 4861SOL     OW15481   5.219   5.235   0.431
 4861SOL    HW115482   5.189   5.165   0.366
 4861SOL    HW215483   5.259   5.190   0.511
 4862SOL     OW15484   2.921   4.886   4.959
 4862SOL    HW115485   2.913   4.789   4.983
 4862SOL    HW215486   2.990   4.929   5.018
 4863SOL     OW15487   6.192   4.232   1.815
 4863SOL    HW115488   6.264   4.300   1.803
 4863SOL    HW215489   6.232   4.141   1.826
 4864SOL     OW15490   3.902   1.222   3.335
 4864SOL    HW115491   3.829   1.161   3.365
 4864SOL    HW215492   3.876   1.317   3.355
 4865SOL     OW15493   2.404   0.490   5.520
 4865SOL    HW115494   2.366   0.452   5.435
 4865SOL    HW215495   2.485   0.438   5.546
 4866SOL     OW15496   0.006   2.596   0.336
 4866SOL    HW115497   0.097   2.636   0.351
 4866SOL    HW215498   7.016   2.573   0.240
 4867SOL     OW15499   3.698   5.238   3.534
 4867SOL    HW115500   3.711   5.186   3.618
 4867SOL    HW215501   3.769   5.214   3.468
 4868SOL     OW15502   0.160   4.945   2.773
 4868SOL    HW115503   0.150   4.996   2.858
 4868SOL    HW215504   0.070   4.915   2.741
 4869SOL     OW15505   0.950   1.717   2.496
 4869SOL    HW115506   1.007   1.799   2.495
 4869SOL    HW215507   0.882   1.725   2.569
 4870SOL     OW15508   0.465   6.290   1.967
 4870SOL    HW115509   0.481   6.373   1.914
 4870SOL    HW215510   0.495   6.210   1.914
 4871SOL     OW15511   1.564   0.742   3.883
 4871SOL    HW115512   1.659   0.736   3.852
 4871SOL    HW215513   1.504   0.696   3.817
 4872SOL     OW15514   6.302   0.308   3.593
 4872SOL    HW115515   6.400   0.304   3.610
 4872SOL    HW215516   6.256   0.236   3.644
 4873SOL     OW15517   6.495   5.439   3.814
 4873SOL    HW115518   6.456   5.522   3.855
 4873SOL    HW215519   6.444   5.359   3.846
 4874SOL     OW15520   5.886   3.849   2.326
 4874SOL    HW115521   5.959   3.868   2.393
 4874SOL    HW215522   5.853   3.755   2.339
 4875SOL     OW15523   6.128   1.761   0.613
 4875SOL    HW115524   6.182   1.678   0.626
 4875SOL    HW215525   6.184   1.841   0.632
 4876SOL     OW15526   6.440   2.185   2.974
 4876SOL    HW115527   6.511   2.252   2.996
 4876SOL    HW215528   6.364   2.194   3.038
 4877SOL     OW15529   1.549   2.014   5.891
 4877SOL    HW115530   1.449   2.010   5.898
 4877SOL    HW215531   1.580   1.947   5.823
 4878SOL     OW15532   6.424   1.366   1.617
 4878SOL    HW115533   6.509   1.337   1.660
 4878SOL    HW215534   6.442   1.442   1.555
 4879SOL     OW15535   4.388   1.615   2.342
 4879SOL    HW115536   4.352   1.679   2.274
 4879SOL    HW215537   4.322   1.605   2.417
 4880SOL     OW15538   5.326   3.778   0.078
 4880SOL    HW115539   5.360   3.859   0.030
 4880SOL    HW215540   5.275   3.805   0.159
 4881SOL     OW15541   1.435   1.500   0.186
 4881SOL    HW115542   1.440   1.599   0.201
 4881SOL    HW215543   1.355   1.478   0.131
 4882SOL     OW15544   4.669   0.626   4.764
 4882SOL    HW115545   4.666   0.568   4.683
 4882SOL    HW215546   4.726   0.706   4.746
 4883SOL     OW15547   4.880   4.679   1.592
 4883SOL    HW115548   4.822   4.661   1.513
 4883SOL    HW215549   4.968   4.716   1.562
 4884SOL     OW15550   2.973   5.962   1.792
 4884SOL    HW115551   2.875   5.982   1.789
 4884SOL    HW215552   3.012   5.967   1.700
 4885SOL     OW15553   2.259   5.148   1.333
 4885SOL    HW115554   2.199   5.102   1.398
 4885SOL    HW215555   2.342   5.177   1.379
 4886SOL     OW15556   1.950   6.044   1.678
 4886SOL    HW115557   1.911   5.973   1.737
 4886SOL    HW215558   2.031   6.082   1.722
 4887SOL     OW15559   0.085   6.961   1.329
 4887SOL    HW115560   0.034   6.963   1.243
 4887SOL    HW215561   0.179   6.931   1.312
 4888SOL     OW15562   3.155   0.608   4.394
 4888SOL    HW115563   3.178   0.511   4.391
 4888SOL    HW215564   3.141   0.636   4.489
 4889SOL     OW15565   6.946   1.304   5.281
 4889SOL    HW115566   6.933   1.382   5.220
 4889SOL    HW215567   6.859   1.256   5.294
 4890SOL     OW15568   6.670   1.169   5.981
 4890SOL    HW115569   6.660   1.234   6.057
 4890SOL    HW215570   6.733   1.207   5.913
 4891SOL     OW15571   1.698   4.545   0.424
 4891SOL    HW115572   1.708   4.539   0.523
 4891SOL    HW215573   1.784   4.520   0.380
 4892SOL     OW15574   3.780   5.661   2.216
 4892SOL    HW115575   3.785   5.647   2.315
 4892SOL    HW215576   3.787   5.759   2.197
 4893SOL     OW15577   6.211   2.872   1.436
 4893SOL    HW115578   6.168   2.846   1.350
 4893SOL    HW215579   6.310   2.875   1.424
 4894SOL     OW15580   3.715   0.931   2.367
 4894SOL    HW115581   3.618   0.923   2.343
 4894SOL    HW215582   3.770   0.933   2.284
 4895SOL     OW15583   0.663   4.939   4.577
 4895SOL    HW115584   0.736   4.877   4.549
 4895SOL    HW215585   0.581   4.887   4.600
 4896SOL     OW15586   2.329   4.339   1.996
 4896SOL    HW115587   2.250   4.284   2.021
 4896SOL    HW215588   2.360   4.314   1.904
 4897SOL     OW15589   1.588   5.251   5.876
 4897SOL    HW115590   1.618   5.169   5.826
 4897SOL    HW215591   1.620   5.333   5.828
 4898SOL     OW15592   4.500   1.138   4.942
 4898SOL    HW115593   4.555   1.219   4.921
 4898SOL    HW215594   4.557   1.056   4.937
 4899SOL     OW15595   5.914   5.242   2.638
 4899SOL    HW115596   5.832   5.192   2.611
 4899SOL    HW215597   5.965   5.189   2.706
 4900SOL     OW15598   3.507   6.316   5.066
 4900SOL    HW115599   3.514   6.331   5.164
 4900SOL    HW215600   3.560   6.234   5.041
 4901SOL     OW15601   2.582   1.533   5.494
 4901SOL    HW115602   2.625   1.496   5.577
 4901SOL    HW215603   2.574   1.461   5.425
 4902SOL     OW15604   1.474   1.576   5.100
 4902SOL    HW115605   1.570   1.601   5.111
 4902SOL    HW215606   1.418   1.659   5.097
 4903SOL     OW15607   3.808   5.435   0.369
 4903SOL    HW115608   3.853   5.355   0.409
 4903SOL    HW215609   3.867   5.474   0.298
 4904SOL     OW15610   2.219   0.388   5.252
 4904SOL    HW115611   2.285   0.313   5.255
 4904SOL    HW215612   2.227   0.437   5.165
 4905SOL     OW15613   3.325   0.570   3.232
 4905SOL    HW115614   3.275   0.515   3.299
 4905SOL    HW215615   3.423   0.560   3.247
 4906SOL     OW15616   5.116   1.597   6.294
 4906SOL    HW115617   5.039   1.553   6.342
 4906SOL    HW215618   5.201   1.551   6.320
 4907SOL     OW15619   4.487   6.594   2.031
 4907SOL    HW115620   4.441   6.560   1.948
 4907SOL    HW215621   4.420   6.603   2.105
 4908SOL     OW15622   5.744   6.623   6.726
 4908SOL    HW115623   5.741   6.527   6.695
 4908SOL    HW215624   5.838   6.648   6.748
 4909SOL     OW15625   0.512   5.753   3.785
 4909SOL    HW115626   0.557   5.788   3.703
 4909SOL    HW215627   0.461   5.670   3.762
 4910SOL     OW15628   5.109   1.335   4.466
 4910SOL    HW115629   5.026   1.359   4.516
 4910SOL    HW215630   5.093   1.346   4.368
 4911SOL     OW15631   1.555   4.313   2.889
 4911SOL    HW115632   1.584   4.331   2.983
 4911SOL    HW215633   1.459   4.340   2.879
 4912SOL     OW15634   6.002   0.924   6.287
 4912SOL    HW115635   5.929   0.909   6.353
 4912SOL    HW215636   6.051   1.008   6.309
 4913SOL     OW15637   3.882   3.131   5.006
 4913SOL    HW115638   3.815   3.061   5.028
 4913SOL    HW215639   3.864   3.213   5.061
 4914SOL     OW15640   4.252   6.884   4.971
 4914SOL    HW115641   4.230   6.891   4.874
 4914SOL    HW215642   4.263   6.976   5.009
 4915SOL     OW15643   3.101   5.502   6.043
 4915SOL    HW115644   3.185   5.518   5.991
 4915SOL    HW215645   3.022   5.536   5.992
 4916SOL     OW15646   0.846   0.839   4.275
 4916SOL    HW115647   0.805   0.931   4.275
 4916SOL    HW215648   0.887   0.820   4.187
 4917SOL     OW15649   2.346   5.633   1.284
 4917SOL    HW115650   2.382   5.691   1.211
 4917SOL    HW215651   2.420   5.581   1.325
 4918SOL     OW15652   5.184   6.668   1.865
 4918SOL    HW115653   5.260   6.613   1.900
 4918SOL    HW215654   5.207   6.703   1.774
 4919SOL     OW15655   3.447   3.061   0.479
 4919SOL    HW115656   3.439   3.087   0.383
 4919SOL    HW215657   3.448   2.961   0.486
 4920SOL     OW15658   5.393   0.313   4.657
 4920SOL    HW115659   5.394   0.264   4.570
 4920SOL    HW215660   5.342   0.259   4.724
 4921SOL     OW15661   0.705   5.930   0.021
 4921SOL    HW115662   0.674   5.874   6.965
 4921SOL    HW215663   0.641   5.919   0.097
 4922SOL     OW15664   2.655   2.108   4.875
 4922SOL    HW115665   2.610   2.087   4.789
 4922SOL    HW215666   2.752   2.130   4.858
 4923SOL     OW15667   3.582   1.200   2.241
 4923SOL    HW115668   3.641   1.119   2.239
 4923SOL    HW215669   3.496   1.180   2.193
 4924SOL     OW15670   3.443   1.381   4.822
 4924SOL    HW115671   3.412   1.408   4.731
 4924SOL    HW215672   3.471   1.462   4.873
 4925SOL     OW15673   6.245   0.095   2.472
 4925SOL    HW115674   6.277   0.142   2.555
 4925SOL    HW215675   6.155   0.130   2.447
 4926SOL     OW15676   5.265   1.669   1.205
 4926SOL    HW115677   5.318   1.676   1.290
 4926SOL    HW215678   5.307   1.725   1.135
 4927SOL     OW15679   3.315   3.461   4.725
 4927SOL    HW115680   3.370   3.516   4.788
 4927SOL    HW215681   3.296   3.372   4.766
 4928SOL     OW15682   1.406   0.677   6.871
 4928SOL    HW115683   1.396   0.771   6.903
 4928SOL    HW215684   1.482   0.633   6.919
 4929SOL     OW15685   6.281   6.605   4.728
 4929SOL    HW115686   6.330   6.552   4.796
 4929SOL    HW215687   6.182   6.598   4.744
 4930SOL     OW15688   5.837   0.766   3.053
 4930SOL    HW115689   5.849   0.860   3.086
 4930SOL    HW215690   5.886   0.703   3.114
 4931SOL     OW15691   6.653   6.549   1.180
 4931SOL    HW115692   6.732   6.557   1.119
 4931SOL    HW215693   6.667   6.472   1.242
 4932SOL     OW15694   3.955   3.276   2.382
 4932SOL    HW115695   4.026   3.227   2.433
 4932SOL    HW215696   3.866   3.236   2.402
 4933SOL     OW15697   2.187   6.957   2.147
 4933SOL    HW115698   2.225   6.951   2.055
 4933SOL    HW215699   2.249   7.010   2.205
 4934SOL     OW15700   3.376   5.380   3.224
 4934SOL    HW115701   3.388   5.470   3.265
 4934SOL    HW215702   3.323   5.389   3.140
 4935SOL     OW15703   1.374   2.164   6.235
 4935SOL    HW115704   1.410   2.072   6.219
 4935SOL    HW215705   1.433   2.211   6.301
 4936SOL     OW15706   3.211   5.233   1.453
 4936SOL    HW115707   3.295   5.255   1.503
 4936SOL    HW215708   3.134   5.281   1.495
 4937SOL     OW15709   5.780   3.111   5.977
 4937SOL    HW115710   5.879   3.103   5.991
 4937SOL    HW215711   5.743   3.178   6.041
 4938SOL     OW15712   1.910   5.290   5.724
 4938SOL    HW115713   1.933   5.271   5.820
 4938SOL    HW215714   1.844   5.364   5.720
 4939SOL     OW15715   5.801   2.135   4.937
 4939SOL    HW115716   5.827   2.072   4.864
 4939SOL    HW215717   5.853   2.113   5.019
 4940SOL     OW15718   0.805   1.257   4.747
 4940SOL    HW115719   0.828   1.277   4.842
 4940SOL    HW215720   0.831   1.335   4.689
 4941SOL     OW15721   4.771   1.876   5.903
 4941SOL    HW115722   4.683   1.919   5.881
 4941SOL    HW215723   4.782   1.870   6.002
 4942SOL     OW15724   5.176   2.679   5.977
 4942SOL    HW115725   5.271   2.706   5.962
 4942SOL    HW215726   5.150   2.611   5.908
 4943SOL     OW15727   4.382   3.460   0.145
 4943SOL    HW115728   4.392   3.548   0.099
 4943SOL    HW215729   4.328   3.472   0.229
 4944SOL     OW15730   2.203   4.340   2.541
 4944SOL    HW115731   2.269   4.352   2.467
 4944SOL    HW215732   2.147   4.259   2.523
 4945SOL     OW15733   1.004   1.551   3.529
 4945SOL    HW115734   1.085   1.495   3.515
 4945SOL    HW215735   0.931   1.520   3.467
 4946SOL     OW15736   0.326   3.136   1.272
 4946SOL    HW115737   0.259   3.108   1.341
 4946SOL    HW215738   0.411   3.163   1.317
 4947SOL     OW15739   1.815   0.764   1.266
 4947SOL    HW115740   1.914   0.776   1.257
 4947SOL    HW215741   1.774   0.847   1.303
 4948SOL     OW15742   1.805   0.772   2.647
 4948SOL    HW115743   1.843   0.753   2.737
 4948SOL    HW215744   1.843   0.707   2.581
 4949SOL     OW15745   4.209   6.839   5.899
 4949SOL    HW115746   4.183   6.747   5.930
 4949SOL    HW215747   4.133   6.902   5.914
 4950SOL     OW15748   2.859   5.682   4.273
 4950SOL    HW115749   2.808   5.746   4.329
 4950SOL    HW215750   2.797   5.633   4.211
 4951SOL     OW15751   5.226   1.567   4.582
 4951SOL    HW115752   5.162   1.521   4.644
 4951SOL    HW215753   5.257   1.503   4.512
 4952SOL     OW15754   0.135   0.487   5.168
 4952SOL    HW115755   0.193   0.409   5.190
 4952SOL    HW215756   0.070   0.502   5.243
 4953SOL     OW15757   1.983   6.832   2.298
 4953SOL    HW115758   1.990   6.732   2.297
 4953SOL    HW215759   2.046   6.870   2.230
 4954SOL     OW15760   4.528   3.679   0.070
 4954SOL    HW115761   4.542   3.773   0.040
 4954SOL    HW215762   4.614   3.641   0.104
 4955SOL     OW15763   1.970   6.632   6.500
 4955SOL    HW115764   2.032   6.617   6.578
 4955SOL    HW215765   1.893   6.569   6.507
 4956SOL     OW15766   2.716   0.261   4.817
 4956SOL    HW115767   2.779   0.332   4.785
 4956SOL    HW215768   2.755   0.214   4.895
 4957SOL     OW15769   0.203   1.521   3.131
 4957SOL    HW115770   0.131   1.452   3.121
 4957SOL    HW215771   0.196   1.563   3.221
 4958SOL     OW15772   6.992   5.864   5.524
 4958SOL    HW115773   6.920   5.918   5.569
 4958SOL    HW215774   6.970   5.855   5.427
 4959SOL     OW15775   6.800   1.271   6.422
 4959SOL    HW115776   6.733   1.203   6.448
 4959SOL    HW215777   6.815   1.334   6.499
 4960SOL     OW15778   3.301   5.870   4.034
 4960SOL    HW115779   3.361   5.790   4.029
 4960SOL    HW215780   3.317   5.929   3.955
 4961SOL     OW15781   5.316   1.691   5.637
 4961SOL    HW115782   5.340   1.627   5.564
 4961SOL    HW215783   5.397   1.744   5.662
 4962SOL     OW15784   6.206   2.561   0.591
 4962SOL    HW115785   6.295   2.599   0.567
 4962SOL    HW215786   6.161   2.620   0.658
 4963SOL     OW15787   6.143   6.095   0.290
 4963SOL    HW115788   6.208   6.022   0.270
 4963SOL    HW215789   6.135   6.107   0.389
 4964SOL     OW15790   3.782   6.604   3.611
 4964SOL    HW115791   3.730   6.600   3.696
 4964SOL    HW215792   3.865   6.549   3.620
 4965SOL     OW15793   0.070   0.279   3.761
 4965SOL    HW115794   0.019   0.363   3.778
 4965SOL    HW215795   0.029   0.204   3.813
 4966SOL     OW15796   1.787   0.437   5.077
 4966SOL    HW115797   1.856   0.486   5.023
 4966SOL    HW215798   1.828   0.354   5.115
 4967SOL     OW15799   3.914   3.180   5.574
 4967SOL    HW115800   3.951   3.173   5.481
 4967SOL    HW215801   3.921   3.275   5.605
 4968SOL     OW15802   5.782   3.110   3.179
 4968SOL    HW115803   5.789   3.209   3.181
 4968SOL    HW215804   5.838   3.074   3.105
 4969SOL     OW15805   2.040   1.119   1.989
 4969SOL    HW115806   2.029   1.197   1.927
 4969SOL    HW215807   2.035   1.152   2.084
 4970SOL     OW15808   1.678   2.255   4.436
 4970SOL    HW115809   1.587   2.215   4.443
 4970SOL    HW215810   1.727   2.241   4.522
 4971SOL     OW15811   6.029   6.078   3.588
 4971SOL    HW115812   6.010   5.986   3.552
 4971SOL    HW215813   6.106   6.118   3.538
 4972SOL     OW15814   1.164   2.795   0.851
 4972SOL    HW115815   1.116   2.777   0.937
 4972SOL    HW215816   1.145   2.888   0.820
 4973SOL     OW15817   6.914   6.949   1.948
 4973SOL    HW115818   6.828   6.964   1.997
 4973SOL    HW215819   6.974   6.892   2.004
 4974SOL     OW15820   5.951   4.329   0.808
 4974SOL    HW115821   5.914   4.418   0.835
 4974SOL    HW215822   5.882   4.279   0.755
 4975SOL     OW15823   5.431   5.747   6.384
 4975SOL    HW115824   5.384   5.699   6.310
 4975SOL    HW215825   5.372   5.819   6.421
 4976SOL     OW15826   3.319   0.332   4.585
 4976SOL    HW115827   3.388   0.401   4.564
 4976SOL    HW215828   3.237   0.376   4.620
 4977SOL     OW15829   4.908   4.226   0.626
 4977SOL    HW115830   4.900   4.134   0.587
 4977SOL    HW215831   4.829   4.244   0.685
 4978SOL     OW15832   6.904   3.615   5.752
 4978SOL    HW115833   6.848   3.648   5.828
 4978SOL    HW215834   6.878   3.521   5.730
 4979SOL     OW15835   0.227   1.225   5.076
 4979SOL    HW115836   0.290   1.160   5.118
 4979SOL    HW215837   0.133   1.192   5.084
 4980SOL     OW15838   4.589   0.323   3.457
 4980SOL    HW115839   4.499   0.343   3.418
 4980SOL    HW215840   4.651   0.399   3.440
 4981SOL     OW15841   4.417   5.688   5.943
 4981SOL    HW115842   4.441   5.772   5.990
 4981SOL    HW215843   4.459   5.688   5.852
 4982SOL     OW15844   1.862   1.978   6.742
 4982SOL    HW115845   1.807   2.061   6.747
 4982SOL    HW215846   1.802   1.898   6.756
 4983SOL     OW15847   5.245   2.817   4.413
 4983SOL    HW115848   5.250   2.741   4.478
 4983SOL    HW215849   5.213   2.783   4.324
 4984SOL     OW15850   5.489   3.743   4.235
 4984SOL    HW115851   5.390   3.748   4.226
 4984SOL    HW215852   5.524   3.829   4.272
 4985SOL     OW15853   6.534   6.124   3.415
 4985SOL    HW115854   6.438   6.135   3.390
 4985SOL    HW215855   6.582   6.210   3.402
 4986SOL     OW15856   6.895   4.177   3.121
 4986SOL    HW115857   6.984   4.132   3.118
 4986SOL    HW215858   6.824   4.109   3.140
 4987SOL     OW15859   0.771   2.572   1.425
 4987SOL    HW115860   0.856   2.625   1.425
 4987SOL    HW215861   0.766   2.518   1.341
 4988SOL     OW15862   6.642   1.945   3.285
 4988SOL    HW115863   6.699   2.014   3.240
 4988SOL    HW215864   6.574   1.990   3.342
 4989SOL     OW15865   4.911   0.959   1.009
 4989SOL    HW115866   4.955   1.040   0.969
 4989SOL    HW215867   4.819   0.984   1.040
 4990SOL     OW15868   1.512   1.647   5.945
 4990SOL    HW115869   1.446   1.578   5.977
 4990SOL    HW215870   1.593   1.645   6.003
 4991SOL     OW15871   0.890   3.779   4.040
 4991SOL    HW115872   0.878   3.725   4.123
 4991SOL    HW215873   0.925   3.870   4.064
 4992SOL     OW15874   5.223   1.111   4.091
 4992SOL    HW115875   5.175   1.082   4.174
 4992SOL    HW215876   5.268   1.032   4.050
 4993SOL     OW15877   3.448   5.579   4.286
 4993SOL    HW115878   3.508   5.598   4.363
 4993SOL    HW215879   3.476   5.636   4.208
 4994SOL     OW15880   1.381   0.439   2.113
 4994SOL    HW115881   1.308   0.455   2.179
 4994SOL    HW215882   1.407   0.526   2.070
 4995SOL     OW15883   6.434   2.913   5.904
 4995SOL    HW115884   6.408   2.915   6.000
 4995SOL    HW215885   6.352   2.902   5.847
 4996SOL     OW15886   1.452   1.204   2.471
 4996SOL    HW115887   1.512   1.283   2.469
 4996SOL    HW215888   1.375   1.222   2.532
 4997SOL     OW15889   6.059   2.318   2.737
 4997SOL    HW115890   6.000   2.273   2.804
 4997SOL    HW215891   6.108   2.249   2.683
 4998SOL     OW15892   2.130   3.827   4.946
 4998SOL    HW115893   2.200   3.898   4.942
 4998SOL    HW215894   2.121   3.795   5.041
 4999SOL     OW15895   5.397   5.587   1.026
 4999SOL    HW115896   5.397   5.679   0.988
 4999SOL    HW215897   5.393   5.591   1.126
 5000SOL     OW15898   1.203   0.183   3.952
 5000SOL    HW115899   1.219   0.184   3.854
 5000SOL    HW215900   1.105   0.178   3.970
 5001SOL     OW15901   1.518   4.178   6.096
 5001SOL    HW115902   1.570   4.093   6.088
 5001SOL    HW215903   1.433   4.160   6.145
 5002SOL     OW15904   1.153   3.303   2.850
 5002SOL    HW115905   1.111   3.394   2.851
 5002SOL    HW215906   1.247   3.309   2.883
 5003SOL     OW15907   1.790   6.122   3.356
 5003SOL    HW115908   1.791   6.176   3.440
 5003SOL    HW215909   1.884   6.093   3.335
 5004SOL     OW15910   2.779   5.201   5.389
 5004SOL    HW115911   2.784   5.116   5.337
 5004SOL    HW215912   2.845   5.266   5.352
 5005SOL     OW15913   3.194   2.646   0.840
 5005SOL    HW115914   3.171   2.744   0.837
 5005SOL    HW215915   3.241   2.621   0.756
 5006SOL     OW15916   5.509   6.727   6.631
 5006SOL    HW115917   5.586   6.677   6.670
 5006SOL    HW215918   5.520   6.735   6.532
 5007SOL     OW15919   2.368   0.270   6.615
 5007SOL    HW115920   2.386   0.243   6.710
 5007SOL    HW215921   2.269   0.272   6.600
 5008SOL     OW15922   6.628   0.533   3.901
 5008SOL    HW115923   6.667   0.442   3.917
 5008SOL    HW215924   6.567   0.556   3.977
 5009SOL     OW15925   1.929   6.596   1.912
 5009SOL    HW115926   2.023   6.606   1.945
 5009SOL    HW215927   1.929   6.545   1.826
 5010SOL     OW15928   3.269   3.072   3.836
 5010SOL    HW115929   3.200   3.094   3.767
 5010SOL    HW215930   3.233   3.002   3.897
 5011SOL     OW15931   2.103   3.673   2.121
 5011SOL    HW115932   2.040   3.642   2.193
 5011SOL    HW215933   2.160   3.597   2.091
 5012SOL     OW15934   4.924   3.443   6.145
 5012SOL    HW115935   4.864   3.436   6.065
 5012SOL    HW215936   4.934   3.353   6.187
 5013SOL     OW15937   5.249   1.600   0.146
 5013SOL    HW115938   5.200   1.671   0.196
 5013SOL    HW215939   5.202   1.513   0.158
 5014SOL     OW15940   5.708   5.055   0.247
 5014SOL    HW115941   5.800   5.054   0.289
 5014SOL    HW215942   5.665   5.144   0.264
 5015SOL     OW15943   4.683   1.995   3.721
 5015SOL    HW115944   4.633   2.048   3.789
 5015SOL    HW215945   4.776   2.030   3.712
 5016SOL     OW15946   2.663   1.695   1.858
 5016SOL    HW115947   2.662   1.795   1.871
 5016SOL    HW215948   2.663   1.674   1.761
 5017SOL     OW15949   2.077   2.009   0.288
 5017SOL    HW115950   2.089   1.960   0.375
 5017SOL    HW215951   2.146   2.081   0.281
 5018SOL     OW15952   0.862   4.833   1.232
 5018SOL    HW115953   0.933   4.903   1.239
 5018SOL    HW215954   0.876   4.763   1.302
 5019SOL     OW15955   2.278   4.267   0.329
 5019SOL    HW115956   2.264   4.257   0.230
 5019SOL    HW215957   2.301   4.179   0.368
 5020SOL     OW15958   4.624   6.194   5.680
 5020SOL    HW115959   4.640   6.236   5.591
 5020SOL    HW215960   4.542   6.136   5.675
 5021SOL     OW15961   1.490   2.620   5.472
 5021SOL    HW115962   1.533   2.709   5.459
 5021SOL    HW215963   1.393   2.626   5.448
 5022SOL     OW15964   2.125   0.579   1.008
 5022SOL    HW115965   2.190   0.614   1.076
 5022SOL    HW215966   2.101   0.484   1.031
 5023SOL     OW15967   6.435   3.285   1.578
 5023SOL    HW115968   6.502   3.353   1.548
 5023SOL    HW215969   6.408   3.228   1.501
 5024SOL     OW15970   6.736   4.138   2.721
 5024SOL    HW115971   6.717   4.227   2.760
 5024SOL    HW215972   6.820   4.143   2.665
 5025SOL     OW15973   4.141   1.732   1.880
 5025SOL    HW115974   4.051   1.713   1.918
 5025SOL    HW215975   4.135   1.810   1.817
 5026SOL     OW15976   5.854   5.971   6.543
 5026SOL    HW115977   5.850   5.895   6.478
 5026SOL    HW215978   5.772   6.028   6.533
 5027SOL     OW15979   0.467   0.101   2.122
 5027SOL    HW115980   0.452   0.019   2.067
 5027SOL    HW215981   0.547   0.089   2.180
 5028SOL     OW15982   0.191   6.895   2.493
 5028SOL    HW115983   0.285   6.931   2.490
 5028SOL    HW215984   0.134   6.947   2.429
 5029SOL     OW15985   6.395   3.068   3.375
 5029SOL    HW115986   6.393   2.998   3.447
 5029SOL    HW215987   6.323   3.135   3.391
 5030SOL     OW15988   6.437   0.392   6.990
 5030SOL    HW115989   6.470   0.360   0.058
 5030SOL    HW215990   6.411   0.488   6.997
 5031SOL     OW15991   5.648   1.503   4.899
 5031SOL    HW115992   5.573   1.527   4.837
 5031SOL    HW215993   5.611   1.467   4.984
 5032SOL     OW15994   0.886   4.462   1.299
 5032SOL    HW115995   0.802   4.441   1.350
 5032SOL    HW215996   0.965   4.426   1.348
 5033SOL     OW15997   1.702   4.766   6.693
 5033SOL    HW115998   1.673   4.708   6.617
 5033SOL    HW215999   1.631   4.769   6.762
 5034SOL     OW16000   6.761   2.874   2.340
 5034SOL    HW116001   6.711   2.898   2.422
 5034SOL    HW216002   6.842   2.933   2.331
 5035SOL     OW16003   5.992   4.562   0.471
 5035SOL    HW116004   6.065   4.616   0.514
 5035SOL    HW216005   5.957   4.611   0.391
 5036SOL     OW16006   0.370   5.150   6.855
 5036SOL    HW116007   0.295   5.162   6.921
 5036SOL    HW216008   0.457   5.142   6.904
 5037SOL     OW16009   4.660   2.597   2.318
 5037SOL    HW116010   4.741   2.655   2.329
 5037SOL    HW216011   4.683   2.503   2.344
 5038SOL     OW16012   1.721   5.088   5.699
 5038SOL    HW116013   1.695   5.135   5.615
 5038SOL    HW216014   1.820   5.090   5.710
 5039SOL     OW16015   2.087   3.723   5.201
 5039SOL    HW116016   2.117   3.750   5.292
 5039SOL    HW216017   2.118   3.630   5.181
 5040SOL     OW16018   2.252   4.208   6.481
 5040SOL    HW116019   2.328   4.152   6.449
 5040SOL    HW216020   2.176   4.202   6.415
 5041SOL     OW16021   1.057   3.832   1.197
 5041SOL    HW116022   0.979   3.807   1.254
 5041SOL    HW216023   1.049   3.928   1.170
 5042SOL     OW16024   0.085   3.119   6.924
 5042SOL    HW116025   0.037   3.040   6.887
 5042SOL    HW216026   0.019   3.191   6.946
 5043SOL     OW16027   3.167   0.932   5.566
 5043SOL    HW116028   3.181   0.949   5.664
 5043SOL    HW216029   3.184   1.017   5.515
 5044SOL     OW16030   5.911   6.924   3.451
 5044SOL    HW116031   5.990   6.866   3.432
 5044SOL    HW216032   5.859   6.938   3.367
 5045SOL     OW16033   5.490   3.275   0.187
 5045SOL    HW116034   5.470   3.177   0.180
 5045SOL    HW216035   5.585   3.287   0.217
 5046SOL     OW16036   4.066   3.174   4.793
 5046SOL    HW116037   4.156   3.214   4.812
 5046SOL    HW216038   4.017   3.161   4.879
 5047SOL     OW16039   6.686   2.293   2.682
 5047SOL    HW116040   6.696   2.358   2.606
 5047SOL    HW216041   6.630   2.215   2.651
 5048SOL     OW16042   6.703   2.528   1.177
 5048SOL    HW116043   6.708   2.508   1.275
 5048SOL    HW216044   6.792   2.559   1.144
 5049SOL     OW16045   0.132   0.918   3.656
 5049SOL    HW116046   0.158   0.990   3.720
 5049SOL    HW216047   0.039   0.934   3.624
 5050SOL     OW16048   0.399   1.220   2.293
 5050SOL    HW116049   0.392   1.217   2.393
 5050SOL    HW216050   0.421   1.314   2.265
 5051SOL     OW16051   4.219   3.471   0.534
 5051SOL    HW116052   4.250   3.378   0.512
 5051SOL    HW216053   4.168   3.469   0.620
 5052SOL     OW16054   2.414   5.039   6.058
 5052SOL    HW116055   2.348   4.965   6.044
 5052SOL    HW216056   2.499   5.001   6.094
 5053SOL     OW16057   1.844   4.044   3.133
 5053SOL    HW116058   1.928   4.025   3.082
 5053SOL    HW216059   1.864   4.108   3.207
 5054SOL     OW16060   3.755   5.814   5.149
 5054SOL    HW116061   3.659   5.831   5.172
 5054SOL    HW216062   3.761   5.738   5.084
 5055SOL     OW16063   7.006   1.382   4.667
 5055SOL    HW116064   6.941   1.316   4.630
 5055SOL    HW216065   0.055   1.334   4.719
 5056SOL     OW16066   6.068   4.099   6.439
 5056SOL    HW116067   6.132   4.111   6.515
 5056SOL    HW216068   6.019   4.012   6.450
 5057SOL     OW16069   1.203   5.465   3.648
 5057SOL    HW116070   1.213   5.489   3.745
 5057SOL    HW216071   1.292   5.465   3.604
 5058SOL     OW16072   2.723   3.672   6.572
 5058SOL    HW116073   2.769   3.706   6.490
 5058SOL    HW216074   2.750   3.728   6.651
 5059SOL     OW16075   5.144   3.208   4.662
 5059SOL    HW116076   5.077   3.269   4.703
 5059SOL    HW216077   5.235   3.230   4.698
 5060SOL     OW16078   0.279   2.559   5.268
 5060SOL    HW116079   0.363   2.606   5.244
 5060SOL    HW216080   0.224   2.617   5.328
 5061SOL     OW16081   2.986   3.442   3.645
 5061SOL    HW116082   3.029   3.399   3.565
 5061SOL    HW216083   2.945   3.529   3.618
 5062SOL     OW16084   5.901   1.047   2.232
 5062SOL    HW116085   5.830   1.065   2.163
 5062SOL    HW216086   5.965   0.979   2.196
 5063SOL     OW16087   1.175   5.950   1.796
 5063SOL    HW116088   1.103   6.005   1.754
 5063SOL    HW216089   1.216   6.000   1.872
 5064SOL     OW16090   4.839   5.197   1.074
 5064SOL    HW116091   4.904   5.266   1.105
 5064SOL    HW216092   4.839   5.119   1.136
 5065SOL     OW16093   1.563   0.951   2.712
 5065SOL    HW116094   1.597   1.039   2.745
 5065SOL    HW216095   1.639   0.899   2.671
 5066SOL     OW16096   2.674   4.376   1.720
 5066SOL    HW116097   2.707   4.360   1.627
 5066SOL    HW216098   2.745   4.425   1.772
 5067SOL     OW16099   4.909   1.408   2.718
 5067SOL    HW116100   4.817   1.395   2.753
 5067SOL    HW216101   4.914   1.379   2.623
 5068SOL     OW16102   2.975   5.397   0.047
 5068SOL    HW116103   3.061   5.440   0.022
 5068SOL    HW216104   2.992   5.303   0.078
 5069SOL     OW16105   2.251   3.281   6.089
 5069SOL    HW116106   2.269   3.362   6.144
 5069SOL    HW216107   2.213   3.209   6.147
 5070SOL     OW16108   5.655   4.032   4.792
 5070SOL    HW116109   5.598   3.966   4.743
 5070SOL    HW216110   5.738   3.986   4.824
 5071SOL     OW16111   4.094   2.278   3.386
 5071SOL    HW116112   4.070   2.363   3.432
 5071SOL    HW216113   4.065   2.200   3.441
 5072SOL     OW16114   1.723   1.509   1.354
 5072SOL    HW116115   1.706   1.509   1.256
 5072SOL    HW216116   1.811   1.554   1.373
 5073SOL     OW16117   1.547   5.229   1.425
 5073SOL    HW116118   1.536   5.271   1.515
 5073SOL    HW216119   1.556   5.300   1.356
 5074SOL     OW16120   4.260   2.291   1.553
 5074SOL    HW116121   4.332   2.226   1.577
 5074SOL    HW216122   4.212   2.259   1.472
 5075SOL     OW16123   1.096   2.242   6.684
 5075SOL    HW116124   1.156   2.233   6.764
 5075SOL    HW216125   1.142   2.297   6.614
 5076SOL     OW16126   5.685   0.003   6.846
 5076SOL    HW116127   5.605   7.019   6.787
 5076SOL    HW216128   5.667   0.067   6.920
 5077SOL     OW16129   0.067   3.955   6.296
 5077SOL    HW116130   0.105   4.028   6.239
 5077SOL    HW216131   0.099   3.967   6.390
 5078SOL     OW16132   0.298   0.883   4.416
 5078SOL    HW116133   0.349   0.893   4.502
 5078SOL    HW216134   0.322   0.959   4.355
 5079SOL     OW16135   2.273   2.731   5.702
 5079SOL    HW116136   2.176   2.752   5.714
 5079SOL    HW216137   2.328   2.812   5.723
 5080SOL     OW16138   5.525   5.530   5.198
 5080SOL    HW116139   5.462   5.599   5.162
 5080SOL    HW216140   5.605   5.575   5.237
 5081SOL     OW16141   3.058   4.786   5.534
 5081SOL    HW116142   2.986   4.850   5.561
 5081SOL    HW216143   3.047   4.761   5.438
 5082SOL     OW16144   5.317   6.640   0.228
 5082SOL    HW116145   5.298   6.730   0.190
 5082SOL    HW216146   5.364   6.650   0.315
 5083SOL     OW16147   3.538   0.496   1.537
 5083SOL    HW116148   3.617   0.436   1.543
 5083SOL    HW216149   3.495   0.486   1.447
 5084SOL     OW16150   0.564   4.994   4.131
 5084SOL    HW116151   0.541   4.897   4.131
 5084SOL    HW216152   0.659   5.006   4.103
 5085SOL     OW16153   0.783   3.329   5.577
 5085SOL    HW116154   0.802   3.425   5.601
 5085SOL    HW216155   0.869   3.278   5.573
 5086SOL     OW16156   0.977   4.156   2.304
 5086SOL    HW116157   1.064   4.201   2.325
 5086SOL    HW216158   0.919   4.218   2.251
 5087SOL     OW16159   6.808   5.586   2.258
 5087SOL    HW116160   6.896   5.622   2.226
 5087SOL    HW216161   6.757   5.551   2.180
 5088SOL     OW16162   4.828   6.960   3.598
 5088SOL    HW116163   4.739   6.977   3.556
 5088SOL    HW216164   4.864   0.024   3.635
 5089SOL     OW16165   5.968   4.485   4.433
 5089SOL    HW116166   5.937   4.517   4.522
 5089SOL    HW216167   6.068   4.473   4.434
 5090SOL     OW16168   2.175   1.391   2.561
 5090SOL    HW116169   2.254   1.440   2.599
 5090SOL    HW216170   2.195   1.362   2.468
 5091SOL     OW16171   6.319   0.824   1.416
 5091SOL    HW116172   6.237   0.812   1.472
 5091SOL    HW216173   6.388   0.756   1.443
 5092SOL     OW16174   3.436   2.916   3.599
 5092SOL    HW116175   3.442   3.006   3.643
 5092SOL    HW216176   3.362   2.864   3.641
 5093SOL     OW16177   3.526   1.493   0.687
 5093SOL    HW116178   3.437   1.494   0.641
 5093SOL    HW216179   3.522   1.550   0.768
 5094SOL     OW16180   1.888   5.883   6.542
 5094SOL    HW116181   1.831   5.828   6.602
 5094SOL    HW216182   1.840   5.897   6.455
 5095SOL     OW16183   0.475   2.340   3.310
 5095SOL    HW116184   0.461   2.275   3.236
 5095SOL    HW216185   0.458   2.295   3.398
 5096SOL     OW16186   4.610   4.948   6.197
 5096SOL    HW116187   4.637   5.001   6.277
 5096SOL    HW216188   4.635   4.852   6.211
 5097SOL     OW16189   6.892   6.637   0.172
 5097SOL    HW116190   6.867   6.729   0.145
 5097SOL    HW216191   6.980   6.612   0.131
 5098SOL     OW16192   3.473   1.830   1.316
 5098SOL    HW116193   3.557   1.820   1.262
 5098SOL    HW216194   3.492   1.807   1.411
 5099SOL     OW16195   0.233   6.261   2.093
 5099SOL    HW116196   0.235   6.284   2.190
 5099SOL    HW216197   0.320   6.286   2.050
 5100SOL     OW16198   3.472   5.350   4.598
 5100SOL    HW116199   3.477   5.344   4.499
 5100SOL    HW216200   3.450   5.261   4.636
 5101SOL     OW16201   4.556   0.060   5.761
 5101SOL    HW116202   4.518   6.996   5.726
 5101SOL    HW216203   4.647   0.043   5.798
 5102SOL     OW16204   5.246   6.891   4.231
 5102SOL    HW116205   5.194   6.958   4.178
 5102SOL    HW216206   5.243   6.915   4.327
 5103SOL     OW16207   1.302   1.762   4.119
 5103SOL    HW116208   1.297   1.679   4.063
 5103SOL    HW216209   1.291   1.842   4.060
 5104SOL     OW16210   2.622   6.449   1.927
 5104SOL    HW116211   2.643   6.533   1.977
 5104SOL    HW216212   2.593   6.472   1.834
 5105SOL     OW16213   3.112   2.829   6.502
 5105SOL    HW116214   3.088   2.896   6.572
 5105SOL    HW216215   3.178   2.870   6.439
 5106SOL     OW16216   4.149   1.402   1.187
 5106SOL    HW116217   4.151   1.364   1.280
 5106SOL    HW216218   4.124   1.499   1.192
 5107SOL     OW16219   4.856   2.466   1.482
 5107SOL    HW116220   4.845   2.564   1.494
 5107SOL    HW216221   4.767   2.423   1.473
 5108SOL     OW16222   4.155   3.686   5.242
 5108SOL    HW116223   4.091   3.761   5.254
 5108SOL    HW216224   4.114   3.617   5.181
 5109SOL     OW16225   1.114   2.194   0.400
 5109SOL    HW116226   1.048   2.199   0.474
 5109SOL    HW216227   1.122   2.099   0.368
 5110SOL     OW16228   0.709   0.756   6.326
 5110SOL    HW116229   0.664   0.714   6.247
 5110SOL    HW216230   0.728   0.853   6.306
 5111SOL     OW16231   1.360   6.975   3.964
 5111SOL    HW116232   1.343   0.052   3.956
 5111SOL    HW216233   1.343   6.946   4.058
 5112SOL     OW16234   1.005   0.332   2.594
 5112SOL    HW116235   0.974   0.299   2.504
 5112SOL    HW216236   1.083   0.277   2.624
 5113SOL     OW16237   1.608   5.791   1.463
 5113SOL    HW116238   1.534   5.738   1.504
 5113SOL    HW216239   1.581   5.887   1.458
 5114SOL     OW16240   3.542   6.565   6.873
 5114SOL    HW116241   3.578   6.584   6.782
 5114SOL    HW216242   3.598   6.493   6.916
 5115SOL     OW16243   1.505   4.882   2.857
 5115SOL    HW116244   1.590   4.903   2.810
 5115SOL    HW216245   1.496   4.941   2.938
 5116SOL     OW16246   1.298   6.435   1.007
 5116SOL    HW116247   1.254   6.514   1.050
 5116SOL    HW216248   1.375   6.467   0.951
 5117SOL     OW16249   0.535   3.705   3.870
 5117SOL    HW116250   0.458   3.734   3.812
 5117SOL    HW216251   0.601   3.654   3.814
 5118SOL     OW16252   5.575   0.922   6.961
 5118SOL    HW116253   5.620   1.011   6.969
 5118SOL    HW216254   5.640   0.850   6.985
 5119SOL     OW16255   4.513   1.074   2.412
 5119SOL    HW116256   4.468   1.163   2.422
 5119SOL    HW216257   4.585   1.080   2.344
 5120SOL     OW16258   4.384   6.679   5.086
 5120SOL    HW116259   4.472   6.724   5.099
 5120SOL    HW216260   4.319   6.745   5.046
 5121SOL     OW16261   3.371   3.031   6.583
 5121SOL    HW116262   3.410   3.123   6.581
 5121SOL    HW216263   3.356   2.999   6.489
 5122SOL     OW16264   3.128   6.322   2.828
 5122SOL    HW116265   3.169   6.330   2.737
 5122SOL    HW216266   3.200   6.303   2.896
 5123SOL     OW16267   5.777   2.047   4.398
 5123SOL    HW116268   5.816   2.139   4.404
 5123SOL    HW216269   5.677   2.053   4.404
 5124SOL     OW16270   2.138   6.141   4.349
 5124SOL    HW116271   2.084   6.155   4.431
 5124SOL    HW216272   2.098   6.193   4.273
 5125SOL     OW16273   6.487   2.395   3.322
 5125SOL    HW116274   6.555   2.460   3.355
 5125SOL    HW216275   6.422   2.443   3.262
 5126SOL     OW16276   0.173   5.873   0.073
 5126SOL    HW116277   0.111   5.853   0.149
 5126SOL    HW216278   0.229   5.792   0.055
 5127SOL     OW16279   0.016   4.379   7.007
 5127SOL    HW116280   6.976   4.357   6.931
 5127SOL    HW216281   6.983   4.416   0.062
 5128SOL     OW16282   0.340   6.526   0.468
 5128SOL    HW116283   0.339   6.617   0.511
 5128SOL    HW216284   0.414   6.472   0.507
 5129SOL     OW16285   5.853   6.935   3.120
 5129SOL    HW116286   5.883   6.850   3.077
 5129SOL    HW216287   5.920   7.006   3.103
 5130SOL     OW16288   0.052   5.600   2.912
 5130SOL    HW116289   0.068   5.545   2.995
 5130SOL    HW216290   0.080   5.694   2.929
 5131SOL     OW16291   1.897   3.854   4.415
 5131SOL    HW116292   1.894   3.954   4.413
 5131SOL    HW216293   1.813   3.817   4.375
 5132SOL     OW16294   4.222   2.502   6.036
 5132SOL    HW116295   4.242   2.460   6.125
 5132SOL    HW216296   4.135   2.551   6.041
 5133SOL     OW16297   1.818   4.789   0.058
 5133SOL    HW116298   1.839   4.753   0.149
 5133SOL    HW216299   1.753   4.729   0.012
 5134SOL     OW16300   6.751   2.832   2.032
 5134SOL    HW116301   6.664   2.839   1.983
 5134SOL    HW216302   6.743   2.880   2.120
 5135SOL     OW16303   6.465   2.584   5.239
 5135SOL    HW116304   6.442   2.597   5.142
 5135SOL    HW216305   6.424   2.657   5.293
 5136SOL     OW16306   4.620   0.422   6.372
 5136SOL    HW116307   4.665   0.457   6.290
 5136SOL    HW216308   4.544   0.362   6.345
 5137SOL     OW16309   5.628   3.275   6.617
 5137SOL    HW116310   5.626   3.176   6.627
 5137SOL    HW216311   5.574   3.317   6.690
 5138SOL     OW16312   2.879   2.316   5.930
 5138SOL    HW116313   2.813   2.351   5.996
 5138SOL    HW216314   2.940   2.390   5.901
 5139SOL     OW16315   1.725   6.709   3.215
 5139SOL    HW116316   1.764   6.617   3.218
 5139SOL    HW216317   1.659   6.715   3.140
 5140SOL     OW16318   3.494   1.773   0.041
 5140SOL    HW116319   3.476   1.676   0.028
 5140SOL    HW216320   3.407   1.824   0.039
 5141SOL     OW16321   6.425   4.014   0.838
 5141SOL    HW116322   6.457   4.086   0.776
 5141SOL    HW216323   6.404   3.932   0.786
 5142SOL     OW16324   6.149   1.069   3.961
 5142SOL    HW116325   6.077   1.072   3.892
 5142SOL    HW216326   6.108   1.085   4.051
 5143SOL     OW16327   0.160   4.377   3.716
 5143SOL    HW116328   0.156   4.364   3.617
 5143SOL    HW216329   0.145   4.289   3.761
 5144SOL     OW16330   1.238   4.758   6.214
 5144SOL    HW116331   1.150   4.801   6.235
 5144SOL    HW216332   1.309   4.797   6.273
 5145SOL     OW16333   2.156   4.487   5.719
 5145SOL    HW116334   2.236   4.533   5.682
 5145SOL    HW216335   2.177   4.390   5.734
 5146SOL     OW16336   3.788   4.122   5.611
 5146SOL    HW116337   3.848   4.201   5.599
 5146SOL    HW216338   3.830   4.040   5.572
 5147SOL     OW16339   0.113   4.552   2.608
 5147SOL    HW116340   0.027   4.529   2.561
 5147SOL    HW216341   0.172   4.602   2.544
 5148SOL     OW16342   0.936   6.417   1.527
 5148SOL    HW116343   0.989   6.496   1.495
 5148SOL    HW216344   0.839   6.442   1.528
 5149SOL     OW16345   6.412   6.035   4.423
 5149SOL    HW116346   6.453   6.017   4.333
 5149SOL    HW216347   6.318   6.000   4.424
 5150SOL     OW16348   2.469   4.939   2.648
 5150SOL    HW116349   2.387   4.916   2.597
 5150SOL    HW216350   2.447   4.950   2.745
 5151SOL     OW16351   4.598   1.654   0.346
 5151SOL    HW116352   4.623   1.735   0.399
 5151SOL    HW216353   4.616   1.671   0.249
 5152SOL     OW16354   2.200   4.273   0.056
 5152SOL    HW116355   2.286   4.300   0.012
 5152SOL    HW216356   2.124   4.313   0.005
 5153SOL     OW16357   2.661   0.526   6.714
 5153SOL    HW116358   2.594   0.581   6.764
 5153SOL    HW216359   2.634   0.430   6.716
 5154SOL     OW16360   1.738   2.822   6.613
 5154SOL    HW116361   1.838   2.824   6.610
 5154SOL    HW216362   1.702   2.832   6.520
 5155SOL     OW16363   3.557   0.091   2.751
 5155SOL    HW116364   3.593   0.043   2.671
 5155SOL    HW216365   3.460   0.068   2.763
 5156SOL     OW16366   6.958   3.004   5.892
 5156SOL    HW116367   7.009   3.027   5.809
 5156SOL    HW216368   6.975   3.073   5.962
 5157SOL     OW16369   4.135   2.196   3.713
 5157SOL    HW116370   4.043   2.157   3.708
 5157SOL    HW216371   4.201   2.131   3.675
 5158SOL     OW16372   3.742   1.344   1.227
 5158SOL    HW116373   3.756   1.259   1.177
 5158SOL    HW216374   3.776   1.334   1.320
 5159SOL     OW16375   0.178   2.874   4.091
 5159SOL    HW116376   0.259   2.845   4.039
 5159SOL    HW216377   0.203   2.884   4.188
 5160SOL     OW16378   0.694   4.378   3.417
 5160SOL    HW116379   0.626   4.352   3.485
 5160SOL    HW216380   0.658   4.454   3.362
 5161SOL     OW16381   1.334   3.609   4.633
 5161SOL    HW116382   1.432   3.610   4.615
 5161SOL    HW216383   1.294   3.523   4.602
 5162SOL     OW16384   1.167   4.680   4.157
 5162SOL    HW116385   1.249   4.648   4.109
 5162SOL    HW216386   1.094   4.613   4.147
 5163SOL     OW16387   4.039   5.507   0.904
 5163SOL    HW116388   3.955   5.554   0.934
 5163SOL    HW216389   4.062   5.435   0.970
 5164SOL     OW16390   4.596   2.458   6.464
 5164SOL    HW116391   4.579   2.556   6.472
 5164SOL    HW216392   4.579   2.429   6.370
 5165SOL     OW16393   6.147   3.900   5.456
 5165SOL    HW116394   6.056   3.860   5.465
 5165SOL    HW216395   6.138   3.996   5.429
 5166SOL     OW16396   0.617   5.845   2.341
 5166SOL    HW116397   0.688   5.777   2.356
 5166SOL    HW216398   0.533   5.817   2.387
 5167SOL     OW16399   6.241   6.023   5.474
 5167SOL    HW116400   6.285   6.084   5.409
 5167SOL    HW216401   6.158   6.067   5.509
 5168SOL     OW16402   5.510   3.281   3.477
 5168SOL    HW116403   5.480   3.187   3.463
 5168SOL    HW216404   5.609   3.283   3.495
 5169SOL     OW16405   4.166   1.826   5.061
 5169SOL    HW116406   4.205   1.909   5.102
 5169SOL    HW216407   4.068   1.840   5.046
 5170SOL     OW16408   0.301   3.993   5.556
 5170SOL    HW116409   0.384   3.972   5.606
 5170SOL    HW216410   0.290   4.092   5.548
 5171SOL     OW16411   1.950   5.251   3.931
 5171SOL    HW116412   1.925   5.344   3.957
 5171SOL    HW216413   2.046   5.235   3.953
 5172SOL     OW16414   6.589   2.637   2.336
 5172SOL    HW116415   6.625   2.724   2.302
 5172SOL    HW216416   6.595   2.568   2.263
 5173SOL     OW16417   5.367   4.684   6.058
 5173SOL    HW116418   5.290   4.700   6.119
 5173SOL    HW216419   5.376   4.762   5.996
 5174SOL     OW16420   2.538   4.928   4.092
 5174SOL    HW116421   2.449   4.919   4.137
 5174SOL    HW216422   2.525   4.924   3.993
 5175SOL     OW16423   2.297   4.012   0.050
 5175SOL    HW116424   2.226   3.941   0.056
 5175SOL    HW216425   2.257   4.102   0.066
 5176SOL     OW16426   4.552   3.278   6.636
 5176SOL    HW116427   4.508   3.346   6.695
 5176SOL    HW216428   4.645   3.307   6.615
 5177SOL     OW16429   5.312   0.027   6.240
 5177SOL    HW116430   5.256   6.966   6.249
 5177SOL    HW216431   5.361   0.044   6.326
 5178SOL     OW16432   1.636   2.793   1.386
 5178SOL    HW116433   1.561   2.816   1.323
 5178SOL    HW216434   1.718   2.841   1.357
 5179SOL     OW16435   3.921   5.919   4.604
 5179SOL    HW116436   3.873   5.870   4.531
 5179SOL    HW216437   3.889   6.013   4.608
 5180SOL     OW16438   2.817   2.700   6.788
 5180SOL    HW116439   2.811   2.769   6.716
 5180SOL    HW216440   2.735   2.643   6.787
 5181SOL     OW16441   4.748   1.814   1.852
 5181SOL    HW116442   4.830   1.819   1.909
 5181SOL    HW216443   4.689   1.892   1.872
 5182SOL     OW16444   4.006   4.935   1.618
 5182SOL    HW116445   3.974   4.861   1.678
 5182SOL    HW216446   4.102   4.954   1.637
 5183SOL     OW16447   3.853   0.936   2.638
 5183SOL    HW116448   3.812   0.930   2.547
 5183SOL    HW216449   3.939   0.885   2.639
 5184SOL     OW16450   0.439   2.294   4.102
 5184SOL    HW116451   0.523   2.285   4.155
 5184SOL    HW216452   0.425   2.391   4.079
 5185SOL     OW16453   5.165   0.284   2.399
 5185SOL    HW116454   5.142   0.381   2.395
 5185SOL    HW216455   5.259   0.274   2.433
 5186SOL     OW16456   5.588   3.641   1.035
 5186SOL    HW116457   5.650   3.569   1.064
 5186SOL    HW216458   5.494   3.615   1.059
 5187SOL     OW16459   6.963   0.535   3.814
 5187SOL    HW116460   6.898   0.554   3.741
 5187SOL    HW216461   6.963   0.611   3.880
 5188SOL     OW16462   0.794   5.461   0.399
 5188SOL    HW116463   0.805   5.556   0.369
 5188SOL    HW216464   0.731   5.458   0.477
 5189SOL     OW16465   5.141   5.050   1.001
 5189SOL    HW116466   5.075   5.016   0.934
 5189SOL    HW216467   5.119   5.145   1.024
 5190SOL     OW16468   0.384   2.729   4.291
 5190SOL    HW116469   0.369   2.756   4.386
 5190SOL    HW216470   0.474   2.760   4.261
 5191SOL     OW16471   4.434   0.550   2.035
 5191SOL    HW116472   4.350   0.598   2.061
 5191SOL    HW216473   4.479   0.515   2.118
 5192SOL     OW16474   3.021   5.765   3.233
 5192SOL    HW116475   2.939   5.817   3.255
 5192SOL    HW216476   3.010   5.722   3.143
 5193SOL     OW16477   4.939   5.300   3.850
 5193SOL    HW116478   4.979   5.314   3.759
 5193SOL    HW216479   5.005   5.253   3.909
 5194SOL     OW16480   4.209   0.777   6.877
 5194SOL    HW116481   4.272   0.738   6.810
 5194SOL    HW216482   4.252   0.776   6.967
 5195SOL     OW16483   0.251   5.712   4.124
 5195SOL    HW116484   0.286   5.634   4.072
 5195SOL    HW216485   0.292   5.796   4.089
 5196SOL     OW16486   1.479   3.660   1.111
 5196SOL    HW116487   1.499   3.595   1.184
 5196SOL    HW216488   1.564   3.705   1.082
 5197SOL     OW16489   1.520   5.573   5.184
 5197SOL    HW116490   1.489   5.659   5.145
 5197SOL    HW216491   1.453   5.501   5.163
 5198SOL     OW16492   4.103   7.009   3.836
 5198SOL    HW116493   4.019   6.986   3.885
 5198SOL    HW216494   4.176   6.946   3.862
 5199SOL     OW16495   1.143   5.988   0.243
 5199SOL    HW116496   1.157   6.087   0.231
 5199SOL    HW216497   1.094   5.972   0.329
 5200SOL     OW16498   1.112   1.757   4.978
 5200SOL    HW116499   1.042   1.828   4.974
 5200SOL    HW216500   1.103   1.707   5.064
 5201SOL     OW16501   5.514   6.459   4.314
 5201SOL    HW116502   5.427   6.420   4.285
 5201SOL    HW216503   5.561   6.395   4.375
 5202SOL     OW16504   6.179   3.814   5.827
 5202SOL    HW116505   6.105   3.879   5.809
 5202SOL    HW216506   6.157   3.726   5.785
 5203SOL     OW16507   2.688   0.899   6.891
 5203SOL    HW116508   2.718   0.874   6.983
 5203SOL    HW216509   2.591   0.877   6.881
 5204SOL     OW16510   3.914   6.064   0.416
 5204SOL    HW116511   3.993   6.013   0.448
 5204SOL    HW216512   3.843   6.063   0.487
 5205SOL     OW16513   6.898   6.068   6.953
 5205SOL    HW116514   6.864   6.098   6.864
 5205SOL    HW216515   6.997   6.054   6.948
 5206SOL     OW16516   0.552   5.003   6.219
 5206SOL    HW116517   0.602   4.941   6.279
 5206SOL    HW216518   0.611   5.030   6.142
 5207SOL     OW16519   0.675   0.635   3.318
 5207SOL    HW116520   0.682   0.577   3.400
 5207SOL    HW216521   0.671   0.578   3.237
 5208SOL     OW16522   4.207   2.673   6.911
 5208SOL    HW116523   4.293   2.630   6.939
 5208SOL    HW216524   4.139   2.603   6.891
 5209SOL     OW16525   5.387   0.933   1.447
 5209SOL    HW116526   5.460   0.877   1.408
 5209SOL    HW216527   5.298   0.894   1.423
 5210SOL     OW16528   5.084   3.720   0.710
 5210SOL    HW116529   5.087   3.667   0.625
 5210SOL    HW216530   4.992   3.718   0.747
 5211SOL     OW16531   4.948   1.739   5.126
 5211SOL    HW116532   4.878   1.709   5.061
 5211SOL    HW216533   4.924   1.830   5.160
 5212SOL     OW16534   1.533   2.334   1.192
 5212SOL    HW116535   1.562   2.381   1.275
 5212SOL    HW216536   1.441   2.366   1.166
 5213SOL     OW16537   4.300   3.330   0.942
 5213SOL    HW116538   4.351   3.264   0.887
 5213SOL    HW216539   4.313   3.309   1.039
 5214SOL     OW16540   5.664   2.780   5.667
 5214SOL    HW116541   5.594   2.811   5.604
 5214SOL    HW216542   5.719   2.859   5.698
 5215SOL     OW16543   0.138   4.486   4.632
 5215SOL    HW116544   0.114   4.407   4.575
 5215SOL    HW216545   0.140   4.568   4.575
 5216SOL     OW16546   4.971   5.605   0.990
 5216SOL    HW116547   4.895   5.667   0.966
 5216SOL    HW216548   4.988   5.611   1.088
 5217SOL     OW16549   3.768   5.722   4.484
 5217SOL    HW116550   3.811   5.690   4.399
 5217SOL    HW216551   3.737   5.643   4.537
 5218SOL     OW16552   0.695   1.365   1.391
 5218SOL    HW116553   0.648   1.450   1.366
 5218SOL    HW216554   0.665   1.291   1.332
 5219SOL     OW16555   3.645   2.015   4.430
 5219SOL    HW116556   3.555   2.057   4.445
 5219SOL    HW216557   3.644   1.920   4.461
 5220SOL     OW16558   1.516   4.678   2.618
 5220SOL    HW116559   1.541   4.745   2.689
 5220SOL    HW216560   1.559   4.590   2.639
 5221SOL     OW16561   6.322   0.482   2.651
 5221SOL    HW116562   6.371   0.531   2.579
 5221SOL    HW216563   6.338   0.527   2.739
 5222SOL     OW16564   3.772   6.208   2.331
 5222SOL    HW116565   3.684   6.247   2.303
 5222SOL    HW216566   3.815   6.163   2.252
 5223SOL     OW16567   0.316   2.913   0.082
 5223SOL    HW116568   0.309   2.979   0.156
 5223SOL    HW216569   0.401   2.862   0.091
 5224SOL     OW16570   7.015   2.680   4.058
 5224SOL    HW116571   0.053   2.760   4.062
 5224SOL    HW216572   0.037   2.605   4.109
 5225SOL     OW16573   6.674   0.654   3.378
 5225SOL    HW116574   6.597   0.593   3.394
 5225SOL    HW216575   6.707   0.643   3.284
 5226SOL     OW16576   0.428   6.362   3.996
 5226SOL    HW116577   0.430   6.345   4.094
 5226SOL    HW216578   0.443   6.459   3.978
 5227SOL     OW16579   6.879   4.302   5.767
 5227SOL    HW116580   6.944   4.375   5.787
 5227SOL    HW216581   6.923   4.234   5.709
 5228SOL     OW16582   0.654   2.582   0.133
 5228SOL    HW116583   0.657   2.486   0.106
 5228SOL    HW216584   0.711   2.636   0.072
 5229SOL     OW16585   2.887   6.165   0.079
 5229SOL    HW116586   2.874   6.235   0.149
 5229SOL    HW216587   2.837   6.083   0.105
 5230SOL     OW16588   6.749   6.027   2.362
 5230SOL    HW116589   6.761   6.039   2.461
 5230SOL    HW216590   6.704   5.940   2.344
 5231SOL     OW16591   4.575   2.595   3.260
 5231SOL    HW116592   4.505   2.545   3.312
 5231SOL    HW216593   4.637   2.530   3.216
 5232SOL     OW16594   0.941   3.990   6.142
 5232SOL    HW116595   0.943   3.927   6.219
 5232SOL    HW216596   0.903   3.943   6.062
 5233SOL     OW16597   3.446   0.910   2.358
 5233SOL    HW116598   3.409   0.957   2.278
 5233SOL    HW216599   3.426   0.812   2.350
 5234SOL     OW16600   2.631   2.555   6.656
 5234SOL    HW116601   2.683   2.593   6.579
 5234SOL    HW216602   2.596   2.464   6.630
 5235SOL     OW16603   1.874   2.368   1.530
 5235SOL    HW116604   1.860   2.314   1.447
 5235SOL    HW216605   1.940   2.440   1.512
 5236SOL     OW16606   3.485   5.665   2.122
 5236SOL    HW116607   3.456   5.717   2.203
 5236SOL    HW216608   3.576   5.628   2.137
 5237SOL     OW16609   1.524   1.248   4.707
 5237SOL    HW116610   1.533   1.312   4.630
 5237SOL    HW216611   1.601   1.184   4.706
 5238SOL     OW16612   0.644   6.079   0.741
 5238SOL    HW116613   0.732   6.117   0.770
 5238SOL    HW216614   0.652   5.979   0.732
 5239SOL     OW16615   3.500   2.916   0.114
 5239SOL    HW116616   3.480   3.008   0.147
 5239SOL    HW216617   3.563   2.871   0.177
 5240SOL     OW16618   3.060   2.138   5.275
 5240SOL    HW116619   3.066   2.155   5.373
 5240SOL    HW216620   3.082   2.221   5.225
 5241SOL     OW16621   0.810   6.043   3.522
 5241SOL    HW116622   0.769   5.952   3.513
 5241SOL    HW216623   0.846   6.072   3.434
 5242SOL     OW16624   5.165   6.982   2.093
 5242SOL    HW116625   5.215   6.995   2.007
 5242SOL    HW216626   5.121   0.047   2.119
 5243SOL     OW16627   2.374   6.022   1.452
 5243SOL    HW116628   2.292   6.066   1.489
 5243SOL    HW216629   2.389   5.935   1.499
 5244SOL     OW16630   4.017   3.955   6.885
 5244SOL    HW116631   4.089   4.023   6.869
 5244SOL    HW216632   4.054   3.863   6.872
 5245SOL     OW16633   3.414   4.638   0.582
 5245SOL    HW116634   3.335   4.575   0.585
 5245SOL    HW216635   3.472   4.614   0.504
 5246SOL     OW16636   6.524   2.761   1.882
 5246SOL    HW116637   6.543   2.809   1.797
 5246SOL    HW216638   6.459   2.687   1.865
 5247SOL     OW16639   2.993   0.037   6.335
 5247SOL    HW116640   2.987   0.073   6.429
 5247SOL    HW216641   2.961   6.963   6.335
 5248SOL     OW16642   6.792   2.471   3.230
 5248SOL    HW116643   6.880   2.478   3.276
 5248SOL    HW216644   6.781   2.548   3.167
 5249SOL     OW16645   1.298   5.514   6.430
 5249SOL    HW116646   1.235   5.437   6.435
 5249SOL    HW216647   1.250   5.598   6.457
 5250SOL     OW16648   0.648   5.816   0.676
 5250SOL    HW116649   0.714   5.797   0.603
 5250SOL    HW216650   0.600   5.731   0.700
 5251SOL     OW16651   0.802   3.382   0.738
 5251SOL    HW116652   0.883   3.417   0.785
 5251SOL    HW216653   0.806   3.282   0.735
 5252SOL     OW16654   2.685   6.742   1.356
 5252SOL    HW116655   2.603   6.685   1.354
 5252SOL    HW216656   2.660   6.838   1.369
 5253SOL     OW16657   6.777   3.659   4.437
 5253SOL    HW116658   6.719   3.671   4.517
 5253SOL    HW216659   6.782   3.745   4.386
 5254SOL     OW16660   5.554   0.802   3.602
 5254SOL    HW116661   5.550   0.895   3.566
 5254SOL    HW216662   5.478   0.748   3.565
 5255SOL     OW16663   5.047   2.170   4.993
 5255SOL    HW116664   5.017   2.230   4.918
 5255SOL    HW216665   4.984   2.180   5.070
 5256SOL     OW16666   5.293   2.380   4.029
 5256SOL    HW116667   5.342   2.320   4.093
 5256SOL    HW216668   5.342   2.383   3.942
 5257SOL     OW16669   4.765   6.854   1.582
 5257SOL    HW116670   4.843   6.916   1.588
 5257SOL    HW216671   4.692   6.897   1.529
 5258SOL     OW16672   5.631   2.860   2.005
 5258SOL    HW116673   5.718   2.907   2.024
 5258SOL    HW216674   5.561   2.929   1.985
 5259SOL     OW16675   4.678   5.811   3.105
 5259SOL    HW116676   4.651   5.870   3.028
 5259SOL    HW216677   4.771   5.779   3.090
 5260SOL     OW16678   4.407   4.334   0.862
 5260SOL    HW116679   4.361   4.255   0.901
 5260SOL    HW216680   4.349   4.376   0.793
 5261SOL     OW16681   6.336   3.806   6.293
 5261SOL    HW116682   6.271   3.859   6.238
 5261SOL    HW216683   6.285   3.748   6.358
 5262SOL     OW16684   2.446   1.395   3.383
 5262SOL    HW116685   2.475   1.301   3.400
 5262SOL    HW216686   2.470   1.452   3.461
 5263SOL     OW16687   1.891   1.343   3.569
 5263SOL    HW116688   1.991   1.350   3.573
 5263SOL    HW216689   1.865   1.252   3.538
 5264SOL     OW16690   6.507   2.466   1.670
 5264SOL    HW116691   6.469   2.374   1.661
 5264SOL    HW216692   6.484   2.519   1.589
 5265SOL     OW16693   6.080   3.138   4.270
 5265SOL    HW116694   6.133   3.218   4.243
 5265SOL    HW216695   6.133   3.082   4.333
 5266SOL     OW16696   2.958   5.657   6.637
 5266SOL    HW116697   2.939   5.609   6.552
 5266SOL    HW216698   3.056   5.671   6.647
 5267SOL     OW16699   4.841   2.413   4.560
 5267SOL    HW116700   4.769   2.483   4.564
 5267SOL    HW216701   4.913   2.444   4.499
 5268SOL     OW16702   5.394   0.784   0.493
 5268SOL    HW116703   5.303   0.778   0.535
 5268SOL    HW216704   5.452   0.845   0.547
 5269SOL     OW16705   0.744   6.362   2.415
 5269SOL    HW116706   0.839   6.394   2.415
 5269SOL    HW216707   0.742   6.263   2.405
 5270SOL     OW16708   5.488   1.350   2.062
 5270SOL    HW116709   5.508   1.445   2.038
 5270SOL    HW216710   5.409   1.346   2.123
 5271SOL     OW16711   6.181   4.202   5.068
 5271SOL    HW116712   6.178   4.289   5.020
 5271SOL    HW216713   6.133   4.211   5.156
 5272SOL     OW16714   3.358   6.040   1.564
 5272SOL    HW116715   3.444   5.989   1.556
 5272SOL    HW216716   3.342   6.061   1.660
 5273SOL     OW16717   0.390   3.261   3.553
 5273SOL    HW116718   0.398   3.329   3.480
 5273SOL    HW216719   0.346   3.179   3.518
 5274SOL     OW16720   5.893   0.093   2.738
 5274SOL    HW116721   5.895   0.010   2.682
 5274SOL    HW216722   5.891   0.068   2.834
 5275SOL     OW16723   3.703   1.836   0.215
 5275SOL    HW116724   3.661   1.788   0.138
 5275SOL    HW216725   3.636   1.847   0.289
 5276SOL     OW16726   2.046   0.238   0.844
 5276SOL    HW116727   2.053   0.180   0.925
 5276SOL    HW216728   1.964   0.295   0.851
 5277SOL     OW16729   2.519   1.634   2.515
 5277SOL    HW116730   2.578   1.593   2.446
 5277SOL    HW216731   2.475   1.716   2.477
 5278SOL     OW16732   5.306   5.895   3.717
 5278SOL    HW116733   5.315   5.912   3.815
 5278SOL    HW216734   5.369   5.954   3.667
 5279SOL     OW16735   2.232   5.013   0.342
 5279SOL    HW116736   2.303   5.083   0.342
 5279SOL    HW216737   2.146   5.052   0.311
 5280SOL     OW16738   2.875   6.035   5.496
 5280SOL    HW116739   2.975   6.036   5.503
 5280SOL    HW216740   2.846   5.946   5.461
 5281SOL     OW16741   6.293   2.013   2.040
 5281SOL    HW116742   6.223   2.064   1.989
 5281SOL    HW216743   6.380   2.016   1.990
 5282SOL     OW16744   4.042   1.649   3.237
 5282SOL    HW116745   4.132   1.613   3.211
 5282SOL    HW216746   4.019   1.726   3.177
 5283SOL     OW16747   4.531   6.344   2.146
 5283SOL    HW116748   4.613   6.342   2.090
 5283SOL    HW216749   4.508   6.438   2.169
 5284SOL     OW16750   4.726   4.257   3.388
 5284SOL    HW116751   4.818   4.226   3.364
 5284SOL    HW216752   4.678   4.284   3.305
 5285SOL     OW16753   2.845   4.769   4.385
 5285SOL    HW116754   2.783   4.709   4.435
 5285SOL    HW216755   2.834   4.752   4.286
 5286SOL     OW16756   2.172   4.658   0.965
 5286SOL    HW116757   2.232   4.719   1.016
 5286SOL    HW216758   2.223   4.614   0.891
 5287SOL     OW16759   3.567   0.602   0.117
 5287SOL    HW116760   3.532   0.695   0.101
 5287SOL    HW216761   3.528   0.540   0.048
 5288SOL     OW16762   2.929   0.648   1.546
 5288SOL    HW116763   2.926   0.713   1.470
 5288SOL    HW216764   2.881   0.564   1.521
 5289SOL     OW16765   1.838   4.985   6.546
 5289SOL    HW116766   1.837   4.954   6.451
 5289SOL    HW216767   1.823   4.908   6.607
 5290SOL     OW16768   2.451   5.579   5.884
 5290SOL    HW116769   2.369   5.622   5.922
 5290SOL    HW216770   2.471   5.496   5.937
 5291SOL     OW16771   2.619   6.030   5.350
 5291SOL    HW116772   2.523   6.047   5.373
 5291SOL    HW216773   2.678   6.084   5.409
 5292SOL     OW16774   5.580   2.556   0.277
 5292SOL    HW116775   5.550   2.577   0.184
 5292SOL    HW216776   5.567   2.637   0.335
 5293SOL     OW16777   0.790   1.069   5.110
 5293SOL    HW116778   0.759   1.156   5.072
 5293SOL    HW216779   0.811   1.006   5.036
 5294SOL     OW16780   5.212   3.508   6.179
 5294SOL    HW116781   5.282   3.438   6.168
 5294SOL    HW216782   5.122   3.464   6.182
 5295SOL     OW16783   6.129   1.345   2.624
 5295SOL    HW116784   6.034   1.361   2.652
 5295SOL    HW216785   6.163   1.262   2.669
 5296SOL     OW16786   1.767   5.532   0.018
 5296SOL    HW116787   1.720   5.583   0.090
 5296SOL    HW216788   1.785   5.593   6.961
 5297SOL     OW16789   1.367   2.316   1.547
 5297SOL    HW116790   1.413   2.342   1.632
 5297SOL    HW216791   1.426   2.338   1.469
 5298SOL     OW16792   6.380   5.768   2.548
 5298SOL    HW116793   6.476   5.764   2.520
 5298SOL    HW216794   6.352   5.681   2.588
 5299SOL     OW16795   3.257   1.799   1.146
 5299SOL    HW116796   3.323   1.820   1.218
 5299SOL    HW216797   3.302   1.742   1.077
 5300SOL     OW16798   0.336   5.448   2.989
 5300SOL    HW116799   0.249   5.426   3.032
 5300SOL    HW216800   0.371   5.368   2.940
 5301SOL     OW16801   4.316   1.253   6.883
 5301SOL    HW116802   4.248   1.226   6.950
 5301SOL    HW216803   4.387   1.307   6.928
 5302SOL     OW16804   6.421   4.447   2.707
 5302SOL    HW116805   6.521   4.449   2.711
 5302SOL    HW216806   6.389   4.353   2.718
 5303SOL     OW16807   0.139   6.432   4.214
 5303SOL    HW116808   0.228   6.419   4.259
 5303SOL    HW216809   0.151   6.430   4.115
 5304SOL     OW16810   5.871   1.901   6.064
 5304SOL    HW116811   5.945   1.865   6.120
 5304SOL    HW216812   5.785   1.893   6.115
 5305SOL     OW16813   1.132   0.554   4.109
 5305SOL    HW116814   1.043   0.590   4.135
 5305SOL    HW216815   1.187   0.537   4.191
 5306SOL     OW16816   2.261   7.010   5.265
 5306SOL    HW116817   2.306   0.035   5.188
 5306SOL    HW216818   2.189   6.951   5.230
 5307SOL     OW16819   4.279   5.834   6.521
 5307SOL    HW116820   4.272   5.934   6.514
 5307SOL    HW216821   4.376   5.808   6.527
 5308SOL     OW16822   0.298   0.822   3.998
 5308SOL    HW116823   0.384   0.789   4.039
 5308SOL    HW216824   0.225   0.815   4.065
 5309SOL     OW16825   4.029   3.578   3.045
 5309SOL    HW116826   4.060   3.654   2.987
 5309SOL    HW216827   3.935   3.555   3.021
 5310SOL     OW16828   4.854   2.925   1.760
 5310SOL    HW116829   4.823   2.998   1.820
 5310SOL    HW216830   4.933   2.956   1.706
 5311SOL     OW16831   0.643   5.745   6.843
 5311SOL    HW116832   0.607   5.743   6.750
 5311SOL    HW216833   0.721   5.683   6.850
 5312SOL     OW16834   0.719   4.508   2.012
 5312SOL    HW116835   0.631   4.489   2.057
 5312SOL    HW216836   0.705   4.571   1.936
 5313SOL     OW16837   0.435   5.539   6.932
 5313SOL    HW116838   0.466   5.595   6.855
 5313SOL    HW216839   0.495   5.556   7.011
 5314SOL     OW16840   4.663   5.186   0.268
 5314SOL    HW116841   4.728   5.111   0.283
 5314SOL    HW216842   4.639   5.228   0.355
 5315SOL     OW16843   4.637   4.416   2.200
 5315SOL    HW116844   4.733   4.440   2.181
 5315SOL    HW216845   4.597   4.376   2.118
 5316SOL     OW16846   0.750   5.076   4.836
 5316SOL    HW116847   0.757   5.122   4.748
 5316SOL    HW216848   0.666   5.106   4.882
 5317SOL     OW16849   5.309   1.933   4.056
 5317SOL    HW116850   5.335   1.838   4.040
 5317SOL    HW216851   5.286   1.946   4.152
 5318SOL     OW16852   0.009   2.061   4.345
 5318SOL    HW116853   0.083   1.996   4.359
 5318SOL    HW216854   6.942   2.015   4.357
 5319SOL     OW16855   5.540   6.723   6.348
 5319SOL    HW116856   5.501   6.636   6.319
 5319SOL    HW216857   5.550   6.783   6.268
 5320SOL     OW16858   6.547   4.746   0.167
 5320SOL    HW116859   6.547   4.691   0.084
 5320SOL    HW216860   6.454   4.758   0.200
 5321SOL     OW16861   1.272   5.227   3.483
 5321SOL    HW116862   1.218   5.253   3.563
 5321SOL    HW216863   1.279   5.304   3.420
 5322SOL     OW16864   3.857   6.360   6.701
 5322SOL    HW116865   3.877   6.288   6.635
 5322SOL    HW216866   3.860   6.321   6.794
 5323SOL     OW16867   4.656   2.824   1.286
 5323SOL    HW116868   4.593   2.895   1.318
 5323SOL    HW216869   4.747   2.841   1.324
 5324SOL     OW16870   3.772   2.260   1.620
 5324SOL    HW116871   3.755   2.340   1.562
 5324SOL    HW216872   3.745   2.282   1.714
 5325SOL     OW16873   5.334   0.192   2.739
 5325SOL    HW116874   5.428   0.193   2.705
 5325SOL    HW216875   5.311   0.282   2.777
 5326SOL     OW16876   6.375   5.226   2.041
 5326SOL    HW116877   6.470   5.224   2.012
 5326SOL    HW216878   6.318   5.178   1.974
 5327SOL     OW16879   0.518   6.770   5.265
 5327SOL    HW116880   0.428   6.808   5.287
 5327SOL    HW216881   0.508   6.697   5.197
 5328SOL     OW16882   3.433   2.392   5.768
 5328SOL    HW116883   3.533   2.389   5.757
 5328SOL    HW216884   3.389   2.355   5.686
 5329SOL     OW16885   6.784   4.217   0.910
 5329SOL    HW116886   6.729   4.137   0.934
 5329SOL    HW216887   6.837   4.197   0.828
 5330SOL     OW16888   3.787   3.715   6.907
 5330SOL    HW116889   3.750   3.800   6.871
 5330SOL    HW216890   3.867   3.688   6.854
 5331SOL     OW16891   4.626   2.397   0.768
 5331SOL    HW116892   4.550   2.366   0.713
 5331SOL    HW216893   4.669   2.476   0.725
 5332SOL     OW16894   6.301   4.738   0.267
 5332SOL    HW116895   6.251   4.704   0.187
 5332SOL    HW216896   6.322   4.662   0.328
 5333SOL     OW16897   1.799   0.740   3.703
 5333SOL    HW116898   1.816   0.708   3.609
 5333SOL    HW216899   1.804   0.840   3.705
 5334SOL     OW16900   4.991   4.593   4.154
 5334SOL    HW116901   4.947   4.679   4.179
 5334SOL    HW216902   4.954   4.561   4.066
 5335SOL     OW16903   6.513   4.015   2.538
 5335SOL    HW116904   6.496   4.088   2.605
 5335SOL    HW216905   6.599   3.970   2.559
 5336SOL     OW16906   2.185   1.878   3.843
 5336SOL    HW116907   2.160   1.916   3.754
 5336SOL    HW216908   2.141   1.788   3.854
 5337SOL     OW16909   6.086   4.767   1.280
 5337SOL    HW116910   6.082   4.865   1.298
 5337SOL    HW216911   6.034   4.718   1.350
 5338SOL     OW16912   5.228   2.848   0.126
 5338SOL    HW116913   5.198   2.876   0.035
 5338SOL    HW216914   5.323   2.876   0.141
 5339SOL     OW16915   5.553   1.645   2.013
 5339SOL    HW116916   5.591   1.672   2.101
 5339SOL    HW216917   5.489   1.715   1.981
 5340SOL     OW16918   5.496   3.515   1.706
 5340SOL    HW116919   5.555   3.584   1.747
 5340SOL    HW216920   5.475   3.541   1.612
 5341SOL     OW16921   4.206   4.740   3.972
 5341SOL    HW116922   4.232   4.831   4.006
 5341SOL    HW216923   4.108   4.726   3.986
 5342SOL     OW16924   4.987   6.425   5.695
 5342SOL    HW116925   5.000   6.368   5.613
 5342SOL    HW216926   5.006   6.520   5.673
 5343SOL     OW16927   3.668   3.440   4.590
 5343SOL    HW116928   3.758   3.470   4.561
 5343SOL    HW216929   3.600   3.510   4.567
 5344SOL     OW16930   0.496   1.753   0.094
 5344SOL    HW116931   0.446   1.738   0.179
 5344SOL    HW216932   0.511   1.666   0.048
 5345SOL     OW16933   5.008   1.008   0.091
 5345SOL    HW116934   5.033   1.071   0.164
 5345SOL    HW216935   5.076   1.012   0.018
 5346SOL     OW16936   2.571   5.180   4.224
 5346SOL    HW116937   2.538   5.111   4.160
 5346SOL    HW216938   2.643   5.140   4.281
 5347SOL     OW16939   6.990   2.721   3.477
 5347SOL    HW116940   6.933   2.715   3.558
 5347SOL    HW216941   7.007   2.630   3.440
 5348SOL     OW16942   6.877   1.587   4.788
 5348SOL    HW116943   6.787   1.588   4.744
 5348SOL    HW216944   6.935   1.519   4.743
 5349SOL     OW16945   1.087   2.923   1.907
 5349SOL    HW116946   1.045   2.989   1.845
 5349SOL    HW216947   1.104   2.838   1.857
 5350SOL     OW16948   1.756   6.982   5.758
 5350SOL    HW116949   1.730   0.052   5.728
 5350SOL    HW216950   1.742   6.974   5.857
 5351SOL     OW16951   0.317   5.145   1.726
 5351SOL    HW116952   0.266   5.092   1.657
 5351SOL    HW216953   0.255   5.211   1.769
 5352SOL     OW16954   2.154   4.473   2.975
 5352SOL    HW116955   2.221   4.421   2.923
 5352SOL    HW216956   2.062   4.454   2.939
 5353SOL     OW16957   3.451   5.595   3.744
 5353SOL    HW116958   3.380   5.654   3.707
 5353SOL    HW216959   3.419   5.500   3.745
 5354SOL     OW16960   3.458   4.246   0.347
 5354SOL    HW116961   3.453   4.148   0.366
 5354SOL    HW216962   3.505   4.260   0.260
 5355SOL     OW16963   4.677   5.016   4.804
 5355SOL    HW116964   4.656   4.996   4.899
 5355SOL    HW216965   4.595   5.045   4.756
 5356SOL     OW16966   6.500   3.703   1.933
 5356SOL    HW116967   6.408   3.663   1.926
 5356SOL    HW216968   6.493   3.797   1.965
 5357SOL     OW16969   4.152   4.784   1.863
 5357SOL    HW116970   4.201   4.751   1.944
 5357SOL    HW216971   4.154   4.714   1.792
 5358SOL     OW16972   4.327   1.725   0.138
 5358SOL    HW116973   4.280   1.792   0.080
 5358SOL    HW216974   4.282   1.719   0.226
 5359SOL     OW16975   2.104   2.313   0.177
 5359SOL    HW116976   2.056   2.242   0.125
 5359SOL    HW216977   2.037   2.372   0.222
 5360SOL     OW16978   5.699   5.807   3.573
 5360SOL    HW116979   5.674   5.719   3.533
 5360SOL    HW216980   5.668   5.881   3.513
 5361SOL     OW16981   3.157   6.628   2.868
 5361SOL    HW116982   3.174   6.532   2.848
 5361SOL    HW216983   3.234   6.666   2.918
 5362SOL     OW16984   5.606   6.953   2.522
 5362SOL    HW116985   5.556   6.896   2.587
 5362SOL    HW216986   5.673   6.897   2.473
 5363SOL     OW16987   5.171   6.580   4.924
 5363SOL    HW116988   5.160   6.554   4.829
 5363SOL    HW216989   5.255   6.542   4.961
 5364SOL     OW16990   5.062   0.965   2.250
 5364SOL    HW116991   5.078   0.877   2.205
 5364SOL    HW216992   5.150   1.010   2.267
 5365SOL     OW16993   2.903   3.529   2.913
 5365SOL    HW116994   2.922   3.431   2.917
 5365SOL    HW216995   2.895   3.557   2.818
 5366SOL     OW16996   6.388   0.474   1.719
 5366SOL    HW116997   6.315   0.536   1.691
 5366SOL    HW216998   6.391   0.468   1.819
 5367SOL     OW16999   6.247   0.194   0.674
 5367SOL    HW117000   6.322   0.142   0.716
 5367SOL    HW217001   6.255   0.290   0.700
 5368SOL     OW17002   6.597   5.793   2.337
 5368SOL    HW117003   6.536   5.814   2.261
 5368SOL    HW217004   6.638   5.703   2.323
 5369SOL     OW17005   2.836   5.636   1.572
 5369SOL    HW117006   2.742   5.660   1.546
 5369SOL    HW217007   2.863   5.689   1.652
 5370SOL     OW17008   4.225   3.491   1.782
 5370SOL    HW117009   4.227   3.590   1.765
 5370SOL    HW217010   4.180   3.445   1.706
 5371SOL     OW17011   0.026   5.189   5.040
 5371SOL    HW117012   0.035   5.133   4.958
 5371SOL    HW217013   0.116   5.206   5.079
 5372SOL     OW17014   1.363   0.446   2.596
 5372SOL    HW117015   1.357   0.384   2.675
 5372SOL    HW217016   1.420   0.524   2.620
 5373SOL     OW17017   3.955   6.609   6.288
 5373SOL    HW117018   3.931   6.584   6.382
 5373SOL    HW217019   3.897   6.686   6.259
 5374SOL     OW17020   2.576   4.640   0.969
 5374SOL    HW117021   2.549   4.698   1.046
 5374SOL    HW217022   2.530   4.672   0.886
 5375SOL     OW17023   1.092   6.373   5.522
 5375SOL    HW117024   1.151   6.348   5.599
 5375SOL    HW217025   1.004   6.403   5.557
 5376SOL     OW17026   1.056   2.014   1.917
 5376SOL    HW117027   1.064   2.093   1.979
 5376SOL    HW217028   1.110   2.031   1.835
 5377SOL     OW17029   2.197   1.024   3.200
 5377SOL    HW117030   2.198   0.971   3.286
 5377SOL    HW217031   2.166   1.117   3.219
 5378SOL     OW17032   6.132   0.470   0.974
 5378SOL    HW117033   6.141   0.496   0.878
 5378SOL    HW217034   6.210   0.413   1.001
 5379SOL     OW17035   1.154   2.892   5.919
 5379SOL    HW117036   1.141   2.792   5.918
 5379SOL    HW217037   1.243   2.913   5.959
 5380SOL     OW17038   3.347   6.761   1.510
 5380SOL    HW117039   3.411   6.768   1.434
 5380SOL    HW217040   3.343   6.849   1.558
 5381SOL     OW17041   5.833   6.122   2.342
 5381SOL    HW117042   5.867   6.149   2.252
 5381SOL    HW217043   5.881   6.175   2.413
 5382SOL     OW17044   4.042   2.180   2.481
 5382SOL    HW117045   3.969   2.167   2.414
 5382SOL    HW217046   4.093   2.264   2.459
 5383SOL     OW17047   1.067   2.761   4.890
 5383SOL    HW117048   1.150   2.775   4.944
 5383SOL    HW217049   1.028   2.672   4.912
 5384SOL     OW17050   4.582   5.287   5.190
 5384SOL    HW117051   4.621   5.379   5.187
 5384SOL    HW217052   4.504   5.282   5.128
 5385SOL     OW17053   6.301   2.452   6.027
 5385SOL    HW117054   6.319   2.430   6.123
 5385SOL    HW217055   6.204   2.439   6.007
 5386SOL     OW17056   5.742   2.855   4.181
 5386SOL    HW117057   5.763   2.792   4.255
 5386SOL    HW217058   5.782   2.945   4.201
 5387SOL     OW17059   2.732   0.075   2.859
 5387SOL    HW117060   2.647   0.129   2.858
 5387SOL    HW217061   2.733   0.017   2.941
 5388SOL     OW17062   1.034   6.439   2.817
 5388SOL    HW117063   1.062   6.534   2.805
 5388SOL    HW217064   1.033   6.394   2.728
 5389SOL     OW17065   4.347   2.404   4.224
 5389SOL    HW117066   4.277   2.374   4.290
 5389SOL    HW217067   4.312   2.394   4.131
 5390SOL     OW17068   5.827   3.638   4.379
 5390SOL    HW117069   5.782   3.556   4.414
 5390SOL    HW217070   5.760   3.711   4.367
 5391SOL     OW17071   2.621   2.571   0.207
 5391SOL    HW117072   2.534   2.619   0.216
 5391SOL    HW217073   2.675   2.583   0.290
 5392SOL     OW17074   4.805   3.031   2.739
 5392SOL    HW117075   4.721   3.029   2.792
 5392SOL    HW217076   4.852   2.943   2.746
 5393SOL     OW17077   4.400   6.992   4.744
 5393SOL    HW117078   4.449   0.007   4.665
 5393SOL    HW217079   4.304   7.019   4.739
 5394SOL     OW17080   1.090   6.186   1.444
 5394SOL    HW117081   1.156   6.202   1.371
 5394SOL    HW217082   1.041   6.271   1.464
 5395SOL     OW17083   4.657   1.316   0.938
 5395SOL    HW117084   4.613   1.262   1.009
 5395SOL    HW217085   4.725   1.377   0.980
 5396SOL     OW17086   5.503   5.781   2.441
 5396SOL    HW117087   5.533   5.856   2.381
 5396SOL    HW217088   5.581   5.746   2.492
 5397SOL     OW17089   6.498   2.087   2.614
 5397SOL    HW117090   6.444   2.043   2.686
 5397SOL    HW217091   6.505   2.026   2.535
 5398SOL     OW17092   4.234   2.330   3.979
 5398SOL    HW117093   4.224   2.411   3.921
 5398SOL    HW217094   4.156   2.269   3.964
 5399SOL     OW17095   1.650   6.586   5.577
 5399SOL    HW117096   1.617   6.492   5.592
 5399SOL    HW217097   1.749   6.584   5.562
 5400SOL     OW17098   3.576   3.272   1.314
 5400SOL    HW117099   3.587   3.318   1.226
 5400SOL    HW217100   3.511   3.323   1.371
 5401SOL     OW17101   4.918   4.856   3.549
 5401SOL    HW117102   4.921   4.782   3.483
 5401SOL    HW217103   4.885   4.821   3.637
 5402SOL     OW17104   2.948   6.376   1.003
 5402SOL    HW117105   2.930   6.286   0.964
 5402SOL    HW217106   3.029   6.371   1.062
 5403SOL     OW17107   5.285   2.930   6.677
 5403SOL    HW117108   5.340   2.990   6.736
 5403SOL    HW217109   5.330   2.920   6.589
 5404SOL     OW17110   0.489   0.797   1.099
 5404SOL    HW117111   0.457   0.754   1.183
 5404SOL    HW217112   0.443   0.885   1.086
 5405SOL     OW17113   5.254   5.340   0.046
 5405SOL    HW117114   5.236   5.404   0.121
 5405SOL    HW217115   5.347   5.303   0.056
 5406SOL     OW17116   2.003   0.775   4.748
 5406SOL    HW117117   1.964   0.849   4.803
 5406SOL    HW217118   2.073   0.812   4.687
 5407SOL     OW17119   2.924   0.702   1.073
 5407SOL    HW117120   2.903   0.783   1.128
 5407SOL    HW217121   2.881   0.622   1.114
 5408SOL     OW17122   3.793   1.980   4.681
 5408SOL    HW117123   3.829   2.058   4.732
 5408SOL    HW217124   3.693   1.983   4.683
 5409SOL     OW17125   6.223   2.578   1.294
 5409SOL    HW117126   6.193   2.565   1.388
 5409SOL    HW217127   6.168   2.651   1.252
 5410SOL     OW17128   6.899   3.062   0.960
 5410SOL    HW117129   6.965   3.098   1.026
 5410SOL    HW217130   6.927   2.969   0.933
 5411SOL     OW17131   5.487   4.277   6.787
 5411SOL    HW117132   5.519   4.355   6.734
 5411SOL    HW217133   5.565   4.228   6.826
 5412SOL     OW17134   1.937   1.372   6.132
 5412SOL    HW117135   1.935   1.292   6.072
 5412SOL    HW217136   2.010   1.434   6.103
 5413SOL     OW17137   6.129   6.797   5.506
 5413SOL    HW117138   6.126   6.876   5.568
 5413SOL    HW217139   6.048   6.741   5.520
 5414SOL     OW17140   0.405   4.652   5.613
 5414SOL    HW117141   0.468   4.581   5.644
 5414SOL    HW217142   0.312   4.628   5.641
 5415SOL     OW17143   2.901   5.524   0.293
 5415SOL    HW117144   2.814   5.567   0.314
 5415SOL    HW217145   2.898   5.484   0.201
 5416SOL     OW17146   2.835   5.270   4.916
 5416SOL    HW117147   2.871   5.233   5.001
 5416SOL    HW217148   2.740   5.243   4.905
 5417SOL     OW17149   5.152   6.208   3.905
 5417SOL    HW117150   5.176   6.185   3.811
 5417SOL    HW217151   5.219   6.272   3.942
 5418SOL     OW17152   5.872   4.539   4.696
 5418SOL    HW117153   5.774   4.541   4.713
 5418SOL    HW217154   5.920   4.503   4.776
 5419SOL     OW17155   4.150   6.745   0.325
 5419SOL    HW117156   4.113   6.801   0.251
 5419SOL    HW217157   4.214   6.679   0.288
 5420SOL     OW17158   1.192   1.513   1.784
 5420SOL    HW117159   1.116   1.487   1.843
 5420SOL    HW217160   1.170   1.600   1.739
 5421SOL     OW17161   3.127   5.356   2.296
 5421SOL    HW117162   3.156   5.436   2.348
 5421SOL    HW217163   3.150   5.368   2.200
 5422SOL     OW17164   1.912   5.731   4.018
 5422SOL    HW117165   1.902   5.673   3.937
 5422SOL    HW217166   1.968   5.685   4.086
 5423SOL     OW17167   6.430   5.874   2.143
 5423SOL    HW117168   6.408   5.965   2.108
 5423SOL    HW217169   6.346   5.821   2.152
 5424SOL     OW17170   5.010   4.274   5.090
 5424SOL    HW117171   5.080   4.207   5.062
 5424SOL    HW217172   5.041   4.321   5.172
 5425SOL     OW17173   6.640   3.171   4.868
 5425SOL    HW117174   6.559   3.229   4.871
 5425SOL    HW217175   6.693   3.181   4.952
 5426SOL     OW17176   4.977   5.061   2.015
 5426SOL    HW117177   5.074   5.074   1.998
 5426SOL    HW217178   4.956   4.964   2.020
 5427SOL     OW17179   4.580   2.661   6.767
 5427SOL    HW117180   4.657   2.599   6.753
 5427SOL    HW217181   4.610   2.741   6.817
 5428SOL     OW17182   5.895   5.811   2.800
 5428SOL    HW117183   5.928   5.720   2.826
 5428SOL    HW217184   5.809   5.803   2.750
 5429SOL     OW17185   2.856   0.412   4.240
 5429SOL    HW117186   2.874   0.359   4.323
 5429SOL    HW217187   2.870   0.509   4.259
 5430SOL     OW17188   2.280   3.516   6.194
 5430SOL    HW117189   2.254   3.588   6.130
 5430SOL    HW217190   2.380   3.514   6.203
 5431SOL     OW17191   3.667   5.075   6.223
 5431SOL    HW117192   3.658   5.150   6.158
 5431SOL    HW217193   3.726   5.004   6.186
 5432SOL     OW17194   5.647   5.826   1.006
 5432SOL    HW117195   5.677   5.744   0.956
 5432SOL    HW217196   5.617   5.799   1.098
 5433SOL     OW17197   1.486   0.323   0.934
 5433SOL    HW117198   1.502   0.238   0.983
 5433SOL    HW217199   1.403   0.314   0.878
 5434SOL     OW17200   4.882   0.841   4.993
 5434SOL    HW117201   4.932   0.914   4.946
 5434SOL    HW217202   4.905   0.842   5.090
 5435SOL     OW17203   6.391   4.009   0.431
 5435SOL    HW117204   6.342   4.019   0.344
 5435SOL    HW217205   6.343   3.942   0.489
 5436SOL     OW17206   0.817   5.718   2.627
 5436SOL    HW117207   0.903   5.712   2.577
 5436SOL    HW217208   0.830   5.772   2.710
 5437SOL     OW17209   3.086   5.091   5.735
 5437SOL    HW117210   3.061   4.994   5.732
 5437SOL    HW217211   3.005   5.145   5.756
 5438SOL     OW17212   5.103   4.322   1.780
 5438SOL    HW117213   5.131   4.260   1.853
 5438SOL    HW217214   5.027   4.379   1.811
 5439SOL     OW17215   0.797   4.378   0.322
 5439SOL    HW117216   0.848   4.452   0.277
 5439SOL    HW217217   0.822   4.291   0.281
 5440SOL     OW17218   5.645   6.927   3.572
 5440SOL    HW117219   5.745   6.923   3.565
 5440SOL    HW217220   5.609   6.986   3.499
 5441SOL     OW17221   4.930   3.286   4.052
 5441SOL    HW117222   4.986   3.279   4.135
 5441SOL    HW217223   4.871   3.205   4.044
 5442SOL     OW17224   5.362   0.624   3.938
 5442SOL    HW117225   5.350   0.525   3.934
 5442SOL    HW217226   5.379   0.652   4.032
 5443SOL     OW17227   5.019   6.609   5.195
 5443SOL    HW117228   5.084   6.600   5.119
 5443SOL    HW217229   5.009   6.706   5.219
 5444SOL     OW17230   0.558   1.754   3.986
 5444SOL    HW117231   0.600   1.843   4.003
 5444SOL    HW217232   0.490   1.763   3.912
 5445SOL     OW17233   4.990   4.947   5.052
 5445SOL    HW117234   5.060   4.876   5.045
 5445SOL    HW217235   5.016   5.013   5.122
 5446SOL     OW17236   0.101   4.695   4.878
 5446SOL    HW117237   0.180   4.647   4.916
 5446SOL    HW217238   0.055   4.747   4.950
 5447SOL     OW17239   1.910   1.683   1.440
 5447SOL    HW117240   1.997   1.707   1.397
 5447SOL    HW217241   1.909   1.719   1.534
 5448SOL     OW17242   4.863   6.031   4.063
 5448SOL    HW117243   4.885   6.067   4.153
 5448SOL    HW217244   4.845   5.933   4.069
 5449SOL     OW17245   3.429   1.775   1.798
 5449SOL    HW117246   3.385   1.780   1.887
 5449SOL    HW217247   3.369   1.813   1.728
 5450SOL     OW17248   3.662   6.075   1.790
 5450SOL    HW117249   3.691   6.031   1.705
 5450SOL    HW217250   3.657   6.006   1.863
 5451SOL     OW17251   1.411   0.092   2.752
 5451SOL    HW117252   1.426   0.164   2.820
 5451SOL    HW217253   1.315   0.092   2.725
 5452SOL     OW17254   1.512   4.873   1.083
 5452SOL    HW117255   1.453   4.794   1.099
 5452SOL    HW217256   1.504   4.936   1.160
 5453SOL     OW17257   5.186   4.246   2.530
 5453SOL    HW117258   5.209   4.291   2.616
 5453SOL    HW217259   5.169   4.148   2.547
 5454SOL     OW17260   5.693   5.719   2.636
 5454SOL    HW117261   5.618   5.666   2.676
 5454SOL    HW217262   5.751   5.660   2.580
 5455SOL     OW17263   0.747   1.353   2.675
 5455SOL    HW117264   0.817   1.286   2.649
 5455SOL    HW217265   0.704   1.389   2.592
 5456SOL     OW17266   5.318   0.770   0.100
 5456SOL    HW117267   5.382   0.824   0.045
 5456SOL    HW217268   5.272   0.703   0.042
 5457SOL     OW17269   6.058   2.129   0.156
 5457SOL    HW117270   6.099   2.196   0.217
 5457SOL    HW217271   5.994   2.072   0.209
 5458SOL     OW17272   6.456   4.565   0.643
 5458SOL    HW117273   6.464   4.646   0.701
 5458SOL    HW217274   6.529   4.501   0.665
 5459SOL     OW17275   1.721   4.889   5.899
 5459SOL    HW117276   1.673   4.908   5.985
 5459SOL    HW217277   1.679   4.942   5.826
 5460SOL     OW17278   1.983   1.408   1.134
 5460SOL    HW117279   1.961   1.505   1.130
 5460SOL    HW217280   2.060   1.394   1.197
 5461SOL     OW17281   1.132   1.629   5.220
 5461SOL    HW117282   1.171   1.576   5.295
 5461SOL    HW217283   1.060   1.689   5.256
 5462SOL     OW17284   5.585   6.118   6.829
 5462SOL    HW117285   5.596   6.047   6.758
 5462SOL    HW217286   5.675   6.156   6.852
 5463SOL     OW17287   6.391   1.873   6.280
 5463SOL    HW117288   6.344   1.933   6.216
 5463SOL    HW217289   6.345   1.784   6.282
 5464SOL     OW17290   6.486   5.749   5.472
 5464SOL    HW117291   6.391   5.770   5.453
 5464SOL    HW217292   6.544   5.790   5.402
 5465SOL     OW17293   6.171   6.810   3.222
 5465SOL    HW117294   6.264   6.844   3.236
 5465SOL    HW217295   6.144   6.754   3.300
 5466SOL     OW17296   5.745   2.806   5.323
 5466SOL    HW117297   5.661   2.752   5.325
 5466SOL    HW217298   5.809   2.771   5.392
 5467SOL     OW17299   5.824   3.722   3.891
 5467SOL    HW117300   5.809   3.645   3.953
 5467SOL    HW217301   5.839   3.805   3.945
 5468SOL     OW17302   6.857   2.650   3.041
 5468SOL    HW117303   6.894   2.730   3.088
 5468SOL    HW217304   6.813   2.679   2.957
 5469SOL     OW17305   2.134   0.484   5.927
 5469SOL    HW117306   2.118   0.443   5.838
 5469SOL    HW217307   2.169   0.577   5.915
 5470SOL     OW17308   4.209   5.322   4.004
 5470SOL    HW117309   4.243   5.399   3.951
 5470SOL    HW217310   4.236   5.236   3.959
 5471SOL     OW17311   5.768   0.531   2.711
 5471SOL    HW117312   5.771   0.626   2.679
 5471SOL    HW217313   5.849   0.513   2.767
 5472SOL     OW17314   3.050   2.537   5.856
 5472SOL    HW117315   3.023   2.532   5.760
 5472SOL    HW217316   3.039   2.631   5.888
 5473SOL     OW17317   1.728   4.508   0.707
 5473SOL    HW117318   1.733   4.561   0.791
 5473SOL    HW217319   1.759   4.414   0.726
 5474SOL     OW17320   0.993   5.705   3.317
 5474SOL    HW117321   1.077   5.718   3.264
 5474SOL    HW217322   0.981   5.780   3.381
 5475SOL     OW17323   1.572   1.966   0.728
 5475SOL    HW117324   1.551   1.918   0.642
 5475SOL    HW217325   1.556   2.064   0.716
 5476SOL     OW17326   2.161   5.012   5.192
 5476SOL    HW117327   2.122   4.925   5.220
 5476SOL    HW217328   2.259   5.013   5.213
 5477SOL     OW17329   1.594   4.391   2.619
 5477SOL    HW117330   1.692   4.377   2.602
 5477SOL    HW217331   1.565   4.334   2.696
 5478SOL     OW17332   4.564   5.401   6.108
 5478SOL    HW117333   4.628   5.438   6.041
 5478SOL    HW217334   4.478   5.376   6.063
 5479SOL     OW17335   4.560   0.948   3.969
 5479SOL    HW117336   4.492   0.951   4.042
 5479SOL    HW217337   4.550   1.028   3.911
 5480SOL     OW17338   6.160   4.728   4.969
 5480SOL    HW117339   6.237   4.668   4.949
 5480SOL    HW217340   6.189   4.798   5.034
 5481SOL     OW17341   4.891   0.378   5.163
 5481SOL    HW117342   4.819   0.431   5.118
 5481SOL    HW217343   4.854   0.289   5.191
 5482SOL     OW17344   3.356   3.930   2.186
 5482SOL    HW117345   3.351   3.833   2.160
 5482SOL    HW217346   3.267   3.961   2.217
 5483SOL     OW17347   6.512   2.782   5.656
 5483SOL    HW117348   6.601   2.811   5.622
 5483SOL    HW217349   6.501   2.812   5.751
 5484SOL     OW17350   5.958   0.152   3.537
 5484SOL    HW117351   6.007   0.149   3.624
 5484SOL    HW217352   5.941   0.059   3.505
 5485SOL     OW17353   2.931   0.221   4.426
 5485SOL    HW117354   2.959   0.136   4.382
 5485SOL    HW217355   2.859   0.200   4.494
 5486SOL     OW17356   1.972   6.965   4.105
 5486SOL    HW117357   2.065   6.977   4.141
 5486SOL    HW217358   1.957   0.010   4.031
 5487SOL     OW17359   5.877   3.694   6.672
 5487SOL    HW117360   5.864   3.604   6.631
 5487SOL    HW217361   5.854   3.690   6.769
 5488SOL     OW17362   4.416   1.450   0.378
 5488SOL    HW117363   4.468   1.535   0.371
 5488SOL    HW217364   4.434   1.393   0.298
 5489SOL     OW17365   1.655   3.961   1.690
 5489SOL    HW117366   1.706   4.014   1.758
 5489SOL    HW217367   1.718   3.932   1.617
 5490SOL     OW17368   3.611   6.815   0.168
 5490SOL    HW117369   3.707   6.838   0.158
 5490SOL    HW217370   3.561   6.841   0.085
 5491SOL     OW17371   1.470   4.496   6.848
 5491SOL    HW117372   1.465   4.459   6.755
 5491SOL    HW217373   1.387   4.470   6.898
 5492SOL     OW17374   0.928   1.467   6.248
 5492SOL    HW117375   1.002   1.400   6.235
 5492SOL    HW217376   0.856   1.449   6.182
 5493SOL     OW17377   3.391   3.153   5.176
 5493SOL    HW117378   3.381   3.057   5.204
 5493SOL    HW217379   3.300   3.194   5.167
 5494SOL     OW17380   6.269   2.557   0.136
 5494SOL    HW117381   6.359   2.600   0.136
 5494SOL    HW217382   6.254   2.509   0.050
 5495SOL     OW17383   3.195   2.916   1.482
 5495SOL    HW117384   3.166   2.920   1.577
 5495SOL    HW217385   3.123   2.951   1.422
 5496SOL     OW17386   2.845   6.586   2.125
 5496SOL    HW117387   2.882   6.672   2.089
 5496SOL    HW217388   2.896   6.509   2.087
 5497SOL     OW17389   0.520   1.996   3.365
 5497SOL    HW117390   0.435   2.026   3.409
 5497SOL    HW217391   0.504   1.909   3.318
 5498SOL     OW17392   5.107   0.817   0.605
 5498SOL    HW117393   5.056   0.879   0.664
 5498SOL    HW217394   5.062   0.813   0.515
 5499SOL     OW17395   0.767   1.103   4.272
 5499SOL    HW117396   0.855   1.127   4.231
 5499SOL    HW217397   0.696   1.103   4.201
 5500SOL     OW17398   1.758   5.968   0.053
 5500SOL    HW117399   1.659   5.977   0.062
 5500SOL    HW217400   1.795   6.050   0.010
 5501SOL     OW17401   3.014   0.075   1.232
 5501SOL    HW117402   2.966   0.029   1.157
 5501SOL    HW217403   3.109   0.045   1.234
 5502SOL     OW17404   5.725   4.508   5.968
 5502SOL    HW117405   5.749   4.597   6.007
 5502SOL    HW217406   5.649   4.519   5.904
 5503SOL     OW17407   0.697   4.615   2.819
 5503SOL    HW117408   0.682   4.521   2.787
 5503SOL    HW217409   0.641   4.678   2.766
 5504SOL     OW17410   2.812   1.253   5.651
 5504SOL    HW117411   2.880   1.232   5.722
 5504SOL    HW217412   2.815   1.351   5.630
 5505SOL     OW17413   2.663   5.791   5.010
 5505SOL    HW117414   2.725   5.735   4.956
 5505SOL    HW217415   2.708   5.818   5.095
 5506SOL     OW17416   6.414   0.185   5.743
 5506SOL    HW117417   6.420   0.086   5.729
 5506SOL    HW217418   6.367   0.203   5.830
 5507SOL     OW17419   2.624   6.975   2.630
 5507SOL    HW117420   2.603   6.877   2.635
 5507SOL    HW217421   2.672   7.003   2.713
 5508SOL     OW17422   2.817   1.315   6.976
 5508SOL    HW117423   2.741   1.312   0.019
 5508SOL    HW217424   2.803   1.389   6.911
 5509SOL     OW17425   0.903   6.288   0.243
 5509SOL    HW117426   0.924   6.362   0.307
 5509SOL    HW217427   0.862   6.211   0.293
 5510SOL     OW17428   5.341   6.280   0.507
 5510SOL    HW117429   5.427   6.233   0.525
 5510SOL    HW217430   5.317   6.338   0.584
 5511SOL     OW17431   2.132   0.231   3.808
 5511SOL    HW117432   2.215   0.193   3.767
 5511SOL    HW217433   2.151   0.261   3.901
 5512SOL     OW17434   6.388   1.809   0.680
 5512SOL    HW117435   6.393   1.710   0.669
 5512SOL    HW217436   6.440   1.836   0.762
 5513SOL     OW17437   4.363   4.157   5.651
 5513SOL    HW117438   4.329   4.179   5.742
 5513SOL    HW217439   4.288   4.129   5.593
 5514SOL     OW17440   5.260   5.718   2.589
 5514SOL    HW117441   5.265   5.618   2.598
 5514SOL    HW217442   5.340   5.750   2.538
 5515SOL     OW17443   0.266   4.132   1.147
 5515SOL    HW117444   0.238   4.088   1.232
 5515SOL    HW217445   0.358   4.171   1.157
 5516SOL     OW17446   0.822   2.689   0.861
 5516SOL    HW117447   0.760   2.764   0.882
 5516SOL    HW217448   0.843   2.690   0.763
 5517SOL     OW17449   2.687   2.394   2.468
 5517SOL    HW117450   2.596   2.372   2.434
 5517SOL    HW217451   2.684   2.479   2.521
 5518SOL     OW17452   6.281   6.141   6.320
 5518SOL    HW117453   6.290   6.220   6.381
 5518SOL    HW217454   6.343   6.151   6.242
 5519SOL     OW17455   5.212   3.950   2.991
 5519SOL    HW117456   5.254   3.995   2.913
 5519SOL    HW217457   5.112   3.954   2.983
 5520SOL     OW17458   0.689   4.853   3.301
 5520SOL    HW117459   0.737   4.900   3.375
 5520SOL    HW217460   0.749   4.844   3.222
 5521SOL     OW17461   3.862   5.671   2.737
 5521SOL    HW117462   3.921   5.748   2.757
 5521SOL    HW217463   3.777   5.679   2.789
 5522SOL     OW17464   1.575   4.221   0.934
 5522SOL    HW117465   1.514   4.300   0.942
 5522SOL    HW217466   1.560   4.159   1.011
 5523SOL     OW17467   3.060   7.008   3.053
 5523SOL    HW117468   3.155   0.013   3.070
 5523SOL    HW217469   3.027   0.032   2.971
 5524SOL     OW17470   6.548   5.291   4.660
 5524SOL    HW117471   6.597   5.303   4.746
 5524SOL    HW217472   6.450   5.300   4.675
 5525SOL     OW17473   6.475   4.189   0.628
 5525SOL    HW117474   6.574   4.190   0.619
 5525SOL    HW217475   6.436   4.131   0.556
 5526SOL     OW17476   6.018   3.582   4.979
 5526SOL    HW117477   5.977   3.612   4.892
 5526SOL    HW217478   6.084   3.650   5.010
 5527SOL     OW17479   0.870   3.819   3.471
 5527SOL    HW117480   0.874   3.731   3.422
 5527SOL    HW217481   0.782   3.862   3.456
 5528SOL     OW17482   0.648   2.283   6.348
 5528SOL    HW117483   0.647   2.350   6.422
 5528SOL    HW217484   0.672   2.329   6.262
 5529SOL     OW17485   2.323   0.248   4.582
 5529SOL    HW117486   2.384   0.326   4.563
 5529SOL    HW217487   2.374   0.163   4.572
 5530SOL     OW17488   0.084   2.526   2.045
 5530SOL    HW117489   0.002   2.558   1.997
 5530SOL    HW217490   0.128   2.603   2.090
 5531SOL     OW17491   3.447   3.915   3.271
 5531SOL    HW117492   3.518   3.904   3.201
 5531SOL    HW217493   3.387   3.835   3.269
 5532SOL     OW17494   1.197   1.367   1.127
 5532SOL    HW117495   1.286   1.366   1.081
 5532SOL    HW217496   1.198   1.434   1.201
 5533SOL     OW17497   2.733   1.204   2.354
 5533SOL    HW117498   2.686   1.292   2.359
 5533SOL    HW217499   2.793   1.203   2.274
 5534SOL     OW17500   1.039   3.379   6.449
 5534SOL    HW117501   0.985   3.445   6.502
 5534SOL    HW217502   1.137   3.397   6.464
 5535SOL     OW17503   0.671   2.787   3.471
 5535SOL    HW117504   0.581   2.826   3.454
 5535SOL    HW217505   0.663   2.690   3.495
 5536SOL     OW17506   3.563   1.303   3.920
 5536SOL    HW117507   3.639   1.348   3.967
 5536SOL    HW217508   3.477   1.348   3.945
 5537SOL     OW17509   3.444   0.505   4.128
 5537SOL    HW117510   3.392   0.437   4.180
 5537SOL    HW217511   3.381   0.574   4.091
 5538SOL     OW17512   3.395   0.173   4.936
 5538SOL    HW117513   3.349   0.258   4.960
 5538SOL    HW217514   3.333   0.096   4.950
 5539SOL     OW17515   1.052   2.405   1.301
 5539SOL    HW117516   1.055   2.383   1.398
 5539SOL    HW217517   0.959   2.392   1.267
 5540SOL     OW17518   5.591   3.709   2.317
 5540SOL    HW117519   5.640   3.622   2.315
 5540SOL    HW217520   5.566   3.732   2.412
 5541SOL     OW17521   5.175   2.407   6.284
 5541SOL    HW117522   5.104   2.338   6.295
 5541SOL    HW217523   5.198   2.417   6.187
 5542SOL     OW17524   5.890   6.306   5.433
 5542SOL    HW117525   5.803   6.356   5.429
 5542SOL    HW217526   5.879   6.216   5.392
 5543SOL     OW17527   2.183   5.172   6.294
 5543SOL    HW117528   2.192   5.118   6.378
 5543SOL    HW217529   2.249   5.140   6.227
 5544SOL     OW17530   5.202   5.662   6.257
 5544SOL    HW117531   5.176   5.656   6.160
 5544SOL    HW217532   5.143   5.728   6.303
 5545SOL     OW17533   5.075   1.336   2.932
 5545SOL    HW117534   5.001   1.351   2.865
 5545SOL    HW217535   5.041   1.359   3.024
 5546SOL     OW17536   0.976   6.750   4.512
 5546SOL    HW117537   1.054   6.699   4.478
 5546SOL    HW217538   0.899   6.688   4.528
 5547SOL     OW17539   3.908   0.778   4.945
 5547SOL    HW117540   3.946   0.861   4.986
 5547SOL    HW217541   3.902   0.790   4.846
 5548SOL     OW17542   6.438   3.284   5.427
 5548SOL    HW117543   6.535   3.304   5.443
 5548SOL    HW217544   6.431   3.202   5.370
 5549SOL     OW17545   4.411   4.774   0.609
 5549SOL    HW117546   4.465   4.696   0.580
 5549SOL    HW217547   4.406   4.841   0.535
 5550SOL     OW17548   2.141   4.599   2.387
 5550SOL    HW117549   2.164   4.526   2.453
 5550SOL    HW217550   2.225   4.631   2.343
 5551SOL     OW17551   1.342   6.422   2.936
 5551SOL    HW117552   1.317   6.513   2.905
 5551SOL    HW217553   1.334   6.417   3.036
 5552SOL     OW17554   6.444   0.652   6.577
 5552SOL    HW117555   6.533   0.693   6.597
 5552SOL    HW217556   6.377   0.725   6.560
 5553SOL     OW17557   4.512   6.121   6.438
 5553SOL    HW117558   4.573   6.117   6.517
 5553SOL    HW217559   4.419   6.099   6.467
 5554SOL     OW17560   4.482   2.080   6.845
 5554SOL    HW117561   4.387   2.103   6.822
 5554SOL    HW217562   4.543   2.115   6.774
 5555SOL     OW17563   0.791   3.945   2.757
 5555SOL    HW117564   0.773   4.025   2.699
 5555SOL    HW217565   0.783   3.862   2.702
 5556SOL     OW17566   6.126   1.869   3.043
 5556SOL    HW117567   6.144   1.776   3.075
 5556SOL    HW217568   6.111   1.868   2.944
 5557SOL     OW17569   3.932   6.771   2.657
 5557SOL    HW117570   3.889   6.681   2.657
 5557SOL    HW217571   3.966   6.792   2.748
 5558SOL     OW17572   3.024   3.770   6.078
 5558SOL    HW117573   2.943   3.798   6.131
 5558SOL    HW217574   3.041   3.673   6.091
 5559SOL     OW17575   2.210   6.915   1.183
 5559SOL    HW117576   2.208   6.998   1.239
 5559SOL    HW217577   2.206   6.835   1.243
 5560SOL     OW17578   0.335   5.541   1.770
 5560SOL    HW117579   0.271   5.530   1.694
 5560SOL    HW217580   0.429   5.545   1.735
 5561SOL     OW17581   1.427   1.173   4.311
 5561SOL    HW117582   1.445   1.251   4.370
 5561SOL    HW217583   1.388   1.098   4.365
 5562SOL     OW17584   4.226   2.522   6.377
 5562SOL    HW117585   4.238   2.541   6.474
 5562SOL    HW217586   4.158   2.585   6.339
 5563SOL     OW17587   3.447   4.905   2.630
 5563SOL    HW117588   3.451   4.989   2.575
 5563SOL    HW217589   3.539   4.867   2.638
 5564SOL     OW17590   4.798   6.942   1.031
 5564SOL    HW117591   4.746   6.945   0.945
 5564SOL    HW217592   4.734   6.936   1.108
 5565SOL     OW17593   4.347   2.178   6.086
 5565SOL    HW117594   4.400   2.094   6.099
 5565SOL    HW217595   4.373   2.245   6.156
 5566SOL     OW17596   1.300   3.999   6.984
 5566SOL    HW117597   1.207   3.972   6.960
 5566SOL    HW217598   1.334   3.939   0.035
 5567SOL     OW17599   0.032   3.148   1.151
 5567SOL    HW117600   0.078   3.106   1.229
 5567SOL    HW217601   0.076   3.235   1.129
 5568SOL     OW17602   5.114   1.384   3.791
 5568SOL    HW117603   5.067   1.462   3.749
 5568SOL    HW217604   5.047   1.316   3.819
 5569SOL     OW17605   1.833   1.914   2.705
 5569SOL    HW117606   1.802   1.917   2.799
 5569SOL    HW217607   1.897   1.989   2.687
 5570SOL     OW17608   6.728   3.867   4.777
 5570SOL    HW117609   6.828   3.874   4.769
 5570SOL    HW217610   6.704   3.780   4.820
 5571SOL     OW17611   6.230   6.336   0.584
 5571SOL    HW117612   6.152   6.274   0.577
 5571SOL    HW217613   6.199   6.430   0.574
 5572SOL     OW17614   1.240   3.031   4.707
 5572SOL    HW117615   1.264   3.127   4.724
 5572SOL    HW217616   1.320   2.982   4.672
 5573SOL     OW17617   2.019   5.406   5.110
 5573SOL    HW117618   2.062   5.371   5.194
 5573SOL    HW217619   2.020   5.335   5.040
 5574SOL     OW17620   6.892   1.839   2.747
 5574SOL    HW117621   6.925   1.908   2.811
 5574SOL    HW217622   6.969   1.788   2.710
 5575SOL     OW17623   0.129   1.250   1.202
 5575SOL    HW117624   0.134   1.154   1.178
 5575SOL    HW217625   0.137   1.260   1.301
 5576SOL     OW17626   0.957   4.727   1.484
 5576SOL    HW117627   0.863   4.721   1.516
 5576SOL    HW217628   1.018   4.744   1.562
 5577SOL     OW17629   3.181   3.102   5.853
 5577SOL    HW117630   3.219   3.009   5.860
 5577SOL    HW217631   3.081   3.097   5.848
 5578SOL     OW17632   3.663   3.834   1.360
 5578SOL    HW117633   3.608   3.860   1.281
 5578SOL    HW217634   3.605   3.790   1.428
 5579SOL     OW17635   0.584   3.416   0.979
 5579SOL    HW117636   0.625   3.507   0.975
 5579SOL    HW217637   0.490   3.423   1.012
 5580SOL     OW17638   5.188   2.236   5.636
 5580SOL    HW117639   5.194   2.287   5.550
 5580SOL    HW217640   5.241   2.152   5.629
 5581SOL     OW17641   1.375   6.898   1.736
 5581SOL    HW117642   1.291   6.902   1.683
 5581SOL    HW217643   1.355   6.924   1.831
 5582SOL     OW17644   3.274   3.648   5.492
 5582SOL    HW117645   3.234   3.558   5.472
 5582SOL    HW217646   3.258   3.671   5.588
 5583SOL     OW17647   5.113   0.835   3.073
 5583SOL    HW117648   5.027   0.885   3.084
 5583SOL    HW217649   5.094   0.741   3.044
 5584SOL     OW17650   6.274   5.618   3.603
 5584SOL    HW117651   6.356   5.674   3.616
 5584SOL    HW217652   6.201   5.653   3.662
 5585SOL     OW17653   5.221   5.023   3.350
 5585SOL    HW117654   5.133   5.001   3.306
 5585SOL    HW217655   5.206   5.046   3.446
 5586SOL     OW17656   0.543   2.783   6.056
 5586SOL    HW117657   0.525   2.843   6.134
 5586SOL    HW217658   0.634   2.744   6.064
 5587SOL     OW17659   4.246   6.665   1.220
 5587SOL    HW117660   4.182   6.659   1.297
 5587SOL    HW217661   4.336   6.630   1.249
 5588SOL     OW17662   2.382   5.459   3.062
 5588SOL    HW117663   2.381   5.450   2.962
 5588SOL    HW217664   2.302   5.413   3.100
 5589SOL     OW17665   6.832   3.325   5.704
 5589SOL    HW117666   6.927   3.309   5.734
 5589SOL    HW217667   6.769   3.296   5.776
 5590SOL     OW17668   7.006   6.381   3.655
 5590SOL    HW117669   6.921   6.328   3.664
 5590SOL    HW217670   0.006   6.394   3.558
 5591SOL     OW17671   5.125   1.615   0.786
 5591SOL    HW117672   5.133   1.609   0.886
 5591SOL    HW217673   5.028   1.614   0.761
 5592SOL     OW17674   0.357   5.445   2.374
 5592SOL    HW117675   0.444   5.462   2.420
 5592SOL    HW217676   0.284   5.495   2.419
 5593SOL     OW17677   0.972   3.054   0.407
 5593SOL    HW117678   0.974   3.154   0.408
 5593SOL    HW217679   1.054   3.019   0.452
 5594SOL     OW17680   4.595   0.874   6.297
 5594SOL    HW117681   4.600   0.815   6.378
 5594SOL    HW217682   4.535   0.952   6.316
 5595SOL     OW17683   6.891   0.616   4.595
 5595SOL    HW117684   6.976   0.658   4.626
 5595SOL    HW217685   6.892   0.607   4.495
 5596SOL     OW17686   4.800   0.696   3.027
 5596SOL    HW117687   4.783   0.712   3.124
 5596SOL    HW217688   4.741   0.756   2.973
 5597SOL     OW17689   5.037   2.966   5.107
 5597SOL    HW117690   5.094   2.884   5.114
 5597SOL    HW217691   5.040   3.015   5.195
 5598SOL     OW17692   5.679   4.305   3.598
 5598SOL    HW117693   5.658   4.375   3.530
 5598SOL    HW217694   5.602   4.294   3.660
 5599SOL     OW17695   0.909   2.321   1.794
 5599SOL    HW117696   0.869   2.332   1.885
 5599SOL    HW217697   0.849   2.364   1.726
 5600SOL     OW17698   1.555   1.268   1.440
 5600SOL    HW117699   1.485   1.299   1.375
 5600SOL    HW217700   1.614   1.345   1.465
 5601SOL     OW17701   2.038   0.934   6.598
 5601SOL    HW117702   1.971   0.862   6.618
 5601SOL    HW217703   2.087   0.959   6.681
 5602SOL     OW17704   0.234   1.773   1.564
 5602SOL    HW117705   0.241   1.802   1.660
 5602SOL    HW217706   0.175   1.836   1.514
 5603SOL     OW17707   5.982   2.472   0.421
 5603SOL    HW117708   6.062   2.479   0.479
 5603SOL    HW217709   5.957   2.376   0.410
 5604SOL     OW17710   6.280   2.303   4.359
 5604SOL    HW117711   6.293   2.356   4.276
 5604SOL    HW217712   6.196   2.250   4.353
 5605SOL     OW17713   0.086   0.823   5.031
 5605SOL    HW117714   0.169   0.816   5.086
 5605SOL    HW217715   0.041   0.911   5.050
 5606SOL     OW17716   5.268   6.351   0.245
 5606SOL    HW117717   5.298   6.333   0.339
 5606SOL    HW217718   5.256   6.449   0.232
 5607SOL     OW17719   5.727   1.321   2.761
 5607SOL    HW117720   5.811   1.267   2.760
 5607SOL    HW217721   5.673   1.300   2.680
 5608SOL     OW17722   5.572   0.359   3.672
 5608SOL    HW117723   5.582   0.453   3.703
 5608SOL    HW217724   5.623   0.347   3.586
 5609SOL     OW17725   3.296   5.858   1.330
 5609SOL    HW117726   3.278   5.905   1.417
 5609SOL    HW217727   3.364   5.910   1.278
 5610SOL     OW17728   4.930   5.842   0.662
 5610SOL    HW117729   4.872   5.849   0.744
 5610SOL    HW217730   4.872   5.847   0.581
 5611SOL     OW17731   0.847   6.165   2.688
 5611SOL    HW117732   0.928   6.167   2.747
 5611SOL    HW217733   0.876   6.165   2.592
 5612SOL     OW17734   3.766   2.047   5.909
 5612SOL    HW117735   3.852   2.096   5.919
 5612SOL    HW217736   3.765   1.967   5.969
 5613SOL     OW17737   6.586   5.236   3.593
 5613SOL    HW117738   6.613   5.204   3.683
 5613SOL    HW217739   6.662   5.287   3.552
 5614SOL     OW17740   4.510   2.174   4.257
 5614SOL    HW117741   4.483   2.269   4.272
 5614SOL    HW217742   4.447   2.113   4.304
 5615SOL     OW17743   6.798   1.273   3.478
 5615SOL    HW117744   6.856   1.310   3.549
 5615SOL    HW217745   6.743   1.198   3.514
 5616SOL     OW17746   2.868   2.296   4.279
 5616SOL    HW117747   2.884   2.279   4.376
 5616SOL    HW217748   2.876   2.210   4.228
 5617SOL     OW17749   2.864   6.317   5.580
 5617SOL    HW117750   2.897   6.227   5.552
 5617SOL    HW217751   2.890   6.334   5.675
 5618SOL     OW17752   0.443   4.156   3.788
 5618SOL    HW117753   0.347   4.149   3.816
 5618SOL    HW217754   0.455   4.110   3.700
 5619SOL     OW17755   3.493   3.913   4.840
 5619SOL    HW117756   3.544   3.860   4.907
 5619SOL    HW217757   3.395   3.911   4.863
 5620SOL     OW17758   4.398   3.631   0.421
 5620SOL    HW117759   4.330   3.570   0.461
 5620SOL    HW217760   4.489   3.595   0.438
 5621SOL     OW17761   2.462   2.763   0.359
 5621SOL    HW117762   2.428   2.690   0.417
 5621SOL    HW217763   2.473   2.847   0.413
 5622SOL     OW17764   4.619   0.454   5.705
 5622SOL    HW117765   4.657   0.481   5.617
 5622SOL    HW217766   4.687   0.405   5.758
 5623SOL     OW17767   4.063   5.638   5.446
 5623SOL    HW117768   4.138   5.696   5.414
 5623SOL    HW217769   4.051   5.562   5.381
 5624SOL     OW17770   0.867   4.579   3.664
 5624SOL    HW117771   0.940   4.634   3.625
 5624SOL    HW217772   0.889   4.558   3.760
 5625SOL     OW17773   5.447   0.577   4.935
 5625SOL    HW117774   5.490   0.659   4.974
 5625SOL    HW217775   5.442   0.506   5.005
 5626SOL     OW17776   2.359   6.026   4.693
 5626SOL    HW117777   2.268   6.065   4.697
 5626SOL    HW217778   2.394   6.013   4.786
 5627SOL     OW17779   0.461   5.638   6.136
 5627SOL    HW117780   0.459   5.737   6.125
 5627SOL    HW217781   0.368   5.603   6.139
 5628SOL     OW17782   1.505   2.135   2.244
 5628SOL    HW117783   1.475   2.173   2.331
 5628SOL    HW217784   1.488   2.036   2.242
 5629SOL     OW17785   3.676   3.689   2.264
 5629SOL    HW117786   3.587   3.691   2.308
 5629SOL    HW217787   3.699   3.780   2.230
 5630SOL     OW17788   1.739   3.391   6.873
 5630SOL    HW117789   1.724   3.394   6.774
 5630SOL    HW217790   1.720   3.480   6.912
 5631SOL     OW17791   4.710   2.388   1.212
 5631SOL    HW117792   4.673   2.391   1.305
 5631SOL    HW217793   4.636   2.374   1.147
 5632SOL     OW17794   3.127   2.124   6.089
 5632SOL    HW117795   3.208   2.098   6.141
 5632SOL    HW217796   3.136   2.219   6.058
 5633SOL     OW17797   6.200   3.623   4.611
 5633SOL    HW117798   6.143   3.581   4.540
 5633SOL    HW217799   6.287   3.652   4.571
 5634SOL     OW17800   2.195   5.190   4.023
 5634SOL    HW117801   2.254   5.261   4.063
 5634SOL    HW217802   2.184   5.115   4.089
 5635SOL     OW17803   1.683   4.785   5.459
 5635SOL    HW117804   1.686   4.834   5.372
 5635SOL    HW217805   1.772   4.790   5.504
 5636SOL     OW17806   4.768   6.857   4.481
 5636SOL    HW117807   4.820   6.915   4.418
 5636SOL    HW217808   4.699   6.806   4.429
 5637SOL     OW17809   5.270   0.491   2.802
 5637SOL    HW117810   5.290   0.515   2.707
 5637SOL    HW217811   5.189   0.541   2.833
 5638SOL     OW17812   6.054   3.991   0.699
 5638SOL    HW117813   6.128   3.940   0.655
 5638SOL    HW217814   6.058   3.977   0.798
 5639SOL     OW17815   1.127   0.774   2.572
 5639SOL    HW117816   1.220   0.805   2.551
 5639SOL    HW217817   1.075   0.768   2.487
 5640SOL     OW17818   3.715   0.369   3.509
 5640SOL    HW117819   3.677   0.434   3.442
 5640SOL    HW217820   3.793   0.321   3.468
 5641SOL     OW17821   0.934   4.820   5.137
 5641SOL    HW117822   0.861   4.846   5.075
 5641SOL    HW217823   0.989   4.900   5.160
 5642SOL     OW17824   1.451   6.497   5.257
 5642SOL    HW117825   1.377   6.523   5.318
 5642SOL    HW217826   1.430   6.529   5.164
 5643SOL     OW17827   4.067   1.131   5.228
 5643SOL    HW117828   4.151   1.079   5.241
 5643SOL    HW217829   4.086   1.228   5.243
 5644SOL     OW17830   3.273   0.363   5.067
 5644SOL    HW117831   3.354   0.423   5.066
 5644SOL    HW217832   3.211   0.394   5.139
 5645SOL     OW17833   5.976   4.897   3.753
 5645SOL    HW117834   6.052   4.955   3.724
 5645SOL    HW217835   5.982   4.809   3.706
 5646SOL     OW17836   1.396   4.959   3.347
 5646SOL    HW117837   1.307   5.005   3.344
 5646SOL    HW217838   1.408   4.917   3.436
 5647SOL     OW17839   5.064   5.606   1.275
 5647SOL    HW117840   5.156   5.617   1.312
 5647SOL    HW217841   5.003   5.674   1.315
 5648SOL     OW17842   1.804   6.656   2.661
 5648SOL    HW117843   1.768   6.620   2.747
 5648SOL    HW217844   1.904   6.646   2.660
 5649SOL     OW17845   0.678   0.192   3.882
 5649SOL    HW117846   0.686   0.142   3.968
 5649SOL    HW217847   0.769   0.214   3.847
 5650SOL     OW17848   0.422   5.687   1.004
 5650SOL    HW117849   0.331   5.656   1.028
 5650SOL    HW217850   0.422   5.787   0.993
 5651SOL     OW17851   1.520   0.558   1.533
 5651SOL    HW117852   1.442   0.523   1.584
 5651SOL    HW217853   1.587   0.485   1.520
 5652SOL     OW17854   6.093   0.553   1.569
 5652SOL    HW117855   6.036   0.493   1.625
 5652SOL    HW217856   6.133   0.501   1.494
 5653SOL     OW17857   6.097   6.451   6.147
 5653SOL    HW117858   5.997   6.447   6.153
 5653SOL    HW217859   6.128   6.546   6.155
 5654SOL     OW17860   0.570   6.125   5.450
 5654SOL    HW117861   0.664   6.133   5.483
 5654SOL    HW217862   0.517   6.069   5.513
 5655SOL     OW17863   1.338   3.732   4.088
 5655SOL    HW117864   1.342   3.656   4.153
 5655SOL    HW217865   1.427   3.744   4.045
 5656SOL     OW17866   6.849   4.103   6.511
 5656SOL    HW117867   6.842   4.004   6.503
 5656SOL    HW217868   6.875   4.128   6.605
 5657SOL     OW17869   6.033   2.589   6.891
 5657SOL    HW117870   6.025   2.601   6.792
 5657SOL    HW217871   5.942   2.581   6.931
 5658SOL     OW17872   3.013   3.041   6.648
 5658SOL    HW117873   3.015   3.141   6.647
 5658SOL    HW217874   3.033   3.009   6.741
 5659SOL     OW17875   3.151   3.285   5.236
 5659SOL    HW117876   3.144   3.316   5.331
 5659SOL    HW217877   3.128   3.360   5.174
 5660SOL     OW17878   4.319   6.735   6.354
 5660SOL    HW117879   4.308   6.798   6.430
 5660SOL    HW217880   4.383   6.662   6.380
 5661SOL     OW17881   1.893   5.780   5.077
 5661SOL    HW117882   1.882   5.685   5.046
 5661SOL    HW217883   1.819   5.803   5.140
 5662SOL     OW17884   2.909   6.610   4.218
 5662SOL    HW117885   3.007   6.624   4.205
 5662SOL    HW217886   2.866   6.590   4.130
 5663SOL     OW17887   2.337   2.101   0.474
 5663SOL    HW117888   2.361   2.177   0.413
 5663SOL    HW217889   2.380   2.018   0.440
 5664SOL     OW17890   0.405   3.364   4.288
 5664SOL    HW117891   0.445   3.419   4.214
 5664SOL    HW217892   0.362   3.283   4.249
 5665SOL     OW17893   2.320   0.763   0.307
 5665SOL    HW117894   2.269   0.751   0.392
 5665SOL    HW217895   2.270   0.824   0.246
 5666SOL     OW17896   6.459   6.594   3.378
 5666SOL    HW117897   6.477   6.685   3.341
 5666SOL    HW217898   6.485   6.590   3.474
 5667SOL     OW17899   1.756   4.921   4.809
 5667SOL    HW117900   1.818   4.895   4.735
 5667SOL    HW217901   1.763   5.019   4.826
 5668SOL     OW17902   5.735   3.086   3.471
 5668SOL    HW117903   5.722   3.092   3.372
 5668SOL    HW217904   5.823   3.127   3.496
 5669SOL     OW17905   6.671   3.681   0.919
 5669SOL    HW117906   6.674   3.584   0.943
 5669SOL    HW217907   6.685   3.737   1.001
 5670SOL     OW17908   1.042   4.027   4.039
 5670SOL    HW117909   1.040   4.097   4.110
 5670SOL    HW217910   1.123   3.970   4.051
 5671SOL     OW17911   5.735   5.959   5.327
 5671SOL    HW117912   5.725   5.861   5.344
 5671SOL    HW217913   5.830   5.980   5.307
 5672SOL     OW17914   4.818   3.660   6.635
 5672SOL    HW117915   4.794   3.750   6.669
 5672SOL    HW217916   4.736   3.617   6.596
 5673SOL     OW17917   1.790   6.739   0.897
 5673SOL    HW117918   1.754   6.678   0.968
 5673SOL    HW217919   1.784   6.833   0.929
 5674SOL     OW17920   0.677   4.260   5.152
 5674SOL    HW117921   0.708   4.325   5.082
 5674SOL    HW217922   0.610   4.305   5.211
 5675SOL     OW17923   4.418   3.029   5.974
 5675SOL    HW117924   4.475   3.060   6.050
 5675SOL    HW217925   4.392   2.934   5.989
 5676SOL     OW17926   2.832   1.735   2.610
 5676SOL    HW117927   2.733   1.734   2.596
 5676SOL    HW217928   2.877   1.755   2.523
 5677SOL     OW17929   0.593   1.172   0.772
 5677SOL    HW117930   0.644   1.144   0.691
 5677SOL    HW217931   0.570   1.092   0.826
 5678SOL     OW17932   4.051   0.056   2.786
 5678SOL    HW117933   4.032   0.145   2.827
 5678SOL    HW217934   3.968   0.001   2.785
 5679SOL     OW17935   6.361   1.521   3.720
 5679SOL    HW117936   6.306   1.493   3.799
 5679SOL    HW217937   6.303   1.569   3.654
 5680SOL     OW17938   1.555   5.442   6.388
 5680SOL    HW117939   1.580   5.371   6.454
 5680SOL    HW217940   1.460   5.471   6.405
 5681SOL     OW17941   0.666   3.574   2.123
 5681SOL    HW117942   0.613   3.612   2.199
 5681SOL    HW217943   0.611   3.575   2.040
 5682SOL     OW17944   1.952   5.388   4.705
 5682SOL    HW117945   1.905   5.308   4.741
 5682SOL    HW217946   1.885   5.458   4.680
 5683SOL     OW17947   3.955   1.334   5.741
 5683SOL    HW117948   3.918   1.367   5.828
 5683SOL    HW217949   4.048   1.370   5.729
 5684SOL     OW17950   2.372   3.852   6.419
 5684SOL    HW117951   2.347   3.876   6.513
 5684SOL    HW217952   2.355   3.755   6.403
 5685SOL     OW17953   2.263   1.399   3.820
 5685SOL    HW117954   2.361   1.396   3.800
 5685SOL    HW217955   2.246   1.366   3.913
 5686SOL     OW17956   2.759   1.672   6.061
 5686SOL    HW117957   2.747   1.703   5.967
 5686SOL    HW217958   2.844   1.621   6.069
 5687SOL     OW17959   0.259   5.387   6.464
 5687SOL    HW117960   0.234   5.454   6.534
 5687SOL    HW217961   0.358   5.374   6.463
 5688SOL     OW17962   1.468   2.628   2.467
 5688SOL    HW117963   1.451   2.576   2.551
 5688SOL    HW217964   1.548   2.687   2.480
 5689SOL     OW17965   2.866   1.582   1.564
 5689SOL    HW117966   2.885   1.679   1.580
 5689SOL    HW217967   2.889   1.559   1.469
 5690SOL     OW17968   1.595   6.240   0.305
 5690SOL    HW117969   1.574   6.225   0.401
 5690SOL    HW217970   1.548   6.172   0.249
 5691SOL     OW17971   3.956   0.427   2.120
 5691SOL    HW117972   3.874   0.466   2.163
 5691SOL    HW217973   3.977   0.478   2.036
 5692SOL     OW17974   5.487   3.759   0.593
 5692SOL    HW117975   5.546   3.780   0.670
 5692SOL    HW217976   5.441   3.843   0.562
 5693SOL     OW17977   4.129   1.144   2.623
 5693SOL    HW117978   4.051   1.165   2.564
 5693SOL    HW217979   4.146   1.045   2.621
 5694SOL     OW17980   1.397   1.239   2.878
 5694SOL    HW117981   1.343   1.228   2.795
 5694SOL    HW217982   1.346   1.202   2.956
 5695SOL     OW17983   1.701   2.225   3.982
 5695SOL    HW117984   1.709   2.319   3.950
 5695SOL    HW217985   1.763   2.166   3.929
 5696SOL     OW17986   0.911   0.790   4.008
 5696SOL    HW117987   0.874   0.715   3.953
 5696SOL    HW217988   0.911   0.874   3.953
 5697SOL     OW17989   5.689   2.111   2.018
 5697SOL    HW117990   5.595   2.129   1.987
 5697SOL    HW217991   5.716   2.182   2.083
 5698SOL     OW17992   0.619   4.574   3.774
 5698SOL    HW117993   0.686   4.544   3.706
 5698SOL    HW217994   0.665   4.630   3.843
 5699SOL     OW17995   1.031   2.600   2.728
 5699SOL    HW117996   0.980   2.576   2.810
 5699SOL    HW217997   1.086   2.682   2.745
 5700SOL     OW17998   6.514   6.975   3.657
 5700SOL    HW117999   6.480   6.881   3.656
 5700SOL    HW218000   6.579   6.989   3.583
 5701SOL     OW18001   0.649   0.281   1.184
 5701SOL    HW118002   0.585   0.311   1.255
 5701SOL    HW218003   0.667   0.356   1.121
 5702SOL     OW18004   2.787   5.526   4.582
 5702SOL    HW118005   2.882   5.500   4.563
 5702SOL    HW218006   2.766   5.509   4.678
 5703SOL     OW18007   6.320   4.482   0.403
 5703SOL    HW118008   6.373   4.537   0.468
 5703SOL    HW218009   6.266   4.414   0.453
 5704SOL     OW18010   4.591   4.321   3.151
 5704SOL    HW118011   4.600   4.277   3.062
 5704SOL    HW218012   4.505   4.373   3.154
 5705SOL     OW18013   5.082   6.348   0.035
 5705SOL    HW118014   5.124   6.319   0.121
 5705SOL    HW218015   5.018   6.277   0.004
 5706SOL     OW18016   6.470   3.037   2.203
 5706SOL    HW118017   6.543   3.092   2.245
 5706SOL    HW218018   6.433   2.974   2.271
 5707SOL     OW18019   6.747   6.868   0.917
 5707SOL    HW118020   6.668   6.857   0.857
 5707SOL    HW218021   6.830   6.839   0.869
 5708SOL     OW18022   4.896   5.595   2.349
 5708SOL    HW118023   4.800   5.608   2.326
 5708SOL    HW218024   4.905   5.538   2.430
 5709SOL     OW18025   1.321   1.373   2.093
 5709SOL    HW118026   1.309   1.436   2.169
 5709SOL    HW218027   1.293   1.418   2.008
 5710SOL     OW18028   3.213   3.087   0.588
 5710SOL    HW118029   3.176   3.180   0.580
 5710SOL    HW218030   3.310   3.088   0.563
 5711SOL     OW18031   5.199   1.222   2.526
 5711SOL    HW118032   5.114   1.259   2.488
 5711SOL    HW218033   5.181   1.184   2.617
 5712SOL     OW18034   6.063   0.143   0.212
 5712SOL    HW118035   6.044   0.045   0.208
 5712SOL    HW218036   6.037   0.179   0.301
 5713SOL     OW18037   2.787   3.969   1.654
 5713SOL    HW118038   2.741   4.027   1.721
 5713SOL    HW218039   2.740   3.881   1.648
 5714SOL     OW18040   6.994   5.790   0.994
 5714SOL    HW118041   6.930   5.844   1.049
 5714SOL    HW218042   0.035   5.851   0.946
 5715SOL     OW18043   0.735   0.664   2.621
 5715SOL    HW118044   0.725   0.566   2.636
 5715SOL    HW218045   0.674   0.692   2.547
 5716SOL     OW18046   1.216   4.881   5.958
 5716SOL    HW118047   1.238   4.813   6.028
 5716SOL    HW218048   1.242   4.845   5.868
 5717SOL     OW18049   1.885   4.939   0.568
 5717SOL    HW118050   1.803   4.889   0.597
 5717SOL    HW218051   1.959   4.921   0.633
 5718SOL     OW18052   0.730   3.407   0.402
 5718SOL    HW118053   0.710   3.500   0.432
 5718SOL    HW218054   0.738   3.406   0.302
 5719SOL     OW18055   1.877   2.802   0.102
 5719SOL    HW118056   1.866   2.789   0.004
 5719SOL    HW218057   1.796   2.847   0.140
 5720SOL     OW18058   2.312   6.330   5.008
 5720SOL    HW118059   2.307   6.337   5.108
 5720SOL    HW218060   2.352   6.242   4.983
 5721SOL     OW18061   6.049   3.971   0.966
 5721SOL    HW118062   6.138   3.959   1.011
 5721SOL    HW218063   5.984   3.903   1.001
 5722SOL     OW18064   6.790   2.064   4.990
 5722SOL    HW118065   6.694   2.036   4.994
 5722SOL    HW218066   6.842   1.998   4.937
 5723SOL     OW18067   4.060   3.065   0.047
 5723SOL    HW118068   4.059   3.162   0.072
 5723SOL    HW218069   4.146   3.024   0.078
 5724SOL     OW18070   5.576   2.732   4.461
 5724SOL    HW118071   5.522   2.662   4.413
 5724SOL    HW218072   5.672   2.720   4.438
 5725SOL     OW18073   6.128   5.066   3.610
 5725SOL    HW118074   6.117   5.165   3.619
 5725SOL    HW218075   6.110   5.038   3.516
 5726SOL     OW18076   6.857   5.426   4.232
 5726SOL    HW118077   6.871   5.497   4.163
 5726SOL    HW218078   6.912   5.447   4.312
 5727SOL     OW18079   6.087   2.100   4.361
 5727SOL    HW118080   6.035   2.137   4.438
 5727SOL    HW218081   6.064   2.004   4.348
 5728SOL     OW18082   4.425   6.019   5.702
 5728SOL    HW118083   4.445   5.921   5.708
 5728SOL    HW218084   4.388   6.051   5.789
 5729SOL     OW18085   2.389   0.597   0.080
 5729SOL    HW118086   2.364   0.670   0.144
 5729SOL    HW218087   2.437   0.524   0.130
 5730SOL     OW18088   5.179   4.947   6.105
 5730SOL    HW118089   5.252   4.932   6.172
 5730SOL    HW218090   5.111   5.009   6.143
 5731SOL     OW18091   0.059   6.864   2.948
 5731SOL    HW118092   0.082   6.962   2.951
 5731SOL    HW218093   0.087   6.827   2.859
 5732SOL     OW18094   0.691   5.734   4.029
 5732SOL    HW118095   0.720   5.639   4.014
 5732SOL    HW218096   0.645   5.768   3.947
 5733SOL     OW18097   3.233   6.513   5.285
 5733SOL    HW118098   3.161   6.448   5.307
 5733SOL    HW218099   3.196   6.606   5.286
 5734SOL     OW18100   1.263   0.384   5.395
 5734SOL    HW118101   1.165   0.389   5.375
 5734SOL    HW218102   1.288   0.458   5.457
 5735SOL     OW18103   4.106   1.694   1.124
 5735SOL    HW118104   4.194   1.729   1.091
 5735SOL    HW218105   4.049   1.670   1.046
 5736SOL     OW18106   5.985   3.997   0.234
 5736SOL    HW118107   5.993   4.096   0.226
 5736SOL    HW218108   6.062   3.952   0.189
 5737SOL     OW18109   5.967   6.521   0.044
 5737SOL    HW118110   6.018   6.594   7.021
 5737SOL    HW218111   6.004   6.432   0.016
 5738SOL     OW18112   2.171   2.571   6.157
 5738SOL    HW118113   2.261   2.560   6.116
 5738SOL    HW218114   2.104   2.591   6.086
 5739SOL     OW18115   1.763   0.643   6.063
 5739SOL    HW118116   1.679   0.624   6.013
 5739SOL    HW218117   1.816   0.712   6.014
 5740SOL     OW18118   4.625   4.961   0.826
 5740SOL    HW118119   4.536   4.925   0.795
 5740SOL    HW218120   4.670   4.893   0.883
 5741SOL     OW18121   1.011   5.369   4.801
 5741SOL    HW118122   0.961   5.312   4.736
 5741SOL    HW218123   0.998   5.332   4.893
 5742SOL     OW18124   5.465   6.398   2.855
 5742SOL    HW118125   5.461   6.490   2.818
 5742SOL    HW218126   5.410   6.393   2.939
 5743SOL     OW18127   2.181   6.634   4.938
 5743SOL    HW118128   2.106   6.695   4.964
 5743SOL    HW218129   2.171   6.546   4.985
 5744SOL     OW18130   4.526   6.920   2.082
 5744SOL    HW118131   4.555   6.904   2.176
 5744SOL    HW218132   4.605   6.913   2.021
 5745SOL     OW18133   3.684   0.647   3.852
 5745SOL    HW118134   3.751   0.717   3.827
 5745SOL    HW218135   3.731   0.562   3.874
 5746SOL     OW18136   5.236   0.449   1.205
 5746SOL    HW118137   5.186   0.535   1.218
 5746SOL    HW218138   5.331   0.469   1.183
 5747SOL     OW18139   0.464   4.902   2.178
 5747SOL    HW118140   0.453   4.803   2.186
 5747SOL    HW218141   0.388   4.948   2.224
 5748SOL     OW18142   1.545   5.082   0.635
 5748SOL    HW118143   1.467   5.071   0.696
 5748SOL    HW218144   1.580   4.993   0.608
 5749SOL     OW18145   2.587   0.734   4.568
 5749SOL    HW118146   2.635   0.679   4.636
 5749SOL    HW218147   2.556   0.820   4.609
 5750SOL     OW18148   6.256   5.254   4.644
 5750SOL    HW118149   6.281   5.237   4.548
 5750SOL    HW218150   6.210   5.174   4.681
 5751SOL     OW18151   2.440   2.686   4.503
 5751SOL    HW118152   2.511   2.616   4.506
 5751SOL    HW218153   2.417   2.715   4.596
 5752SOL     OW18154   6.593   0.429   6.528
 5752SOL    HW118155   6.552   0.370   6.598
 5752SOL    HW218156   6.528   0.501   6.503
 5753SOL     OW18157   2.825   3.611   5.806
 5753SOL    HW118158   2.884   3.535   5.833
 5753SOL    HW218159   2.787   3.592   5.715
 5754SOL     OW18160   5.803   5.142   1.016
 5754SOL    HW118161   5.774   5.056   1.058
 5754SOL    HW218162   5.722   5.194   0.988
 5755SOL     OW18163   2.759   3.236   5.681
 5755SOL    HW118164   2.778   3.329   5.648
 5755SOL    HW218165   2.670   3.234   5.726
 5756SOL     OW18166   6.450   5.374   3.118
 5756SOL    HW118167   6.494   5.454   3.158
 5756SOL    HW218168   6.482   5.292   3.166
 5757SOL     OW18169   6.604   6.504   2.397
 5757SOL    HW118170   6.628   6.577   2.334
 5757SOL    HW218171   6.613   6.536   2.491
 5758SOL     OW18172   3.020   1.598   4.102
 5758SOL    HW118173   3.085   1.673   4.093
 5758SOL    HW218174   3.048   1.522   4.043
 5759SOL     OW18175   4.673   1.637   6.305
 5759SOL    HW118176   4.590   1.657   6.357
 5759SOL    HW218177   4.662   1.550   6.257
 5760SOL     OW18178   1.602   5.141   1.882
 5760SOL    HW118179   1.604   5.095   1.793
 5760SOL    HW218180   1.692   5.181   1.900
 5761SOL     OW18181   5.234   0.434   6.011
 5761SOL    HW118182   5.189   0.345   6.011
 5761SOL    HW218183   5.225   0.476   5.921
 5762SOL     OW18184   4.758   6.956   0.066
 5762SOL    HW118185   4.858   6.965   0.061
 5762SOL    HW218186   4.730   6.952   0.162
 5763SOL     OW18187   0.227   0.408   0.389
 5763SOL    HW118188   0.195   0.500   0.414
 5763SOL    HW218189   0.268   0.364   0.469
 5764SOL     OW18190   5.323   4.570   6.481
 5764SOL    HW118191   5.382   4.559   6.401
 5764SOL    HW218192   5.250   4.502   6.478
 5765SOL     OW18193   6.590   3.918   6.516
 5765SOL    HW118194   6.654   3.851   6.479
 5765SOL    HW218195   6.534   3.955   6.443
 5766SOL     OW18196   2.755   1.703   0.980
 5766SOL    HW118197   2.787   1.798   0.985
 5766SOL    HW218198   2.791   1.651   1.057
 5767SOL     OW18199   2.784   6.908   0.451
 5767SOL    HW118200   2.842   6.883   0.373
 5767SOL    HW218201   2.694   6.867   0.440
 5768SOL     OW18202   0.279   6.891   3.169
 5768SOL    HW118203   0.271   6.976   3.221
 5768SOL    HW218204   0.210   6.826   3.199
 5769SOL     OW18205   2.452   0.115   3.777
 5769SOL    HW118206   2.461   0.045   3.848
 5769SOL    HW218207   2.512   0.192   3.797
 5770SOL     OW18208   0.242   6.560   0.870
 5770SOL    HW118209   0.207   6.467   0.862
 5770SOL    HW218210   0.267   6.595   0.780
 5771SOL     OW18211   1.224   5.804   2.111
 5771SOL    HW118212   1.148   5.744   2.138
 5771SOL    HW218213   1.282   5.756   2.045
 5772SOL     OW18214   5.769   2.683   0.514
 5772SOL    HW118215   5.817   2.603   0.477
 5772SOL    HW218216   5.837   2.753   0.540
 5773SOL     OW18217   5.833   0.866   3.997
 5773SOL    HW118218   5.844   0.768   3.981
 5773SOL    HW218219   5.735   0.890   3.994
 5774SOL     OW18220   2.547   5.493   4.179
 5774SOL    HW118221   2.566   5.527   4.271
 5774SOL    HW218222   2.580   5.399   4.170
 5775SOL     OW18223   1.549   6.748   1.261
 5775SOL    HW118224   1.546   6.693   1.178
 5775SOL    HW218225   1.471   6.725   1.319
 5776SOL     OW18226   0.008   0.949   6.200
 5776SOL    HW118227   6.988   0.955   6.291
 5776SOL    HW218228   6.957   0.959   6.130
 5777SOL     OW18229   6.082   0.611   4.628
 5777SOL    HW118230   6.161   0.657   4.667
 5777SOL    HW218231   6.112   0.549   4.556
 5778SOL     OW18232   2.079   0.037   1.560
 5778SOL    HW118233   2.170   0.001   1.535
 5778SOL    HW218234   2.009   7.003   1.516
 5779SOL     OW18235   4.235   0.648   1.465
 5779SOL    HW118236   4.159   0.659   1.529
 5779SOL    HW218237   4.201   0.612   1.378
 5780SOL     OW18238   6.196   5.096   2.210
 5780SOL    HW118239   6.167   5.024   2.146
 5780SOL    HW218240   6.267   5.152   2.167
 5781SOL     OW18241   1.545   4.421   5.006
 5781SOL    HW118242   1.459   4.373   4.990
 5781SOL    HW218243   1.563   4.483   4.930
 5782SOL     OW18244   1.463   1.098   1.207
 5782SOL    HW118245   1.512   1.011   1.202
 5782SOL    HW218246   1.416   1.105   1.295
 5783SOL     OW18247   1.754   1.037   0.996
 5783SOL    HW118248   1.703   0.992   1.069
 5783SOL    HW218249   1.827   1.093   1.035
 5784SOL     OW18250   0.528   6.315   0.508
 5784SOL    HW118251   0.567   6.316   0.416
 5784SOL    HW218252   0.602   6.318   0.575
 5785SOL     OW18253   1.689   1.869   1.132
 5785SOL    HW118254   1.628   1.809   1.183
 5785SOL    HW218255   1.637   1.923   1.066
 5786SOL     OW18256   1.233   4.055   0.990
 5786SOL    HW118257   1.313   4.103   0.952
 5786SOL    HW218258   1.232   3.961   0.957
 5787SOL     OW18259   5.075   2.363   4.363
 5787SOL    HW118260   5.037   2.294   4.301
 5787SOL    HW218261   5.126   2.431   4.310
 5788SOL     OW18262   3.325   0.203   1.179
 5788SOL    HW118263   3.300   0.219   1.275
 5788SOL    HW218264   3.356   0.288   1.138
 5789SOL     OW18265   3.885   2.264   6.340
 5789SOL    HW118266   3.792   2.230   6.358
 5789SOL    HW218267   3.880   2.359   6.310
 5790SOL     OW18268   6.656   5.829   5.223
 5790SOL    HW118269   6.754   5.814   5.208
 5790SOL    HW218270   6.637   5.927   5.223
 5791SOL     OW18271   3.342   1.466   2.458
 5791SOL    HW118272   3.351   1.418   2.371
 5791SOL    HW218273   3.418   1.531   2.468
 5792SOL     OW18274   4.931   3.819   3.245
 5792SOL    HW118275   4.881   3.742   3.283
 5792SOL    HW218276   5.028   3.812   3.272
 5793SOL     OW18277   6.284   1.590   5.614
 5793SOL    HW118278   6.236   1.613   5.529
 5793SOL    HW218279   6.228   1.617   5.692
 5794SOL     OW18280   3.278   6.864   6.504
 5794SOL    HW118281   3.281   6.961   6.528
 5794SOL    HW218282   3.231   6.813   6.576
 5795SOL     OW18283   0.979   6.132   1.708
 5795SOL    HW118284   1.019   6.149   1.618
 5795SOL    HW218285   0.990   6.213   1.766
 5796SOL     OW18286   4.521   0.887   6.791
 5796SOL    HW118287   4.600   0.915   6.846
 5796SOL    HW218288   4.490   0.964   6.735
 5797SOL     OW18289   5.565   1.290   0.162
 5797SOL    HW118290   5.591   1.372   0.213
 5797SOL    HW218291   5.542   1.216   0.225
 5798SOL     OW18292   1.040   3.946   4.364
 5798SOL    HW118293   1.045   3.950   4.464
 5798SOL    HW218294   0.969   3.881   4.337
 5799SOL     OW18295   0.615   6.744   2.615
 5799SOL    HW118296   0.701   6.759   2.662
 5799SOL    HW218297   0.598   6.646   2.605
 5800SOL     OW18298   0.899   0.201   0.895
 5800SOL    HW118299   0.853   0.212   0.807
 5800SOL    HW218300   0.880   0.109   0.930
 5801SOL     OW18301   2.481   2.422   3.318
 5801SOL    HW118302   2.488   2.407   3.220
 5801SOL    HW218303   2.431   2.508   3.335
 5802SOL     OW18304   6.112   3.561   2.689
 5802SOL    HW118305   6.027   3.612   2.674
 5802SOL    HW218306   6.178   3.621   2.735
 5803SOL     OW18307   0.778   4.700   3.960
 5803SOL    HW118308   0.854   4.636   3.945
 5803SOL    HW218309   0.774   4.723   4.057
 5804SOL     OW18310   6.742   6.268   3.656
 5804SOL    HW118311   6.780   6.175   3.648
 5804SOL    HW218312   6.686   6.288   3.576
 5805SOL     OW18313   1.323   3.159   0.910
 5805SOL    HW118314   1.290   3.079   0.961
 5805SOL    HW218315   1.355   3.229   0.975
 5806SOL     OW18316   6.881   4.061   4.478
 5806SOL    HW118317   6.800   4.119   4.478
 5806SOL    HW218318   6.889   4.015   4.389
 5807SOL     OW18319   1.430   6.017   1.378
 5807SOL    HW118320   1.355   6.076   1.345
 5807SOL    HW218321   1.515   6.069   1.379
 5808SOL     OW18322   6.613   6.916   4.468
 5808SOL    HW118323   6.653   6.845   4.410
 5808SOL    HW218324   6.600   6.999   4.415
 5809SOL     OW18325   0.413   2.327   5.726
 5809SOL    HW118326   0.414   2.283   5.816
 5809SOL    HW218327   0.334   2.386   5.719
 5810SOL     OW18328   4.098   0.325   4.728
 5810SOL    HW118329   4.048   0.301   4.644
 5810SOL    HW218330   4.195   0.335   4.707
 5811SOL     OW18331   2.506   2.276   5.509
 5811SOL    HW118332   2.522   2.232   5.597
 5811SOL    HW218333   2.408   2.281   5.491
 5812SOL     OW18334   5.931   3.453   6.855
 5812SOL    HW118335   5.863   3.473   6.784
 5812SOL    HW218336   5.937   3.531   6.918
 5813SOL     OW18337   2.991   6.075   1.205
 5813SOL    HW118338   2.961   6.137   1.278
 5813SOL    HW218339   3.015   5.986   1.245
 5814SOL     OW18340   6.815   1.978   1.963
 5814SOL    HW118341   6.795   1.987   2.061
 5814SOL    HW218342   6.860   1.890   1.947
 5815SOL     OW18343   5.766   1.899   4.163
 5815SOL    HW118344   5.690   1.948   4.120
 5815SOL    HW218345   5.772   1.925   4.260
 5816SOL     OW18346   0.042   5.081   1.965
 5816SOL    HW118347   0.098   5.164   1.962
 5816SOL    HW218348   0.100   5.000   1.960
 5817SOL     OW18349   5.960   4.325   5.247
 5817SOL    HW118350   6.022   4.385   5.297
 5817SOL    HW218351   5.911   4.266   5.311
 5818SOL     OW18352   1.077   5.739   5.316
 5818SOL    HW118353   0.996   5.792   5.291
 5818SOL    HW218354   1.151   5.759   5.253
 5819SOL     OW18355   2.772   4.927   6.839
 5819SOL    HW118356   2.698   4.888   6.784
 5819SOL    HW218357   2.798   5.016   6.801
 5820SOL     OW18358   4.682   4.748   2.140
 5820SOL    HW118359   4.603   4.808   2.144
 5820SOL    HW218360   4.663   4.672   2.078
 5821SOL     OW18361   6.608   0.930   1.437
 5821SOL    HW118362   6.695   0.930   1.488
 5821SOL    HW218363   6.545   0.865   1.479
 5822SOL     OW18364   1.239   2.376   2.792
 5822SOL    HW118365   1.240   2.335   2.883
 5822SOL    HW218366   1.173   2.452   2.791
 5823SOL     OW18367   2.283   6.424   4.389
 5823SOL    HW118368   2.318   6.514   4.364
 5823SOL    HW218369   2.193   6.411   4.348
 5824SOL     OW18370   0.970   0.143   2.392
 5824SOL    HW118371   0.954   0.046   2.410
 5824SOL    HW218372   0.962   0.161   2.294
 5825SOL     OW18373   0.209   6.198   4.836
 5825SOL    HW118374   0.302   6.173   4.809
 5825SOL    HW218375   0.157   6.115   4.856
 5826SOL     OW18376   6.956   0.170   5.479
 5826SOL    HW118377   6.949   0.202   5.384
 5826SOL    HW218378   6.897   0.090   5.492
 5827SOL     OW18379   0.978   3.798   5.158
 5827SOL    HW118380   0.985   3.699   5.162
 5827SOL    HW218381   0.920   3.831   5.233
 5828SOL     OW18382   5.280   0.895   3.952
 5828SOL    HW118383   5.291   0.803   3.914
 5828SOL    HW218384   5.207   0.943   3.904
 5829SOL     OW18385   1.307   0.301   5.123
 5829SOL    HW118386   1.293   0.351   5.208
 5829SOL    HW218387   1.403   0.275   5.114
 5830SOL     OW18388   4.391   5.462   5.449
 5830SOL    HW118389   4.467   5.399   5.468
 5830SOL    HW218390   4.338   5.476   5.533
 5831SOL     OW18391   0.921   1.782   5.315
 5831SOL    HW118392   0.837   1.771   5.368
 5831SOL    HW218393   0.988   1.831   5.370
 5832SOL     OW18394   3.531   4.406   1.492
 5832SOL    HW118395   3.498   4.492   1.453
 5832SOL    HW218396   3.469   4.377   1.565
 5833SOL     OW18397   4.129   3.593   5.505
 5833SOL    HW118398   4.155   3.626   5.414
 5833SOL    HW218399   4.029   3.598   5.515
 5834SOL     OW18400   6.648   3.576   6.547
 5834SOL    HW118401   6.619   3.519   6.624
 5834SOL    HW218402   6.636   3.526   6.461
 5835SOL     OW18403   5.896   1.698   2.631
 5835SOL    HW118404   5.815   1.738   2.587
 5835SOL    HW218405   5.977   1.716   2.575
 5836SOL     OW18406   3.258   6.684   2.157
 5836SOL    HW118407   3.208   6.673   2.242
 5836SOL    HW218408   3.315   6.766   2.161
 5837SOL     OW18409   3.902   3.928   0.120
 5837SOL    HW118410   3.952   3.882   0.193
 5837SOL    HW218411   3.954   3.922   0.035
 5838SOL     OW18412   2.482   1.646   1.273
 5838SOL    HW118413   2.431   1.606   1.197
 5838SOL    HW218414   2.493   1.577   1.345
 5839SOL     OW18415   0.499   2.682   1.438
 5839SOL    HW118416   0.596   2.662   1.452
 5839SOL    HW218417   0.480   2.688   1.340
 5840SOL     OW18418   0.221   3.908   1.596
 5840SOL    HW118419   0.192   3.975   1.664
 5840SOL    HW218420   0.294   3.851   1.634
 5841SOL     OW18421   4.927   0.954   1.885
 5841SOL    HW118422   4.932   0.903   1.799
 5841SOL    HW218423   4.879   0.899   1.954
 5842SOL     OW18424   3.892   2.098   0.552
 5842SOL    HW118425   3.927   2.081   0.643
 5842SOL    HW218426   3.826   2.173   0.555
 5843SOL     OW18427   2.196   3.895   1.429
 5843SOL    HW118428   2.282   3.859   1.464
 5843SOL    HW218429   2.189   3.876   1.331
 5844SOL     OW18430   0.862   6.050   4.974
 5844SOL    HW118431   0.893   6.103   5.053
 5844SOL    HW218432   0.925   6.063   4.898
 5845SOL     OW18433   0.267   0.025   1.793
 5845SOL    HW118434   0.258   6.956   1.835
 5845SOL    HW218435   0.178   0.068   1.786
 5846SOL     OW18436   6.455   3.783   5.708
 5846SOL    HW118437   6.370   3.782   5.760
 5846SOL    HW218438   6.437   3.752   5.614
 5847SOL     OW18439   2.780   2.804   1.598
 5847SOL    HW118440   2.864   2.767   1.638
 5847SOL    HW218441   2.706   2.796   1.664
 5848SOL     OW18442   2.049   6.353   4.223
 5848SOL    HW118443   2.046   6.414   4.144
 5848SOL    HW218444   1.958   6.314   4.238
 5849SOL     OW18445   1.926   6.457   5.617
 5849SOL    HW118446   1.968   6.535   5.663
 5849SOL    HW218447   1.924   6.474   5.519
 5850SOL     OW18448   1.226   3.180   1.721
 5850SOL    HW118449   1.236   3.247   1.795
 5850SOL    HW218450   1.316   3.148   1.692
 5851SOL     OW18451   5.388   3.680   3.765
 5851SOL    HW118452   5.419   3.763   3.720
 5851SOL    HW218453   5.454   3.654   3.836
 5852SOL     OW18454   4.342   5.860   3.091
 5852SOL    HW118455   4.361   5.866   3.189
 5852SOL    HW218456   4.427   5.870   3.039
 5853SOL     OW18457   4.162   4.907   5.062
 5853SOL    HW118458   4.219   4.840   5.014
 5853SOL    HW218459   4.219   4.958   5.127
 5854SOL     OW18460   3.848   4.341   5.224
 5854SOL    HW118461   3.770   4.331   5.285
 5854SOL    HW218462   3.914   4.405   5.263
 5855SOL     OW18463   2.340   2.712   3.961
 5855SOL    HW118464   2.348   2.806   3.994
 5855SOL    HW218465   2.382   2.650   4.026
 5856SOL     OW18466   1.384   6.808   2.506
 5856SOL    HW118467   1.481   6.789   2.518
 5856SOL    HW218468   1.372   6.904   2.480
 5857SOL     OW18469   0.071   3.120   5.687
 5857SOL    HW118470   0.071   3.158   5.594
 5857SOL    HW218471   0.151   3.153   5.737
 5858SOL     OW18472   2.518   1.987   2.728
 5858SOL    HW118473   2.603   2.035   2.707
 5858SOL    HW218474   2.475   1.957   2.643
 5859SOL     OW18475   5.634   6.507   1.829
 5859SOL    HW118476   5.651   6.606   1.837
 5859SOL    HW218477   5.537   6.492   1.810
 5860SOL     OW18478   0.875   4.514   3.073
 5860SOL    HW118479   0.781   4.524   3.041
 5860SOL    HW218480   0.886   4.561   3.161
 5861SOL     OW18481   5.718   0.431   4.854
 5861SOL    HW118482   5.753   0.497   4.788
 5861SOL    HW218483   5.624   0.456   4.879
 5862SOL     OW18484   6.165   5.902   2.359
 5862SOL    HW118485   6.065   5.899   2.371
 5862SOL    HW218486   6.209   5.858   2.437
 5863SOL     OW18487   3.171   1.320   4.246
 5863SOL    HW118488   3.231   1.251   4.206
 5863SOL    HW218489   3.086   1.277   4.275
 5864SOL     OW18490   3.438   3.464   2.741
 5864SOL    HW118491   3.517   3.505   2.697
 5864SOL    HW218492   3.467   3.395   2.807
 5865SOL     OW18493   5.686   0.669   5.318
 5865SOL    HW118494   5.680   0.666   5.418
 5865SOL    HW218495   5.702   0.576   5.284
 5866SOL     OW18496   3.303   3.253   0.893
 5866SOL    HW118497   3.261   3.189   0.958
 5866SOL    HW218498   3.401   3.235   0.887
 5867SOL     OW18499   2.028   2.072   1.730
 5867SOL    HW118500   1.941   2.122   1.734
 5867SOL    HW218501   2.062   2.075   1.636
 5868SOL     OW18502   0.951   2.246   5.841
 5868SOL    HW118503   1.002   2.162   5.820
 5868SOL    HW218504   0.945   2.256   5.940
 5869SOL     OW18505   1.501   4.462   3.816
 5869SOL    HW118506   1.592   4.503   3.812
 5869SOL    HW218507   1.504   4.370   3.779
 5870SOL     OW18508   4.022   5.182   5.526
 5870SOL    HW118509   4.007   5.204   5.429
 5870SOL    HW218510   4.054   5.088   5.534
 5871SOL     OW18511   3.918   3.993   2.678
 5871SOL    HW118512   3.915   4.055   2.600
 5871SOL    HW218513   3.833   4.002   2.731
 5872SOL     OW18514   4.039   6.103   1.530
 5872SOL    HW118515   4.130   6.066   1.509
 5872SOL    HW218516   4.027   6.190   1.482
 5873SOL     OW18517   2.731   5.708   2.132
 5873SOL    HW118518   2.770   5.639   2.071
 5873SOL    HW218519   2.804   5.762   2.173
 5874SOL     OW18520   2.404   4.248   5.296
 5874SOL    HW118521   2.432   4.306   5.219
 5874SOL    HW218522   2.376   4.158   5.261
 5875SOL     OW18523   3.472   2.042   0.203
 5875SOL    HW118524   3.477   2.139   0.227
 5875SOL    HW218525   3.550   2.017   0.145
 5876SOL     OW18526   3.936   3.423   2.116
 5876SOL    HW118527   4.014   3.404   2.057
 5876SOL    HW218528   3.942   3.366   2.198
 5877SOL     OW18529   5.942   6.300   0.379
 5877SOL    HW118530   6.041   6.310   0.388
 5877SOL    HW218531   5.901   6.390   0.367
 5878SOL     OW18532   1.505   6.169   3.940
 5878SOL    HW118533   1.535   6.248   3.994
 5878SOL    HW218534   1.413   6.185   3.905
 5879SOL     OW18535   0.246   3.650   0.616
 5879SOL    HW118536   0.165   3.687   0.570
 5879SOL    HW218537   0.318   3.635   0.548
 5880SOL     OW18538   2.650   5.189   0.790
 5880SOL    HW118539   2.634   5.154   0.697
 5880SOL    HW218540   2.736   5.239   0.792
 5881SOL     OW18541   0.441   4.854   3.175
 5881SOL    HW118542   0.507   4.842   3.249
 5881SOL    HW218543   0.348   4.851   3.212
 5882SOL     OW18544   6.315   6.347   1.412
 5882SOL    HW118545   6.294   6.250   1.400
 5882SOL    HW218546   6.337   6.387   1.323
 5883SOL     OW18547   0.820   2.208   6.828
 5883SOL    HW118548   0.803   2.110   6.842
 5883SOL    HW218549   0.909   2.220   6.783
 5884SOL     OW18550   2.440   1.107   3.948
 5884SOL    HW118551   2.372   1.156   4.002
 5884SOL    HW218552   2.490   1.172   3.891
 5885SOL     OW18553   6.655   6.952   2.045
 5885SOL    HW118554   6.599   6.869   2.046
 5885SOL    HW218555   6.602   0.008   2.080
 5886SOL     OW18556   0.511   1.841   5.015
 5886SOL    HW118557   0.500   1.844   4.916
 5886SOL    HW218558   0.462   1.918   5.057
 5887SOL     OW18559   3.639   0.725   3.398
 5887SOL    HW118560   3.733   0.720   3.431
 5887SOL    HW218561   3.626   0.659   3.323
 5888SOL     OW18562   2.568   0.773   2.651
 5888SOL    HW118563   2.644   0.833   2.677
 5888SOL    HW218564   2.523   0.739   2.733
 5889SOL     OW18565   1.505   6.498   1.392
 5889SOL    HW118566   1.577   6.460   1.334
 5889SOL    HW218567   1.530   6.488   1.488
 5890SOL     OW18568   1.156   6.871   5.831
 5890SOL    HW118569   1.139   6.849   5.927
 5890SOL    HW218570   1.184   6.788   5.782
 5891SOL     OW18571   3.537   3.013   5.930
 5891SOL    HW118572   3.481   2.937   5.896
 5891SOL    HW218573   3.603   3.040   5.859
 5892SOL     OW18574   0.756   5.893   1.248
 5892SOL    HW118575   0.761   5.886   1.149
 5892SOL    HW218576   0.848   5.898   1.287
 5893SOL     OW18577   1.454   3.984   3.792
 5893SOL    HW118578   1.502   4.063   3.755
 5893SOL    HW218579   1.378   4.015   3.849
 5894SOL     OW18580   0.833   5.531   3.201
 5894SOL    HW118581   0.744   5.524   3.245
 5894SOL    HW218582   0.893   5.590   3.256
 5895SOL     OW18583   5.013   2.970   4.173
 5895SOL    HW118584   4.939   2.977   4.107
 5895SOL    HW218585   5.076   3.047   4.162
 5896SOL     OW18586   3.780   1.572   0.285
 5896SOL    HW118587   3.783   1.544   0.381
 5896SOL    HW218588   3.744   1.665   0.278
 5897SOL     OW18589   3.784   0.324   1.532
 5897SOL    HW118590   3.838   0.259   1.477
 5897SOL    HW218591   3.835   0.349   1.614
 5898SOL     OW18592   2.024   6.692   3.347
 5898SOL    HW118593   1.980   6.726   3.430
 5898SOL    HW218594   1.959   6.695   3.271
 5899SOL     OW18595   4.763   6.375   5.836
 5899SOL    HW118596   4.841   6.408   5.783
 5899SOL    HW218597   4.704   6.318   5.778
 5900SOL     OW18598   4.628   5.495   3.757
 5900SOL    HW118599   4.623   5.422   3.825
 5900SOL    HW218600   4.707   5.554   3.777
 5901SOL     OW18601   2.980   0.235   6.940
 5901SOL    HW118602   3.040   0.303   6.984
 5901SOL    HW218603   2.885   0.253   6.967
 5902SOL     OW18604   0.107   2.556   6.962
 5902SOL    HW118605   0.052   2.545   6.880
 5902SOL    HW218606   0.160   2.472   6.977
 5903SOL     OW18607   4.429   4.035   0.638
 5903SOL    HW118608   4.522   4.067   0.653
 5903SOL    HW218609   4.398   3.985   0.719
 5904SOL     OW18610   1.067   3.775   1.913
 5904SOL    HW118611   1.087   3.756   1.817
 5904SOL    HW218612   1.011   3.702   1.951
 5905SOL     OW18613   6.609   6.071   3.092
 5905SOL    HW118614   6.612   6.032   3.000
 5905SOL    HW218615   6.546   6.149   3.092
 5906SOL     OW18616   4.814   1.375   4.506
 5906SOL    HW118617   4.732   1.347   4.456
 5906SOL    HW218618   4.851   1.297   4.556
 5907SOL     OW18619   1.696   6.061   2.448
 5907SOL    HW118620   1.714   6.009   2.532
 5907SOL    HW218621   1.772   6.047   2.384
 5908SOL     OW18622   0.936   2.400   5.601
 5908SOL    HW118623   0.924   2.497   5.581
 5908SOL    HW218624   0.939   2.386   5.700
 5909SOL     OW18625   6.779   5.368   0.989
 5909SOL    HW118626   6.787   5.457   0.944
 5909SOL    HW218627   6.738   5.303   0.925
 5910SOL     OW18628   0.892   2.935   3.457
 5910SOL    HW118629   0.870   3.024   3.417
 5910SOL    HW218630   0.810   2.895   3.496
 5911SOL     OW18631   6.472   5.682   6.796
 5911SOL    HW118632   6.395   5.685   6.861
 5911SOL    HW218633   6.436   5.671   6.703
 5912SOL     OW18634   6.528   1.106   5.223
 5912SOL    HW118635   6.455   1.112   5.291
 5912SOL    HW218636   6.488   1.089   5.133
 5913SOL     OW18637   4.540   2.736   6.510
 5913SOL    HW118638   4.546   2.694   6.600
 5913SOL    HW218639   4.549   2.835   6.518
 5914SOL     OW18640   0.763   6.373   6.791
 5914SOL    HW118641   0.852   6.418   6.794
 5914SOL    HW218642   0.746   6.328   6.879
 5915SOL     OW18643   4.358   5.988   0.898
 5915SOL    HW118644   4.415   5.914   0.934
 5915SOL    HW218645   4.377   6.001   0.801
 5916SOL     OW18646   0.048   6.415   2.693
 5916SOL    HW118647   0.128   6.470   2.668
 5916SOL    HW218648   0.004   6.381   2.611
 5917SOL     OW18649   3.253   3.932   4.953
 5917SOL    HW118650   3.226   3.960   5.045
 5917SOL    HW218651   3.209   3.990   4.885
 5918SOL     OW18652   1.954   4.987   5.978
 5918SOL    HW118653   2.020   4.935   6.031
 5918SOL    HW218654   1.884   4.925   5.942
 5919SOL     OW18655   2.918   3.571   2.403
 5919SOL    HW118656   2.879   3.661   2.381
 5919SOL    HW218657   2.900   3.508   2.327
 5920SOL     OW18658   5.081   0.665   6.332
 5920SOL    HW118659   5.015   0.665   6.257
 5920SOL    HW218660   5.037   0.698   6.415
 5921SOL     OW18661   4.198   5.170   6.338
 5921SOL    HW118662   4.140   5.094   6.366
 5921SOL    HW218663   4.165   5.208   6.252
 5922SOL     OW18664   5.999   3.938   4.356
 5922SOL    HW118665   6.026   3.843   4.373
 5922SOL    HW218666   6.022   3.994   4.435
 5923SOL     OW18667   6.819   1.091   2.295
 5923SOL    HW118668   6.859   1.138   2.216
 5923SOL    HW218669   6.849   0.996   2.296
 5924SOL     OW18670   5.831   6.814   2.369
 5924SOL    HW118671   5.858   6.773   2.282
 5924SOL    HW218672   5.911   6.858   2.411
 5925SOL     OW18673   3.586   6.340   2.134
 5925SOL    HW118674   3.587   6.305   2.040
 5925SOL    HW218675   3.492   6.339   2.169
 5926SOL     OW18676   4.482   4.497   2.420
 5926SOL    HW118677   4.529   4.462   2.339
 5926SOL    HW218678   4.410   4.433   2.446
 5927SOL     OW18679   1.274   4.369   1.706
 5927SOL    HW118680   1.351   4.325   1.752
 5927SOL    HW218681   1.282   4.468   1.714
 5928SOL     OW18682   3.670   6.587   1.649
 5928SOL    HW118683   3.616   6.641   1.714
 5928SOL    HW218684   3.610   6.548   1.580
 5929SOL     OW18685   5.616   0.584   5.570
 5929SOL    HW118686   5.550   0.509   5.560
 5929SOL    HW218687   5.572   0.661   5.614
 5930SOL     OW18688   0.995   3.114   2.996
 5930SOL    HW118689   1.028   3.188   2.937
 5930SOL    HW218690   0.988   3.029   2.942
 5931SOL     OW18691   6.303   6.030   2.651
 5931SOL    HW118692   6.204   6.019   2.647
 5931SOL    HW218693   6.347   5.969   2.586
 5932SOL     OW18694   3.395   0.116   0.124
 5932SOL    HW118695   3.373   0.115   0.222
 5932SOL    HW218696   3.443   0.032   0.100
 5933SOL     OW18697   6.958   4.961   4.203
 5933SOL    HW118698   6.932   5.049   4.163
 5933SOL    HW218699   6.892   4.937   4.275
 5934SOL     OW18700   3.712   2.588   5.301
 5934SOL    HW118701   3.679   2.667   5.249
 5934SOL    HW218702   3.811   2.584   5.296
 5935SOL     OW18703   0.307   5.283   6.031
 5935SOL    HW118704   0.239   5.235   5.975
 5935SOL    HW218705   0.378   5.219   6.060
 5936SOL     OW18706   2.975   3.636   1.721
 5936SOL    HW118707   2.879   3.607   1.724
 5936SOL    HW218708   3.035   3.557   1.731
 5937SOL     OW18709   6.252   3.343   2.019
 5937SOL    HW118710   6.349   3.369   2.013
 5937SOL    HW218711   6.245   3.244   2.032
 5938SOL     OW18712   6.400   6.333   4.575
 5938SOL    HW118713   6.437   6.425   4.569
 5938SOL    HW218714   6.472   6.266   4.554
 5939SOL     OW18715   2.835   6.255   4.116
 5939SOL    HW118716   2.872   6.163   4.104
 5939SOL    HW218717   2.783   6.259   4.201
 5940SOL     OW18718   4.082   5.136   3.636
 5940SOL    HW118719   4.128   5.122   3.724
 5940SOL    HW218720   4.019   5.061   3.618
 5941SOL     OW18721   5.686   2.826   2.789
 5941SOL    HW118722   5.783   2.803   2.786
 5941SOL    HW218723   5.662   2.880   2.709
 5942SOL     OW18724   5.560   3.888   6.735
 5942SOL    HW118725   5.629   3.906   6.666
 5942SOL    HW218726   5.554   3.789   6.751
 5943SOL     OW18727   3.221   3.352   6.258
 5943SOL    HW118728   3.291   3.301   6.208
 5943SOL    HW218729   3.147   3.290   6.285
 5944SOL     OW18730   0.886   2.701   0.579
 5944SOL    HW118731   0.967   2.648   0.555
 5944SOL    HW218732   0.848   2.744   0.497
 5945SOL     OW18733   0.258   5.326   5.126
 5945SOL    HW118734   0.221   5.419   5.133
 5945SOL    HW218735   0.333   5.315   5.191
 5946SOL     OW18736   3.442   4.541   0.310
 5946SOL    HW118737   3.437   4.442   0.298
 5946SOL    HW218738   3.350   4.580   0.307
 5947SOL     OW18739   3.250   3.456   2.945
 5947SOL    HW118740   3.198   3.541   2.957
 5947SOL    HW218741   3.290   3.454   2.854
 5948SOL     OW18742   4.132   4.720   2.495
 5948SOL    HW118743   4.217   4.667   2.497
 5948SOL    HW218744   4.096   4.720   2.402
 5949SOL     OW18745   5.408   5.136   0.986
 5949SOL    HW118746   5.326   5.088   0.955
 5949SOL    HW218747   5.392   5.174   1.077
 5950SOL     OW18748   5.501   2.145   4.981
 5950SOL    HW118749   5.429   2.163   4.914
 5950SOL    HW218750   5.574   2.093   4.937
 5951SOL     OW18751   0.876   5.431   5.334
 5951SOL    HW118752   0.812   5.467   5.402
 5951SOL    HW218753   0.850   5.337   5.311
 5952SOL     OW18754   4.872   5.682   3.379
 5952SOL    HW118755   4.824   5.728   3.453
 5952SOL    HW218756   4.957   5.729   3.359
 5953SOL     OW18757   6.717   4.433   5.153
 5953SOL    HW118758   6.712   4.354   5.092
 5953SOL    HW218759   6.654   4.504   5.121
 5954SOL     OW18760   6.822   5.239   4.786
 5954SOL    HW118761   6.768   5.254   4.869
 5954SOL    HW218762   6.872   5.153   4.794
 5955SOL     OW18763   4.358   5.093   2.026
 5955SOL    HW118764   4.348   5.161   1.953
 5955SOL    HW218765   4.270   5.076   2.069
 5956SOL     OW18766   5.991   2.245   3.879
 5956SOL    HW118767   6.001   2.165   3.820
 5956SOL    HW218768   5.920   2.305   3.842
 5957SOL     OW18769   2.811   1.701   3.981
 5957SOL    HW118770   2.827   1.799   3.987
 5957SOL    HW218771   2.886   1.652   4.026
 5958SOL     OW18772   4.109   0.410   2.428
 5958SOL    HW118773   4.120   0.312   2.443
 5958SOL    HW218774   4.041   0.425   2.356
 5959SOL     OW18775   4.781   2.573   5.344
 5959SOL    HW118776   4.800   2.671   5.347
 5959SOL    HW218777   4.780   2.536   5.437
 5960SOL     OW18778   3.588   6.151   4.445
 5960SOL    HW118779   3.570   6.055   4.425
 5960SOL    HW218780   3.501   6.198   4.460
 5961SOL     OW18781   4.366   1.692   2.741
 5961SOL    HW118782   4.413   1.605   2.722
 5961SOL    HW218783   4.310   1.682   2.823
 5962SOL     OW18784   5.481   5.688   5.814
 5962SOL    HW118785   5.536   5.698   5.731
 5962SOL    HW218786   5.403   5.751   5.810
 5963SOL     OW18787   3.177   3.937   6.266
 5963SOL    HW118788   3.270   3.941   6.304
 5963SOL    HW218789   3.171   3.860   6.202
 5964SOL     OW18790   1.888   6.731   4.764
 5964SOL    HW118791   1.880   6.632   4.777
 5964SOL    HW218792   1.828   6.760   4.690
 5965SOL     OW18793   2.248   0.957   0.125
 5965SOL    HW118794   2.194   0.947   0.042
 5965SOL    HW218795   2.329   1.013   0.105
 5966SOL     OW18796   1.219   6.548   6.535
 5966SOL    HW118797   1.197   6.606   6.613
 5966SOL    HW218798   1.175   6.459   6.545
 5967SOL     OW18799   2.251   0.228   5.996
 5967SOL    HW118800   2.234   0.180   5.910
 5967SOL    HW218801   2.233   0.326   5.984
 5968SOL     OW18802   5.646   2.048   6.895
 5968SOL    HW118803   5.643   2.141   6.857
 5968SOL    HW218804   5.562   1.999   6.870
 5969SOL     OW18805   5.735   1.143   6.997
 5969SOL    HW118806   5.807   1.109   0.036
 5969SOL    HW218807   5.675   1.205   0.028
 5970SOL     OW18808   0.613   4.936   1.151
 5970SOL    HW118809   0.568   4.861   1.102
 5970SOL    HW218810   0.702   4.904   1.185
 5971SOL     OW18811   0.084   0.437   0.904
 5971SOL    HW118812   0.160   0.412   0.964
 5971SOL    HW218813   0.117   0.499   0.833
 5972SOL     OW18814   4.877   6.039   6.431
 5972SOL    HW118815   4.813   5.997   6.368
 5972SOL    HW218816   4.828   6.074   6.510
 5973SOL     OW18817   1.772   2.829   2.778
 5973SOL    HW118818   1.772   2.862   2.872
 5973SOL    HW218819   1.800   2.733   2.777
 5974SOL     OW18820   5.049   6.947   0.028
 5974SOL    HW118821   5.032   6.863   0.079
 5974SOL    HW218822   5.073   7.021   0.091
 5975SOL     OW18823   4.012   6.468   0.941
 5975SOL    HW118824   3.984   6.389   0.886
 5975SOL    HW218825   3.981   6.456   1.035
 5976SOL     OW18826   3.584   2.852   5.598
 5976SOL    HW118827   3.577   2.886   5.504
 5976SOL    HW218828   3.501   2.801   5.621
 5977SOL     OW18829   0.778   5.702   0.341
 5977SOL    HW118830   0.844   5.744   0.403
 5977SOL    HW218831   0.739   5.771   0.281
 5978SOL     OW18832   3.258   5.755   1.635
 5978SOL    HW118833   3.283   5.745   1.731
 5978SOL    HW218834   3.340   5.759   1.579
 5979SOL     OW18835   6.734   0.629   2.010
 5979SOL    HW118836   6.830   0.632   2.035
 5979SOL    HW218837   6.695   0.540   2.036
 5980SOL     OW18838   4.117   3.697   1.230
 5980SOL    HW118839   4.209   3.680   1.266
 5980SOL    HW218840   4.121   3.768   1.160
 5981SOL     OW18841   5.111   1.759   6.979
 5981SOL    HW118842   5.033   1.728   0.012
 5981SOL    HW218843   5.196   1.733   0.003
 5982SOL     OW18844   6.131   2.119   2.574
 5982SOL    HW118845   6.183   2.074   2.647
 5982SOL    HW218846   6.094   2.049   2.513
 5983SOL     OW18847   1.265   1.367   4.194
 5983SOL    HW118848   1.326   1.305   4.242
 5983SOL    HW218849   1.226   1.433   4.258
 5984SOL     OW18850   4.725   6.682   3.628
 5984SOL    HW118851   4.772   6.770   3.619
 5984SOL    HW218852   4.793   6.608   3.630
 5985SOL     OW18853   6.495   3.280   3.638
 5985SOL    HW118854   6.542   3.346   3.697
 5985SOL    HW218855   6.455   3.208   3.694
 5986SOL     OW18856   3.633   3.816   5.094
 5986SOL    HW118857   3.643   3.806   5.193
 5986SOL    HW218858   3.580   3.740   5.058
 5987SOL     OW18859   5.656   0.193   4.746
 5987SOL    HW118860   5.600   0.231   4.672
 5987SOL    HW218861   5.701   0.267   4.796
 5988SOL     OW18862   4.163   0.454   6.423
 5988SOL    HW118863   4.099   0.379   6.406
 5988SOL    HW218864   4.133   0.504   6.505
 5989SOL     OW18865   1.790   5.407   6.188
 5989SOL    HW118866   1.712   5.445   6.237
 5989SOL    HW218867   1.811   5.465   6.109
 5990SOL     OW18868   3.533   3.507   6.908
 5990SOL    HW118869   3.602   3.551   6.966
 5990SOL    HW218870   3.481   3.576   6.859
 5991SOL     OW18871   4.731   5.853   6.699
 5991SOL    HW118872   4.680   5.823   6.779
 5991SOL    HW218873   4.682   5.825   6.616
 5992SOL     OW18874   3.549   0.055   1.976
 5992SOL    HW118875   3.595   6.988   1.986
 5992SOL    HW218876   3.551   0.104   2.063
 5993SOL     OW18877   4.426   3.676   6.007
 5993SOL    HW118878   4.471   3.693   6.094
 5993SOL    HW218879   4.364   3.598   6.016
 5994SOL     OW18880   6.568   2.228   0.162
 5994SOL    HW118881   6.666   2.241   0.143
 5994SOL    HW218882   6.548   2.264   0.254
 5995SOL     OW18883   4.905   3.485   2.251
 5995SOL    HW118884   4.900   3.585   2.258
 5995SOL    HW218885   4.851   3.444   2.323
 5996SOL     OW18886   0.790   5.625   1.360
 5996SOL    HW118887   0.694   5.599   1.354
 5996SOL    HW218888   0.808   5.704   1.301
 5997SOL     OW18889   1.155   6.141   2.928
 5997SOL    HW118890   1.237   6.100   2.888
 5997SOL    HW218891   1.166   6.241   2.928
 5998SOL     OW18892   6.445   1.705   2.247
 5998SOL    HW118893   6.353   1.744   2.235
 5998SOL    HW218894   6.439   1.618   2.296
 5999SOL     OW18895   3.039   3.170   1.325
 5999SOL    HW118896   2.950   3.210   1.346
 5999SOL    HW218897   3.097   3.175   1.407
 6000SOL     OW18898   1.119   6.279   0.855
 6000SOL    HW118899   1.047   6.344   0.831
 6000SOL    HW218900   1.193   6.328   0.902
 6001SOL     OW18901   6.774   4.871   7.013
 6001SOL    HW118902   6.828   4.860   0.076
 6001SOL    HW218903   6.688   4.822   0.001
 6002SOL     OW18904   6.394   6.908   5.801
 6002SOL    HW118905   6.357   6.943   5.887
 6002SOL    HW218906   6.364   6.814   5.788
 6003SOL     OW18907   6.160   2.350   5.145
 6003SOL    HW118908   6.132   2.397   5.062
 6003SOL    HW218909   6.134   2.253   5.139
 6004SOL     OW18910   6.193   2.642   3.670
 6004SOL    HW118911   6.137   2.620   3.750
 6004SOL    HW218912   6.290   2.641   3.696
 6005SOL     OW18913   6.200   4.754   4.534
 6005SOL    HW118914   6.245   4.682   4.587
 6005SOL    HW218915   6.121   4.787   4.584
 6006SOL     OW18916   2.651   0.933   4.831
 6006SOL    HW118917   2.683   1.003   4.768
 6006SOL    HW218918   2.723   0.865   4.845
 6007SOL     OW18919   6.963   3.225   6.041
 6007SOL    HW118920   6.867   3.245   6.022
 6007SOL    HW218921   6.981   3.239   6.139
 6008SOL     OW18922   2.851   4.955   5.542
 6008SOL    HW118923   2.767   4.907   5.566
 6008SOL    HW218924   2.829   5.048   5.511
 6009SOL     OW18925   3.809   6.939   3.361
 6009SOL    HW118926   3.841   6.925   3.454
 6009SOL    HW218927   3.749   7.018   3.358
 6010SOL     OW18928   0.493   4.360   3.615
 6010SOL    HW118929   0.483   4.447   3.664
 6010SOL    HW218930   0.452   4.286   3.668
 6011SOL     OW18931   5.015   3.249   3.106
 6011SOL    HW118932   5.104   3.248   3.152
 6011SOL    HW218933   4.974   3.339   3.116
 6012SOL     OW18934   6.163   0.573   0.712
 6012SOL    HW118935   6.251   0.526   0.719
 6012SOL    HW218936   6.179   0.671   0.701
 6013SOL     OW18937   4.843   0.995   3.155
 6013SOL    HW118938   4.886   0.956   3.073
 6013SOL    HW218939   4.775   0.932   3.190
 6014SOL     OW18940   3.077   3.946   3.378
 6014SOL    HW118941   2.983   3.976   3.391
 6014SOL    HW218942   3.138   4.005   3.431
 6015SOL     OW18943   5.975   3.717   4.747
 6015SOL    HW118944   6.061   3.711   4.697
 6015SOL    HW218945   5.957   3.813   4.771
 6016SOL     OW18946   6.044   1.449   5.768
 6016SOL    HW118947   6.044   1.350   5.755
 6016SOL    HW218948   5.996   1.493   5.692
 6017SOL     OW18949   6.459   5.066   4.140
 6017SOL    HW118950   6.517   4.989   4.114
 6017SOL    HW218951   6.510   5.151   4.128
 6018SOL     OW18952   3.444   1.373   5.343
 6018SOL    HW118953   3.382   1.332   5.277
 6018SOL    HW218954   3.467   1.305   5.414
 6019SOL     OW18955   0.742   3.372   5.308
 6019SOL    HW118956   0.761   3.355   5.404
 6019SOL    HW218957   0.650   3.342   5.285
 6020SOL     OW18958   1.233   5.573   0.192
 6020SOL    HW118959   1.159   5.535   0.248
 6020SOL    HW218960   1.321   5.539   0.226
 6021SOL     OW18961   4.390   0.398   2.828
 6021SOL    HW118962   4.439   0.407   2.741
 6021SOL    HW218963   4.346   0.308   2.832
 6022SOL     OW18964   6.971   1.619   3.489
 6022SOL    HW118965   6.967   1.610   3.588
 6022SOL    HW218966   6.913   1.549   3.447
 6023SOL     OW18967   4.986   0.661   1.925
 6023SOL    HW118968   4.896   0.695   1.953
 6023SOL    HW218969   4.995   0.669   1.826
 6024SOL     OW18970   1.333   4.680   1.102
 6024SOL    HW118971   1.285   4.691   1.189
 6024SOL    HW218972   1.267   4.662   1.029
 6025SOL     OW18973   3.322   2.092   3.017
 6025SOL    HW118974   3.305   1.994   3.021
 6025SOL    HW218975   3.414   2.108   2.981
 6026SOL     OW18976   0.049   5.741   4.692
 6026SOL    HW118977   6.983   5.693   4.707
 6026SOL    HW218978   0.119   5.702   4.752
 6027SOL     OW18979   0.165   3.590   6.428
 6027SOL    HW118980   0.173   3.626   6.334
 6027SOL    HW218981   0.073   3.553   6.442
 6028SOL     OW18982   5.540   4.480   1.164
 6028SOL    HW118983   5.486   4.396   1.166
 6028SOL    HW218984   5.634   4.458   1.139
 6029SOL     OW18985   2.876   6.874   3.775
 6029SOL    HW118986   2.946   6.877   3.703
 6029SOL    HW218987   2.840   6.965   3.791
 6030SOL     OW18988   5.077   4.254   4.440
 6030SOL    HW118989   5.114   4.247   4.532
 6030SOL    HW218990   5.151   4.261   4.374
 6031SOL     OW18991   2.717   5.931   4.364
 6031SOL    HW118992   2.799   5.961   4.412
 6031SOL    HW218993   2.648   6.004   4.366
 6032SOL     OW18994   2.497   5.076   2.948
 6032SOL    HW118995   2.567   5.147   2.955
 6032SOL    HW218996   2.407   5.117   2.964
 6033SOL     OW18997   2.161   3.035   2.621
 6033SOL    HW118998   2.208   3.060   2.536
 6033SOL    HW218999   2.172   2.937   2.638
 6034SOL     OW19000   1.146   1.054   5.953
 6034SOL    HW119001   1.104   1.080   5.866
 6034SOL    HW219002   1.083   1.075   6.028
 6035SOL     OW19003   1.489   0.895   1.909
 6035SOL    HW119004   1.585   0.915   1.927
 6035SOL    HW219005   1.478   0.870   1.813
 6036SOL     OW19006   5.560   4.726   2.055
 6036SOL    HW119007   5.487   4.712   1.986
 6036SOL    HW219008   5.559   4.821   2.085
 6037SOL     OW19009   3.671   0.072   0.557
 6037SOL    HW119010   3.649   0.169   0.564
 6037SOL    HW219011   3.771   0.061   0.563
 6038SOL     OW19012   1.507   2.506   6.548
 6038SOL    HW119013   1.603   2.499   6.520
 6038SOL    HW219014   1.499   2.566   6.627
 6039SOL     OW19015   3.763   2.978   3.309
 6039SOL    HW119016   3.833   3.035   3.353
 6039SOL    HW219017   3.797   2.948   3.220
 6040SOL     OW19018   1.658   1.562   0.483
 6040SOL    HW119019   1.735   1.604   0.531
 6040SOL    HW219020   1.690   1.481   0.434
 6041SOL     OW19021   2.895   2.249   4.892
 6041SOL    HW119022   2.833   2.323   4.918
 6041SOL    HW219023   2.985   2.264   4.934
 6042SOL     OW19024   3.749   6.679   2.897
 6042SOL    HW119025   3.671   6.662   2.835
 6042SOL    HW219026   3.727   6.645   2.988
 6043SOL     OW19027   0.607   0.179   4.746
 6043SOL    HW119028   0.558   0.252   4.698
 6043SOL    HW219029   0.704   0.184   4.725
 6044SOL     OW19030   2.601   2.477   1.778
 6044SOL    HW119031   2.700   2.488   1.789
 6044SOL    HW219032   2.573   2.508   1.688
 6045SOL     OW19033   5.718   3.415   3.595
 6045SOL    HW119034   5.651   3.403   3.669
 6045SOL    HW219035   5.790   3.347   3.604
 6046SOL     OW19036   3.551   2.555   0.926
 6046SOL    HW119037   3.636   2.537   0.876
 6046SOL    HW219038   3.488   2.479   0.916
 6047SOL     OW19039   5.129   2.737   1.578
 6047SOL    HW119040   5.176   2.715   1.493
 6047SOL    HW219041   5.196   2.751   1.651
 6048SOL     OW19042   4.936   5.099   4.828
 6048SOL    HW119043   4.969   5.032   4.895
 6048SOL    HW219044   4.838   5.087   4.815
 6049SOL     OW19045   4.682   4.327   6.463
 6049SOL    HW119046   4.642   4.236   6.469
 6049SOL    HW219047   4.614   4.391   6.426
 6050SOL     OW19048   1.611   5.290   6.910
 6050SOL    HW119049   1.649   5.206   6.870
 6050SOL    HW219050   1.686   5.348   6.942
 6051SOL     OW19051   2.079   6.713   2.782
 6051SOL    HW119052   2.110   6.640   2.843
 6051SOL    HW219053   2.058   6.794   2.836
 6052SOL     OW19054   4.984   1.635   1.787
 6052SOL    HW119055   5.014   1.700   1.718
 6052SOL    HW219056   4.885   1.644   1.801
 6053SOL     OW19057   4.371   0.971   6.084
 6053SOL    HW119058   4.385   0.999   6.180
 6053SOL    HW219059   4.303   0.898   6.080
 6054SOL     OW19060   2.626   3.930   0.374
 6054SOL    HW119061   2.563   3.893   0.306
 6054SOL    HW219062   2.703   3.974   0.328
 6055SOL     OW19063   4.893   5.849   5.425
 6055SOL    HW119064   4.896   5.922   5.494
 6055SOL    HW219065   4.950   5.772   5.456
 6056SOL     OW19066   4.847   3.321   5.154
 6056SOL    HW119067   4.815   3.411   5.128
 6056SOL    HW219068   4.943   3.311   5.128
 6057SOL     OW19069   6.226   0.652   2.126
 6057SOL    HW119070   6.311   0.600   2.112
 6057SOL    HW219071   6.149   0.601   2.087
 6058SOL     OW19072   5.264   3.923   0.303
 6058SOL    HW119073   5.180   3.870   0.309
 6058SOL    HW219074   5.289   3.956   0.394
 6059SOL     OW19075   4.446   4.305   5.952
 6059SOL    HW119076   4.473   4.401   5.961
 6059SOL    HW219077   4.349   4.300   5.928
 6060SOL     OW19078   2.418   3.375   6.605
 6060SOL    HW119079   2.365   3.293   6.584
 6060SOL    HW219080   2.358   3.456   6.598
 6061SOL     OW19081   4.948   3.797   0.072
 6061SOL    HW119082   4.960   3.751   7.005
 6061SOL    HW219083   4.917   3.891   0.057
 6062SOL     OW19084   2.403   1.450   6.407
 6062SOL    HW119085   2.308   1.480   6.414
 6062SOL    HW219086   2.444   1.488   6.325
 6063SOL     OW19087   4.151   2.458   5.569
 6063SOL    HW119088   4.080   2.392   5.546
 6063SOL    HW219089   4.205   2.424   5.645
 6064SOL     OW19090   1.287   1.149   0.737
 6064SOL    HW119091   1.251   1.072   0.685
 6064SOL    HW219092   1.356   1.197   0.682
 6065SOL     OW19093   0.715   6.167   2.135
 6065SOL    HW119094   0.749   6.115   2.057
 6065SOL    HW219095   0.633   6.217   2.108
 6066SOL     OW19096   5.301   1.155   5.803
 6066SOL    HW119097   5.356   1.169   5.886
 6066SOL    HW219098   5.272   1.244   5.767
 6067SOL     OW19099   4.738   0.480   5.448
 6067SOL    HW119100   4.674   0.510   5.377
 6067SOL    HW219101   4.797   0.409   5.411
 6068SOL     OW19102   5.203   2.600   4.586
 6068SOL    HW119103   5.182   2.585   4.683
 6068SOL    HW219104   5.216   2.512   4.541
 6069SOL     OW19105   6.355   3.379   5.189
 6069SOL    HW119106   6.383   3.331   5.272
 6069SOL    HW219107   6.260   3.410   5.198
 6070SOL     OW19108   2.821   2.513   1.413
 6070SOL    HW119109   2.869   2.526   1.326
 6070SOL    HW219110   2.887   2.494   1.485
 6071SOL     OW19111   0.948   5.774   4.922
 6071SOL    HW119112   0.927   5.691   4.974
 6071SOL    HW219113   0.894   5.850   4.957
 6072SOL     OW19114   0.478   0.678   1.364
 6072SOL    HW119115   0.473   0.581   1.390
 6072SOL    HW219116   0.556   0.721   1.409
 6073SOL     OW19117   4.883   3.369   0.621
 6073SOL    HW119118   4.936   3.332   0.697
 6073SOL    HW219119   4.872   3.299   0.550
 6074SOL     OW19120   1.706   5.979   2.022
 6074SOL    HW119121   1.611   6.009   2.031
 6074SOL    HW219122   1.716   5.926   1.938
 6075SOL     OW19123   4.490   6.917   5.443
 6075SOL    HW119124   4.465   6.866   5.525
 6075SOL    HW219125   4.502   7.014   5.467
 6076SOL     OW19126   2.973   4.830   3.160
 6076SOL    HW119127   2.926   4.917   3.173
 6076SOL    HW219128   3.057   4.845   3.109
 6077SOL     OW19129   6.083   5.067   1.039
 6077SOL    HW119130   5.994   5.054   0.995
 6077SOL    HW219131   6.149   5.103   0.973
 6078SOL     OW19132   4.914   4.980   0.120
 6078SOL    HW119133   4.862   4.921   0.058
 6078SOL    HW219134   5.001   5.004   0.078
 6079SOL     OW19135   4.810   3.851   6.215
 6079SOL    HW119136   4.777   3.934   6.170
 6079SOL    HW219137   4.773   3.771   6.168
 6080SOL     OW19138   0.198   5.668   0.633
 6080SOL    HW119139   0.130   5.723   0.681
 6080SOL    HW219140   0.202   5.695   0.537
 6081SOL     OW19141   0.155   2.271   5.594
 6081SOL    HW119142   0.118   2.292   5.685
 6081SOL    HW219143   0.214   2.191   5.599
 6082SOL     OW19144   2.946   0.257   2.554
 6082SOL    HW119145   2.889   0.319   2.609
 6082SOL    HW219146   3.038   0.295   2.547
 6083SOL     OW19147   5.809   6.068   0.447
 6083SOL    HW119148   5.843   6.156   0.414
 6083SOL    HW219149   5.826   5.997   0.378
 6084SOL     OW19150   0.729   6.843   2.095
 6084SOL    HW119151   0.797   6.770   2.101
 6084SOL    HW219152   0.657   6.827   2.162
 6085SOL     OW19153   0.267   6.447   6.761
 6085SOL    HW119154   0.263   6.513   6.686
 6085SOL    HW219155   0.193   6.381   6.749
 6086SOL     OW19156   2.539   2.175   5.784
 6086SOL    HW119157   2.447   2.215   5.783
 6086SOL    HW219158   2.545   2.107   5.856
 6087SOL     OW19159   3.596   6.096   1.378
 6087SOL    HW119160   3.583   6.178   1.433
 6087SOL    HW219161   3.543   6.104   1.294
 6088SOL     OW19162   5.732   0.690   4.372
 6088SOL    HW119163   5.815   0.639   4.394
 6088SOL    HW219164   5.751   0.788   4.374
 6089SOL     OW19165   6.030   2.549   2.872
 6089SOL    HW119166   6.004   2.598   2.788
 6089SOL    HW219167   6.063   2.458   2.848
 6090SOL     OW19168   2.266   5.153   4.565
 6090SOL    HW119169   2.309   5.229   4.516
 6090SOL    HW219170   2.332   5.110   4.626
 6091SOL     OW19171   2.421   1.974   6.919
 6091SOL    HW119172   2.486   1.925   6.862
 6091SOL    HW219173   2.360   1.908   6.964
 6092SOL     OW19174   4.386   0.885   2.555
 6092SOL    HW119175   4.441   0.951   2.503
 6092SOL    HW219176   4.377   0.800   2.503
 6093SOL     OW19177   2.413   2.552   1.992
 6093SOL    HW119178   2.325   2.514   1.963
 6093SOL    HW219179   2.486   2.506   1.942
 6094SOL     OW19180   1.389   5.699   3.446
 6094SOL    HW119181   1.383   5.798   3.456
 6094SOL    HW219182   1.480   5.669   3.476
 6095SOL     OW19183   4.540   4.938   6.755
 6095SOL    HW119184   4.478   5.002   6.799
 6095SOL    HW219185   4.632   4.975   6.754
 6096SOL     OW19186   6.783   0.002   2.350
 6096SOL    HW119187   6.781   0.069   2.424
 6096SOL    HW219188   6.711   0.023   2.284
 6097SOL     OW19189   2.138   5.571   2.454
 6097SOL    HW119190   2.064   5.560   2.388
 6097SOL    HW219191   2.221   5.600   2.407
 6098SOL     OW19192   0.091   1.806   5.805
 6098SOL    HW119193   0.154   1.877   5.835
 6098SOL    HW219194   0.121   1.768   5.718
 6099SOL     OW19195   5.141   5.712   5.336
 6099SOL    HW119196   5.230   5.717   5.382
 6099SOL    HW219197   5.114   5.804   5.308
 6100SOL     OW19198   5.723   6.365   1.523
 6100SOL    HW119199   5.633   6.349   1.482
 6100SOL    HW219200   5.712   6.383   1.621
 6101SOL     OW19201   0.297   3.008   3.017
 6101SOL    HW119202   0.329   3.084   2.961
 6101SOL    HW219203   0.198   3.015   3.030
 6102SOL     OW19204   4.204   6.078   2.975
 6102SOL    HW119205   4.253   5.996   3.004
 6102SOL    HW219206   4.106   6.060   2.972
 6103SOL     OW19207   5.786   1.313   1.595
 6103SOL    HW119208   5.719   1.330   1.667
 6103SOL    HW219209   5.826   1.400   1.566
 6104SOL     OW19210   5.988   0.003   5.177
 6104SOL    HW119211   6.007   6.927   5.186
 6104SOL    HW219212   5.950   0.022   5.087
 6105SOL     OW19213   2.224   5.651   6.378
 6105SOL    HW119214   2.192   5.746   6.382
 6105SOL    HW219215   2.147   5.589   6.388
 6106SOL     OW19216   1.548   4.954   6.129
 6106SOL    HW119217   1.500   4.920   6.209
 6106SOL    HW219218   1.504   5.037   6.096
 6107SOL     OW19219   4.864   5.461   5.190
 6107SOL    HW119220   4.815   5.526   5.248
 6107SOL    HW219221   4.833   5.471   5.095
 6108SOL     OW19222   2.325   2.670   3.357
 6108SOL    HW119223   2.366   2.692   3.445
 6108SOL    HW219224   2.270   2.748   3.326
 6109SOL     OW19225   5.846   1.344   5.515
 6109SOL    HW119226   5.782   1.421   5.516
 6109SOL    HW219227   5.933   1.373   5.474
 6110SOL     OW19228   2.346   3.446   1.059
 6110SOL    HW119229   2.335   3.417   0.964
 6110SOL    HW219230   2.418   3.392   1.102
 6111SOL     OW19231   1.618   3.045   2.378
 6111SOL    HW119232   1.662   2.964   2.417
 6111SOL    HW219233   1.592   3.107   2.452
 6112SOL     OW19234   3.491   0.493   2.554
 6112SOL    HW119235   3.461   0.499   2.649
 6112SOL    HW219236   3.585   0.527   2.546
 6113SOL     OW19237   2.456   2.064   6.030
 6113SOL    HW119238   2.476   2.126   6.105
 6113SOL    HW219239   2.357   2.058   6.017
 6114SOL     OW19240   4.843   4.382   2.596
 6114SOL    HW119241   4.889   4.325   2.664
 6114SOL    HW219242   4.808   4.325   2.522
 6115SOL     OW19243   6.480   0.384   4.544
 6115SOL    HW119244   6.558   0.414   4.599
 6115SOL    HW219245   6.500   0.398   4.447
 6116SOL     OW19246   3.571   1.422   6.085
 6116SOL    HW119247   3.491   1.414   6.145
 6116SOL    HW219248   3.598   1.518   6.079
 6117SOL     OW19249   2.027   1.727   3.550
 6117SOL    HW119250   1.975   1.700   3.469
 6117SOL    HW219251   2.121   1.750   3.524
 6118SOL     OW19252   5.617   1.546   1.267
 6118SOL    HW119253   5.700   1.491   1.255
 6118SOL    HW219254   5.624   1.630   1.212
 6119SOL     OW19255   0.967   3.807   0.392
 6119SOL    HW119256   0.996   3.746   0.465
 6119SOL    HW219257   1.029   3.799   0.314
 6120SOL     OW19258   2.270   6.695   5.582
 6120SOL    HW119259   2.280   6.596   5.573
 6120SOL    HW219260   2.177   6.717   5.612
 6121SOL     OW19261   1.283   3.505   5.363
 6121SOL    HW119262   1.221   3.432   5.334
 6121SOL    HW219263   1.316   3.485   5.456
 6122SOL     OW19264   3.932   5.314   6.810
 6122SOL    HW119265   3.954   5.327   6.713
 6122SOL    HW219266   3.898   5.399   6.849
 6123SOL     OW19267   5.282   6.714   6.095
 6123SOL    HW119268   5.377   6.731   6.067
 6123SOL    HW219269   5.268   6.749   6.187
 6124SOL     OW19270   1.323   0.034   6.234
 6124SOL    HW119271   1.302   6.959   6.217
 6124SOL    HW219272   1.361   0.075   6.151
 6125SOL     OW19273   1.951   4.105   0.282
 6125SOL    HW119274   1.979   4.198   0.258
 6125SOL    HW219275   1.934   4.052   0.199
 6126SOL     OW19276   0.100   0.769   4.614
 6126SOL    HW119277   0.160   0.725   4.681
 6126SOL    HW219278   0.156   0.819   4.547
 6127SOL     OW19279   3.502   6.779   1.282
 6127SOL    HW119280   3.535   6.790   1.188
 6127SOL    HW219281   3.545   6.698   1.323
 6128SOL     OW19282   5.834   5.647   0.623
 6128SOL    HW119283   5.828   5.631   0.525
 6128SOL    HW219284   5.836   5.746   0.641
 6129SOL     OW19285   0.665   3.128   2.755
 6129SOL    HW119286   0.650   3.034   2.785
 6129SOL    HW219287   0.672   3.130   2.655
 6130SOL     OW19288   4.891   2.676   2.493
 6130SOL    HW119289   4.951   2.749   2.526
 6130SOL    HW219290   4.801   2.685   2.535
 6131SOL     OW19291   0.758   1.510   3.404
 6131SOL    HW119292   0.738   1.509   3.502
 6131SOL    HW219293   0.678   1.542   3.354
 6132SOL     OW19294   3.707   1.824   6.858
 6132SOL    HW119295   3.626   1.803   6.913
 6132SOL    HW219296   3.681   1.885   6.783
 6133SOL     OW19297   2.061   3.624   3.219
 6133SOL    HW119298   2.139   3.647   3.161
 6133SOL    HW219299   1.978   3.663   3.180
 6134SOL     OW19300   4.556   5.832   6.887
 6134SOL    HW119301   4.504   5.749   6.909
 6134SOL    HW219302   4.494   5.909   6.877
 6135SOL     OW19303   0.424   5.954   0.947
 6135SOL    HW119304   0.482   6.011   0.889
 6135SOL    HW219305   0.440   5.978   1.043
 6136SOL     OW19306   1.087   2.376   1.564
 6136SOL    HW119307   1.068   2.382   1.662
 6136SOL    HW219308   1.186   2.372   1.549
 6137SOL     OW19309   6.745   4.107   2.138
 6137SOL    HW119310   6.682   4.183   2.120
 6137SOL    HW219311   6.771   4.107   2.234
 6138SOL     OW19312   3.613   0.233   3.187
 6138SOL    HW119313   3.689   0.288   3.154
 6138SOL    HW219314   3.633   0.199   3.278
 6139SOL     OW19315   0.950   0.053   5.956
 6139SOL    HW119316   1.043   0.025   5.929
 6139SOL    HW219317   0.934   0.147   5.926
 6140SOL     OW19318   0.898   0.535   2.211
 6140SOL    HW119319   0.812   0.483   2.204
 6140SOL    HW219320   0.939   0.543   2.120
 6141SOL     OW19321   0.659   6.926   6.306
 6141SOL    HW119322   0.693   6.840   6.346
 6141SOL    HW219323   0.696   6.938   6.214
 6142SOL     OW19324   0.197   5.760   6.408
 6142SOL    HW119325   0.264   5.830   6.383
 6142SOL    HW219326   0.119   5.765   6.345
 6143SOL     OW19327   6.595   4.049   1.046
 6143SOL    HW119328   6.629   3.974   1.102
 6143SOL    HW219329   6.514   4.020   0.996
 6144SOL     OW19330   5.483   4.911   4.083
 6144SOL    HW119331   5.439   4.822   4.066
 6144SOL    HW219332   5.557   4.899   4.149
 6145SOL     OW19333   5.436   5.253   4.280
 6145SOL    HW119334   5.485   5.255   4.193
 6145SOL    HW219335   5.357   5.192   4.273
 6146SOL     OW19336   2.972   5.606   3.947
 6146SOL    HW119337   2.970   5.614   4.046
 6146SOL    HW219338   2.919   5.680   3.906
 6147SOL     OW19339   2.423   2.723   5.053
 6147SOL    HW119340   2.398   2.819   5.037
 6147SOL    HW219341   2.467   2.686   4.971
 6148SOL     OW19342   4.231   6.478   4.752
 6148SOL    HW119343   4.215   6.423   4.834
 6148SOL    HW219344   4.296   6.551   4.773
 6149SOL     OW19345   2.889   0.279   1.563
 6149SOL    HW119346   2.894   0.183   1.534
 6149SOL    HW219347   2.806   0.321   1.525
 6150SOL     OW19348   5.949   4.283   0.139
 6150SOL    HW119349   5.869   4.283   0.199
 6150SOL    HW219350   5.936   4.352   0.067
 6151SOL     OW19351   6.519   4.668   5.800
 6151SOL    HW119352   6.545   4.760   5.770
 6151SOL    HW219353   6.563   4.600   5.741
 6152SOL     OW19354   0.777   6.210   4.596
 6152SOL    HW119355   0.703   6.150   4.565
 6152SOL    HW219356   0.834   6.162   4.663
 6153SOL     OW19357   5.839   4.598   0.899
 6153SOL    HW119358   5.809   4.533   0.969
 6153SOL    HW219359   5.858   4.686   0.942
 6154SOL     OW19360   6.117   2.796   2.219
 6154SOL    HW119361   6.083   2.702   2.231
 6154SOL    HW219362   6.216   2.797   2.231
 6155SOL     OW19363   2.456   1.321   3.129
 6155SOL    HW119364   2.465   1.366   3.218
 6155SOL    HW219365   2.359   1.307   3.108
 6156SOL     OW19366   4.853   4.359   2.037
 6156SOL    HW119367   4.814   4.363   1.945
 6156SOL    HW219368   4.853   4.265   2.069
 6157SOL     OW19369   7.020   2.469   3.386
 6157SOL    HW119370   0.057   2.466   3.305
 6157SOL    HW219371   0.015   2.387   3.441
 6158SOL     OW19372   3.703   2.045   6.657
 6158SOL    HW119373   3.786   2.039   6.602
 6158SOL    HW219374   3.623   2.038   6.597
 6159SOL     OW19375   3.937   1.884   0.367
 6159SOL    HW119376   3.939   1.968   0.422
 6159SOL    HW219377   3.856   1.884   0.310
 6160SOL     OW19378   5.599   0.388   6.547
 6160SOL    HW119379   5.596   0.364   6.450
 6160SOL    HW219380   5.669   0.458   6.561
 6161SOL     OW19381   5.821   1.448   6.837
 6161SOL    HW119382   5.739   1.423   6.888
 6161SOL    HW219383   5.834   1.547   6.842
 6162SOL     OW19384   6.214   6.934   4.288
 6162SOL    HW119385   6.270   6.951   4.208
 6162SOL    HW219386   6.246   6.852   4.336
 6163SOL     OW19387   5.294   5.854   1.494
 6163SOL    HW119388   5.358   5.927   1.469
 6163SOL    HW219389   5.280   5.854   1.593
 6164SOL     OW19390   3.166   4.079   4.421
 6164SOL    HW119391   3.233   4.123   4.482
 6164SOL    HW219392   3.105   4.022   4.476
 6165SOL     OW19393   4.650   1.369   6.198
 6165SOL    HW119394   4.710   1.316   6.259
 6165SOL    HW219395   4.583   1.307   6.155
 6166SOL     OW19396   5.339   2.034   0.126
 6166SOL    HW119397   5.370   2.129   0.133
 6166SOL    HW219398   5.376   1.992   0.043
 6167SOL     OW19399   0.929   4.777   2.893
 6167SOL    HW119400   0.996   4.777   2.967
 6167SOL    HW219401   0.838   4.755   2.930
 6168SOL     OW19402   1.092   3.515   3.278
 6168SOL    HW119403   1.153   3.571   3.221
 6168SOL    HW219404   1.053   3.442   3.223
 6169SOL     OW19405   1.198   1.646   0.434
 6169SOL    HW119406   1.212   1.597   0.520
 6169SOL    HW219407   1.133   1.720   0.449
 6170SOL     OW19408   2.986   4.067   5.668
 6170SOL    HW119409   2.919   4.021   5.611
 6170SOL    HW219410   3.022   4.003   5.735
 6171SOL     OW19411   1.814   3.723   1.386
 6171SOL    HW119412   1.871   3.752   1.463
 6171SOL    HW219413   1.723   3.765   1.394
 6172SOL     OW19414   1.147   0.923   3.852
 6172SOL    HW119415   1.207   0.941   3.774
 6172SOL    HW219416   1.177   0.978   3.931
 6173SOL     OW19417   6.671   5.202   2.520
 6173SOL    HW119418   6.698   5.166   2.609
 6173SOL    HW219419   6.713   5.291   2.505
 6174SOL     OW19420   6.410   5.322   2.839
 6174SOL    HW119421   6.408   5.346   2.936
 6174SOL    HW219422   6.377   5.228   2.827
 6175SOL     OW19423   5.266   1.037   3.680
 6175SOL    HW119424   5.224   1.109   3.624
 6175SOL    HW219425   5.334   0.988   3.626
 6176SOL     OW19426   6.122   2.892   0.238
 6176SOL    HW119427   6.140   2.902   0.140
 6176SOL    HW219428   6.187   2.947   0.290
 6177SOL     OW19429   5.383   1.817   1.752
 6177SOL    HW119430   5.430   1.892   1.799
 6177SOL    HW219431   5.315   1.777   1.813
 6178SOL     OW19432   4.587   4.993   2.956
 6178SOL    HW119433   4.631   4.939   2.884
 6178SOL    HW219434   4.548   5.075   2.915
 6179SOL     OW19435   6.431   4.632   4.313
 6179SOL    HW119436   6.465   4.681   4.394
 6179SOL    HW219437   6.343   4.672   4.286
 6180SOL     OW19438   3.547   5.970   7.020
 6180SOL    HW119439   3.612   5.954   6.945
 6180SOL    HW219440   3.595   6.016   0.075
 6181SOL     OW19441   4.140   6.697   0.967
 6181SOL    HW119442   4.171   6.679   1.061
 6181SOL    HW219443   4.082   6.621   0.936
 6182SOL     OW19444   5.710   3.263   6.212
 6182SOL    HW119445   5.634   3.306   6.260
 6182SOL    HW219446   5.793   3.271   6.267
 6183SOL     OW19447   2.011   0.318   2.852
 6183SOL    HW119448   2.089   0.261   2.881
 6183SOL    HW219449   1.958   0.268   2.783
 6184SOL     OW19450   1.137   0.105   6.739
 6184SOL    HW119451   1.189   0.097   6.824
 6184SOL    HW219452   1.196   0.146   6.668
 6185SOL     OW19453   0.468   4.474   6.554
 6185SOL    HW119454   0.462   4.436   6.462
 6185SOL    HW219455   0.543   4.432   6.604
 6186SOL     OW19456   6.093   6.473   5.336
 6186SOL    HW119457   6.097   6.572   5.350
 6186SOL    HW219458   6.014   6.436   5.384
 6187SOL     OW19459   3.932   4.822   3.985
 6187SOL    HW119460   3.970   4.905   4.026
 6187SOL    HW219461   3.846   4.799   4.030
 6188SOL     OW19462   2.395   0.113   0.513
 6188SOL    HW119463   2.344   0.194   0.543
 6188SOL    HW219464   2.492   0.136   0.509
 6189SOL     OW19465   4.865   4.269   4.281
 6189SOL    HW119466   4.932   4.266   4.355
 6189SOL    HW219467   4.809   4.351   4.289
 6190SOL     OW19468   6.571   3.776   6.174
 6190SOL    HW119469   6.646   3.834   6.207
 6190SOL    HW219470   6.487   3.799   6.224
 6191SOL     OW19471   3.978   2.631   6.540
 6191SOL    HW119472   4.075   2.652   6.552
 6191SOL    HW219473   3.927   2.716   6.530
 6192SOL     OW19474   2.777   2.882   6.609
 6192SOL    HW119475   2.714   2.886   6.531
 6192SOL    HW219476   2.864   2.925   6.583
 6193SOL     OW19477   5.295   0.828   2.558
 6193SOL    HW119478   5.376   0.797   2.607
 6193SOL    HW219479   5.323   0.880   2.477
 6194SOL     OW19480   1.189   0.479   0.619
 6194SOL    HW119481   1.194   0.576   0.643
 6194SOL    HW219482   1.176   0.470   0.521
 6195SOL     OW19483   3.951   6.433   4.991
 6195SOL    HW119484   4.044   6.396   4.998
 6195SOL    HW219485   3.955   6.530   4.968
 6196SOL     OW19486   6.045   2.037   1.269
 6196SOL    HW119487   6.054   1.961   1.334
 6196SOL    HW219488   5.954   2.077   1.276
 6197SOL     OW19489   4.121   4.759   0.266
 6197SOL    HW119490   4.060   4.766   0.345
 6197SOL    HW219491   4.206   4.714   0.293
 6198SOL     OW19492   2.926   5.830   2.305
 6198SOL    HW119493   2.894   5.751   2.358
 6198SOL    HW219494   3.005   5.871   2.349
 6199SOL     OW19495   1.232   0.766   0.679
 6199SOL    HW119496   1.303   0.825   0.719
 6199SOL    HW219497   1.151   0.821   0.659
 6200SOL     OW19498   2.010   1.207   5.022
 6200SOL    HW119499   1.964   1.292   5.047
 6200SOL    HW219500   2.048   1.165   5.105
 6201SOL     OW19501   1.629   4.001   4.973
 6201SOL    HW119502   1.542   4.043   4.948
 6201SOL    HW219503   1.699   4.029   4.908
 6202SOL     OW19504   4.212   1.490   2.050
 6202SOL    HW119505   4.201   1.589   2.042
 6202SOL    HW219506   4.190   1.447   1.963
 6203SOL     OW19507   5.956   6.712   3.025
 6203SOL    HW119508   6.038   6.708   3.082
 6203SOL    HW219509   5.976   6.676   2.934
 6204SOL     OW19510   1.450   5.215   4.533
 6204SOL    HW119511   1.486   5.231   4.625
 6204SOL    HW219512   1.358   5.253   4.525
 6205SOL     OW19513   6.521   6.420   0.284
 6205SOL    HW119514   6.524   6.433   0.383
 6205SOL    HW219515   6.428   6.438   0.251
 6206SOL     OW19516   0.203   0.602   2.723
 6206SOL    HW119517   0.117   0.606   2.774
 6206SOL    HW219518   0.201   0.526   2.659
 6207SOL     OW19519   1.581   5.291   4.273
 6207SOL    HW119520   1.659   5.237   4.241
 6207SOL    HW219521   1.535   5.242   4.347
 6208SOL     OW19522   5.846   1.385   6.075
 6208SOL    HW119523   5.766   1.434   6.039
 6208SOL    HW219524   5.930   1.432   6.046
 6209SOL     OW19525   4.663   5.548   0.060
 6209SOL    HW119526   4.684   5.645   0.050
 6209SOL    HW219527   4.566   5.533   0.044
 6210SOL     OW19528   5.499   3.935   3.674
 6210SOL    HW119529   5.493   4.014   3.736
 6210SOL    HW219530   5.592   3.899   3.675
 6211SOL     OW19531   2.663   5.952   5.705
 6211SOL    HW119532   2.731   5.981   5.638
 6211SOL    HW219533   2.705   5.950   5.796
 6212SOL     OW19534   2.116   4.829   2.691
 6212SOL    HW119535   2.125   4.915   2.740
 6212SOL    HW219536   2.182   4.827   2.615
 6213SOL     OW19537   5.554   0.405   6.919
 6213SOL    HW119538   5.638   0.410   6.865
 6213SOL    HW219539   5.479   0.374   6.860
 6214SOL     OW19540   4.694   4.769   4.116
 6214SOL    HW119541   4.774   4.792   4.172
 6214SOL    HW219542   4.644   4.693   4.158
 6215SOL     OW19543   4.115   1.668   0.788
 6215SOL    HW119544   4.169   1.584   0.794
 6215SOL    HW219545   4.019   1.645   0.769
 6216SOL     OW19546   5.918   2.013   2.201
 6216SOL    HW119547   5.970   1.989   2.119
 6216SOL    HW219548   5.832   2.056   2.175
 6217SOL     OW19549   0.675   2.701   2.455
 6217SOL    HW119550   0.640   2.654   2.536
 6217SOL    HW219551   0.774   2.685   2.447
 6218SOL     OW19552   3.700   5.181   5.491
 6218SOL    HW119553   3.706   5.093   5.537
 6218SOL    HW219554   3.731   5.253   5.553
 6219SOL     OW19555   1.045   2.047   4.461
 6219SOL    HW119556   1.096   1.977   4.511
 6219SOL    HW219557   0.969   2.079   4.518
 6220SOL     OW19558   1.563   2.723   5.039
 6220SOL    HW119559   1.612   2.793   4.987
 6220SOL    HW219560   1.520   2.658   4.976
 6221SOL     OW19561   6.211   5.917   6.935
 6221SOL    HW119562   6.234   5.982   7.008
 6221SOL    HW219563   6.239   5.955   6.847
 6222SOL     OW19564   0.680   6.220   1.073
 6222SOL    HW119565   0.740   6.247   1.148
 6222SOL    HW219566   0.612   6.155   1.106
 6223SOL     OW19567   0.495   4.721   4.224
 6223SOL    HW119568   0.466   4.657   4.153
 6223SOL    HW219569   0.422   4.731   4.292
 6224SOL     OW19570   2.363   1.718   6.207
 6224SOL    HW119571   2.434   1.749   6.270
 6224SOL    HW219572   2.282   1.777   6.217
 6225SOL     OW19573   3.238   3.781   0.775
 6225SOL    HW119574   3.213   3.823   0.688
 6225SOL    HW219575   3.165   3.796   0.842
 6226SOL     OW19576   5.950   1.660   5.184
 6226SOL    HW119577   5.851   1.671   5.190
 6226SOL    HW219578   5.971   1.568   5.150
 6227SOL     OW19579   3.872   5.331   5.710
 6227SOL    HW119580   3.945   5.275   5.670
 6227SOL    HW219581   3.904   5.425   5.719
 6228SOL     OW19582   1.355   2.487   3.168
 6228SOL    HW119583   1.257   2.469   3.178
 6228SOL    HW219584   1.393   2.429   3.096
 6229SOL     OW19585   0.305   2.319   3.052
 6229SOL    HW119586   0.384   2.378   3.036
 6229SOL    HW219587   0.284   2.269   2.968
 6230SOL     OW19588   1.216   1.341   3.488
 6230SOL    HW119589   1.295   1.392   3.454
 6230SOL    HW219590   1.240   1.298   3.575
 6231SOL     OW19591   6.135   4.876   0.858
 6231SOL    HW119592   6.063   4.863   0.790
 6231SOL    HW219593   6.095   4.883   0.949
 6232SOL     OW19594   6.925   1.215   0.788
 6232SOL    HW119595   6.885   1.262   0.710
 6232SOL    HW219596   6.981   1.139   0.757
 6233SOL     OW19597   6.313   0.758   0.423
 6233SOL    HW119598   6.308   0.833   0.357
 6233SOL    HW219599   6.258   0.681   0.390
 6234SOL     OW19600   6.281   1.737   5.218
 6234SOL    HW119601   6.260   1.697   5.307
 6234SOL    HW219602   6.380   1.740   5.206
 6235SOL     OW19603   1.061   0.402   1.550
 6235SOL    HW119604   1.019   0.411   1.641
 6235SOL    HW219605   1.157   0.373   1.561
 6236SOL     OW19606   0.672   3.722   0.407
 6236SOL    HW119607   0.735   3.701   0.482
 6236SOL    HW219608   0.722   3.768   0.334
 6237SOL     OW19609   3.365   6.275   0.061
 6237SOL    HW119610   3.455   6.278   0.017
 6237SOL    HW219611   3.307   6.207   0.015
 6238SOL     OW19612   4.264   4.920   2.845
 6238SOL    HW119613   4.278   4.833   2.891
 6238SOL    HW219614   4.256   4.993   2.914
 6239SOL     OW19615   3.042   6.408   1.985
 6239SOL    HW119616   3.024   6.439   1.891
 6239SOL    HW219617   3.129   6.445   2.016
 6240SOL     OW19618   2.969   2.911   6.217
 6240SOL    HW119619   2.886   2.868   6.255
 6240SOL    HW219620   2.986   2.997   6.264
 6241SOL     OW19621   3.921   0.263   1.777
 6241SOL    HW119622   3.998   0.290   1.719
 6241SOL    HW219623   3.953   0.200   1.848
 6242SOL     OW19624   5.917   1.707   3.446
 6242SOL    HW119625   5.907   1.806   3.459
 6242SOL    HW219626   5.831   1.670   3.411
 6243SOL     OW19627   6.356   6.925   3.871
 6243SOL    HW119628   6.414   6.959   3.797
 6243SOL    HW219629   6.393   6.956   3.959
 6244SOL     OW19630   0.791   2.445   2.815
 6244SOL    HW119631   0.809   2.356   2.771
 6244SOL    HW219632   0.856   2.458   2.890
 6245SOL     OW19633   1.472   3.638   0.326
 6245SOL    HW119634   1.455   3.553   0.376
 6245SOL    HW219635   1.549   3.686   0.367
 6246SOL     OW19636   1.698   2.194   5.723
 6246SOL    HW119637   1.630   2.145   5.668
 6246SOL    HW219638   1.696   2.291   5.700
 6247SOL     OW19639   1.428   6.125   4.652
 6247SOL    HW119640   1.445   6.042   4.599
 6247SOL    HW219641   1.470   6.116   4.742
 6248SOL     OW19642   3.482   3.603   0.280
 6248SOL    HW119643   3.525   3.595   0.371
 6248SOL    HW219644   3.549   3.638   0.215
 6249SOL     OW19645   0.530   3.846   0.784
 6249SOL    HW119646   0.469   3.902   0.729
 6249SOL    HW219647   0.478   3.774   0.830
 6250SOL     OW19648   6.787   5.829   7.012
 6250SOL    HW119649   6.831   5.919   7.015
 6250SOL    HW219650   6.857   5.758   7.009
 6251SOL     OW19651   3.662   5.327   6.738
 6251SOL    HW119652   3.603   5.247   6.746
 6251SOL    HW219653   3.755   5.304   6.769
 6252SOL     OW19654   1.176   6.624   5.693
 6252SOL    HW119655   1.078   6.606   5.703
 6252SOL    HW219656   1.227   6.550   5.737
 6253SOL     OW19657   2.195   3.992   3.078
 6253SOL    HW119658   2.160   3.903   3.048
 6253SOL    HW219659   2.243   4.037   3.003
 6254SOL     OW19660   4.758   1.455   0.420
 6254SOL    HW119661   4.718   1.418   0.504
 6254SOL    HW219662   4.697   1.525   0.383
 6255SOL     OW19663   2.871   0.238   0.943
 6255SOL    HW119664   2.908   0.150   0.915
 6255SOL    HW219665   2.849   0.293   0.862
 6256SOL     OW19666   3.320   5.129   2.367
 6256SOL    HW119667   3.280   5.215   2.333
 6256SOL    HW219668   3.249   5.076   2.414
 6257SOL     OW19669   4.739   2.396   7.012
 6257SOL    HW119670   4.656   2.342   0.006
 6257SOL    HW219671   4.807   2.372   0.060
 6258SOL     OW19672   3.653   6.926   3.750
 6258SOL    HW119673   3.743   6.891   3.724
 6258SOL    HW219674   3.635   7.012   3.703
 6259SOL     OW19675   2.391   2.536   0.822
 6259SOL    HW119676   2.434   2.543   0.733
 6259SOL    HW219677   2.447   2.479   0.882
 6260SOL     OW19678   3.442   5.628   0.793
 6260SOL    HW119679   3.485   5.634   0.883
 6260SOL    HW219680   3.359   5.683   0.791
 6261SOL     OW19681   3.868   0.493   6.256
 6261SOL    HW119682   3.859   0.491   6.156
 6261SOL    HW219683   3.888   0.401   6.290
 6262SOL     OW19684   1.816   5.625   0.641
 6262SOL    HW119685   1.789   5.625   0.544
 6262SOL    HW219686   1.734   5.628   0.698
 6263SOL     OW19687   6.501   0.493   5.359
 6263SOL    HW119688   6.485   0.562   5.288
 6263SOL    HW219689   6.417   0.440   5.372
 6264SOL     OW19690   1.446   6.529   2.256
 6264SOL    HW119691   1.398   6.441   2.258
 6264SOL    HW219692   1.465   6.559   2.350
 6265SOL     OW19693   3.207   3.880   0.531
 6265SOL    HW119694   3.141   3.836   0.470
 6265SOL    HW219695   3.164   3.958   0.576
 6266SOL     OW19696   3.965   0.621   4.495
 6266SOL    HW119697   3.992   0.659   4.407
 6266SOL    HW219698   3.975   0.521   4.493
 6267SOL     OW19699   2.445   0.790   6.561
 6267SOL    HW119700   2.413   0.750   6.647
 6267SOL    HW219701   2.537   0.754   6.540
 6268SOL     OW19702   3.361   7.010   3.554
 6268SOL    HW119703   3.434   0.050   3.584
 6268SOL    HW219704   3.273   0.023   3.588
 6269SOL     OW19705   6.711   5.991   1.552
 6269SOL    HW119706   6.791   6.044   1.523
 6269SOL    HW219707   6.631   6.050   1.554
 6270SOL     OW19708   1.575   0.508   4.937
 6270SOL    HW119709   1.586   0.604   4.910
 6270SOL    HW219710   1.642   0.486   5.008
 6271SOL     OW19711   6.099   2.062   6.494
 6271SOL    HW119712   6.099   2.130   6.568
 6271SOL    HW219713   6.094   2.109   6.406
 6272SOL     OW19714   0.494   2.302   0.022
 6272SOL    HW119715   0.482   2.211   7.003
 6272SOL    HW219716   0.483   2.371   6.972
 6273SOL     OW19717   1.450   6.047   2.928
 6273SOL    HW119718   1.513   6.123   2.943
 6273SOL    HW219719   1.460   5.979   3.001
 6274SOL     OW19720   2.737   5.795   6.099
 6274SOL    HW119721   2.698   5.719   6.150
 6274SOL    HW219722   2.795   5.760   6.025
 6275SOL     OW19723   2.028   6.181   5.611
 6275SOL    HW119724   1.968   6.255   5.643
 6275SOL    HW219725   2.008   6.162   5.515
 6276SOL     OW19726   2.095   4.740   3.196
 6276SOL    HW119727   2.079   4.743   3.098
 6276SOL    HW219728   2.182   4.693   3.214
 6277SOL     OW19729   5.608   3.160   1.962
 6277SOL    HW119730   5.659   3.142   1.878
 6277SOL    HW219731   5.526   3.212   1.941
 6278SOL     OW19732   5.124   6.585   4.389
 6278SOL    HW119733   5.030   6.577   4.421
 6278SOL    HW219734   5.152   6.500   4.346
 6279SOL     OW19735   3.999   0.062   6.533
 6279SOL    HW119736   3.931   0.125   6.569
 6279SOL    HW219737   4.077   0.114   6.497
 6280SOL     OW19738   1.039   2.156   5.235
 6280SOL    HW119739   1.053   2.098   5.315
 6280SOL    HW219740   0.996   2.103   5.162
 6281SOL     OW19741   1.103   5.044   3.280
 6281SOL    HW119742   1.159   5.057   3.198
 6281SOL    HW219743   1.042   5.123   3.292
 6282SOL     OW19744   1.240   6.639   4.679
 6282SOL    HW119745   1.328   6.679   4.655
 6282SOL    HW219746   1.181   6.708   4.721
 6283SOL     OW19747   6.995   2.890   5.598
 6283SOL    HW119748   0.020   2.967   5.642
 6283SOL    HW219749   7.017   2.889   5.501
 6284SOL     OW19750   1.960   5.890   4.824
 6284SOL    HW119751   1.926   5.844   4.906
 6284SOL    HW219752   2.029   5.833   4.780
 6285SOL     OW19753   0.364   3.257   4.638
 6285SOL    HW119754   0.430   3.301   4.577
 6285SOL    HW219755   0.318   3.183   4.589
 6286SOL     OW19756   6.227   2.258   3.160
 6286SOL    HW119757   6.239   2.168   3.202
 6286SOL    HW219758   6.143   2.300   3.195
 6287SOL     OW19759   3.546   5.334   4.074
 6287SOL    HW119760   3.456   5.367   4.044
 6287SOL    HW219761   3.611   5.409   4.073
 6288SOL     OW19762   4.769   4.926   2.377
 6288SOL    HW119763   4.709   4.929   2.456
 6288SOL    HW219764   4.720   4.887   2.299
 6289SOL     OW19765   1.796   4.795   2.093
 6289SOL    HW119766   1.799   4.798   1.994
 6289SOL    HW219767   1.713   4.842   2.125
 6290SOL     OW19768   6.636   4.187   4.704
 6290SOL    HW119769   6.618   4.277   4.665
 6290SOL    HW219770   6.556   4.128   4.691
 6291SOL     OW19771   3.629   2.933   4.886
 6291SOL    HW119772   3.721   2.901   4.867
 6291SOL    HW219773   3.579   2.944   4.800
 6292SOL     OW19774   1.864   2.638   4.126
 6292SOL    HW119775   1.841   2.555   4.178
 6292SOL    HW219776   1.806   2.644   4.045
 6293SOL     OW19777   3.809   0.613   6.990
 6293SOL    HW119778   3.762   0.580   6.908
 6293SOL    HW219779   3.745   0.615   0.046
 6294SOL     OW19780   4.043   4.887   4.682
 6294SOL    HW119781   4.064   4.790   4.698
 6294SOL    HW219782   4.049   4.937   4.768
 6295SOL     OW19783   5.715   4.754   5.682
 6295SOL    HW119784   5.665   4.670   5.706
 6295SOL    HW219785   5.796   4.762   5.741
 6296SOL     OW19786   0.313   6.944   6.072
 6296SOL    HW119787   0.267   6.884   6.137
 6296SOL    HW219788   0.371   7.009   6.121
 6297SOL     OW19789   4.875   6.532   4.420
 6297SOL    HW119790   4.795   6.500   4.368
 6297SOL    HW219791   4.844   6.571   4.507
 6298SOL     OW19792   1.320   2.838   6.614
 6298SOL    HW119793   1.343   2.914   6.674
 6298SOL    HW219794   1.337   2.864   6.519
 6299SOL     OW19795   5.224   1.436   6.924
 6299SOL    HW119796   5.262   1.426   7.016
 6299SOL    HW219797   5.160   1.361   6.907
 6300SOL     OW19798   5.924   0.161   0.475
 6300SOL    HW119799   5.930   0.240   0.537
 6300SOL    HW219800   5.836   0.162   0.427
 6301SOL     OW19801   4.077   0.718   0.287
 6301SOL    HW119802   3.980   0.697   0.288
 6301SOL    HW219803   4.092   0.809   0.247
 6302SOL     OW19804   2.042   0.148   3.540
 6302SOL    HW119805   2.025   0.224   3.603
 6302SOL    HW219806   2.138   0.152   3.510
 6303SOL     OW19807   1.699   1.624   4.245
 6303SOL    HW119808   1.695   1.608   4.344
 6303SOL    HW219809   1.681   1.721   4.226
 6304SOL     OW19810   2.301   1.500   0.977
 6304SOL    HW119811   2.355   1.491   0.892
 6304SOL    HW219812   2.348   1.453   1.051
 6305SOL     OW19813   5.587   6.929   1.476
 6305SOL    HW119814   5.540   7.017   1.477
 6305SOL    HW219815   5.523   6.857   1.450
 6306SOL     OW19816   0.519   3.960   4.368
 6306SOL    HW119817   0.580   4.011   4.308
 6306SOL    HW219818   0.521   3.863   4.342
 6307SOL     OW19819   3.966   4.357   5.658
 6307SOL    HW119820   3.911   4.439   5.674
 6307SOL    HW219821   3.965   4.299   5.739
 6308SOL     OW19822   2.132   2.358   4.631
 6308SOL    HW119823   2.044   2.406   4.622
 6308SOL    HW219824   2.158   2.321   4.542
 6309SOL     OW19825   5.418   4.619   5.289
 6309SOL    HW119826   5.355   4.541   5.283
 6309SOL    HW219827   5.489   4.610   5.220
 6310SOL     OW19828   1.938   5.844   3.244
 6310SOL    HW119829   1.968   5.779   3.313
 6310SOL    HW219830   2.014   5.903   3.217
 6311SOL     OW19831   4.742   0.606   6.199
 6311SOL    HW119832   4.706   0.614   6.106
 6311SOL    HW219833   4.740   0.695   6.244
 6312SOL     OW19834   5.797   5.238   5.312
 6312SOL    HW119835   5.776   5.197   5.401
 6312SOL    HW219836   5.713   5.244   5.258
 6313SOL     OW19837   1.355   6.810   4.255
 6313SOL    HW119838   1.264   6.849   4.270
 6313SOL    HW219839   1.354   6.712   4.276
 6314SOL     OW19840   3.921   6.439   1.810
 6314SOL    HW119841   3.943   6.526   1.765
 6314SOL    HW219842   3.821   6.428   1.813
 6315SOL     OW19843   2.041   2.780   5.807
 6315SOL    HW119844   2.078   2.859   5.855
 6315SOL    HW219845   1.946   2.797   5.782
 6316SOL     OW19846   4.850   1.502   6.724
 6316SOL    HW119847   4.753   1.484   6.706
 6316SOL    HW219848   4.870   1.481   6.820
 6317SOL     OW19849   4.592   5.971   2.882
 6317SOL    HW119850   4.560   6.062   2.857
 6317SOL    HW219851   4.648   5.933   2.808
 6318SOL     OW19852   3.686   1.617   4.654
 6318SOL    HW119853   3.589   1.638   4.667
 6318SOL    HW219854   3.733   1.623   4.742
 6319SOL     OW19855   6.882   1.686   4.069
 6319SOL    HW119856   6.833   1.639   3.995
 6319SOL    HW219857   6.906   1.778   4.040
 6320SOL     OW19858   6.055   5.983   5.002
 6320SOL    HW119859   6.152   5.960   5.004
 6320SOL    HW219860   6.040   6.060   4.939
 6321SOL     OW19861   3.521   3.548   0.898
 6321SOL    HW119862   3.444   3.572   0.958
 6321SOL    HW219863   3.541   3.626   0.838
 6322SOL     OW19864   1.501   2.298   0.383
 6322SOL    HW119865   1.581   2.271   0.329
 6322SOL    HW219866   1.421   2.301   0.324
 6323SOL     OW19867   3.487   2.219   1.402
 6323SOL    HW119868   3.544   2.278   1.345
 6323SOL    HW219869   3.546   2.158   1.456
 6324SOL     OW19870   5.179   0.165   6.557
 6324SOL    HW119871   5.148   0.259   6.544
 6324SOL    HW219872   5.279   0.163   6.553
 6325SOL     OW19873   2.455   2.014   2.444
 6325SOL    HW119874   2.503   2.096   2.413
 6325SOL    HW219875   2.477   1.938   2.382
 6326SOL     OW19876   4.517   5.057   1.804
 6326SOL    HW119877   4.489   5.052   1.900
 6326SOL    HW219878   4.591   4.992   1.788
 6327SOL     OW19879   6.963   0.059   4.838
 6327SOL    HW119880   6.895   0.015   4.779
 6327SOL    HW219881   0.032   0.054   4.795
 6328SOL     OW19882   3.047   3.271   0.778
 6328SOL    HW119883   3.027   3.364   0.808
 6328SOL    HW219884   3.138   3.244   0.810
 6329SOL     OW19885   2.557   2.216   3.533
 6329SOL    HW119886   2.568   2.238   3.630
 6329SOL    HW219887   2.509   2.290   3.487
 6330SOL     OW19888   4.396   1.047   1.286
 6330SOL    HW119889   4.398   0.976   1.356
 6330SOL    HW219890   4.319   1.109   1.305
 6331SOL     OW19891   6.455   1.954   6.532
 6331SOL    HW119892   6.546   1.913   6.537
 6331SOL    HW219893   6.412   1.929   6.445
 6332SOL     OW19894   5.793   3.517   1.787
 6332SOL    HW119895   5.847   3.438   1.818
 6332SOL    HW219896   5.738   3.552   1.862
 6333SOL     OW19897   4.677   5.674   5.282
 6333SOL    HW119898   4.635   5.741   5.222
 6333SOL    HW219899   4.719   5.720   5.360
 6334SOL     OW19900   3.185   0.555   1.555
 6334SOL    HW119901   3.091   0.587   1.564
 6334SOL    HW219902   3.216   0.568   1.461
 6335SOL     OW19903   4.390   0.865   0.229
 6335SOL    HW119904   4.300   0.900   0.202
 6335SOL    HW219905   4.429   0.812   0.154
 6336SOL     OW19906   1.003   1.902   5.740
 6336SOL    HW119907   0.974   1.942   5.827
 6336SOL    HW219908   1.032   1.808   5.755
 6337SOL     OW19909   4.604   3.940   6.403
 6337SOL    HW119910   4.600   3.876   6.480
 6337SOL    HW219911   4.698   3.946   6.370
 6338SOL     OW19912   3.599   1.908   3.949
 6338SOL    HW119913   3.698   1.895   3.956
 6338SOL    HW219914   3.553   1.821   3.965
 6339SOL     OW19915   1.491   3.840   2.797
 6339SOL    HW119916   1.457   3.933   2.786
 6339SOL    HW219917   1.452   3.800   2.880
 6340SOL     OW19918   1.900   5.196   2.828
 6340SOL    HW119919   1.866   5.271   2.773
 6340SOL    HW219920   1.823   5.149   2.872
 6341SOL     OW19921   0.822   4.391   4.574
 6341SOL    HW119922   0.868   4.313   4.618
 6341SOL    HW219923   0.889   4.464   4.557
 6342SOL     OW19924   2.233   1.365   2.292
 6342SOL    HW119925   2.324   1.326   2.298
 6342SOL    HW219926   2.227   1.422   2.209
 6343SOL     OW19927   4.492   1.943   6.081
 6343SOL    HW119928   4.440   1.872   6.129
 6343SOL    HW219929   4.584   1.948   6.119
 6344SOL     OW19930   5.909   3.254   5.371
 6344SOL    HW119931   5.887   3.308   5.289
 6344SOL    HW219932   6.003   3.273   5.399
 6345SOL     OW19933   5.192   2.637   2.319
 6345SOL    HW119934   5.157   2.648   2.413
 6345SOL    HW219935   5.122   2.592   2.263
 6346SOL     OW19936   6.619   4.685   3.512
 6346SOL    HW119937   6.662   4.769   3.545
 6346SOL    HW219938   6.583   4.700   3.420
 6347SOL     OW19939   2.410   0.294   0.914
 6347SOL    HW119940   2.391   0.197   0.928
 6347SOL    HW219941   2.433   0.309   0.818
 6348SOL     OW19942   1.135   4.100   5.263
 6348SOL    HW119943   1.156   4.097   5.165
 6348SOL    HW219944   1.038   4.080   5.276
 6349SOL     OW19945   3.059   0.352   1.317
 6349SOL    HW119946   3.052   0.330   1.414
 6349SOL    HW219947   3.073   0.269   1.264
 6350SOL     OW19948   2.147   4.976   4.225
 6350SOL    HW119949   2.082   4.900   4.225
 6350SOL    HW219950   2.151   5.015   4.317
 6351SOL     OW19951   6.452   3.393   3.400
 6351SOL    HW119952   6.477   3.350   3.487
 6351SOL    HW219953   6.511   3.472   3.383
 6352SOL     OW19954   3.712   5.521   4.659
 6352SOL    HW119955   3.631   5.466   4.642
 6352SOL    HW219956   3.736   5.518   4.756
 6353SOL     OW19957   0.110   0.491   5.706
 6353SOL    HW119958   0.018   0.452   5.695
 6353SOL    HW219959   0.115   0.542   5.792
 6354SOL     OW19960   1.675   5.645   3.453
 6354SOL    HW119961   1.711   5.715   3.515
 6354SOL    HW219962   1.693   5.554   3.491
 6355SOL     OW19963   0.709   5.506   6.535
 6355SOL    HW119964   0.784   5.444   6.557
 6355SOL    HW219965   0.632   5.489   6.596
 6356SOL     OW19966   4.167   5.299   2.481
 6356SOL    HW119967   4.114   5.298   2.396
 6356SOL    HW219968   4.259   5.334   2.462
 6357SOL     OW19969   5.073   3.586   2.512
 6357SOL    HW119970   5.033   3.496   2.529
 6357SOL    HW219971   5.029   3.628   2.433
 6358SOL     OW19972   0.731   2.018   6.348
 6358SOL    HW119973   0.818   2.033   6.395
 6358SOL    HW219974   0.688   2.106   6.328
 6359SOL     OW19975   6.296   6.648   6.164
 6359SOL    HW119976   6.358   6.585   6.118
 6359SOL    HW219977   6.348   6.710   6.222
 6360SOL     OW19978   1.290   4.215   4.045
 6360SOL    HW119979   1.254   4.255   4.129
 6360SOL    HW219980   1.390   4.214   4.049
 6361SOL     OW19981   6.225   6.798   0.667
 6361SOL    HW119982   6.245   6.805   0.765
 6361SOL    HW219983   6.169   6.875   0.638
 6362SOL     OW19984   0.877   6.132   0.888
 6362SOL    HW119985   0.820   6.167   0.962
 6362SOL    HW219986   0.971   6.166   0.900
 6363SOL     OW19987   2.265   4.693   3.613
 6363SOL    HW119988   2.219   4.735   3.535
 6363SOL    HW219989   2.362   4.715   3.611
 6364SOL     OW19990   3.109   1.213   5.789
 6364SOL    HW119991   3.193   1.227   5.737
 6364SOL    HW219992   3.098   1.116   5.810
 6365SOL     OW19993   5.769   0.605   4.012
 6365SOL    HW119994   5.724   0.597   3.923
 6365SOL    HW219995   5.701   0.620   4.083
 6366SOL     OW19996   1.120   6.250   6.179
 6366SOL    HW119997   1.101   6.219   6.086
 6366SOL    HW219998   1.054   6.209   6.242
 6367SOL     OW19999   4.091   0.312   4.991
 6367SOL    HW120000   4.086   0.315   4.891
 6367SOL    HW220001   4.094   0.406   5.027
 6368SOL     OW20002   3.431   5.022   3.777
 6368SOL    HW120003   3.363   4.984   3.840
 6368SOL    HW220004   3.522   4.989   3.804
 6369SOL     OW20005   1.679   4.827   3.691
 6369SOL    HW120006   1.713   4.899   3.752
 6369SOL    HW220007   1.666   4.743   3.743
 6370SOL     OW20008   0.346   3.208   2.759
 6370SOL    HW120009   0.437   3.196   2.718
 6370SOL    HW220010   0.277   3.169   2.698
 6371SOL     OW20011   5.127   3.999   4.088
 6371SOL    HW120012   5.047   3.940   4.097
 6371SOL    HW220013   5.131   4.035   3.995
 6372SOL     OW20014   2.388   0.610   1.900
 6372SOL    HW120015   2.361   0.529   1.950
 6372SOL    HW220016   2.367   0.598   1.803
 6373SOL     OW20017   5.099   4.383   3.157
 6373SOL    HW120018   5.013   4.403   3.110
 6373SOL    HW220019   5.116   4.284   3.154
 6374SOL     OW20020   2.969   3.916   4.575
 6374SOL    HW120021   2.871   3.921   4.554
 6374SOL    HW220022   2.982   3.856   4.655
 6375SOL     OW20023   6.581   1.709   3.748
 6375SOL    HW120024   6.648   1.736   3.679
 6375SOL    HW220025   6.513   1.648   3.707
 6376SOL     OW20026   5.912   2.691   5.137
 6376SOL    HW120027   5.842   2.703   5.207
 6376SOL    HW220028   5.872   2.647   5.056
 6377SOL     OW20029   6.095   1.859   5.054
 6377SOL    HW120030   6.183   1.817   5.079
 6377SOL    HW220031   6.020   1.805   5.093
 6378SOL     OW20032   4.891   5.572   3.870
 6378SOL    HW120033   4.929   5.578   3.777
 6378SOL    HW220034   4.900   5.479   3.904
 6379SOL     OW20035   1.873   4.158   4.437
 6379SOL    HW120036   1.917   4.166   4.348
 6379SOL    HW220037   1.874   4.247   4.483
 6380SOL     OW20038   0.651   1.802   6.198
 6380SOL    HW120039   0.682   1.889   6.236
 6380SOL    HW220040   0.693   1.727   6.249
 6381SOL     OW20041   3.818   3.038   1.850
 6381SOL    HW120042   3.798   3.035   1.752
 6381SOL    HW220043   3.915   3.057   1.864
 6382SOL     OW20044   1.315   1.774   0.781
 6382SOL    HW120045   1.391   1.786   0.716
 6382SOL    HW220046   1.282   1.680   0.775
 6383SOL     OW20047   1.439   1.845   3.215
 6383SOL    HW120048   1.369   1.808   3.153
 6383SOL    HW220049   1.495   1.770   3.250
 6384SOL     OW20050   5.587   3.897   1.263
 6384SOL    HW120051   5.606   3.801   1.285
 6384SOL    HW220052   5.673   3.947   1.253
 6385SOL     OW20053   6.718   4.937   3.605
 6385SOL    HW120054   6.804   4.933   3.553
 6385SOL    HW220055   6.738   4.958   3.700
 6386SOL     OW20056   2.599   4.205   6.459
 6386SOL    HW120057   2.628   4.199   6.554
 6386SOL    HW220058   2.602   4.300   6.429
 6387SOL     OW20059   0.594   1.875   6.531
 6387SOL    HW120060   0.638   1.930   6.461
 6387SOL    HW220061   0.495   1.871   6.513
 6388SOL     OW20062   4.449   4.724   1.024
 6388SOL    HW120063   4.488   4.787   1.091
 6388SOL    HW220064   4.352   4.742   1.013
 6389SOL     OW20065   0.942   5.807   2.367
 6389SOL    HW120066   1.036   5.793   2.338
 6389SOL    HW220067   0.885   5.733   2.333
 6390SOL     OW20068   0.685   2.035   5.293
 6390SOL    HW120069   0.626   2.104   5.250
 6390SOL    HW220070   0.729   1.981   5.222
 6391SOL     OW20071   2.489   6.906   5.981
 6391SOL    HW120072   2.457   6.825   5.931
 6391SOL    HW220073   2.464   6.897   6.077
 6392SOL     OW20074   2.135   0.043   3.112
 6392SOL    HW120075   2.074   0.112   3.151
 6392SOL    HW220076   2.179   7.013   3.186
 6393SOL     OW20077   6.542   6.915   1.546
 6393SOL    HW120078   6.568   6.822   1.518
 6393SOL    HW220079   6.625   6.966   1.570
 6394SOL     OW20080   2.266   4.615   0.682
 6394SOL    HW120081   2.283   4.520   0.659
 6394SOL    HW220082   2.206   4.656   0.614
 6395SOL     OW20083   6.463   2.543   1.397
 6395SOL    HW120084   6.536   2.599   1.359
 6395SOL    HW220085   6.378   2.560   1.348
 6396SOL     OW20086   5.240   3.074   6.324
 6396SOL    HW120087   5.173   3.112   6.388
 6396SOL    HW220088   5.301   3.012   6.373
 6397SOL     OW20089   5.308   2.165   6.677
 6397SOL    HW120090   5.279   2.203   6.765
 6397SOL    HW220091   5.230   2.121   6.633
 6398SOL     OW20092   3.217   0.513   0.526
 6398SOL    HW120093   3.266   0.500   0.613
 6398SOL    HW220094   3.153   0.589   0.535
 6399SOL     OW20095   1.330   5.794   0.012
 6399SOL    HW120096   1.391   5.752   6.966
 6399SOL    HW220097   1.299   5.724   0.077
 6400SOL     OW20098   2.118   6.522   2.300
 6400SOL    HW120099   2.032   6.496   2.258
 6400SOL    HW220100   2.171   6.578   2.237
 6401SOL     OW20101   0.299   4.680   3.486
 6401SOL    HW120102   0.268   4.593   3.523
 6401SOL    HW220103   0.396   4.693   3.507
 6402SOL     OW20104   4.002   1.468   2.473
 6402SOL    HW120105   4.089   1.517   2.475
 6402SOL    HW220106   3.969   1.456   2.567
 6403SOL     OW20107   6.859   6.339   6.298
 6403SOL    HW120108   6.936   6.372   6.242
 6403SOL    HW220109   6.873   6.242   6.320
 6404SOL     OW20110   4.218   1.344   2.315
 6404SOL    HW120111   4.211   1.397   2.230
 6404SOL    HW220112   4.200   1.247   2.295
 6405SOL     OW20113   2.646   0.303   3.793
 6405SOL    HW120114   2.659   0.327   3.697
 6405SOL    HW220115   2.716   0.348   3.849
 6406SOL     OW20116   1.108   2.420   3.311
 6406SOL    HW120117   1.059   2.504   3.290
 6406SOL    HW220118   1.066   2.376   3.390
 6407SOL     OW20119   2.643   6.296   4.351
 6407SOL    HW120120   2.584   6.313   4.272
 6407SOL    HW220121   2.590   6.309   4.435
 6408SOL     OW20122   5.691   1.784   0.281
 6408SOL    HW120123   5.656   1.856   0.341
 6408SOL    HW220124   5.768   1.738   0.326
 6409SOL     OW20125   0.142   4.035   3.121
 6409SOL    HW120126   0.112   4.048   3.215
 6409SOL    HW220127   0.181   3.943   3.111
 6410SOL     OW20128   1.854   1.632   0.211
 6410SOL    HW120129   1.784   1.702   0.196
 6410SOL    HW220130   1.884   1.595   0.124
 6411SOL     OW20131   0.652   2.864   3.183
 6411SOL    HW120132   0.649   2.852   3.282
 6411SOL    HW220133   0.560   2.855   3.146
 6412SOL     OW20134   0.379   2.023   5.184
 6412SOL    HW120135   0.375   1.964   5.265
 6412SOL    HW220136   0.394   2.118   5.213
 6413SOL     OW20137   4.258   4.672   3.669
 6413SOL    HW120138   4.258   4.654   3.768
 6413SOL    HW220139   4.336   4.625   3.627
 6414SOL     OW20140   5.695   1.208   0.892
 6414SOL    HW120141   5.612   1.188   0.839
 6414SOL    HW220142   5.700   1.144   0.969
 6415SOL     OW20143   1.738   2.678   3.275
 6415SOL    HW120144   1.651   2.708   3.238
 6415SOL    HW220145   1.723   2.636   3.365
 6416SOL     OW20146   1.038   1.416   6.634
 6416SOL    HW120147   0.975   1.360   6.580
 6416SOL    HW220148   1.123   1.430   6.582
 6417SOL     OW20149   0.083   4.785   2.269
 6417SOL    HW120150   0.130   4.747   2.190
 6417SOL    HW220151   0.012   4.849   2.238
 6418SOL     OW20152   5.022   4.570   1.962
 6418SOL    HW120153   4.954   4.511   2.007
 6418SOL    HW220154   5.113   4.530   1.974
 6419SOL     OW20155   2.507   4.531   2.689
 6419SOL    HW120156   2.548   4.572   2.607
 6419SOL    HW220157   2.431   4.587   2.721
 6420SOL     OW20158   3.052   3.952   5.414
 6420SOL    HW120159   3.065   3.971   5.511
 6420SOL    HW220160   2.958   3.976   5.388
 6421SOL     OW20161   5.588   1.045   2.585
 6421SOL    HW120162   5.682   1.073   2.569
 6421SOL    HW220163   5.531   1.126   2.604
 6422SOL     OW20164   0.408   0.283   3.300
 6422SOL    HW120165   0.495   0.260   3.256
 6422SOL    HW220166   0.341   0.212   3.281
 6423SOL     OW20167   4.866   5.413   2.561
 6423SOL    HW120168   4.957   5.380   2.535
 6423SOL    HW220169   4.812   5.338   2.598
 6424SOL     OW20170   6.870   5.988   5.999
 6424SOL    HW120171   6.875   5.952   6.092
 6424SOL    HW220172   6.865   5.912   5.934
 6425SOL     OW20173   6.191   5.536   3.107
 6425SOL    HW120174   6.264   5.581   3.055
 6425SOL    HW220175   6.187   5.575   3.199
 6426SOL     OW20176   1.022   4.703   2.646
 6426SOL    HW120177   0.993   4.713   2.741
 6426SOL    HW220178   0.968   4.631   2.602
 6427SOL     OW20179   2.962   2.762   5.995
 6427SOL    HW120180   2.877   2.776   5.944
 6427SOL    HW220181   2.967   2.826   6.071
 6428SOL     OW20182   6.153   3.000   6.758
 6428SOL    HW120183   6.083   3.062   6.721
 6428SOL    HW220184   6.112   2.941   6.827
 6429SOL     OW20185   1.669   1.664   5.735
 6429SOL    HW120186   1.644   1.743   5.678
 6429SOL    HW220187   1.603   1.656   5.810
 6430SOL     OW20188   5.683   0.888   1.906
 6430SOL    HW120189   5.702   0.975   1.950
 6430SOL    HW220190   5.667   0.902   1.808
 6431SOL     OW20191   5.153   6.453   3.690
 6431SOL    HW120192   5.172   6.442   3.788
 6431SOL    HW220193   5.055   6.466   3.676
 6432SOL     OW20194   3.666   3.773   6.523
 6432SOL    HW120195   3.665   3.857   6.576
 6432SOL    HW220196   3.761   3.748   6.503
 6433SOL     OW20197   3.093   4.660   0.731
 6433SOL    HW120198   3.099   4.609   0.816
 6433SOL    HW220199   3.012   4.629   0.680
 6434SOL     OW20200   1.306   3.657   0.082
 6434SOL    HW120201   1.317   3.557   0.086
 6434SOL    HW220202   1.389   3.701   0.116
 6435SOL     OW20203   4.407   6.052   6.886
 6435SOL    HW120204   4.475   6.116   6.920
 6435SOL    HW220205   4.360   6.091   6.806
 6436SOL     OW20206   2.168   3.763   3.433
 6436SOL    HW120207   2.107   3.726   3.363
 6436SOL    HW220208   2.254   3.789   3.390
 6437SOL     OW20209   2.342   1.101   0.775
 6437SOL    HW120210   2.354   1.003   0.764
 6437SOL    HW220211   2.430   1.147   0.764
 6438SOL     OW20212   0.323   4.191   6.552
 6438SOL    HW120213   0.281   4.158   6.637
 6438SOL    HW220214   0.361   4.114   6.502
 6439SOL     OW20215   5.587   1.101   1.578
 6439SOL    HW120216   5.503   1.070   1.534
 6439SOL    HW220217   5.576   1.196   1.607
 6440SOL     OW20218   2.300   1.631   0.297
 6440SOL    HW120219   2.327   1.562   0.229
 6440SOL    HW220220   2.370   1.702   0.301
 6441SOL     OW20221   1.012   5.997   2.190
 6441SOL    HW120222   0.952   5.939   2.245
 6441SOL    HW220223   0.974   6.006   2.098
 6442SOL     OW20224   2.729   0.823   4.300
 6442SOL    HW120225   2.710   0.808   4.397
 6442SOL    HW220226   2.670   0.896   4.265
 6443SOL     OW20227   3.934   2.291   5.880
 6443SOL    HW120228   4.006   2.299   5.810
 6443SOL    HW220229   3.873   2.370   5.874
 6444SOL     OW20230   6.719   2.656   3.958
 6444SOL    HW120231   6.775   2.688   4.034
 6444SOL    HW220232   6.652   2.590   3.992
 6445SOL     OW20233   4.831   3.223   5.443
 6445SOL    HW120234   4.775   3.261   5.516
 6445SOL    HW220235   4.773   3.188   5.370
 6446SOL     OW20236   1.358   0.901   6.032
 6446SOL    HW120237   1.427   0.911   5.960
 6446SOL    HW220238   1.276   0.954   6.008
 6447SOL     OW20239   0.305   4.972   2.530
 6447SOL    HW120240   0.349   5.062   2.530
 6447SOL    HW220241   0.240   4.967   2.605
 6448SOL     OW20242   4.697   5.563   2.739
 6448SOL    HW120243   4.739   5.626   2.805
 6448SOL    HW220244   4.768   5.525   2.680
 6449SOL     OW20245   3.105   4.937   0.748
 6449SOL    HW120246   3.065   4.966   0.835
 6449SOL    HW220247   3.111   4.837   0.745
 6450SOL     OW20248   0.339   3.581   1.333
 6450SOL    HW120249   0.421   3.633   1.309
 6450SOL    HW220250   0.358   3.522   1.412
 6451SOL     OW20251   2.374   0.120   5.078
 6451SOL    HW120252   2.461   0.085   5.042
 6451SOL    HW220253   2.318   0.154   5.002
 6452SOL     OW20254   3.302   6.883   4.494
 6452SOL    HW120255   3.325   6.794   4.533
 6452SOL    HW220256   3.290   6.950   4.567
 6453SOL     OW20257   2.142   6.588   0.984
 6453SOL    HW120258   2.171   6.497   0.955
 6453SOL    HW220259   2.158   6.653   0.911
 6454SOL     OW20260   2.433   1.801   3.484
 6454SOL    HW120261   2.413   1.857   3.565
 6454SOL    HW220262   2.532   1.788   3.477
 6455SOL     OW20263   0.267   2.089   4.138
 6455SOL    HW120264   0.300   2.184   4.138
 6455SOL    HW220265   0.309   2.039   4.213
 6456SOL     OW20266   1.823   0.481   3.296
 6456SOL    HW120267   1.847   0.436   3.382
 6456SOL    HW220268   1.850   0.423   3.219
 6457SOL     OW20269   4.645   1.911   0.484
 6457SOL    HW120270   4.729   1.948   0.446
 6457SOL    HW220271   4.646   1.921   0.584
 6458SOL     OW20272   0.919   0.260   3.750
 6458SOL    HW120273   1.007   0.303   3.770
 6458SOL    HW220274   0.934   0.165   3.721
 6459SOL     OW20275   5.679   5.280   0.464
 6459SOL    HW120276   5.621   5.358   0.488
 6459SOL    HW220277   5.653   5.201   0.520
 6460SOL     OW20278   4.710   5.414   5.862
 6460SOL    HW120279   4.674   5.502   5.831
 6460SOL    HW220280   4.802   5.427   5.899
 6461SOL     OW20281   2.685   4.709   5.220
 6461SOL    HW120282   2.650   4.777   5.156
 6461SOL    HW220283   2.763   4.661   5.178
 6462SOL     OW20284   2.277   2.839   4.782
 6462SOL    HW120285   2.295   2.916   4.844
 6462SOL    HW220286   2.318   2.756   4.820
 6463SOL     OW20287   6.821   3.741   6.825
 6463SOL    HW120288   6.812   3.840   6.836
 6463SOL    HW220289   6.876   3.722   6.744
 6464SOL     OW20290   1.446   4.844   4.619
 6464SOL    HW120291   1.485   4.844   4.711
 6464SOL    HW220292   1.349   4.866   4.623
 6465SOL     OW20293   6.850   2.931   3.342
 6465SOL    HW120294   6.922   2.867   3.369
 6465SOL    HW220295   6.863   3.018   3.390
 6466SOL     OW20296   1.135   1.869   6.498
 6466SOL    HW120297   1.129   1.780   6.453
 6466SOL    HW220298   1.231   1.899   6.500
 6467SOL     OW20299   3.298   0.503   6.608
 6467SOL    HW120300   3.254   0.583   6.647
 6467SOL    HW220301   3.243   0.422   6.627
 6468SOL     OW20302   3.915   6.745   1.305
 6468SOL    HW120303   3.838   6.809   1.305
 6468SOL    HW220304   3.938   6.720   1.399
 6469SOL     OW20305   4.671   0.472   5.000
 6469SOL    HW120306   4.674   0.530   4.919
 6469SOL    HW220307   4.606   0.398   4.987
 6470SOL     OW20308   6.305   4.717   6.701
 6470SOL    HW120309   6.336   4.810   6.718
 6470SOL    HW220310   6.264   4.712   6.610
 6471SOL     OW20311   6.507   6.076   5.240
 6471SOL    HW120312   6.428   6.128   5.270
 6471SOL    HW220313   6.485   6.027   5.156
 6472SOL     OW20314   0.474   4.711   1.029
 6472SOL    HW120315   0.524   4.626   1.014
 6472SOL    HW220316   0.420   4.732   0.947
 6473SOL     OW20317   2.622   1.260   4.316
 6473SOL    HW120318   2.675   1.212   4.246
 6473SOL    HW220319   2.684   1.313   4.374
 6474SOL     OW20320   2.372   3.987   5.985
 6474SOL    HW120321   2.426   4.036   5.917
 6474SOL    HW220322   2.425   3.972   6.068
 6475SOL     OW20323   6.602   5.307   4.122
 6475SOL    HW120324   6.672   5.351   4.178
 6475SOL    HW220325   6.533   5.375   4.094
 6476SOL     OW20326   4.787   2.945   0.862
 6476SOL    HW120327   4.744   2.989   0.941
 6476SOL    HW220328   4.795   2.847   0.879
 6477SOL     OW20329   6.417   4.680   0.952
 6477SOL    HW120330   6.342   4.614   0.955
 6477SOL    HW220331   6.503   4.633   0.969
 6478SOL     OW20332   3.667   6.341   1.825
 6478SOL    HW120333   3.642   6.367   1.732
 6478SOL    HW220334   3.699   6.246   1.826
 6479SOL     OW20335   3.968   6.207   3.985
 6479SOL    HW120336   4.008   6.293   4.017
 6479SOL    HW220337   4.036   6.134   3.992
 6480SOL     OW20338   3.231   2.281   5.576
 6480SOL    HW120339   3.242   2.222   5.656
 6480SOL    HW220340   3.133   2.291   5.555
 6481SOL     OW20341   3.630   2.056   1.807
 6481SOL    HW120342   3.656   2.094   1.896
 6481SOL    HW220343   3.706   2.067   1.743
 6482SOL     OW20344   0.199   0.393   6.043
 6482SOL    HW120345   0.197   0.462   6.115
 6482SOL    HW220346   0.288   0.396   5.998
 6483SOL     OW20347   1.207   5.713   1.230
 6483SOL    HW120348   1.279   5.778   1.204
 6483SOL    HW220349   1.151   5.692   1.150
 6484SOL     OW20350   3.511   0.302   1.791
 6484SOL    HW120351   3.421   0.322   1.752
 6484SOL    HW220352   3.508   0.212   1.835
 6485SOL     OW20353   1.952   4.504   3.285
 6485SOL    HW120354   1.892   4.530   3.361
 6485SOL    HW220355   1.968   4.584   3.227
 6486SOL     OW20356   2.005   4.560   4.759
 6486SOL    HW120357   2.041   4.472   4.726
 6486SOL    HW220358   2.074   4.604   4.817
 6487SOL     OW20359   6.885   6.067   5.162
 6487SOL    HW120360   6.838   6.025   5.085
 6487SOL    HW220361   6.824   6.071   5.241
 6488SOL     OW20362   3.433   6.024   5.450
 6488SOL    HW120363   3.345   6.072   5.455
 6488SOL    HW220364   3.467   6.008   5.543
 6489SOL     OW20365   2.388   2.773   6.611
 6489SOL    HW120366   2.482   2.762   6.644
 6489SOL    HW220367   2.340   2.686   6.619
 6490SOL     OW20368   4.050   1.787   5.807
 6490SOL    HW120369   4.074   1.745   5.894
 6490SOL    HW220370   4.116   1.858   5.784
 6491SOL     OW20371   3.923   1.320   6.768
 6491SOL    HW120372   3.930   1.344   6.865
 6491SOL    HW220373   3.827   1.314   6.742
 6492SOL     OW20374   5.658   5.579   7.000
 6492SOL    HW120375   5.619   5.533   0.058
 6492SOL    HW220376   5.630   5.531   6.916
 6493SOL     OW20377   1.258   5.470   4.877
 6493SOL    HW120378   1.266   5.544   4.810
 6493SOL    HW220379   1.176   5.416   4.857
 6494SOL     OW20380   0.366   1.014   3.263
 6494SOL    HW120381   0.268   0.997   3.267
 6494SOL    HW220382   0.409   0.949   3.200
 6495SOL     OW20383   5.071   6.024   4.420
 6495SOL    HW120384   5.009   6.066   4.354
 6495SOL    HW220385   5.066   5.924   4.411
 6496SOL     OW20386   6.981   0.304   2.275
 6496SOL    HW120387   6.993   0.372   2.203
 6496SOL    HW220388   6.989   0.349   2.364
 6497SOL     OW20389   2.314   2.793   0.748
 6497SOL    HW120390   2.230   2.785   0.694
 6497SOL    HW220391   2.331   2.707   0.796
 6498SOL     OW20392   2.197   3.827   4.110
 6498SOL    HW120393   2.225   3.852   4.202
 6498SOL    HW220394   2.234   3.893   4.044
 6499SOL     OW20395   5.275   2.150   4.821
 6499SOL    HW120396   5.204   2.143   4.891
 6499SOL    HW220397   5.236   2.193   4.739
 6500SOL     OW20398   0.186   4.388   3.436
 6500SOL    HW120399   0.180   4.296   3.397
 6500SOL    HW220400   0.097   4.433   3.430
 6501SOL     OW20401   6.395   2.571   6.625
 6501SOL    HW120402   6.465   2.573   6.695
 6501SOL    HW220403   6.432   2.609   6.540
 6502SOL     OW20404   6.106   3.546   1.686
 6502SOL    HW120405   6.021   3.496   1.667
 6502SOL    HW220406   6.155   3.561   1.600
 6503SOL     OW20407   4.739   1.337   3.395
 6503SOL    HW120408   4.720   1.242   3.370
 6503SOL    HW220409   4.658   1.377   3.439
 6504SOL     OW20410   5.073   6.168   6.178
 6504SOL    HW120411   4.984   6.198   6.146
 6504SOL    HW220412   5.092   6.208   6.268
 6505SOL     OW20413   5.448   5.337   1.727
 6505SOL    HW120414   5.408   5.331   1.819
 6505SOL    HW220415   5.425   5.426   1.687
 6506SOL     OW20416   6.238   3.616   1.910
 6506SOL    HW120417   6.211   3.545   1.975
 6506SOL    HW220418   6.190   3.602   1.824
 6507SOL     OW20419   1.994   5.260   5.981
 6507SOL    HW120420   2.012   5.162   5.978
 6507SOL    HW220421   1.929   5.280   6.055
 6508SOL     OW20422   2.369   0.380   3.055
 6508SOL    HW120423   2.345   0.330   2.972
 6508SOL    HW220424   2.327   0.471   3.052
 6509SOL     OW20425   3.181   1.845   4.495
 6509SOL    HW120426   3.120   1.828   4.572
 6509SOL    HW220427   3.134   1.823   4.410
 6510SOL     OW20428   6.577   4.261   6.902
 6510SOL    HW120429   6.507   4.211   6.953
 6510SOL    HW220430   6.564   4.246   6.804
 6511SOL     OW20431   4.729   0.986   4.588
 6511SOL    HW120432   4.723   0.949   4.495
 6511SOL    HW220433   4.781   0.923   4.646
 6512SOL     OW20434   4.845   7.004   2.126
 6512SOL    HW120435   4.805   6.960   2.206
 6512SOL    HW220436   4.885   0.071   2.152
 6513SOL     OW20437   3.195   4.873   3.012
 6513SOL    HW120438   3.266   4.812   3.048
 6513SOL    HW220439   3.210   4.887   2.914
 6514SOL     OW20440   5.628   1.166   3.859
 6514SOL    HW120441   5.617   1.234   3.931
 6514SOL    HW220442   5.585   1.080   3.887
 6515SOL     OW20443   0.838   4.949   4.094
 6515SOL    HW120444   0.901   5.024   4.073
 6515SOL    HW220445   0.875   4.894   4.168
 6516SOL     OW20446   0.277   3.361   1.903
 6516SOL    HW120447   0.304   3.298   1.830
 6516SOL    HW220448   0.192   3.329   1.944
 6517SOL     OW20449   6.696   0.950   0.528
 6517SOL    HW120450   6.616   0.895   0.553
 6517SOL    HW220451   6.674   1.047   0.536
 6518SOL     OW20452   6.902   0.232   0.046
 6518SOL    HW120453   6.951   0.309   0.086
 6518SOL    HW220454   6.824   0.266   7.014
 6519SOL     OW20455   2.770   1.971   3.635
 6519SOL    HW120456   2.760   1.948   3.538
 6519SOL    HW220457   2.680   1.968   3.679
 6520SOL     OW20458   5.654   5.436   2.050
 6520SOL    HW120459   5.596   5.359   2.022
 6520SOL    HW220460   5.597   5.507   2.092
 6521SOL     OW20461   1.959   2.706   4.371
 6521SOL    HW120462   2.057   2.683   4.363
 6521SOL    HW220463   1.915   2.691   4.283
 6522SOL     OW20464   3.689   4.544   0.163
 6522SOL    HW120465   3.617   4.535   0.231
 6522SOL    HW220466   3.749   4.620   0.187
 6523SOL     OW20467   3.568   0.552   6.510
 6523SOL    HW120468   3.582   0.457   6.482
 6523SOL    HW220469   3.474   0.564   6.541
 6524SOL     OW20470   2.867   3.357   1.940
 6524SOL    HW120471   2.847   3.362   2.038
 6524SOL    HW220472   2.791   3.396   1.889
 6525SOL     OW20473   1.307   3.833   3.582
 6525SOL    HW120474   1.367   3.903   3.621
 6525SOL    HW220475   1.329   3.744   3.623
 6526SOL     OW20476   2.096   0.307   6.596
 6526SOL    HW120477   2.005   0.300   6.638
 6526SOL    HW220478   2.090   0.360   6.512
 6527SOL     OW20479   1.030   2.388   4.736
 6527SOL    HW120480   1.008   2.419   4.828
 6527SOL    HW220481   0.948   2.394   4.678
 6528SOL     OW20482   0.276   1.067   3.863
 6528SOL    HW120483   0.365   1.077   3.818
 6528SOL    HW220484   0.269   0.976   3.903
 6529SOL     OW20485   0.324   1.704   2.789
 6529SOL    HW120486   0.321   1.769   2.865
 6529SOL    HW220487   0.353   1.615   2.824
 6530SOL     OW20488   6.871   3.827   1.878
 6530SOL    HW120489   6.797   3.787   1.933
 6530SOL    HW220490   6.912   3.903   1.929
 6531SOL     OW20491   5.439   3.641   4.536
 6531SOL    HW120492   5.344   3.659   4.510
 6531SOL    HW220493   5.483   3.584   4.466
 6532SOL     OW20494   6.199   0.242   6.641
 6532SOL    HW120495   6.195   0.328   6.590
 6532SOL    HW220496   6.110   0.225   6.684
 6533SOL     OW20497   5.080   6.100   0.792
 6533SOL    HW120498   5.008   6.030   0.794
 6533SOL    HW220499   5.042   6.188   0.822
 6534SOL     OW20500   3.545   4.382   0.958
 6534SOL    HW120501   3.522   4.393   1.055
 6534SOL    HW220502   3.635   4.340   0.949
 6535SOL     OW20503   6.268   3.343   4.155
 6535SOL    HW120504   6.239   3.423   4.101
 6535SOL    HW220505   6.290   3.268   4.093
 6536SOL     OW20506   0.683   2.334   5.902
 6536SOL    HW120507   0.611   2.266   5.920
 6536SOL    HW220508   0.769   2.287   5.882
 6537SOL     OW20509   5.969   5.481   6.909
 6537SOL    HW120510   5.894   5.547   6.914
 6537SOL    HW220511   5.937   5.393   6.944
 6538SOL     OW20512   3.051   4.141   6.991
 6538SOL    HW120513   3.097   4.177   6.910
 6538SOL    HW220514   3.118   4.101   0.032
 6539SOL     OW20515   3.423   0.400   6.200
 6539SOL    HW120516   3.424   0.500   6.207
 6539SOL    HW220517   3.477   0.361   6.274
 6540SOL     OW20518   5.571   1.453   5.190
 6540SOL    HW120519   5.626   1.370   5.198
 6540SOL    HW220520   5.474   1.429   5.193
 6541SOL     OW20521   3.663   1.808   4.979
 6541SOL    HW120522   3.755   1.832   4.947
 6541SOL    HW220523   3.669   1.726   5.036
 6542SOL     OW20524   6.638   4.533   3.900
 6542SOL    HW120525   6.638   4.519   3.999
 6542SOL    HW220526   6.591   4.619   3.879
 6543SOL     OW20527   6.310   3.645   6.521
 6543SOL    HW120528   6.268   3.703   6.591
 6543SOL    HW220529   6.409   3.650   6.529
 6544SOL     OW20530   0.279   6.576   2.811
 6544SOL    HW120531   0.351   6.524   2.766
 6544SOL    HW220532   0.262   6.539   2.902
 6545SOL     OW20533   5.762   2.113   6.481
 6545SOL    HW120534   5.837   2.178   6.472
 6545SOL    HW220535   5.771   2.041   6.413
 6546SOL     OW20536   3.768   4.126   6.903
 6546SOL    HW120537   3.861   4.087   6.908
 6546SOL    HW220538   3.769   4.219   6.938
 6547SOL     OW20539   4.744   1.296   5.710
 6547SOL    HW120540   4.805   1.272   5.785
 6547SOL    HW220541   4.792   1.356   5.646
 6548SOL     OW20542   1.002   3.356   0.462
 6548SOL    HW120543   1.047   3.395   0.381
 6548SOL    HW220544   0.905   3.378   0.459
 6549SOL     OW20545   4.263   1.429   0.827
 6549SOL    HW120546   4.313   1.497   0.772
 6549SOL    HW220547   4.317   1.345   0.834
 6550SOL     OW20548   0.671   6.652   3.919
 6550SOL    HW120549   0.670   6.601   4.005
 6550SOL    HW220550   0.577   6.660   3.884
 6551SOL     OW20551   1.646   4.595   2.254
 6551SOL    HW120552   1.634   4.689   2.221
 6551SOL    HW220553   1.707   4.596   2.334
 6552SOL     OW20554   2.489   0.309   5.274
 6552SOL    HW120555   2.448   0.248   5.206
 6552SOL    HW220556   2.585   0.286   5.286
 6553SOL     OW20557   0.775   1.317   3.026
 6553SOL    HW120558   0.845   1.313   2.955
 6553SOL    HW220559   0.689   1.282   2.991
 6554SOL     OW20560   6.035   1.143   5.377
 6554SOL    HW120561   6.050   1.103   5.467
 6554SOL    HW220562   5.956   1.099   5.333
 6555SOL     OW20563   0.009   2.071   1.731
 6555SOL    HW120564   6.976   2.034   1.806
 6555SOL    HW220565   7.016   2.016   1.649
 6556SOL     OW20566   4.658   4.556   5.236
 6556SOL    HW120567   4.711   4.534   5.154
 6556SOL    HW220568   4.646   4.655   5.243
 6557SOL     OW20569   3.508   5.771   1.561
 6557SOL    HW120570   3.545   5.702   1.624
 6557SOL    HW220571   3.553   5.763   1.472
 6558SOL     OW20572   6.652   4.976   0.247
 6558SOL    HW120573   6.743   4.957   0.285
 6558SOL    HW220574   6.619   4.897   0.196
 6559SOL     OW20575   6.257   4.271   6.681
 6559SOL    HW120576   6.195   4.206   6.725
 6559SOL    HW220577   6.346   4.229   6.667
 6560SOL     OW20578   4.300   4.137   1.178
 6560SOL    HW120579   4.270   4.225   1.216
 6560SOL    HW220580   4.350   4.086   1.249
 6561SOL     OW20581   3.821   3.908   2.179
 6561SOL    HW120582   3.837   3.964   2.098
 6561SOL    HW220583   3.855   3.956   2.260
 6562SOL     OW20584   5.518   4.556   0.053
 6562SOL    HW120585   5.493   4.637   7.021
 6562SOL    HW220586   5.453   4.483   0.035
 6563SOL     OW20587   0.075   6.080   0.420
 6563SOL    HW120588   0.130   6.151   0.464
 6563SOL    HW220589   0.059   6.106   0.324
 6564SOL     OW20590   7.009   4.168   2.605
 6564SOL    HW120591   0.065   4.105   2.601
 6564SOL    HW220592   0.010   4.244   2.666
 6565SOL     OW20593   6.731   2.297   4.204
 6565SOL    HW120594   6.680   2.239   4.140
 6565SOL    HW220595   6.674   2.317   4.284
 6566SOL     OW20596   2.567   6.195   2.489
 6566SOL    HW120597   2.620   6.164   2.409
 6566SOL    HW220598   2.471   6.205   2.463
 6567SOL     OW20599   3.776   2.776   0.877
 6567SOL    HW120600   3.752   2.811   0.786
 6567SOL    HW220601   3.772   2.676   0.876
 6568SOL     OW20602   4.544   6.754   3.432
 6568SOL    HW120603   4.602   6.717   3.505
 6568SOL    HW220604   4.599   6.814   3.373
 6569SOL     OW20605   2.881   3.997   0.234
 6569SOL    HW120606   2.855   4.093   0.234
 6569SOL    HW220607   2.870   3.959   0.142
 6570SOL     OW20608   3.958   6.498   2.096
 6570SOL    HW120609   3.922   6.591   2.102
 6570SOL    HW220610   3.954   6.467   2.001
 6571SOL     OW20611   2.655   5.411   2.225
 6571SOL    HW120612   2.577   5.400   2.163
 6571SOL    HW220613   2.720   5.476   2.186
 6572SOL     OW20614   0.199   5.772   5.654
 6572SOL    HW120615   0.108   5.799   5.622
 6572SOL    HW220616   0.213   5.807   5.747
 6573SOL     OW20617   2.217   1.391   1.801
 6573SOL    HW120618   2.123   1.408   1.770
 6573SOL    HW220619   2.280   1.447   1.747
 6574SOL     OW20620   2.968   6.281   2.473
 6574SOL    HW120621   2.918   6.333   2.404
 6574SOL    HW220622   2.903   6.242   2.539
 6575SOL     OW20623   1.067   1.264   2.203
 6575SOL    HW120624   1.038   1.359   2.204
 6575SOL    HW220625   1.156   1.257   2.157
 6576SOL     OW20626   1.768   6.447   6.600
 6576SOL    HW120627   1.799   6.382   6.530
 6576SOL    HW220628   1.673   6.471   6.582
 6577SOL     OW20629   0.948   2.548   3.570
 6577SOL    HW120630   0.935   2.576   3.474
 6577SOL    HW220631   0.955   2.449   3.575
 6578SOL     OW20632   0.972   4.381   2.739
 6578SOL    HW120633   0.915   4.415   2.664
 6578SOL    HW220634   0.943   4.423   2.825
 6579SOL     OW20635   6.955   3.624   4.808
 6579SOL    HW120636   6.988   3.534   4.782
 6579SOL    HW220637   6.857   3.620   4.827
 6580SOL     OW20638   6.775   1.606   1.192
 6580SOL    HW120639   6.679   1.590   1.172
 6580SOL    HW220640   6.828   1.603   1.107
 6581SOL     OW20641   2.796   1.497   6.750
 6581SOL    HW120642   2.754   1.444   6.677
 6581SOL    HW220643   2.876   1.545   6.715
 6582SOL     OW20644   1.461   1.165   1.684
 6582SOL    HW120645   1.457   1.207   1.594
 6582SOL    HW220646   1.418   1.074   1.681
 6583SOL     OW20647   4.372   0.270   4.931
 6583SOL    HW120648   4.275   0.263   4.954
 6583SOL    HW220649   4.421   0.194   4.974
 6584SOL     OW20650   5.158   1.869   6.559
 6584SOL    HW120651   5.121   1.798   6.619
 6584SOL    HW220652   5.167   1.833   6.466
 6585SOL     OW20653   6.730   0.357   6.928
 6585SOL    HW120654   6.773   0.411   6.856
 6585SOL    HW220655   6.638   0.392   6.946
 6586SOL     OW20656   6.418   1.956   5.852
 6586SOL    HW120657   6.496   1.914   5.899
 6586SOL    HW220658   6.452   2.022   5.785
 6587SOL     OW20659   2.701   6.075   4.821
 6587SOL    HW120660   2.761   6.004   4.857
 6587SOL    HW220661   2.676   6.053   4.726
 6588SOL     OW20662   1.548   3.842   1.399
 6588SOL    HW120663   1.527   3.920   1.458
 6588SOL    HW220664   1.483   3.839   1.323
 6589SOL     OW20665   4.910   0.404   0.239
 6589SOL    HW120666   4.872   0.495   0.225
 6589SOL    HW220667   4.848   0.350   0.296
 6590SOL     OW20668   1.081   1.414   5.906
 6590SOL    HW120669   0.994   1.460   5.889
 6590SOL    HW220670   1.090   1.336   5.845
 6591SOL     OW20671   4.869   6.355   2.552
 6591SOL    HW120672   4.843   6.261   2.528
 6591SOL    HW220673   4.864   6.412   2.471
 6592SOL     OW20674   5.721   6.600   4.210
 6592SOL    HW120675   5.803   6.551   4.242
 6592SOL    HW220676   5.639   6.555   4.245
 6593SOL     OW20677   2.565   1.634   3.880
 6593SOL    HW120678   2.658   1.653   3.911
 6593SOL    HW220679   2.511   1.598   3.956
 6594SOL     OW20680   3.540   1.273   6.988
 6594SOL    HW120681   3.592   1.204   6.937
 6594SOL    HW220682   3.564   1.268   0.064
 6595SOL     OW20683   0.820   2.856   1.322
 6595SOL    HW120684   0.734   2.842   1.273
 6595SOL    HW220685   0.876   2.922   1.272
 6596SOL     OW20686   3.030   7.003   4.586
 6596SOL    HW120687   2.938   0.008   4.614
 6596SOL    HW220688   3.025   6.947   4.503
 6597SOL     OW20689   2.091   6.094   3.382
 6597SOL    HW120690   2.133   6.154   3.450
 6597SOL    HW220691   2.147   6.092   3.299
 6598SOL     OW20692   0.694   6.996   4.450
 6598SOL    HW120693   0.749   0.002   4.528
 6598SOL    HW220694   0.611   6.949   4.481
 6599SOL     OW20695   3.929   6.222   5.360
 6599SOL    HW120696   3.844   6.224   5.308
 6599SOL    HW220697   3.990   6.294   5.327
 6600SOL     OW20698   4.795   5.259   6.183
 6600SOL    HW120699   4.706   5.304   6.180
 6600SOL    HW220700   4.828   5.243   6.090
 6601SOL     OW20701   0.874   1.618   5.845
 6601SOL    HW120702   0.838   1.707   5.875
 6601SOL    HW220703   0.807   1.547   5.865
 6602SOL     OW20704   0.322   1.542   1.902
 6602SOL    HW120705   0.281   1.493   1.979
 6602SOL    HW220706   0.411   1.579   1.929
 6603SOL     OW20707   0.714   2.484   4.337
 6603SOL    HW120708   0.757   2.520   4.254
 6603SOL    HW220709   0.659   2.404   4.313
 6604SOL     OW20710   2.741   6.546   0.971
 6604SOL    HW120711   2.805   6.470   0.979
 6604SOL    HW220712   2.763   6.616   1.039
 6605SOL     OW20713   5.803   4.427   1.792
 6605SOL    HW120714   5.743   4.349   1.771
 6605SOL    HW220715   5.892   4.393   1.823
 6606SOL     OW20716   6.079   6.882   2.488
 6606SOL    HW120717   6.125   6.971   2.478
 6606SOL    HW220718   6.146   6.809   2.475
 6607SOL     OW20719   1.881   2.471   2.036
 6607SOL    HW120720   1.893   2.380   2.075
 6607SOL    HW220721   1.820   2.466   1.957
 6608SOL     OW20722   5.233   5.988   2.208
 6608SOL    HW120723   5.283   6.048   2.270
 6608SOL    HW220724   5.173   5.928   2.261
 6609SOL     OW20725   4.930   0.899   6.155
 6609SOL    HW120726   4.984   0.939   6.230
 6609SOL    HW220727   4.879   0.970   6.109
 6610SOL     OW20728   2.663   1.415   6.497
 6610SOL    HW120729   2.566   1.428   6.477
 6610SOL    HW220730   2.699   1.340   6.442
 6611SOL     OW20731   6.095   2.930   4.039
 6611SOL    HW120732   6.064   3.009   4.090
 6611SOL    HW220733   6.050   2.926   3.950
 6612SOL     OW20734   6.877   2.081   6.974
 6612SOL    HW120735   6.886   2.001   0.012
 6612SOL    HW220736   6.967   2.107   6.939
 6613SOL     OW20737   6.278   6.108   4.728
 6613SOL    HW120738   6.313   6.188   4.678
 6613SOL    HW220739   6.213   6.058   4.670
 6614SOL     OW20740   5.726   6.368   6.940
 6614SOL    HW120741   5.646   6.407   6.894
 6614SOL    HW220742   5.800   6.434   6.940
 6615SOL     OW20743   0.560   4.717   3.520
 6615SOL    HW120744   0.608   4.665   3.591
 6615SOL    HW220745   0.609   4.802   3.501
 6616SOL     OW20746   4.465   1.225   5.708
 6616SOL    HW120747   4.561   1.245   5.726
 6616SOL    HW220748   4.448   1.230   5.609
 6617SOL     OW20749   3.486   5.141   3.315
 6617SOL    HW120750   3.446   5.226   3.280
 6617SOL    HW220751   3.557   5.163   3.382
 6618SOL     OW20752   1.469   3.734   3.100
 6618SOL    HW120753   1.372   3.749   3.080
 6618SOL    HW220754   1.511   3.821   3.127
 6619SOL     OW20755   6.590   0.194   4.950
 6619SOL    HW120756   6.680   0.236   4.932
 6619SOL    HW220757   6.596   0.136   5.031
 6620SOL     OW20758   1.893   2.571   5.666
 6620SOL    HW120759   1.904   2.563   5.567
 6620SOL    HW220760   1.972   2.619   5.704
 6621SOL     OW20761   1.982   3.440   6.581
 6621SOL    HW120762   1.958   3.531   6.613
 6621SOL    HW220763   1.911   3.407   6.518
 6622SOL     OW20764   5.361   6.439   1.848
 6622SOL    HW120765   5.276   6.397   1.816
 6622SOL    HW220766   5.404   6.379   1.915
 6623SOL     OW20767   2.446   3.785   0.195
 6623SOL    HW120768   2.346   3.794   0.185
 6623SOL    HW220769   2.484   3.747   0.111
 6624SOL     OW20770   1.829   0.230   4.399
 6624SOL    HW120771   1.739   0.233   4.444
 6624SOL    HW220772   1.894   0.285   4.452
 6625SOL     OW20773   5.440   1.860   6.009
 6625SOL    HW120774   5.341   1.875   6.006
 6625SOL    HW220775   5.462   1.806   6.091
 6626SOL     OW20776   3.991   4.787   5.267
 6626SOL    HW120777   4.042   4.835   5.196
 6626SOL    HW220778   4.019   4.691   5.271
 6627SOL     OW20779   2.275   1.190   5.935
 6627SOL    HW120780   2.278   1.289   5.947
 6627SOL    HW220781   2.361   1.149   5.965
 6628SOL     OW20782   4.667   4.307   4.620
 6628SOL    HW120783   4.701   4.239   4.555
 6628SOL    HW220784   4.740   4.370   4.645
 6629SOL     OW20785   3.356   5.668   6.757
 6629SOL    HW120786   3.286   5.732   6.787
 6629SOL    HW220787   3.343   5.649   6.659
 6630SOL     OW20788   3.526   1.462   1.117
 6630SOL    HW120789   3.605   1.414   1.157
 6630SOL    HW220790   3.458   1.478   1.188
 6631SOL     OW20791   3.436   0.207   2.439
 6631SOL    HW120792   3.506   0.257   2.490
 6631SOL    HW220793   3.453   0.218   2.341
 6632SOL     OW20794   0.635   6.077   1.604
 6632SOL    HW120795   0.545   6.111   1.633
 6632SOL    HW220796   0.628   6.044   1.510
 6633SOL     OW20797   0.750   3.806   5.936
 6633SOL    HW120798   0.734   3.751   5.854
 6633SOL    HW220799   0.779   3.747   6.011
 6634SOL     OW20800   6.407   2.691   4.606
 6634SOL    HW120801   6.350   2.609   4.614
 6634SOL    HW220802   6.372   2.761   4.667
 6635SOL     OW20803   3.943   4.855   3.230
 6635SOL    HW120804   3.999   4.777   3.258
 6635SOL    HW220805   3.878   4.877   3.303
 6636SOL     OW20806   3.796   1.395   5.527
 6636SOL    HW120807   3.861   1.382   5.601
 6636SOL    HW220808   3.703   1.381   5.561
 6637SOL     OW20809   1.446   0.311   6.078
 6637SOL    HW120810   1.396   0.348   6.000
 6637SOL    HW220811   1.536   0.279   6.048
 6638SOL     OW20812   3.332   4.195   4.649
 6638SOL    HW120813   3.430   4.178   4.661
 6638SOL    HW220814   3.307   4.281   4.694
 6639SOL     OW20815   5.606   5.155   6.342
 6639SOL    HW120816   5.666   5.213   6.396
 6639SOL    HW220817   5.572   5.207   6.263
 6640SOL     OW20818   0.727   1.322   5.013
 6640SOL    HW120819   0.632   1.343   4.987
 6640SOL    HW220820   0.782   1.405   5.006
 6641SOL     OW20821   2.326   2.358   0.320
 6641SOL    HW120822   2.370   2.402   0.242
 6641SOL    HW220823   2.229   2.344   0.300
 6642SOL     OW20824   2.807   5.237   6.893
 6642SOL    HW120825   2.817   5.301   6.968
 6642SOL    HW220826   2.877   5.255   6.824
 6643SOL     OW20827   6.811   5.140   6.669
 6643SOL    HW120828   6.874   5.181   6.603
 6643SOL    HW220829   6.858   5.123   6.755
 6644SOL     OW20830   3.080   4.872   2.169
 6644SOL    HW120831   3.106   4.836   2.080
 6644SOL    HW220832   2.982   4.894   2.168
 6645SOL     OW20833   0.034   5.206   0.530
 6645SOL    HW120834   0.029   5.110   0.503
 6645SOL    HW220835   0.072   5.260   0.455
 6646SOL     OW20836   3.786   6.922   4.332
 6646SOL    HW120837   3.873   6.959   4.363
 6646SOL    HW220838   3.715   6.944   4.399
 6647SOL     OW20839   4.524   0.559   2.311
 6647SOL    HW120840   4.437   0.605   2.331
 6647SOL    HW220841   4.585   0.569   2.389
 6648SOL     OW20842   3.439   5.740   2.683
 6648SOL    HW120843   3.435   5.644   2.654
 6648SOL    HW220844   3.525   5.756   2.731
 6649SOL     OW20845   5.230   1.202   0.091
 6649SOL    HW120846   5.308   1.163   0.042
 6649SOL    HW220847   5.216   1.152   0.177
 6650SOL     OW20848   2.981   1.562   4.541
 6650SOL    HW120849   2.999   1.642   4.484
 6650SOL    HW220850   2.954   1.591   4.632
 6651SOL     OW20851   1.820   1.881   6.398
 6651SOL    HW120852   1.836   1.927   6.311
 6651SOL    HW220853   1.907   1.866   6.444
 6652SOL     OW20854   6.732   4.677   0.365
 6652SOL    HW120855   6.800   4.655   0.294
 6652SOL    HW220856   6.645   4.699   0.321
 6653SOL     OW20857   3.625   2.821   2.144
 6653SOL    HW120858   3.591   2.810   2.050
 6653SOL    HW220859   3.661   2.734   2.177
 6654SOL     OW20860   1.870   2.964   1.399
 6654SOL    HW120861   1.941   2.914   1.349
 6654SOL    HW220862   1.910   3.010   1.478
 6655SOL     OW20863   2.573   0.059   1.818
 6655SOL    HW120864   2.558   0.138   1.760
 6655SOL    HW220865   2.486   0.023   1.851
 6656SOL     OW20866   6.009   1.766   1.988
 6656SOL    HW120867   6.069   1.766   1.908
 6656SOL    HW220868   5.915   1.746   1.960
 6657SOL     OW20869   5.861   5.923   5.985
 6657SOL    HW120870   5.811   5.860   6.045
 6657SOL    HW220871   5.959   5.908   5.996
 6658SOL     OW20872   6.425   1.466   4.737
 6658SOL    HW120873   6.398   1.408   4.660
 6658SOL    HW220874   6.364   1.450   4.814
 6659SOL     OW20875   2.202   2.291   0.686
 6659SOL    HW120876   2.253   2.216   0.644
 6659SOL    HW220877   2.174   2.265   0.778
 6660SOL     OW20878   0.565   5.917   0.279
 6660SOL    HW120879   0.510   5.992   0.243
 6660SOL    HW220880   0.505   5.841   0.304
 6661SOL     OW20881   1.044   6.180   4.078
 6661SOL    HW120882   0.988   6.099   4.065
 6661SOL    HW220883   1.141   6.156   4.071
 6662SOL     OW20884   1.041   1.279   6.988
 6662SOL    HW120885   1.014   1.184   6.970
 6662SOL    HW220886   0.974   1.341   6.946
 6663SOL     OW20887   6.955   4.975   3.473
 6663SOL    HW120888   6.928   4.989   3.378
 6663SOL    HW220889   0.029   4.944   3.476
 6664SOL     OW20890   2.042   6.928   0.526
 6664SOL    HW120891   2.058   6.859   0.456
 6664SOL    HW220892   1.945   6.952   0.527
 6665SOL     OW20893   1.200   0.364   2.953
 6665SOL    HW120894   1.118   0.323   2.993
 6665SOL    HW220895   1.173   0.435   2.889
 6666SOL     OW20896   5.425   6.895   5.859
 6666SOL    HW120897   5.505   6.940   5.819
 6666SOL    HW220898   5.437   6.887   5.958
 6667SOL     OW20899   6.894   5.295   6.203
 6667SOL    HW120900   6.851   5.207   6.222
 6667SOL    HW220901   6.907   5.305   6.104
 6668SOL     OW20902   6.102   5.908   2.105
 6668SOL    HW120903   6.030   5.974   2.085
 6668SOL    HW220904   6.132   5.920   2.200
 6669SOL     OW20905   2.223   2.951   3.830
 6669SOL    HW120906   2.267   2.976   3.916
 6669SOL    HW220907   2.131   2.916   3.848
 6670SOL     OW20908   3.518   1.887   5.355
 6670SOL    HW120909   3.543   1.896   5.451
 6670SOL    HW220910   3.427   1.926   5.340
 6671SOL     OW20911   5.518   5.457   1.269
 6671SOL    HW120912   5.544   5.364   1.293
 6671SOL    HW220913   5.586   5.497   1.208
 6672SOL     OW20914   0.586   2.320   5.523
 6672SOL    HW120915   0.517   2.328   5.594
 6672SOL    HW220916   0.628   2.230   5.527
 6673SOL     OW20917   5.271   6.413   3.443
 6673SOL    HW120918   5.209   6.429   3.520
 6673SOL    HW220919   5.237   6.460   3.362
 6674SOL     OW20920   0.818   4.808   5.839
 6674SOL    HW120921   0.823   4.718   5.795
 6674SOL    HW220922   0.877   4.809   5.919
 6675SOL     OW20923   4.280   3.999   1.686
 6675SOL    HW120924   4.245   4.040   1.602
 6675SOL    HW220925   4.316   4.071   1.746
 6676SOL     OW20926   0.305   4.381   5.847
 6676SOL    HW120927   0.394   4.345   5.821
 6676SOL    HW220928   0.278   4.344   5.936
 6677SOL     OW20929   0.257   1.937   6.806
 6677SOL    HW120930   0.338   1.966   6.858
 6677SOL    HW220931   0.199   2.016   6.787
 6678SOL     OW20932   2.552   2.858   0.128
 6678SOL    HW120933   2.477   2.871   0.064
 6678SOL    HW220934   2.515   2.826   0.216
 6679SOL     OW20935   2.965   1.764   3.671
 6679SOL    HW120936   2.917   1.851   3.680
 6679SOL    HW220937   2.909   1.690   3.709
 6680SOL     OW20938   4.918   6.603   6.219
 6680SOL    HW120939   5.009   6.566   6.235
 6680SOL    HW220940   4.910   6.692   6.264
 6681SOL     OW20941   4.711   5.519   0.337
 6681SOL    HW120942   4.770   5.449   0.377
 6681SOL    HW220943   4.710   5.510   0.238
 6682SOL     OW20944   1.271   4.572   2.633
 6682SOL    HW120945   1.349   4.628   2.606
 6682SOL    HW220946   1.187   4.623   2.616
 6683SOL     OW20947   5.299   3.095   5.485
 6683SOL    HW120948   5.329   3.190   5.478
 6683SOL    HW220949   5.311   3.063   5.579
 6684SOL     OW20950   3.015   6.524   0.716
 6684SOL    HW120951   3.085   6.454   0.701
 6684SOL    HW220952   2.994   6.529   0.814
 6685SOL     OW20953   5.804   2.580   6.241
 6685SOL    HW120954   5.838   2.643   6.172
 6685SOL    HW220955   5.785   2.491   6.200
 6686SOL     OW20956   5.076   6.333   4.531
 6686SOL    HW120957   5.019   6.279   4.469
 6686SOL    HW220958   5.045   6.320   4.625
 6687SOL     OW20959   0.181   2.632   1.132
 6687SOL    HW120960   0.234   2.550   1.113
 6687SOL    HW220961   0.200   2.701   1.061
 6688SOL     OW20962   6.968   4.413   2.261
 6688SOL    HW120963   6.886   4.418   2.203
 6688SOL    HW220964   6.944   4.438   2.355
 6689SOL     OW20965   4.128   3.519   0.276
 6689SOL    HW120966   4.163   3.605   0.238
 6689SOL    HW220967   4.149   3.516   0.374
 6690SOL     OW20968   2.597   1.546   0.805
 6690SOL    HW120969   2.572   1.588   0.717
 6690SOL    HW220970   2.648   1.612   0.860
 6691SOL     OW20971   3.107   6.404   1.654
 6691SOL    HW120972   3.077   6.485   1.702
 6691SOL    HW220973   3.190   6.368   1.697
 6692SOL     OW20974   3.532   4.099   5.434
 6692SOL    HW120975   3.613   4.136   5.480
 6692SOL    HW220976   3.517   4.147   5.348
 6693SOL     OW20977   3.940   3.161   6.122
 6693SOL    HW120978   3.979   3.129   6.208
 6693SOL    HW220979   3.975   3.105   6.047
 6694SOL     OW20980   5.289   5.979   0.436
 6694SOL    HW120981   5.269   5.884   0.460
 6694SOL    HW220982   5.216   6.038   0.472
 6695SOL     OW20983   2.884   2.122   6.214
 6695SOL    HW120984   2.814   2.089   6.150
 6695SOL    HW220985   2.974   2.117   6.170
 6696SOL     OW20986   1.180   2.870   0.475
 6696SOL    HW120987   1.278   2.856   0.465
 6696SOL    HW220988   1.161   2.914   0.563
 6697SOL     OW20989   4.971   2.798   3.205
 6697SOL    HW120990   4.878   2.766   3.190
 6697SOL    HW220991   4.984   2.885   3.158
 6698SOL     OW20992   2.752   2.579   0.471
 6698SOL    HW120993   2.810   2.546   0.546
 6698SOL    HW220994   2.714   2.668   0.495
 6699SOL     OW20995   3.095   4.934   6.570
 6699SOL    HW120996   3.067   4.857   6.513
 6699SOL    HW220997   3.014   4.985   6.598
 6700SOL     OW20998   6.596   6.183   1.186
 6700SOL    HW120999   6.631   6.249   1.253
 6700SOL    HW221000   6.656   6.181   1.106
 6701SOL     OW21001   6.016   2.822   0.767
 6701SOL    HW121002   6.085   2.880   0.811
 6701SOL    HW221003   6.005   2.851   0.672
 6702SOL     OW21004   2.822   2.255   1.136
 6702SOL    HW121005   2.738   2.252   1.080
 6702SOL    HW221006   2.826   2.173   1.193
 6703SOL     OW21007   6.324   1.626   0.148
 6703SOL    HW121008   6.331   1.685   0.067
 6703SOL    HW221009   6.228   1.614   0.172
 6704SOL     OW21010   4.277   2.291   2.380
 6704SOL    HW121011   4.282   2.338   2.292
 6704SOL    HW221012   4.331   2.207   2.376
 6705SOL     OW21013   6.954   2.736   1.712
 6705SOL    HW121014   0.032   2.727   1.722
 6705SOL    HW221015   6.909   2.688   1.787
 6706SOL     OW21016   0.966   4.033   0.737
 6706SOL    HW121017   0.959   4.111   0.799
 6706SOL    HW221018   1.057   4.031   0.696
 6707SOL     OW21019   6.929   6.197   4.025
 6707SOL    HW121020   0.008   6.200   4.034
 6707SOL    HW221021   6.891   6.138   4.095
 6708SOL     OW21022   1.123   5.377   2.703
 6708SOL    HW121023   1.029   5.374   2.669
 6708SOL    HW221024   1.131   5.450   2.771
 6709SOL     OW21025   3.345   6.371   1.763
 6709SOL    HW121026   3.354   6.274   1.783
 6709SOL    HW221027   3.342   6.423   1.849
 6710SOL     OW21028   3.032   1.533   5.815
 6710SOL    HW121029   3.049   1.622   5.773
 6710SOL    HW221030   3.059   1.460   5.752
 6711SOL     OW21031   5.252   4.795   6.604
 6711SOL    HW121032   5.337   4.848   6.610
 6711SOL    HW221033   5.273   4.704   6.568
 6712SOL     OW21034   5.025   5.535   0.182
 6712SOL    HW121035   5.025   5.569   0.088
 6712SOL    HW221036   4.983   5.445   0.185
 6713SOL     OW21037   2.287   1.954   1.782
 6713SOL    HW121038   2.196   1.993   1.782
 6713SOL    HW221039   2.316   1.935   1.688
 6714SOL     OW21040   5.667   0.407   6.073
 6714SOL    HW121041   5.756   0.377   6.107
 6714SOL    HW221042   5.603   0.331   6.074
 6715SOL     OW21043   0.378   0.393   6.695
 6715SOL    HW121044   0.436   0.404   6.615
 6715SOL    HW221045   0.308   0.324   6.676
 6716SOL     OW21046   0.300   5.837   2.467
 6716SOL    HW121047   0.233   5.769   2.497
 6716SOL    HW221048   0.293   5.849   2.368
 6717SOL     OW21049   4.555   2.994   0.290
 6717SOL    HW121050   4.586   3.078   0.336
 6717SOL    HW221051   4.547   3.011   0.192
 6718SOL     OW21052   4.161   6.642   6.124
 6718SOL    HW121053   4.226   6.711   6.156
 6718SOL    HW221054   4.104   6.612   6.201
 6719SOL     OW21055   0.823   6.865   5.827
 6719SOL    HW121056   0.761   6.813   5.887
 6719SOL    HW221057   0.868   6.937   5.880
 6720SOL     OW21058   1.168   5.604   2.838
 6720SOL    HW121059   1.129   5.696   2.833
 6720SOL    HW221060   1.267   5.611   2.856
 6721SOL     OW21061   6.431   6.755   4.922
 6721SOL    HW121062   6.335   6.728   4.931
 6721SOL    HW221063   6.442   6.815   4.843
 6722SOL     OW21064   5.955   3.315   1.883
 6722SOL    HW121065   5.927   3.261   1.962
 6722SOL    HW221066   6.051   3.341   1.893
 6723SOL     OW21067   2.427   6.690   2.878
 6723SOL    HW121068   2.398   6.713   2.786
 6723SOL    HW221069   2.526   6.689   2.884
 6724SOL     OW21070   1.270   3.323   6.131
 6724SOL    HW121071   1.243   3.399   6.072
 6724SOL    HW221072   1.304   3.360   6.218
 6725SOL     OW21073   0.813   4.099   1.735
 6725SOL    HW121074   0.870   4.165   1.687
 6725SOL    HW221075   0.862   4.065   1.815
 6726SOL     OW21076   0.682   2.319   4.706
 6726SOL    HW121077   0.597   2.346   4.751
 6726SOL    HW221078   0.708   2.387   4.638
 6727SOL     OW21079   6.398   3.435   5.776
 6727SOL    HW121080   6.337   3.478   5.843
 6727SOL    HW221081   6.379   3.336   5.773
 6728SOL     OW21082   5.025   1.670   4.172
 6728SOL    HW121083   5.045   1.575   4.149
 6728SOL    HW221084   4.969   1.674   4.254
 6729SOL     OW21085   0.040   1.061   2.461
 6729SOL    HW121086   6.976   1.074   2.409
 6729SOL    HW221087   0.105   1.132   2.437
 6730SOL     OW21088   1.859   6.701   6.223
 6730SOL    HW121089   1.903   6.728   6.308
 6730SOL    HW221090   1.783   6.639   6.243
 6731SOL     OW21091   1.486   4.726   0.796
 6731SOL    HW121092   1.550   4.679   0.857
 6731SOL    HW221093   1.446   4.804   0.844
 6732SOL     OW21094   4.047   5.342   6.574
 6732SOL    HW121095   4.134   5.351   6.526
 6732SOL    HW221096   3.975   5.319   6.509
 6733SOL     OW21097   3.863   5.163   0.148
 6733SOL    HW121098   3.888   5.171   0.245
 6733SOL    HW221099   3.784   5.221   0.130
 6734SOL     OW21100   0.124   3.144   5.438
 6734SOL    HW121101   0.093   3.061   5.393
 6734SOL    HW221102   0.158   3.208   5.370
 6735SOL     OW21103   0.505   5.301   5.291
 6735SOL    HW121104   0.550   5.336   5.209
 6735SOL    HW221105   0.554   5.332   5.372
 6736SOL     OW21106   2.232   3.182   0.160
 6736SOL    HW121107   2.247   3.203   0.063
 6736SOL    HW221108   2.303   3.227   0.215
 6737SOL     OW21109   1.830   2.690   0.921
 6737SOL    HW121110   1.903   2.730   0.977
 6737SOL    HW221111   1.866   2.612   0.871
 6738SOL     OW21112   2.114   3.371   2.278
 6738SOL    HW121113   2.087   3.459   2.318
 6738SOL    HW221114   2.155   3.386   2.188
 6739SOL     OW21115   3.497   5.029   6.448
 6739SOL    HW121116   3.560   4.984   6.512
 6739SOL    HW221117   3.542   5.043   6.360
 6740SOL     OW21118   1.725   1.566   4.521
 6740SOL    HW121119   1.818   1.530   4.527
 6740SOL    HW221120   1.699   1.607   4.609
 6741SOL     OW21121   4.609   1.457   5.903
 6741SOL    HW121122   4.634   1.387   5.836
 6741SOL    HW221123   4.598   1.413   5.993
 6742SOL     OW21124   0.183   5.515   2.698
 6742SOL    HW121125   0.128   5.562   2.767
 6742SOL    HW221126   0.253   5.460   2.743
 6743SOL     OW21127   4.000   4.272   0.102
 6743SOL    HW121128   4.033   4.235   0.015
 6743SOL    HW221129   4.008   4.372   0.101
 6744SOL     OW21130   5.004   5.489   5.687
 6744SOL    HW121131   5.072   5.562   5.677
 6744SOL    HW221132   4.974   5.460   5.597
 6745SOL     OW21133   1.118   6.260   2.099
 6745SOL    HW121134   1.077   6.184   2.150
 6745SOL    HW221135   1.216   6.264   2.117
 6746SOL     OW21136   0.930   0.940   2.991
 6746SOL    HW121137   0.841   0.929   3.033
 6746SOL    HW221138   0.928   0.904   2.898
 6747SOL     OW21139   5.329   0.148   4.873
 6747SOL    HW121140   5.309   0.123   4.968
 6747SOL    HW221141   5.325   0.067   4.816
 6748SOL     OW21142   1.392   0.821   2.918
 6748SOL    HW121143   1.306   0.844   2.962
 6748SOL    HW221144   1.424   0.899   2.863
 6749SOL     OW21145   3.005   5.945   0.570
 6749SOL    HW121146   3.001   5.953   0.470
 6749SOL    HW221147   3.074   6.008   0.606
 6750SOL     OW21148   3.765   1.299   4.350
 6750SOL    HW121149   3.813   1.221   4.389
 6750SOL    HW221150   3.809   1.384   4.379
 6751SOL     OW21151   3.856   1.829   4.010
 6751SOL    HW121152   3.864   1.753   4.074
 6751SOL    HW221153   3.946   1.870   3.994
 6752SOL     OW21154   6.431   3.032   2.561
 6752SOL    HW121155   6.516   3.046   2.612
 6752SOL    HW221156   6.397   3.120   2.527
 6753SOL     OW21157   4.956   0.815   6.501
 6753SOL    HW121158   4.865   0.777   6.485
 6753SOL    HW221159   4.962   0.905   6.458
 6754SOL     OW21160   6.271   1.634   6.186
 6754SOL    HW121161   6.312   1.641   6.095
 6754SOL    HW221162   6.272   1.538   6.216
 6755SOL     OW21163   4.329   1.848   3.393
 6755SOL    HW121164   4.420   1.807   3.403
 6755SOL    HW221165   4.334   1.925   3.329
 6756SOL     OW21166   4.796   4.121   4.808
 6756SOL    HW121167   4.791   4.073   4.721
 6756SOL    HW221168   4.728   4.195   4.810
 6757SOL     OW21169   5.003   6.422   0.612
 6757SOL    HW121170   4.968   6.428   0.706
 6757SOL    HW221171   4.928   6.433   0.547
 6758SOL     OW21172   5.722   3.766   1.691
 6758SOL    HW121173   5.695   3.822   1.769
 6758SOL    HW221174   5.776   3.688   1.722
 6759SOL     OW21175   0.661   3.441   4.613
 6759SOL    HW121176   0.640   3.526   4.565
 6759SOL    HW221177   0.697   3.461   4.704
 6760SOL     OW21178   6.588   5.124   4.441
 6760SOL    HW121179   6.614   5.176   4.522
 6760SOL    HW221180   6.496   5.150   4.413
 6761SOL     OW21181   5.553   2.389   6.304
 6761SOL    HW121182   5.557   2.341   6.391
 6761SOL    HW221183   5.457   2.399   6.276
 6762SOL     OW21184   0.267   5.707   3.241
 6762SOL    HW121185   0.220   5.733   3.156
 6762SOL    HW221186   0.234   5.618   3.272
 6763SOL     OW21187   6.600   6.031   3.895
 6763SOL    HW121188   6.556   6.111   3.937
 6763SOL    HW221189   6.696   6.051   3.878
 6764SOL     OW21190   2.897   4.703   6.487
 6764SOL    HW121191   2.958   4.624   6.498
 6764SOL    HW221192   2.864   4.706   6.393
 6765SOL     OW21193   5.551   5.569   3.477
 6765SOL    HW121194   5.476   5.622   3.437
 6765SOL    HW221195   5.527   5.472   3.479
 6766SOL     OW21196   3.027   6.543   6.555
 6766SOL    HW121197   2.944   6.511   6.510
 6766SOL    HW221198   3.098   6.472   6.546
 6767SOL     OW21199   0.222   2.397   0.989
 6767SOL    HW121200   0.272   2.337   0.926
 6767SOL    HW221201   0.129   2.362   1.001
 6768SOL     OW21202   0.797   0.421   3.534
 6768SOL    HW121203   0.857   0.499   3.551
 6768SOL    HW221204   0.812   0.351   3.605
 6769SOL     OW21205   2.890   0.980   5.062
 6769SOL    HW121206   2.981   0.997   5.023
 6769SOL    HW221207   2.850   0.900   5.018
 6770SOL     OW21208   0.038   2.269   3.564
 6770SOL    HW121209   0.072   2.183   3.527
 6770SOL    HW221210   0.113   2.318   3.609
 6771SOL     OW21211   3.961   2.069   3.521
 6771SOL    HW121212   3.981   1.976   3.553
 6771SOL    HW221213   3.885   2.067   3.456
 6772SOL     OW21214   5.360   1.733   2.338
 6772SOL    HW121215   5.427   1.671   2.379
 6772SOL    HW221216   5.298   1.767   2.409
 6773SOL     OW21217   0.131   6.568   1.349
 6773SOL    HW121218   0.101   6.622   1.271
 6773SOL    HW221219   0.079   6.594   1.431
 6774SOL     OW21220   1.650   2.443   5.243
 6774SOL    HW121221   1.558   2.410   5.262
 6774SOL    HW221222   1.648   2.503   5.162
 6775SOL     OW21223   0.905   1.937   3.536
 6775SOL    HW121224   0.950   1.895   3.457
 6775SOL    HW221225   0.974   1.963   3.604
 6776SOL     OW21226   3.861   3.633   1.983
 6776SOL    HW121227   3.891   3.657   1.891
 6776SOL    HW221228   3.866   3.533   1.995
 6777SOL     OW21229   4.605   5.246   0.937
 6777SOL    HW121230   4.590   5.149   0.917
 6777SOL    HW221231   4.692   5.257   0.985
 6778SOL     OW21232   5.837   3.140   2.437
 6778SOL    HW121233   5.841   3.042   2.418
 6778SOL    HW221234   5.928   3.180   2.424
 6779SOL     OW21235   5.254   4.222   6.093
 6779SOL    HW121236   5.266   4.298   6.030
 6779SOL    HW221237   5.312   4.235   6.173
 6780SOL     OW21238   2.025   3.539   2.846
 6780SOL    HW121239   2.031   3.450   2.802
 6780SOL    HW221240   1.929   3.568   2.849
 6781SOL     OW21241   6.680   1.029   3.587
 6781SOL    HW121242   6.595   1.008   3.539
 6781SOL    HW221243   6.659   1.056   3.681
 6782SOL     OW21244   0.801   1.037   3.519
 6782SOL    HW121245   0.886   1.077   3.483
 6782SOL    HW221246   0.808   0.937   3.515
 6783SOL     OW21247   0.691   3.873   4.845
 6783SOL    HW121248   0.632   3.897   4.922
 6783SOL    HW221249   0.653   3.911   4.761
 6784SOL     OW21250   2.676   3.723   1.653
 6784SOL    HW121251   2.600   3.751   1.595
 6784SOL    HW221252   2.675   3.623   1.662
 6785SOL     OW21253   5.749   4.974   5.497
 6785SOL    HW121254   5.723   4.911   5.572
 6785SOL    HW221255   5.733   5.068   5.526
 6786SOL     OW21256   6.655   2.572   0.479
 6786SOL    HW121257   6.728   2.632   0.512
 6786SOL    HW221258   6.586   2.627   0.432
 6787SOL     OW21259   3.419   2.305   0.921
 6787SOL    HW121260   3.409   2.302   0.821
 6787SOL    HW221261   3.439   2.214   0.955
 6788SOL     OW21262   0.531   3.725   2.665
 6788SOL    HW121263   0.502   3.654   2.601
 6788SOL    HW221264   0.630   3.718   2.680
 6789SOL     OW21265   6.583   4.488   4.623
 6789SOL    HW121266   6.648   4.547   4.672
 6789SOL    HW221267   6.490   4.520   4.640
 6790SOL     OW21268   0.303   4.935   6.101
 6790SOL    HW121269   0.387   4.975   6.136
 6790SOL    HW221270   0.224   4.978   6.145
 6791SOL     OW21271   4.830   1.939   3.319
 6791SOL    HW121272   4.891   1.880   3.267
 6791SOL    HW221273   4.746   1.954   3.268
 6792SOL     OW21274   4.037   6.795   5.205
 6792SOL    HW121275   4.132   6.817   5.224
 6792SOL    HW221276   4.031   6.734   5.126
 6793SOL     OW21277   3.030   2.217   6.986
 6793SOL    HW121278   3.082   2.300   7.010
 6793SOL    HW221279   3.048   2.193   6.891
 6794SOL     OW21280   5.045   0.889   5.500
 6794SOL    HW121281   5.039   0.789   5.499
 6794SOL    HW221282   5.036   0.922   5.594
 6795SOL     OW21283   1.582   0.588   0.917
 6795SOL    HW121284   1.622   0.572   1.007
 6795SOL    HW221285   1.513   0.517   0.898
 6796SOL     OW21286   5.551   1.317   1.775
 6796SOL    HW121287   5.536   1.284   1.868
 6796SOL    HW221288   5.486   1.390   1.754
 6797SOL     OW21289   6.490   2.833   1.321
 6797SOL    HW121290   6.551   2.821   1.243
 6797SOL    HW221291   6.544   2.848   1.404
 6798SOL     OW21292   5.104   0.172   1.676
 6798SOL    HW121293   5.122   0.200   1.581
 6798SOL    HW221294   5.005   0.167   1.691
 6799SOL     OW21295   5.576   0.739   3.004
 6799SOL    HW121296   5.548   0.647   2.976
 6799SOL    HW221297   5.676   0.745   3.002
 6800SOL     OW21298   1.517   2.023   0.990
 6800SOL    HW121299   1.453   1.961   1.036
 6800SOL    HW221300   1.529   1.994   0.895
 6801SOL     OW21301   1.458   6.391   4.634
 6801SOL    HW121302   1.364   6.425   4.645
 6801SOL    HW221303   1.457   6.291   4.627
 6802SOL     OW21304   3.481   6.003   1.147
 6802SOL    HW121305   3.425   6.024   1.067
 6802SOL    HW221306   3.575   5.987   1.119
 6803SOL     OW21307   4.899   4.667   6.629
 6803SOL    HW121308   4.865   4.684   6.536
 6803SOL    HW221309   4.945   4.749   6.663
 6804SOL     OW21310   2.844   5.279   3.151
 6804SOL    HW121311   2.844   5.356   3.214
 6804SOL    HW221312   2.881   5.198   3.198
 6805SOL     OW21313   0.410   4.697   5.996
 6805SOL    HW121314   0.370   4.781   6.033
 6805SOL    HW221315   0.443   4.639   6.071
 6806SOL     OW21316   6.794   1.210   3.955
 6806SOL    HW121317   6.858   1.218   4.032
 6806SOL    HW221318   6.718   1.273   3.969
 6807SOL     OW21319   3.749   3.129   3.855
 6807SOL    HW121320   3.766   3.104   3.951
 6807SOL    HW221321   3.821   3.091   3.798
 6808SOL     OW21322   5.140   1.077   4.858
 6808SOL    HW121323   5.142   1.177   4.863
 6808SOL    HW221324   5.168   1.039   4.946
 6809SOL     OW21325   6.539   4.344   1.378
 6809SOL    HW121326   6.467   4.320   1.314
 6809SOL    HW221327   6.506   4.416   1.440
 6810SOL     OW21328   3.234   1.067   3.378
 6810SOL    HW121329   3.262   0.973   3.398
 6810SOL    HW221330   3.243   1.123   3.461
 6811SOL     OW21331   6.557   2.432   2.156
 6811SOL    HW121332   6.468   2.387   2.158
 6811SOL    HW221333   6.597   2.423   2.065
 6812SOL     OW21334   3.436   3.626   4.545
 6812SOL    HW121335   3.380   3.562   4.598
 6812SOL    HW221336   3.377   3.692   4.499
 6813SOL     OW21337   5.064   3.632   2.044
 6813SOL    HW121338   4.994   3.572   2.083
 6813SOL    HW221339   5.135   3.577   2.001
 6814SOL     OW21340   4.141   1.654   6.029
 6814SOL    HW121341   4.128   1.595   6.108
 6814SOL    HW221342   4.217   1.619   5.974
 6815SOL     OW21343   1.355   5.211   6.797
 6815SOL    HW121344   1.406   5.132   6.764
 6815SOL    HW221345   1.418   5.275   6.842
 6816SOL     OW21346   6.668   1.539   4.349
 6816SOL    HW121347   6.680   1.440   4.342
 6816SOL    HW221348   6.755   1.585   4.333
 6817SOL     OW21349   3.022   2.003   3.279
 6817SOL    HW121350   2.925   2.000   3.304
 6817SOL    HW221351   3.065   2.083   3.321
 6818SOL     OW21352   2.373   6.503   6.104
 6818SOL    HW121353   2.312   6.511   6.025
 6818SOL    HW221354   2.323   6.528   6.187
 6819SOL     OW21355   4.960   6.169   3.039
 6819SOL    HW121356   4.882   6.178   2.977
 6819SOL    HW221357   5.045   6.170   2.985
 6820SOL     OW21358   1.628   6.186   1.473
 6820SOL    HW121359   1.708   6.207   1.528
 6820SOL    HW221360   1.545   6.210   1.523
 6821SOL     OW21361   4.688   2.389   5.556
 6821SOL    HW121362   4.596   2.348   5.559
 6821SOL    HW221363   4.700   2.448   5.635
 6822SOL     OW21364   6.926   2.443   6.771
 6822SOL    HW121365   6.847   2.383   6.758
 6822SOL    HW221366   6.903   2.535   6.739
 6823SOL     OW21367   5.368   3.342   6.705
 6823SOL    HW121368   5.293   3.326   6.641
 6823SOL    HW221369   5.372   3.267   6.771
 6824SOL     OW21370   1.297   1.805   6.771
 6824SOL    HW121371   1.351   1.722   6.780
 6824SOL    HW221372   1.284   1.826   6.674
 6825SOL     OW21373   6.515   6.128   0.796
 6825SOL    HW121374   6.543   6.222   0.814
 6825SOL    HW221375   6.424   6.112   0.833
 6826SOL     OW21376   0.649   3.318   2.999
 6826SOL    HW121377   0.647   3.279   2.907
 6826SOL    HW221378   0.686   3.251   3.063
 6827SOL     OW21379   5.198   5.158   5.664
 6827SOL    HW121380   5.194   5.132   5.567
 6827SOL    HW221381   5.233   5.251   5.672
 6828SOL     OW21382   3.326   1.612   2.749
 6828SOL    HW121383   3.358   1.573   2.662
 6828SOL    HW221384   3.310   1.710   2.737
 6829SOL     OW21385   4.904   6.903   5.159
 6829SOL    HW121386   4.908   6.959   5.076
 6829SOL    HW221387   4.954   6.948   5.232
 6830SOL     OW21388   6.041   1.398   3.064
 6830SOL    HW121389   6.081   1.307   3.053
 6830SOL    HW221390   6.081   1.460   2.997
 6831SOL     OW21391   1.054   1.195   5.725
 6831SOL    HW121392   1.091   1.198   5.633
 6831SOL    HW221393   0.959   1.226   5.725
 6832SOL     OW21394   2.883   2.727   0.119
 6832SOL    HW121395   2.798   2.675   0.108
 6832SOL    HW221396   2.863   2.825   0.116
 6833SOL     OW21397   3.751   5.661   6.117
 6833SOL    HW121398   3.851   5.656   6.113
 6833SOL    HW221399   3.724   5.745   6.164
 6834SOL     OW21400   4.934   0.046   0.470
 6834SOL    HW121401   4.964   6.989   0.525
 6834SOL    HW221402   4.936   0.129   0.526
 6835SOL     OW21403   3.782   1.359   4.088
 6835SOL    HW121404   3.880   1.378   4.087
 6835SOL    HW221405   3.756   1.325   4.179
 6836SOL     OW21406   1.807   4.417   6.730
 6836SOL    HW121407   1.775   4.391   6.639
 6836SOL    HW221408   1.834   4.513   6.729
 6837SOL     OW21409   1.310   1.387   2.647
 6837SOL    HW121410   1.250   1.359   2.572
 6837SOL    HW221411   1.255   1.425   2.722
 6838SOL     OW21412   3.013   4.275   5.275
 6838SOL    HW121413   2.945   4.204   5.257
 6838SOL    HW221414   2.980   4.362   5.240
 6839SOL     OW21415   5.316   2.186   3.688
 6839SOL    HW121416   5.294   2.114   3.754
 6839SOL    HW221417   5.238   2.198   3.626
 6840SOL     OW21418   2.688   6.873   4.879
 6840SOL    HW121419   2.706   6.833   4.789
 6840SOL    HW221420   2.594   6.854   4.906
 6841SOL     OW21421   4.025   5.036   1.908
 6841SOL    HW121422   3.928   5.009   1.911
 6841SOL    HW221423   4.080   4.960   1.873
 6842SOL     OW21424   1.065   3.112   6.758
 6842SOL    HW121425   1.101   3.052   6.830
 6842SOL    HW221426   0.988   3.067   6.713
 6843SOL     OW21427   5.085   1.368   1.767
 6843SOL    HW121428   5.015   1.311   1.723
 6843SOL    HW221429   5.055   1.464   1.765
 6844SOL     OW21430   5.020   5.401   4.565
 6844SOL    HW121431   4.958   5.435   4.494
 6844SOL    HW221432   5.091   5.468   4.583
 6845SOL     OW21433   4.899   4.110   2.137
 6845SOL    HW121434   4.958   4.059   2.075
 6845SOL    HW221435   4.955   4.168   2.197
 6846SOL     OW21436   3.895   3.283   1.128
 6846SOL    HW121437   3.964   3.246   1.066
 6846SOL    HW221438   3.808   3.292   1.079
 6847SOL     OW21439   5.317   3.943   1.991
 6847SOL    HW121440   5.308   4.042   2.005
 6847SOL    HW221441   5.401   3.911   2.036
 6848SOL     OW21442   1.099   4.883   4.320
 6848SOL    HW121443   1.149   4.827   4.254
 6848SOL    HW221444   1.101   4.979   4.290
 6849SOL     OW21445   3.523   5.910   4.357
 6849SOL    HW121446   3.435   5.928   4.313
 6849SOL    HW221447   3.508   5.871   4.447
 6850SOL     OW21448   5.772   2.513   2.942
 6850SOL    HW121449   5.864   2.531   2.908
 6850SOL    HW221450   5.755   2.569   3.023
 6851SOL     OW21451   1.215   4.822   5.403
 6851SOL    HW121452   1.303   4.836   5.449
 6851SOL    HW221453   1.213   4.874   5.318
 6852SOL     OW21454   1.135   4.134   1.236
 6852SOL    HW121455   1.154   4.228   1.261
 6852SOL    HW221456   1.166   4.117   1.142
 6853SOL     OW21457   6.949   4.780   6.645
 6853SOL    HW121458   6.869   4.743   6.694
 6853SOL    HW221459   6.923   4.800   6.550
 6854SOL     OW21460   6.078   1.166   5.781
 6854SOL    HW121461   6.100   1.162   5.878
 6854SOL    HW221462   5.979   1.161   5.769
 6855SOL     OW21463   3.319   7.007   2.823
 6855SOL    HW121464   3.248   6.968   2.764
 6855SOL    HW221465   3.358   6.935   2.880
 6856SOL     OW21466   5.119   4.456   5.286
 6856SOL    HW121467   5.167   4.370   5.305
 6856SOL    HW221468   5.059   4.479   5.362
 6857SOL     OW21469   3.206   0.928   6.461
 6857SOL    HW121470   3.107   0.925   6.472
 6857SOL    HW221471   3.236   1.023   6.455
 6858SOL     OW21472   3.887   2.993   4.662
 6858SOL    HW121473   3.825   3.060   4.620
 6858SOL    HW221474   3.957   3.042   4.715
 6859SOL     OW21475   1.727   6.561   1.092
 6859SOL    HW121476   1.694   6.467   1.096
 6859SOL    HW221477   1.808   6.571   1.151
 6860SOL     OW21478   6.060   4.976   1.511
 6860SOL    HW121479   6.119   4.907   1.553
 6860SOL    HW221480   6.113   5.031   1.446
 6861SOL     OW21481   5.422   4.249   1.152
 6861SOL    HW121482   5.392   4.160   1.186
 6861SOL    HW221483   5.365   4.277   1.075
 6862SOL     OW21484   2.729   4.941   4.707
 6862SOL    HW121485   2.807   4.915   4.650
 6862SOL    HW221486   2.742   5.034   4.741
 6863SOL     OW21487   6.153   1.113   5.098
 6863SOL    HW121488   6.108   1.115   5.187
 6863SOL    HW221489   6.083   1.111   5.026
 6864SOL     OW21490   3.682   5.989   4.163
 6864SOL    HW121491   3.640   5.970   4.252
 6864SOL    HW221492   3.774   5.949   4.161
 6865SOL     OW21493   6.450   4.950   3.571
 6865SOL    HW121494   6.549   4.935   3.582
 6865SOL    HW221495   6.417   5.009   3.645
 6866SOL     OW21496   6.804   4.384   1.902
 6866SOL    HW121497   6.766   4.420   1.988
 6866SOL    HW221498   6.750   4.417   1.825
 6867SOL     OW21499   1.371   4.429   0.948
 6867SOL    HW121500   1.366   4.511   1.004
 6867SOL    HW221501   1.361   4.453   0.852
 6868SOL     OW21502   1.686   5.875   5.245
 6868SOL    HW121503   1.720   5.867   5.338
 6868SOL    HW221504   1.604   5.933   5.244
 6869SOL     OW21505   5.437   2.815   5.503
 6869SOL    HW121506   5.432   2.734   5.444
 6869SOL    HW221507   5.418   2.896   5.448
 6870SOL     OW21508   6.444   3.655   2.974
 6870SOL    HW121509   6.410   3.564   2.999
 6870SOL    HW221510   6.380   3.698   2.911
 6871SOL     OW21511   6.178   4.878   2.033
 6871SOL    HW121512   6.183   4.806   2.103
 6871SOL    HW221513   6.248   4.862   1.964
 6872SOL     OW21514   2.362   3.999   1.162
 6872SOL    HW121515   2.386   3.905   1.139
 6872SOL    HW221516   2.298   4.034   1.094
 6873SOL     OW21517   6.206   3.225   5.781
 6873SOL    HW121518   6.194   3.270   5.693
 6873SOL    HW221519   6.178   3.130   5.774
 6874SOL     OW21520   0.761   3.611   3.693
 6874SOL    HW121521   0.827   3.685   3.704
 6874SOL    HW221522   0.699   3.632   3.618
 6875SOL     OW21523   1.752   2.464   3.862
 6875SOL    HW121524   1.837   2.429   3.824
 6875SOL    HW221525   1.758   2.564   3.872
 6876SOL     OW21526   3.604   5.588   6.822
 6876SOL    HW121527   3.604   5.493   6.790
 6876SOL    HW221528   3.521   5.633   6.790
 6877SOL     OW21529   2.603   4.137   0.041
 6877SOL    HW121530   2.527   4.075   0.062
 6877SOL    HW221531   2.571   4.209   7.000
 6878SOL     OW21532   2.104   1.509   5.500
 6878SOL    HW121533   2.113   1.595   5.550
 6878SOL    HW221534   2.049   1.524   5.417
 6879SOL     OW21535   0.831   2.323   0.243
 6879SOL    HW121536   0.815   2.250   0.176
 6879SOL    HW221537   0.875   2.400   0.198
 6880SOL     OW21538   2.019   3.429   5.246
 6880SOL    HW121539   2.091   3.364   5.223
 6880SOL    HW221540   1.939   3.380   5.281
 6881SOL     OW21541   6.961   4.621   1.920
 6881SOL    HW121542   6.883   4.681   1.901
 6881SOL    HW221543   6.931   4.526   1.919
 6882SOL     OW21544   2.213   0.356   5.682
 6882SOL    HW121545   2.298   0.394   5.645
 6882SOL    HW221546   2.220   0.257   5.689
 6883SOL     OW21547   3.585   0.854   0.795
 6883SOL    HW121548   3.493   0.816   0.805
 6883SOL    HW221549   3.610   0.854   0.698
 6884SOL     OW21550   2.230   3.966   3.884
 6884SOL    HW121551   2.243   4.065   3.875
 6884SOL    HW221552   2.179   3.932   3.805
 6885SOL     OW21553   2.848   5.370   3.990
 6885SOL    HW121554   2.882   5.463   3.979
 6885SOL    HW221555   2.909   5.318   4.048
 6886SOL     OW21556   6.562   0.734   2.208
 6886SOL    HW121557   6.621   0.689   2.275
 6886SOL    HW221558   6.585   0.703   2.116
 6887SOL     OW21559   5.055   0.000   5.370
 6887SOL    HW121560   5.133   6.964   5.397
 6887SOL    HW221561   5.054   0.084   5.424
 6888SOL     OW21562   5.845   6.633   6.041
 6888SOL    HW121563   5.899   6.677   6.113
 6888SOL    HW221564   5.870   6.673   5.952
 6889SOL     OW21565   1.211   2.682   5.317
 6889SOL    HW121566   1.210   2.759   5.381
 6889SOL    HW221567   1.147   2.612   5.349
 6890SOL     OW21568   2.342   6.366   0.612
 6890SOL    HW121569   2.371   6.271   0.623
 6890SOL    HW221570   2.390   6.407   0.534
 6891SOL     OW21571   2.089   3.918   4.674
 6891SOL    HW121572   2.130   3.892   4.761
 6891SOL    HW221573   2.092   3.841   4.611
 6892SOL     OW21574   4.362   0.584   4.476
 6892SOL    HW121575   4.456   0.611   4.499
 6892SOL    HW221576   4.334   0.507   4.533
 6893SOL     OW21577   5.538   6.839   1.776
 6893SOL    HW121578   5.572   6.854   1.869
 6893SOL    HW221579   5.557   6.919   1.720
 6894SOL     OW21580   5.875   5.949   0.693
 6894SOL    HW121581   5.845   6.015   0.624
 6894SOL    HW221582   5.845   5.980   0.783
 6895SOL     OW21583   3.023   5.140   0.151
 6895SOL    HW121584   2.954   5.078   0.113
 6895SOL    HW221585   3.101   5.087   0.183
 6896SOL     OW21586   3.449   6.685   3.803
 6896SOL    HW121587   3.377   6.696   3.872
 6896SOL    HW221588   3.503   6.769   3.799
 6897SOL     OW21589   2.928   3.546   6.936
 6897SOL    HW121590   2.853   3.520   6.997
 6897SOL    HW221591   2.904   3.629   6.887
 6898SOL     OW21592   3.908   1.610   1.963
 6898SOL    HW121593   3.919   1.521   2.006
 6898SOL    HW221594   3.861   1.600   1.875
 6899SOL     OW21595   5.012   7.002   6.778
 6899SOL    HW121596   5.033   6.983   6.874
 6899SOL    HW221597   5.097   7.001   6.725
 6900SOL     OW21598   6.311   0.218   6.013
 6900SOL    HW121599   6.357   0.267   6.088
 6900SOL    HW221600   6.278   0.130   6.046
 6901SOL     OW21601   0.147   0.259   6.660
 6901SOL    HW121602   0.153   0.159   6.666
 6901SOL    HW221603   0.106   0.285   6.572
 6902SOL     OW21604   0.138   6.292   0.862
 6902SOL    HW121605   0.061   6.254   0.809
 6902SOL    HW221606   0.209   6.223   0.871
 6903SOL     OW21607   3.442   3.758   6.290
 6903SOL    HW121608   3.536   3.739   6.262
 6903SOL    HW221609   3.442   3.832   6.358
 6904SOL     OW21610   0.091   0.974   3.315
 6904SOL    HW121611   7.021   1.014   3.303
 6904SOL    HW221612   0.098   0.935   3.407
 6905SOL     OW21613   6.220   6.187   0.039
 6905SOL    HW121614   6.172   6.201   6.973
 6905SOL    HW221615   6.155   6.159   0.109
 6906SOL     OW21616   4.058   1.375   4.087
 6906SOL    HW121617   4.093   1.289   4.125
 6906SOL    HW221618   4.115   1.451   4.120
 6907SOL     OW21619   4.297   2.105   0.792
 6907SOL    HW121620   4.302   2.187   0.735
 6907SOL    HW221621   4.221   2.114   0.857
 6908SOL     OW21622   0.943   0.060   5.372
 6908SOL    HW121623   1.004   0.138   5.359
 6908SOL    HW221624   0.992   7.009   5.422
 6909SOL     OW21625   4.975   4.944   1.205
 6909SOL    HW121626   5.002   4.850   1.228
 6909SOL    HW221627   5.052   4.990   1.160
 6910SOL     OW21628   6.635   2.387   2.968
 6910SOL    HW121629   6.685   2.461   3.013
 6910SOL    HW221630   6.672   2.373   2.876
 6911SOL     OW21631   3.789   0.820   2.961
 6911SOL    HW121632   3.695   0.825   2.996
 6911SOL    HW221633   3.832   0.910   2.967
 6912SOL     OW21634   5.117   4.907   1.581
 6912SOL    HW121635   5.161   4.884   1.495
 6912SOL    HW221636   5.030   4.953   1.564
 6913SOL     OW21637   4.971   4.193   5.424
 6913SOL    HW121638   5.068   4.178   5.445
 6913SOL    HW221639   4.930   4.108   5.392
 6914SOL     OW21640   5.825   5.258   7.014
 6914SOL    HW121641   5.882   5.176   0.000
 6914SOL    HW221642   5.799   5.289   0.085
 6915SOL     OW21643   0.338   4.805   1.712
 6915SOL    HW121644   0.358   4.867   1.635
 6915SOL    HW221645   0.296   4.857   1.786
 6916SOL     OW21646   6.259   3.876   6.688
 6916SOL    HW121647   6.346   3.861   6.734
 6916SOL    HW221648   6.207   3.946   6.735
 6917SOL     OW21649   4.074   5.077   6.974
 6917SOL    HW121650   4.029   5.114   6.892
 6917SOL    HW221651   4.009   5.079   0.029
 6918SOL     OW21652   0.324   4.135   4.523
 6918SOL    HW121653   0.389   4.060   4.510
 6918SOL    HW221654   0.367   4.206   4.579
 6919SOL     OW21655   1.423   5.584   2.428
 6919SOL    HW121656   1.432   5.522   2.350
 6919SOL    HW221657   1.402   5.676   2.395
 6920SOL     OW21658   5.076   4.906   5.724
 6920SOL    HW121659   5.114   4.997   5.735
 6920SOL    HW221660   5.077   4.859   5.812
 6921SOL     OW21661   5.148   5.883   3.320
 6921SOL    HW121662   5.124   5.877   3.223
 6921SOL    HW221663   5.132   5.977   3.352
 6922SOL     OW21664   1.801   5.807   6.874
 6922SOL    HW121665   1.723   5.837   6.819
 6922SOL    HW221666   1.813   5.870   6.951
 6923SOL     OW21667   5.551   6.792   3.915
 6923SOL    HW121668   5.628   6.751   3.866
 6923SOL    HW221669   5.585   6.868   3.971
 6924SOL     OW21670   1.054   3.968   6.663
 6924SOL    HW121671   1.147   3.953   6.629
 6924SOL    HW221672   1.032   4.066   6.659
 6925SOL     OW21673   4.134   6.020   4.274
 6925SOL    HW121674   4.148   6.028   4.176
 6925SOL    HW221675   4.100   6.107   4.310
 6926SOL     OW21676   3.332   3.179   2.737
 6926SOL    HW121677   3.369   3.238   2.666
 6926SOL    HW221678   3.403   3.159   2.805
 6927SOL     OW21679   5.900   2.762   6.692
 6927SOL    HW121680   5.816   2.717   6.725
 6927SOL    HW221681   5.911   2.743   6.595
 6928SOL     OW21682   5.774   6.907   0.451
 6928SOL    HW121683   5.690   6.884   0.401
 6928SOL    HW221684   5.771   7.003   0.478
 6929SOL     OW21685   4.879   5.746   0.391
 6929SOL    HW121686   4.820   5.665   0.382
 6929SOL    HW221687   4.973   5.717   0.405
 6930SOL     OW21688   0.218   6.847   1.559
 6930SOL    HW121689   0.159   6.909   1.507
 6930SOL    HW221690   0.282   6.901   1.614
 6931SOL     OW21691   0.936   0.762   1.778
 6931SOL    HW121692   0.963   0.798   1.689
 6931SOL    HW221693   0.883   0.830   1.828
 6932SOL     OW21694   3.766   0.924   0.192
 6932SOL    HW121695   3.844   0.982   0.212
 6932SOL    HW221696   3.784   0.831   0.224
 6933SOL     OW21697   3.444   6.235   4.715
 6933SOL    HW121698   3.486   6.325   4.707
 6933SOL    HW221699   3.388   6.217   4.634
 6934SOL     OW21700   5.111   3.851   5.847
 6934SOL    HW121701   5.106   3.918   5.921
 6934SOL    HW221702   5.021   3.842   5.805
 6935SOL     OW21703   4.015   6.760   2.915
 6935SOL    HW121704   4.019   6.843   2.971
 6935SOL    HW221705   3.979   6.685   2.970
 6936SOL     OW21706   6.474   2.459   2.517
 6936SOL    HW121707   6.522   2.515   2.449
 6936SOL    HW221708   6.406   2.403   2.472
 6937SOL     OW21709   6.157   6.733   0.313
 6937SOL    HW121710   6.066   6.767   0.288
 6937SOL    HW221711   6.220   6.810   0.324
 6938SOL     OW21712   4.982   3.677   5.521
 6938SOL    HW121713   4.911   3.629   5.471
 6938SOL    HW221714   4.944   3.761   5.561
 6939SOL     OW21715   0.244   4.726   2.999
 6939SOL    HW121716   0.237   4.643   3.055
 6939SOL    HW221717   0.268   4.803   3.058
 6940SOL     OW21718   4.728   0.968   0.582
 6940SOL    HW121719   4.653   1.034   0.579
 6940SOL    HW221720   4.726   0.911   0.500
 6941SOL     OW21721   3.955   3.068   2.901
 6941SOL    HW121722   4.014   3.126   2.957
 6941SOL    HW221723   3.923   2.990   2.955
 6942SOL     OW21724   6.669   2.841   1.083
 6942SOL    HW121725   6.663   2.941   1.088
 6942SOL    HW221726   6.749   2.814   1.030
 6943SOL     OW21727   5.224   6.372   6.752
 6943SOL    HW121728   5.206   6.367   6.851
 6943SOL    HW221729   5.148   6.332   6.702
 6944SOL     OW21730   1.391   4.390   5.388
 6944SOL    HW121731   1.451   4.327   5.438
 6944SOL    HW221732   1.444   4.468   5.356
 6945SOL     OW21733   5.663   2.685   6.802
 6945SOL    HW121734   5.567   2.659   6.791
 6945SOL    HW221735   5.689   2.681   6.898
 6946SOL     OW21736   6.067   5.503   2.307
 6946SOL    HW121737   6.048   5.405   2.308
 6946SOL    HW221738   6.045   5.541   2.397
 6947SOL     OW21739   3.842   6.967   4.799
 6947SOL    HW121740   3.742   6.958   4.802
 6947SOL    HW221741   3.872   7.020   4.878
 6948SOL     OW21742   5.880   0.644   0.411
 6948SOL    HW121743   5.843   0.558   0.447
 6948SOL    HW221744   5.888   0.710   0.486
 6949SOL     OW21745   5.325   6.707   4.065
 6949SOL    HW121746   5.308   6.771   4.141
 6949SOL    HW221747   5.414   6.726   4.025
 6950SOL     OW21748   2.263   6.906   3.282
 6950SOL    HW121749   2.238   6.904   3.379
 6950SOL    HW221750   2.354   6.866   3.270
 6951SOL     OW21751   6.267   6.273   5.978
 6951SOL    HW121752   6.219   6.291   6.064
 6951SOL    HW221753   6.354   6.322   5.979
 6952SOL     OW21754   0.279   5.458   3.413
 6952SOL    HW121755   0.265   5.365   3.379
 6952SOL    HW221756   0.193   5.496   3.446
 6953SOL     OW21757   4.870   0.291   6.136
 6953SOL    HW121758   4.963   0.254   6.130
 6953SOL    HW221759   4.865   0.353   6.214
 6954SOL     OW21760   1.015   4.195   4.250
 6954SOL    HW121761   1.098   4.248   4.270
 6954SOL    HW221762   1.018   4.109   4.302
 6955SOL     OW21763   6.646   0.380   2.037
 6955SOL    HW121764   6.673   0.355   1.944
 6955SOL    HW221765   6.670   0.307   2.100
 6956SOL     OW21766   3.901   6.503   2.638
 6956SOL    HW121767   3.932   6.469   2.549
 6956SOL    HW221768   3.955   6.462   2.711
 6957SOL     OW21769   6.971   4.823   1.671
 6957SOL    HW121770   6.964   4.791   1.577
 6957SOL    HW221771   0.011   4.762   1.723
 6958SOL     OW21772   2.978   3.679   5.402
 6958SOL    HW121773   2.950   3.739   5.327
 6958SOL    HW221774   3.074   3.695   5.423
 6959SOL     OW21775   1.884   1.256   4.606
 6959SOL    HW121776   1.894   1.329   4.672
 6959SOL    HW221777   1.810   1.194   4.635
 6960SOL     OW21778   0.685   5.178   0.559
 6960SOL    HW121779   0.702   5.127   0.643
 6960SOL    HW221780   0.678   5.276   0.580
 6961SOL     OW21781   0.117   2.534   4.296
 6961SOL    HW121782   0.099   2.474   4.373
 6961SOL    HW221783   0.215   2.552   4.289
 6962SOL     OW21784   5.105   5.302   2.540
 6962SOL    HW121785   5.083   5.211   2.506
 6962SOL    HW221786   5.204   5.316   2.539
 6963SOL     OW21787   0.493   5.572   0.360
 6963SOL    HW121788   0.585   5.584   0.396
 6963SOL    HW221789   0.435   5.649   0.390
 6964SOL     OW21790   5.082   4.732   4.542
 6964SOL    HW121791   5.099   4.716   4.639
 6964SOL    HW221792   5.070   4.644   4.495
 6965SOL     OW21793   0.574   3.675   6.225
 6965SOL    HW121794   0.533   3.645   6.139
 6965SOL    HW221795   0.529   3.630   6.301
 6966SOL     OW21796   5.947   2.883   3.024
 6966SOL    HW121797   5.875   2.869   3.092
 6966SOL    HW221798   6.034   2.850   3.060
 6967SOL     OW21799   1.491   1.580   5.547
 6967SOL    HW121800   1.569   1.582   5.611
 6967SOL    HW221801   1.491   1.493   5.499
 6968SOL     OW21802   3.370   6.381   2.623
 6968SOL    HW121803   3.469   6.395   2.615
 6968SOL    HW221804   3.328   6.390   2.533
 6969SOL     OW21805   3.835   1.986   1.613
 6969SOL    HW121806   3.855   1.957   1.519
 6969SOL    HW221807   3.812   2.083   1.614
 6970SOL     OW21808   4.709   3.906   0.250
 6970SOL    HW121809   4.735   3.809   0.245
 6970SOL    HW221810   4.644   3.919   0.324
 6971SOL     OW21811   6.414   4.029   2.264
 6971SOL    HW121812   6.471   4.035   2.346
 6971SOL    HW221813   6.318   4.037   2.290
 6972SOL     OW21814   6.107   5.320   4.019
 6972SOL    HW121815   6.166   5.275   3.952
 6972SOL    HW221816   6.103   5.264   4.102
 6973SOL     OW21817   1.050   3.949   4.635
 6973SOL    HW121818   1.150   3.937   4.638
 6973SOL    HW221819   1.010   3.913   4.719
 6974SOL     OW21820   3.460   3.037   3.332
 6974SOL    HW121821   3.547   3.010   3.290
 6974SOL    HW221822   3.449   2.990   3.420
 6975SOL     OW21823   3.083   6.508   5.610
 6975SOL    HW121824   3.054   6.496   5.705
 6975SOL    HW221825   3.165   6.453   5.593
 6976SOL     OW21826   3.920   4.216   5.887
 6976SOL    HW121827   3.834   4.167   5.874
 6976SOL    HW221828   3.929   4.243   5.983
 6977SOL     OW21829   5.196   2.409   1.596
 6977SOL    HW121830   5.176   2.450   1.685
 6977SOL    HW221831   5.111   2.391   1.547
 6978SOL     OW21832   6.351   1.901   1.177
 6978SOL    HW121833   6.269   1.934   1.131
 6978SOL    HW221834   6.345   1.920   1.275
 6979SOL     OW21835   1.070   4.987   1.280
 6979SOL    HW121836   1.122   4.912   1.321
 6979SOL    HW221837   1.047   5.054   1.351
 6980SOL     OW21838   1.669   0.155   3.994
 6980SOL    HW121839   1.645   0.252   4.003
 6980SOL    HW221840   1.675   0.114   4.084
 6981SOL     OW21841   2.296   2.980   6.755
 6981SOL    HW121842   2.338   2.922   6.685
 6981SOL    HW221843   2.272   2.924   6.835
 6982SOL     OW21844   1.480   1.681   3.906
 6982SOL    HW121845   1.398   1.626   3.921
 6982SOL    HW221846   1.546   1.630   3.851
 6983SOL     OW21847   5.815   2.325   3.280
 6983SOL    HW121848   5.901   2.376   3.279
 6983SOL    HW221849   5.831   2.233   3.246
 6984SOL     OW21850   2.463   1.803   4.881
 6984SOL    HW121851   2.561   1.801   4.903
 6984SOL    HW221852   2.410   1.797   4.966
 6985SOL     OW21853   3.574   5.151   2.540
 6985SOL    HW121854   3.662   5.171   2.497
 6985SOL    HW221855   3.501   5.155   2.472
 6986SOL     OW21856   1.551   6.397   6.356
 6986SOL    HW121857   1.512   6.436   6.439
 6986SOL    HW221858   1.603   6.467   6.307
 6987SOL     OW21859   0.970   2.088   6.488
 6987SOL    HW121860   1.031   2.008   6.491
 6987SOL    HW221861   1.005   2.159   6.549
 6988SOL     OW21862   6.312   0.818   4.967
 6988SOL    HW121863   6.277   0.903   4.927
 6988SOL    HW221864   6.349   0.760   4.895
 6989SOL     OW21865   0.828   3.002   3.751
 6989SOL    HW121866   0.921   3.031   3.729
 6989SOL    HW221867   0.764   3.072   3.720
 6990SOL     OW21868   5.074   1.978   0.146
 6990SOL    HW121869   5.111   1.908   0.207
 6990SOL    HW221870   5.148   2.042   0.122
 6991SOL     OW21871   2.411   4.386   4.229
 6991SOL    HW121872   2.413   4.463   4.166
 6991SOL    HW221873   2.458   4.410   4.314
 6992SOL     OW21874   6.353   6.296   4.933
 6992SOL    HW121875   6.451   6.277   4.930
 6992SOL    HW221876   6.305   6.230   4.876
 6993SOL     OW21877   6.558   0.071   2.504
 6993SOL    HW121878   6.516   0.146   2.554
 6993SOL    HW221879   6.516   0.063   2.414
 6994SOL     OW21880   0.847   3.139   4.891
 6994SOL    HW121881   0.889   3.097   4.810
 6994SOL    HW221882   0.898   3.112   4.973
 6995SOL     OW21883   5.916   5.641   5.131
 6995SOL    HW121884   5.999   5.695   5.142
 6995SOL    HW221885   5.896   5.628   5.034
 6996SOL     OW21886   1.888   0.955   4.892
 6996SOL    HW121887   1.894   0.902   4.977
 6996SOL    HW221888   1.920   1.048   4.908
 6997SOL     OW21889   5.201   6.020   5.250
 6997SOL    HW121890   5.171   6.108   5.212
 6997SOL    HW221891   5.283   5.989   5.202
 6998SOL     OW21892   1.656   2.358   1.892
 6998SOL    HW121893   1.653   2.448   1.848
 6998SOL    HW221894   1.703   2.294   1.832
 6999SOL     OW21895   2.385   2.202   6.813
 6999SOL    HW121896   2.375   2.189   6.715
 6999SOL    HW221897   2.395   2.114   6.858
 7000SOL     OW21898   0.228   5.964   2.810
 7000SOL    HW121899   0.231   6.063   2.829
 7000SOL    HW221900   0.317   5.924   2.834
 7001SOL     OW21901   2.452   2.930   5.756
 7001SOL    HW121902   2.469   2.952   5.852
 7001SOL    HW221903   2.451   3.015   5.702
 7002SOL     OW21904   2.320   4.682   2.838
 7002SOL    HW121905   2.272   4.615   2.894
 7002SOL    HW221906   2.254   4.744   2.796
 7003SOL     OW21907   3.893   6.254   6.955
 7003SOL    HW121908   3.916   6.350   6.971
 7003SOL    HW221909   3.971   6.197   6.978
 7004SOL     OW21910   2.036   4.935   1.900
 7004SOL    HW121911   2.112   4.987   1.860
 7004SOL    HW221912   2.057   4.837   1.897
 7005SOL     OW21913   0.544   6.176   5.798
 7005SOL    HW121914   0.565   6.103   5.864
 7005SOL    HW221915   0.447   6.172   5.776
 7006SOL     OW21916   6.011   5.185   4.295
 7006SOL    HW121917   5.941   5.240   4.250
 7006SOL    HW221918   5.980   5.160   4.387
 7007SOL     OW21919   5.065   6.740   3.047
 7007SOL    HW121920   5.076   6.840   3.041
 7007SOL    HW221921   5.039   6.704   2.957
 7008SOL     OW21922   2.123   5.764   4.646
 7008SOL    HW121923   2.148   5.775   4.550
 7008SOL    HW221924   2.164   5.681   4.682
 7009SOL     OW21925   5.789   5.414   2.305
 7009SOL    HW121926   5.871   5.357   2.302
 7009SOL    HW221927   5.738   5.403   2.220
 7010SOL     OW21928   3.944   3.633   5.976
 7010SOL    HW121929   3.948   3.729   5.948
 7010SOL    HW221930   4.028   3.609   6.025
 7011SOL     OW21931   1.665   0.711   6.313
 7011SOL    HW121932   1.736   0.759   6.365
 7011SOL    HW221933   1.704   0.676   6.228
 7012SOL     OW21934   2.413   1.155   2.355
 7012SOL    HW121935   2.390   1.178   2.449
 7012SOL    HW221936   2.507   1.122   2.351
 7013SOL     OW21937   0.007   6.304   1.230
 7013SOL    HW121938   0.031   6.396   1.262
 7013SOL    HW221939   0.089   6.259   1.193
 7014SOL     OW21940   4.718   3.088   1.080
 7014SOL    HW121941   4.621   3.070   1.098
 7014SOL    HW221942   4.756   3.145   1.152
 7015SOL     OW21943   5.778   4.567   2.044
 7015SOL    HW121944   5.759   4.528   1.954
 7015SOL    HW221945   5.696   4.610   2.080
 7016SOL     OW21946   3.837   4.942   2.160
 7016SOL    HW121947   3.809   5.038   2.169
 7016SOL    HW221948   3.757   4.886   2.136
 7017SOL     OW21949   2.257   0.191   1.846
 7017SOL    HW121950   2.158   0.194   1.830
 7017SOL    HW221951   2.282   0.260   1.914
 7018SOL     OW21952   6.534   3.957   4.982
 7018SOL    HW121953   6.593   3.927   4.907
 7018SOL    HW221954   6.440   3.930   4.963
 7019SOL     OW21955   3.073   4.487   6.522
 7019SOL    HW121956   3.123   4.466   6.606
 7019SOL    HW221957   3.027   4.405   6.489
 7020SOL     OW21958   6.460   6.623   6.455
 7020SOL    HW121959   6.464   6.721   6.434
 7020SOL    HW221960   6.456   6.610   6.554
 7021SOL     OW21961   2.161   1.234   5.509
 7021SOL    HW121962   2.258   1.219   5.527
 7021SOL    HW221963   2.137   1.327   5.535
 7022SOL     OW21964   4.614   4.498   0.946
 7022SOL    HW121965   4.554   4.427   0.908
 7022SOL    HW221966   4.569   4.586   0.939
 7023SOL     OW21967   0.409   2.235   3.573
 7023SOL    HW121968   0.346   2.291   3.625
 7023SOL    HW221969   0.435   2.155   3.627
 7024SOL     OW21970   1.152   5.437   5.806
 7024SOL    HW121971   1.205   5.499   5.748
 7024SOL    HW221972   1.208   5.357   5.829
 7025SOL     OW21973   3.098   1.250   0.035
 7025SOL    HW121974   3.006   1.211   0.042
 7025SOL    HW221975   3.122   1.261   6.960
 7026SOL     OW21976   2.850   1.529   2.022
 7026SOL    HW121977   2.942   1.559   2.049
 7026SOL    HW221978   2.792   1.609   2.009
 7027SOL     OW21979   3.008   5.272   2.915
 7027SOL    HW121980   2.967   5.236   2.831
 7027SOL    HW221981   2.936   5.289   2.982
 7028SOL     OW21982   6.120   6.565   4.401
 7028SOL    HW121983   6.183   6.489   4.391
 7028SOL    HW221984   6.170   6.648   4.426
 7029SOL     OW21985   4.054   6.672   6.884
 7029SOL    HW121986   4.126   6.738   6.904
 7029SOL    HW221987   3.996   6.707   6.810
 7030SOL     OW21988   6.540   2.449   5.722
 7030SOL    HW121989   6.543   2.396   5.806
 7030SOL    HW221990   6.582   2.539   5.737
 7031SOL     OW21991   1.835   5.538   3.795
 7031SOL    HW121992   1.818   5.624   3.747
 7031SOL    HW221993   1.812   5.461   3.735
 7032SOL     OW21994   3.223   6.781   3.958
 7032SOL    HW121995   3.153   6.852   3.963
 7032SOL    HW221996   3.312   6.820   3.983
 7033SOL     OW21997   6.674   1.677   3.167
 7033SOL    HW121998   6.689   1.607   3.237
 7033SOL    HW221999   6.616   1.749   3.204
 7034SOL     OW22000   6.161   0.236   2.731
 7034SOL    HW122001   6.157   0.336   2.733
 7034SOL    HW222002   6.070   0.199   2.748
 7035SOL     OW22003   1.507   6.755   2.109
 7035SOL    HW122004   1.588   6.800   2.146
 7035SOL    HW222005   1.482   6.678   2.168
 7036SOL     OW22006   6.982   0.452   1.676
 7036SOL    HW122007   6.985   0.414   1.583
 7036SOL    HW222008   6.896   0.502   1.688
 7037SOL     OW22009   1.099   0.283   6.387
 7037SOL    HW122010   1.182   0.338   6.402
 7037SOL    HW222011   1.019   0.334   6.417
 7038SOL     OW22012   1.676   3.730   4.292
 7038SOL    HW122013   1.579   3.705   4.296
 7038SOL    HW222014   1.732   3.647   4.287
 7039SOL     OW22015   2.876   5.750   0.713
 7039SOL    HW122016   2.934   5.669   0.706
 7039SOL    HW222017   2.930   5.832   0.696
 7040SOL     OW22018   5.224   2.325   5.212
 7040SOL    HW122019   5.312   2.305   5.169
 7040SOL    HW222020   5.151   2.316   5.144
 7041SOL     OW22021   0.970   1.630   3.065
 7041SOL    HW122022   0.931   1.647   2.975
 7041SOL    HW222023   0.933   1.544   3.102
 7042SOL     OW22024   5.556   5.524   6.768
 7042SOL    HW122025   5.606   5.588   6.710
 7042SOL    HW222026   5.587   5.431   6.750
 7043SOL     OW22027   2.283   2.869   3.001
 7043SOL    HW122028   2.346   2.947   3.008
 7043SOL    HW222029   2.329   2.787   3.034
 7044SOL     OW22030   4.947   4.704   3.320
 7044SOL    HW122031   4.983   4.740   3.234
 7044SOL    HW222032   5.012   4.637   3.357
 7045SOL     OW22033   4.987   5.852   2.289
 7045SOL    HW122034   4.978   5.761   2.329
 7045SOL    HW222035   4.909   5.908   2.316
 7046SOL     OW22036   3.752   1.964   3.357
 7046SOL    HW122037   3.677   1.977   3.421
 7046SOL    HW222038   3.750   2.036   3.287
 7047SOL     OW22039   1.131   2.271   3.032
 7047SOL    HW122040   1.091   2.180   3.020
 7047SOL    HW222041   1.122   2.299   3.127
 7048SOL     OW22042   6.925   5.414   1.762
 7048SOL    HW122043   6.864   5.373   1.695
 7048SOL    HW222044   6.872   5.458   1.834
 7049SOL     OW22045   2.598   1.255   0.797
 7049SOL    HW122046   2.597   1.346   0.756
 7049SOL    HW222047   2.680   1.206   0.766
 7050SOL     OW22048   3.657   4.121   3.344
 7050SOL    HW122049   3.714   4.202   3.361
 7050SOL    HW222050   3.563   4.140   3.372
 7051SOL     OW22051   0.356   1.005   0.948
 7051SOL    HW122052   0.360   0.960   0.858
 7051SOL    HW222053   0.368   1.104   0.936
 7052SOL     OW22054   6.301   2.591   4.097
 7052SOL    HW122055   6.322   2.651   4.174
 7052SOL    HW222056   6.214   2.619   4.056
 7053SOL     OW22057   1.136   3.255   5.004
 7053SOL    HW122058   1.102   3.301   5.085
 7053SOL    HW222059   1.156   3.159   5.025
 7054SOL     OW22060   1.008   5.943   1.370
 7054SOL    HW122061   1.059   6.024   1.399
 7054SOL    HW222062   1.071   5.868   1.351
 7055SOL     OW22063   4.025   6.474   5.304
 7055SOL    HW122064   3.955   6.539   5.273
 7055SOL    HW222065   4.116   6.514   5.291
 7056SOL     OW22066   5.494   5.818   3.191
 7056SOL    HW122067   5.591   5.808   3.213
 7056SOL    HW222068   5.440   5.761   3.253
 7057SOL     OW22069   1.399   5.114   3.791
 7057SOL    HW122070   1.438   5.096   3.881
 7057SOL    HW222071   1.420   5.037   3.730
 7058SOL     OW22072   6.145   5.416   6.376
 7058SOL    HW122073   6.056   5.402   6.420
 7058SOL    HW222074   6.147   5.507   6.335
 7059SOL     OW22075   0.177   0.763   3.019
 7059SOL    HW122076   0.230   0.688   3.058
 7059SOL    HW222077   0.088   0.768   3.065
 7060SOL     OW22078   3.416   7.010   1.653
 7060SOL    HW122079   3.355   6.988   1.729
 7060SOL    HW222080   3.509   0.003   1.687
 7061SOL     OW22081   0.355   2.547   4.023
 7061SOL    HW122082   0.372   2.594   4.110
 7061SOL    HW222083   0.293   2.602   3.967
 7062SOL     OW22084   5.303   1.298   6.182
 7062SOL    HW122085   5.314   1.219   6.242
 7062SOL    HW222086   5.376   1.297   6.113
 7063SOL     OW22087   0.283   0.361   1.079
 7063SOL    HW122088   0.338   0.303   1.018
 7063SOL    HW222089   0.288   0.326   1.172
 7064SOL     OW22090   4.181   2.266   1.976
 7064SOL    HW122091   4.151   2.345   1.922
 7064SOL    HW222092   4.101   2.218   2.012
 7065SOL     OW22093   4.253   3.744   0.184
 7065SOL    HW122094   4.352   3.752   0.196
 7065SOL    HW222095   4.207   3.801   0.252
 7066SOL     OW22096   4.497   0.348   0.556
 7066SOL    HW122097   4.475   0.274   0.492
 7066SOL    HW222098   4.506   0.434   0.507
 7067SOL     OW22099   1.530   1.805   5.372
 7067SOL    HW122100   1.453   1.838   5.318
 7067SOL    HW222101   1.502   1.724   5.424
 7068SOL     OW22102   0.651   4.049   3.953
 7068SOL    HW122103   0.587   4.096   3.892
 7068SOL    HW222104   0.719   3.999   3.898
 7069SOL     OW22105   5.815   2.649   4.385
 7069SOL    HW122106   5.908   2.666   4.350
 7069SOL    HW222107   5.790   2.554   4.365
 7070SOL     OW22108   0.038   6.340   5.110
 7070SOL    HW122109   6.991   6.396   5.063
 7070SOL    HW222110   0.012   6.244   5.104
 7071SOL     OW22111   1.343   6.440   6.175
 7071SOL    HW122112   1.420   6.393   6.217
 7071SOL    HW222113   1.285   6.374   6.128
 7072SOL     OW22114   0.313   6.263   6.131
 7072SOL    HW122115   0.321   6.290   6.227
 7072SOL    HW222116   0.222   6.290   6.097
 7073SOL     OW22117   5.952   0.216   4.692
 7073SOL    HW122118   5.955   0.298   4.749
 7073SOL    HW222119   6.035   0.163   4.706
 7074SOL     OW22120   4.053   2.744   1.556
 7074SOL    HW122121   4.008   2.685   1.623
 7074SOL    HW222122   4.102   2.688   1.490
 7075SOL     OW22123   1.321   5.761   5.928
 7075SOL    HW122124   1.241   5.705   5.949
 7075SOL    HW222125   1.366   5.725   5.845
 7076SOL     OW22126   4.094   2.415   6.899
 7076SOL    HW122127   4.106   2.410   6.998
 7076SOL    HW222128   4.057   2.328   6.866
 7077SOL     OW22129   2.231   4.416   5.411
 7077SOL    HW122130   2.280   4.338   5.372
 7077SOL    HW222131   2.133   4.398   5.411
 7078SOL     OW22132   6.140   0.753   1.788
 7078SOL    HW122133   6.150   0.692   1.709
 7078SOL    HW222134   6.209   0.826   1.782
 7079SOL     OW22135   6.754   6.526   5.256
 7079SOL    HW122136   6.769   6.477   5.170
 7079SOL    HW222137   6.811   6.609   5.257
 7080SOL     OW22138   3.516   2.061   4.186
 7080SOL    HW122139   3.537   1.980   4.132
 7080SOL    HW222140   3.601   2.111   4.207
 7081SOL     OW22141   2.933   0.856   6.461
 7081SOL    HW122142   2.919   0.765   6.501
 7081SOL    HW222143   2.887   0.862   6.373
 7082SOL     OW22144   5.992   4.973   6.627
 7082SOL    HW122145   5.976   4.961   6.529
 7082SOL    HW222146   6.033   5.062   6.643
 7083SOL     OW22147   3.306   0.714   6.891
 7083SOL    HW122148   3.259   0.688   6.807
 7083SOL    HW222149   3.312   0.814   6.897
 7084SOL     OW22150   0.526   6.846   5.940
 7084SOL    HW122151   0.529   6.857   5.841
 7084SOL    HW222152   0.441   6.885   5.975
 7085SOL     OW22153   1.982   1.752   2.540
 7085SOL    HW122154   2.056   1.725   2.602
 7085SOL    HW222155   1.912   1.801   2.592
 7086SOL     OW22156   4.980   0.613   5.521
 7086SOL    HW122157   5.032   0.575   5.445
 7086SOL    HW222158   4.885   0.581   5.517
 7087SOL     OW22159   6.068   4.237   3.954
 7087SOL    HW122160   6.106   4.325   3.923
 7087SOL    HW222161   5.993   4.210   3.894
 7088SOL     OW22162   5.218   2.523   3.340
 7088SOL    HW122163   5.128   2.480   3.341
 7088SOL    HW222164   5.210   2.618   3.368
 7089SOL     OW22165   3.527   1.923   5.644
 7089SOL    HW122166   3.470   1.990   5.691
 7089SOL    HW222167   3.609   1.905   5.699
 7090SOL     OW22168   1.942   1.391   6.401
 7090SOL    HW122169   1.932   1.382   6.302
 7090SOL    HW222170   1.872   1.337   6.447
 7091SOL     OW22171   0.158   2.093   0.040
 7091SOL    HW122172   0.226   2.128   6.997
 7091SOL    HW222173   0.173   1.995   0.055
 7092SOL     OW22174   4.538   2.698   6.241
 7092SOL    HW122175   4.638   2.698   6.231
 7092SOL    HW222176   4.515   2.711   6.337
 7093SOL     OW22177   3.215   3.733   3.278
 7093SOL    HW122178   3.194   3.705   3.184
 7093SOL    HW222179   3.153   3.807   3.306
 7094SOL     OW22180   0.694   5.521   6.253
 7094SOL    HW122181   0.681   5.499   6.350
 7094SOL    HW222182   0.604   5.531   6.209
 7095SOL     OW22183   3.588   2.646   6.389
 7095SOL    HW122184   3.492   2.666   6.367
 7095SOL    HW222185   3.633   2.729   6.422
 7096SOL     OW22186   6.411   0.271   4.296
 7096SOL    HW122187   6.362   0.300   4.213
 7096SOL    HW222188   6.349   0.220   4.355
 7097SOL     OW22189   5.994   1.075   1.664
 7097SOL    HW122190   6.075   1.098   1.610
 7097SOL    HW222191   5.922   1.142   1.646
 7098SOL     OW22192   0.812   0.553   3.837
 7098SOL    HW122193   0.718   0.521   3.844
 7098SOL    HW222194   0.868   0.484   3.791
 7099SOL     OW22195   2.834   0.684   5.045
 7099SOL    HW122196   2.928   0.701   5.075
 7099SOL    HW222197   2.784   0.635   5.116
 7100SOL     OW22198   5.686   3.209   1.197
 7100SOL    HW122199   5.612   3.183   1.260
 7100SOL    HW222200   5.772   3.169   1.229
 7101SOL     OW22201   1.998   0.558   4.963
 7101SOL    HW122202   1.989   0.620   4.886
 7101SOL    HW222203   2.095   0.541   4.981
 7102SOL     OW22204   4.572   0.826   0.835
 7102SOL    HW122205   4.639   0.882   0.786
 7102SOL    HW222206   4.601   0.731   0.834
 7103SOL     OW22207   4.287   5.111   1.033
 7103SOL    HW122208   4.254   5.032   0.983
 7103SOL    HW222209   4.357   5.158   0.979
 7104SOL     OW22210   1.288   3.773   5.125
 7104SOL    HW122211   1.316   3.780   5.221
 7104SOL    HW222212   1.234   3.854   5.100
 7105SOL     OW22213   2.707   2.502   5.452
 7105SOL    HW122214   2.636   2.433   5.464
 7105SOL    HW222215   2.773   2.472   5.383
 7106SOL     OW22216   2.919   3.285   2.590
 7106SOL    HW122217   2.969   3.315   2.509
 7106SOL    HW222218   2.821   3.303   2.578
 7107SOL     OW22219   3.401   0.782   0.492
 7107SOL    HW122220   3.439   0.690   0.483
 7107SOL    HW222221   3.449   0.845   0.432
 7108SOL     OW22222   4.223   6.391   2.396
 7108SOL    HW122223   4.249   6.310   2.450
 7108SOL    HW222224   4.123   6.396   2.391
 7109SOL     OW22225   3.963   6.835   6.010
 7109SOL    HW122226   3.905   6.865   6.086
 7109SOL    HW222227   4.036   6.777   6.045
 7110SOL     OW22228   4.392   6.191   3.744
 7110SOL    HW122229   4.353   6.258   3.680
 7110SOL    HW222230   4.338   6.107   3.741
 7111SOL     OW22231   2.287   1.835   4.668
 7111SOL    HW122232   2.362   1.826   4.732
 7111SOL    HW222233   2.271   1.932   4.648
 7112SOL     OW22234   2.504   6.086   4.085
 7112SOL    HW122235   2.547   6.175   4.102
 7112SOL    HW222236   2.565   6.028   4.032
 7113SOL     OW22237   2.967   3.754   4.801
 7113SOL    HW122238   2.952   3.738   4.899
 7113SOL    HW222239   2.967   3.667   4.753
 7114SOL     OW22240   3.901   6.497   1.203
 7114SOL    HW122241   3.894   6.597   1.194
 7114SOL    HW222242   3.814   6.456   1.176
 7115SOL     OW22243   5.322   3.259   2.277
 7115SOL    HW122244   5.224   3.258   2.257
 7115SOL    HW222245   5.354   3.166   2.294
 7116SOL     OW22246   5.373   3.524   3.495
 7116SOL    HW122247   5.389   3.567   3.583
 7116SOL    HW222248   5.451   3.465   3.472
 7117SOL     OW22249   0.325   6.586   4.472
 7117SOL    HW122250   0.395   6.573   4.402
 7117SOL    HW222251   0.304   6.683   4.481
 7118SOL     OW22252   3.034   4.266   0.558
 7118SOL    HW122253   2.939   4.296   0.566
 7118SOL    HW222254   3.049   4.225   0.468
 7119SOL     OW22255   5.457   1.689   3.287
 7119SOL    HW122256   5.405   1.688   3.202
 7119SOL    HW222257   5.403   1.648   3.360
 7120SOL     OW22258   4.192   1.706   2.525
 7120SOL    HW122259   4.249   1.699   2.606
 7120SOL    HW222260   4.205   1.796   2.482
 7121SOL     OW22261   2.764   0.210   2.179
 7121SOL    HW122262   2.755   0.153   2.260
 7121SOL    HW222263   2.708   0.292   2.189
 7122SOL     OW22264   7.006   0.929   5.653
 7122SOL    HW122265   6.959   0.865   5.714
 7122SOL    HW222266   6.970   1.021   5.667
 7123SOL     OW22267   2.436   5.060   1.891
 7123SOL    HW122268   2.522   5.081   1.938
 7123SOL    HW222269   2.370   5.133   1.908
 7124SOL     OW22270   0.212   2.948   0.457
 7124SOL    HW122271   0.299   2.996   0.443
 7124SOL    HW222272   0.159   2.996   0.527
 7125SOL     OW22273   6.475   6.590   0.960
 7125SOL    HW122274   6.536   6.612   1.036
 7125SOL    HW222275   6.502   6.504   0.918
 7126SOL     OW22276   3.500   4.825   0.325
 7126SOL    HW122277   3.448   4.740   0.312
 7126SOL    HW222278   3.458   4.879   0.398
 7127SOL     OW22279   2.460   6.283   4.550
 7127SOL    HW122280   2.386   6.319   4.493
 7127SOL    HW222281   2.426   6.203   4.601
 7128SOL     OW22282   2.215   5.606   0.247
 7128SOL    HW122283   2.234   5.514   0.213
 7128SOL    HW222284   2.143   5.648   0.193
 7129SOL     OW22285   2.917   0.271   0.542
 7129SOL    HW122286   2.897   0.348   0.602
 7129SOL    HW222287   2.946   0.305   0.452
 7130SOL     OW22288   3.314   4.580   5.373
 7130SOL    HW122289   3.279   4.486   5.372
 7130SOL    HW222290   3.401   4.583   5.421
 7131SOL     OW22291   2.559   1.513   0.330
 7131SOL    HW122292   2.612   1.589   0.291
 7131SOL    HW222293   2.497   1.476   0.261
 7132SOL     OW22294   3.431   3.951   0.373
 7132SOL    HW122295   3.444   3.884   0.300
 7132SOL    HW222296   3.360   3.920   0.435
 7133SOL     OW22297   4.798   5.751   4.050
 7133SOL    HW122298   4.824   5.694   3.973
 7133SOL    HW222299   4.855   5.728   4.129
 7134SOL     OW22300   5.898   6.131   2.076
 7134SOL    HW122301   5.846   6.201   2.026
 7134SOL    HW222302   5.982   6.172   2.113
 7135SOL     OW22303   2.143   2.477   3.266
 7135SOL    HW122304   2.211   2.538   3.305
 7135SOL    HW222305   2.187   2.394   3.234
 7136SOL     OW22306   1.448   2.509   0.898
 7136SOL    HW122307   1.530   2.452   0.896
 7136SOL    HW222308   1.393   2.485   0.978
 7137SOL     OW22309   4.511   0.394   6.741
 7137SOL    HW122310   4.499   0.338   6.823
 7137SOL    HW222311   4.514   0.335   6.661
 7138SOL     OW22312   1.599   2.985   0.548
 7138SOL    HW122313   1.571   2.907   0.493
 7138SOL    HW222314   1.649   2.954   0.628
 7139SOL     OW22315   4.958   4.241   2.805
 7139SOL    HW122316   5.056   4.255   2.818
 7139SOL    HW222317   4.933   4.151   2.841
 7140SOL     OW22318   5.557   3.399   4.806
 7140SOL    HW122319   5.628   3.450   4.758
 7140SOL    HW222320   5.530   3.320   4.750
 7141SOL     OW22321   3.055   5.912   1.525
 7141SOL    HW122322   3.136   5.861   1.556
 7141SOL    HW222323   3.027   5.877   1.436
 7142SOL     OW22324   4.331   0.070   3.403
 7142SOL    HW122325   4.297   0.012   3.330
 7142SOL    HW222326   4.325   0.166   3.375
 7143SOL     OW22327   1.696   2.714   6.189
 7143SOL    HW122328   1.689   2.782   6.116
 7143SOL    HW222329   1.671   2.624   6.153
 7144SOL     OW22330   1.736   1.555   3.709
 7144SOL    HW122331   1.702   1.480   3.766
 7144SOL    HW222332   1.794   1.518   3.636
 7145SOL     OW22333   4.504   6.534   6.458
 7145SOL    HW122334   4.425   6.475   6.441
 7145SOL    HW222335   4.572   6.519   6.386
 7146SOL     OW22336   2.449   0.661   6.837
 7146SOL    HW122337   2.444   0.666   6.937
 7146SOL    HW222338   2.362   0.625   6.801
 7147SOL     OW22339   6.552   6.536   3.097
 7147SOL    HW122340   6.510   6.576   3.179
 7147SOL    HW222341   6.486   6.475   3.052
 7148SOL     OW22342   0.069   6.653   1.097
 7148SOL    HW122343   0.128   6.608   1.031
 7148SOL    HW222344   0.055   6.748   1.070
 7149SOL     OW22345   6.421   6.724   2.957
 7149SOL    HW122346   6.376   6.693   2.874
 7149SOL    HW222347   6.477   6.650   2.994
 7150SOL     OW22348   4.326   1.749   2.108
 7150SOL    HW122349   4.331   1.830   2.166
 7150SOL    HW222350   4.294   1.775   2.017
 7151SOL     OW22351   1.834   6.364   0.777
 7151SOL    HW122352   1.883   6.319   0.852
 7151SOL    HW222353   1.820   6.299   0.703
 7152SOL     OW22354   0.628   1.660   4.778
 7152SOL    HW122355   0.590   1.572   4.750
 7152SOL    HW222356   0.652   1.656   4.875
 7153SOL     OW22357   3.320   5.940   3.155
 7153SOL    HW122358   3.248   5.908   3.094
 7153SOL    HW222359   3.279   5.985   3.235
 7154SOL     OW22360   3.991   0.269   4.439
 7154SOL    HW122361   3.994   0.282   4.340
 7154SOL    HW222362   4.038   0.183   4.462
 7155SOL     OW22363   2.439   5.132   1.567
 7155SOL    HW122364   2.402   5.100   1.654
 7155SOL    HW222365   2.497   5.060   1.527
 7156SOL     OW22366   0.143   3.985   4.684
 7156SOL    HW122367   0.113   3.920   4.615
 7156SOL    HW222368   0.228   4.029   4.654
 7157SOL     OW22369   6.183   4.508   0.915
 7157SOL    HW122370   6.154   4.422   0.873
 7157SOL    HW222371   6.109   4.543   0.972
 7158SOL     OW22372   1.128   0.067   2.667
 7158SOL    HW122373   1.056   0.089   2.733
 7158SOL    HW222374   1.111   6.997   2.628
 7159SOL     OW22375   0.540   3.780   2.945
 7159SOL    HW122376   0.596   3.859   2.920
 7159SOL    HW222377   0.515   3.730   2.862
 7160SOL     OW22378   6.013   0.555   3.212
 7160SOL    HW122379   6.006   0.564   3.312
 7160SOL    HW222380   6.082   0.619   3.178
 7161SOL     OW22381   3.123   4.072   4.774
 7161SOL    HW122382   3.063   4.036   4.703
 7161SOL    HW222383   3.195   4.128   4.732
 7162SOL     OW22384   2.041   5.579   5.847
 7162SOL    HW122385   2.083   5.588   5.937
 7162SOL    HW222386   2.044   5.484   5.817
 7163SOL     OW22387   2.856   6.555   3.119
 7163SOL    HW122388   2.914   6.619   3.069
 7163SOL    HW222389   2.836   6.592   3.210
 7164SOL     OW22390   1.829   0.910   4.095
 7164SOL    HW122391   1.906   0.964   4.062
 7164SOL    HW222392   1.764   0.969   4.142
 7165SOL     OW22393   6.991   1.452   1.372
 7165SOL    HW122394   0.036   1.504   1.317
 7165SOL    HW222395   6.934   1.397   1.311
 7166SOL     OW22396   5.578   2.939   6.964
 7166SOL    HW122397   5.657   2.995   6.938
 7166SOL    HW222398   5.605   2.842   6.963
 7167SOL     OW22399   5.166   3.622   4.846
 7167SOL    HW122400   5.070   3.592   4.843
 7167SOL    HW222401   5.221   3.554   4.893
 7168SOL     OW22402   1.599   2.711   4.235
 7168SOL    HW122403   1.524   2.719   4.170
 7168SOL    HW222404   1.686   2.729   4.188
 7169SOL     OW22405   0.127   3.812   4.918
 7169SOL    HW122406   0.064   3.748   4.873
 7169SOL    HW222407   0.151   3.885   4.854
 7170SOL     OW22408   4.354   6.521   3.716
 7170SOL    HW122409   4.385   6.493   3.625
 7170SOL    HW222410   4.433   6.540   3.774
 7171SOL     OW22411   5.746   4.724   6.133
 7171SOL    HW122412   5.800   4.807   6.122
 7171SOL    HW222413   5.752   4.692   6.227
 7172SOL     OW22414   1.383   0.536   5.695
 7172SOL    HW122415   1.392   0.447   5.739
 7172SOL    HW222416   1.312   0.589   5.742
 7173SOL     OW22417   0.448   5.002   5.500
 7173SOL    HW122418   0.498   5.014   5.415
 7173SOL    HW222419   0.511   4.974   5.573
 7174SOL     OW22420   1.167   4.929   6.747
 7174SOL    HW122421   1.160   4.830   6.733
 7174SOL    HW222422   1.081   4.964   6.784
 7175SOL     OW22423   5.899   3.971   7.003
 7175SOL    HW122424   5.933   3.982   0.076
 7175SOL    HW222425   5.821   4.031   6.988
 7176SOL     OW22426   1.121   6.036   3.330
 7176SOL    HW122427   1.087   5.981   3.407
 7176SOL    HW222428   1.219   6.021   3.320
 7177SOL     OW22429   2.535   6.680   4.423
 7177SOL    HW122430   2.604   6.635   4.479
 7177SOL    HW222431   2.534   6.778   4.444
 7178SOL     OW22432   2.401   3.329   5.861
 7178SOL    HW122433   2.441   3.410   5.905
 7178SOL    HW222434   2.348   3.277   5.928
 7179SOL     OW22435   1.788   3.561   4.773
 7179SOL    HW122436   1.887   3.561   4.785
 7179SOL    HW222437   1.744   3.589   4.858
 7180SOL     OW22438   1.604   4.653   6.451
 7180SOL    HW122439   1.633   4.663   6.355
 7180SOL    HW222440   1.561   4.564   6.463
 7181SOL     OW22441   2.245   5.663   0.750
 7181SOL    HW122442   2.264   5.693   0.656
 7181SOL    HW222443   2.174   5.722   0.789
 7182SOL     OW22444   2.013   3.263   5.559
 7182SOL    HW122445   2.027   3.323   5.638
 7182SOL    HW222446   2.096   3.209   5.544
 7183SOL     OW22447   1.560   5.714   0.805
 7183SOL    HW122448   1.569   5.811   0.782
 7183SOL    HW222449   1.576   5.701   0.903
 7184SOL     OW22450   0.830   0.302   2.784
 7184SOL    HW122451   0.841   0.203   2.784
 7184SOL    HW222452   0.882   0.341   2.708
 7185SOL     OW22453   5.465   1.213   5.391
 7185SOL    HW122454   5.387   1.160   5.356
 7185SOL    HW222455   5.542   1.205   5.329
 7186SOL     OW22456   7.004   6.855   6.861
 7186SOL    HW122457   6.917   6.870   6.907
 7186SOL    HW222458   0.047   6.927   6.886
 7187SOL     OW22459   3.226   4.455   0.607
 7187SOL    HW122460   3.169   4.387   0.561
 7187SOL    HW222461   3.168   4.527   0.645
 7188SOL     OW22462   6.044   0.016   0.658
 7188SOL    HW122463   5.982   0.052   0.589
 7188SOL    HW222464   6.121   0.078   0.669
 7189SOL     OW22465   6.274   0.866   6.459
 7189SOL    HW122466   6.265   0.958   6.420
 7189SOL    HW222467   6.335   0.812   6.401
 7190SOL     OW22468   6.870   3.778   2.940
 7190SOL    HW122469   6.928   3.765   2.860
 7190SOL    HW222470   6.802   3.849   2.921
 7191SOL     OW22471   0.602   4.294   2.930
 7191SOL    HW122472   0.642   4.208   2.960
 7191SOL    HW222473   0.550   4.335   3.005
 7192SOL     OW22474   3.473   4.982   5.264
 7192SOL    HW122475   3.570   4.977   5.289
 7192SOL    HW222476   3.416   4.976   5.346
 7193SOL     OW22477   2.338   1.819   2.902
 7193SOL    HW122478   2.327   1.823   3.002
 7193SOL    HW222479   2.406   1.887   2.873
 7194SOL     OW22480   3.131   2.381   0.667
 7194SOL    HW122481   3.093   2.290   0.652
 7194SOL    HW222482   3.126   2.434   0.581
 7195SOL     OW22483   0.181   5.455   6.187
 7195SOL    HW122484   0.203   5.424   6.279
 7195SOL    HW222485   0.231   5.401   6.120
 7196SOL     OW22486   3.397   4.343   1.712
 7196SOL    HW122487   3.406   4.267   1.776
 7196SOL    HW222488   3.426   4.428   1.758
 7197SOL     OW22489   0.033   2.255   5.936
 7197SOL    HW122490   0.106   2.322   5.950
 7197SOL    HW222491   6.966   2.298   5.953
 7198SOL     OW22492   0.467   1.151   6.063
 7198SOL    HW122493   0.443   1.139   5.967
 7198SOL    HW222494   0.384   1.172   6.115
 7199SOL     OW22495   2.144   0.789   2.149
 7199SOL    HW122496   2.118   0.832   2.236
 7199SOL    HW222497   2.240   0.808   2.130
 7200SOL     OW22498   2.437   2.094   0.147
 7200SOL    HW122499   2.450   2.041   0.063
 7200SOL    HW222500   2.444   2.191   0.127
 7201SOL     OW22501   1.338   5.485   4.263
 7201SOL    HW122502   1.420   5.515   4.312
 7201SOL    HW222503   1.365   5.442   4.176
 7202SOL     OW22504   4.183   0.367   6.000
 7202SOL    HW122505   4.246   0.380   5.923
 7202SOL    HW222506   4.196   0.439   6.067
 7203SOL     OW22507   0.147   1.992   0.930
 7203SOL    HW122508   0.232   2.016   0.975
 7203SOL    HW222509   0.088   1.943   0.994
 7204SOL     OW22510   6.453   6.786   5.200
 7204SOL    HW122511   6.522   6.858   5.213
 7204SOL    HW222512   6.440   6.770   5.102
 7205SOL     OW22513   1.666   5.777   3.228
 7205SOL    HW122514   1.760   5.812   3.235
 7205SOL    HW222515   1.648   5.715   3.305
 7206SOL     OW22516   2.323   0.347   1.214
 7206SOL    HW122517   2.369   0.312   1.132
 7206SOL    HW222518   2.224   0.340   1.202
 7207SOL     OW22519   3.932   6.676   1.633
 7207SOL    HW122520   3.942   6.766   1.674
 7207SOL    HW222521   3.835   6.650   1.632
 7208SOL     OW22522   4.436   6.302   3.985
 7208SOL    HW122523   4.399   6.277   3.895
 7208SOL    HW222524   4.534   6.282   3.987
 7209SOL     OW22525   3.466   3.246   1.708
 7209SOL    HW122526   3.426   3.162   1.671
 7209SOL    HW222527   3.435   3.258   1.803
 7210SOL     OW22528   4.511   0.460   4.099
 7210SOL    HW122529   4.573   0.462   4.020
 7210SOL    HW222530   4.464   0.372   4.101
 7211SOL     OW22531   2.643   5.751   4.104
 7211SOL    HW122532   2.601   5.814   4.169
 7211SOL    HW222533   2.590   5.666   4.100
 7212SOL     OW22534   0.815   6.237   3.722
 7212SOL    HW122535   0.836   6.169   3.651
 7212SOL    HW222536   0.809   6.328   3.680
 7213SOL     OW22537   6.349   7.020   6.531
 7213SOL    HW122538   6.396   6.960   6.595
 7213SOL    HW222539   6.300   0.070   6.581
 7214SOL     OW22540   1.375   5.793   4.865
 7214SOL    HW122541   1.373   5.804   4.964
 7214SOL    HW222542   1.285   5.763   4.833
 7215SOL     OW22543   0.601   3.005   3.908
 7215SOL    HW122544   0.681   2.989   3.850
 7215SOL    HW222545   0.618   3.083   3.969
 7216SOL     OW22546   2.072   6.218   0.073
 7216SOL    HW122547   2.102   6.265   0.156
 7216SOL    HW222548   1.982   6.253   0.045
 7217SOL     OW22549   1.850   4.598   2.436
 7217SOL    HW122550   1.936   4.625   2.393
 7217SOL    HW222551   1.858   4.504   2.469
 7218SOL     OW22552   4.486   2.665   5.335
 7218SOL    HW122553   4.510   2.761   5.352
 7218SOL    HW222554   4.522   2.637   5.246
 7219SOL     OW22555   5.272   6.326   4.287
 7219SOL    HW122556   5.310   6.245   4.243
 7219SOL    HW222557   5.217   6.299   4.366
 7220SOL     OW22558   0.556   5.720   4.285
 7220SOL    HW122559   0.521   5.804   4.326
 7220SOL    HW222560   0.603   5.741   4.200
 7221SOL     OW22561   5.476   4.834   4.876
 7221SOL    HW122562   5.429   4.922   4.877
 7221SOL    HW222563   5.571   4.847   4.846
 7222SOL     OW22564   6.173   0.240   2.016
 7222SOL    HW122565   6.075   0.258   2.023
 7222SOL    HW222566   6.197   0.225   1.920
 7223SOL     OW22567   2.950   1.849   1.627
 7223SOL    HW122568   2.975   1.854   1.724
 7223SOL    HW222569   3.011   1.908   1.574
 7224SOL     OW22570   5.465   2.035   4.401
 7224SOL    HW122571   5.371   2.004   4.389
 7224SOL    HW222572   5.521   1.960   4.437
 7225SOL     OW22573   1.324   6.079   6.208
 7225SOL    HW122574   1.255   6.151   6.220
 7225SOL    HW222575   1.320   6.016   6.286
 7226SOL     OW22576   0.911   0.725   0.565
 7226SOL    HW122577   0.879   0.764   0.651
 7226SOL    HW222578   0.836   0.721   0.499
 7227SOL     OW22579   0.476   2.313   0.740
 7227SOL    HW122580   0.551   2.260   0.700
 7227SOL    HW222581   0.394   2.256   0.745
 7228SOL     OW22582   0.427   1.301   1.842
 7228SOL    HW122583   0.487   1.313   1.764
 7228SOL    HW222584   0.402   1.390   1.880
 7229SOL     OW22585   0.768   0.353   4.986
 7229SOL    HW122586   0.728   0.436   5.025
 7229SOL    HW222587   0.764   0.358   4.886
 7230SOL     OW22588   5.120   5.606   4.906
 7230SOL    HW122589   5.043   5.666   4.886
 7230SOL    HW222590   5.101   5.553   4.988
 7231SOL     OW22591   4.515   6.606   6.991
 7231SOL    HW122592   4.612   6.584   6.998
 7231SOL    HW222593   4.468   6.535   6.938
 7232SOL     OW22594   4.558   5.168   3.640
 7232SOL    HW122595   4.596   5.201   3.727
 7232SOL    HW222596   4.488   5.099   3.659
 7233SOL     OW22597   0.372   2.273   4.463
 7233SOL    HW122598   0.273   2.275   4.477
 7233SOL    HW222599   0.412   2.361   4.486
 7234SOL     OW22600   5.722   2.613   3.194
 7234SOL    HW122601   5.691   2.559   3.273
 7234SOL    HW222602   5.758   2.701   3.226
 7235SOL     OW22603   6.562   4.250   3.052
 7235SOL    HW122604   6.575   4.233   3.149
 7235SOL    HW222605   6.537   4.346   3.038
 7236SOL     OW22606   3.404   1.346   2.907
 7236SOL    HW122607   3.377   1.412   2.837
 7236SOL    HW222608   3.333   1.340   2.977
 7237SOL     OW22609   6.401   6.425   5.573
 7237SOL    HW122610   6.426   6.492   5.503
 7237SOL    HW222611   6.483   6.377   5.603
 7238SOL     OW22612   2.125   2.205   0.925
 7238SOL    HW122613   2.192   2.246   0.987
 7238SOL    HW222614   2.035   2.243   0.943
 7239SOL     OW22615   2.738   1.058   3.822
 7239SOL    HW122616   2.684   0.977   3.800
 7239SOL    HW222617   2.834   1.041   3.799
 7240SOL     OW22618   2.297   3.935   6.672
 7240SOL    HW122619   2.235   4.012   6.686
 7240SOL    HW222620   2.376   3.944   6.733
 7241SOL     OW22621   3.374   0.139   6.864
 7241SOL    HW122622   3.374   0.142   6.964
 7241SOL    HW222623   3.284   0.107   6.832
 7242SOL     OW22624   6.780   5.235   0.231
 7242SOL    HW122625   6.761   5.310   0.168
 7242SOL    HW222626   6.727   5.154   0.203
 7243SOL     OW22627   0.507   4.345   6.315
 7243SOL    HW122628   0.459   4.270   6.269
 7243SOL    HW222629   0.592   4.311   6.356
 7244SOL     OW22630   5.161   1.094   1.213
 7244SOL    HW122631   5.109   1.057   1.290
 7244SOL    HW222632   5.098   1.140   1.150
 7245SOL     OW22633   0.503   1.610   5.190
 7245SOL    HW122634   0.587   1.629   5.241
 7245SOL    HW222635   0.488   1.683   5.123
 7246SOL     OW22636   6.028   6.864   4.802
 7246SOL    HW122637   5.950   6.865   4.739
 7246SOL    HW222638   6.029   6.950   4.854
 7247SOL     OW22639   3.045   6.479   3.436
 7247SOL    HW122640   3.086   6.550   3.379
 7247SOL    HW222641   3.049   6.507   3.532
 7248SOL     OW22642   3.741   1.083   2.890
 7248SOL    HW122643   3.642   1.097   2.901
 7248SOL    HW222644   3.759   1.036   2.804
 7249SOL     OW22645   5.775   4.963   1.631
 7249SOL    HW122646   5.786   4.905   1.712
 7249SOL    HW222647   5.865   4.992   1.598
 7250SOL     OW22648   3.562   5.260   5.936
 7250SOL    HW122649   3.659   5.237   5.934
 7250SOL    HW222650   3.547   5.341   5.993
 7251SOL     OW22651   0.049   6.471   5.337
 7251SOL    HW122652   0.022   6.411   5.262
 7251SOL    HW222653   0.081   6.558   5.300
 7252SOL     OW22654   3.535   3.158   3.684
 7252SOL    HW122655   3.583   3.195   3.604
 7252SOL    HW222656   3.596   3.158   3.762
 7253SOL     OW22657   1.693   0.197   0.482
 7253SOL    HW122658   1.785   0.234   0.468
 7253SOL    HW222659   1.641   0.260   0.540
 7254SOL     OW22660   4.464   4.905   5.089
 7254SOL    HW122661   4.402   4.933   5.162
 7254SOL    HW222662   4.556   4.940   5.107
 7255SOL     OW22663   3.315   3.952   1.549
 7255SOL    HW122664   3.371   3.869   1.560
 7255SOL    HW222665   3.229   3.929   1.504
 7256SOL     OW22666   5.240   5.063   4.208
 7256SOL    HW122667   5.193   5.018   4.284
 7256SOL    HW222668   5.291   4.995   4.156
 7257SOL     OW22669   5.544   2.907   3.801
 7257SOL    HW122670   5.615   2.976   3.794
 7257SOL    HW222671   5.496   2.917   3.888
 7258SOL     OW22672   4.091   1.080   3.515
 7258SOL    HW122673   4.134   1.167   3.540
 7258SOL    HW222674   4.023   1.095   3.444
 7259SOL     OW22675   3.473   4.285   1.236
 7259SOL    HW122676   3.518   4.277   1.325
 7259SOL    HW222677   3.520   4.228   1.169
 7260SOL     OW22678   3.412   1.788   3.021
 7260SOL    HW122679   3.322   1.744   3.024
 7260SOL    HW222680   3.426   1.842   3.105
 7261SOL     OW22681   3.022   2.741   1.217
 7261SOL    HW122682   3.118   2.737   1.242
 7261SOL    HW222683   2.994   2.654   1.175
 7262SOL     OW22684   5.803   2.365   4.388
 7262SOL    HW122685   5.785   2.348   4.291
 7262SOL    HW222686   5.717   2.363   4.438
 7263SOL     OW22687   0.323   5.583   2.055
 7263SOL    HW122688   0.418   5.554   2.066
 7263SOL    HW222689   0.306   5.604   1.959
 7264SOL     OW22690   6.575   1.479   6.636
 7264SOL    HW122691   6.497   1.417   6.639
 7264SOL    HW222692   6.543   1.573   6.634
 7265SOL     OW22693   5.432   5.006   6.015
 7265SOL    HW122694   5.427   4.977   5.920
 7265SOL    HW222695   5.341   5.030   6.048
 7266SOL     OW22696   4.206   0.574   0.501
 7266SOL    HW122697   4.145   0.606   0.429
 7266SOL    HW222698   4.168   0.597   0.590
 7267SOL     OW22699   6.726   4.872   5.079
 7267SOL    HW122700   6.735   4.839   5.174
 7267SOL    HW222701   6.747   4.969   5.076
 7268SOL     OW22702   4.599   4.910   3.453
 7268SOL    HW122703   4.695   4.899   3.477
 7268SOL    HW222704   4.591   4.957   3.365
 7269SOL     OW22705   6.981   6.073   1.443
 7269SOL    HW122706   6.995   6.172   1.433
 7269SOL    HW222707   6.991   6.048   1.540
 7270SOL     OW22708   1.429   2.520   3.646
 7270SOL    HW122709   1.415   2.436   3.593
 7270SOL    HW222710   1.342   2.570   3.652
 7271SOL     OW22711   0.849   4.928   3.535
 7271SOL    HW122712   0.901   5.012   3.552
 7271SOL    HW222713   0.912   4.855   3.509
 7272SOL     OW22714   6.108   3.473   2.250
 7272SOL    HW122715   6.122   3.457   2.152
 7272SOL    HW222716   6.150   3.399   2.302
 7273SOL     OW22717   6.138   4.293   2.070
 7273SOL    HW122718   6.143   4.267   1.974
 7273SOL    HW222719   6.043   4.315   2.094
 7274SOL     OW22720   0.244   6.612   6.550
 7274SOL    HW122721   0.157   6.652   6.580
 7274SOL    HW222722   0.318   6.675   6.573
 7275SOL     OW22723   6.681   0.685   1.157
 7275SOL    HW122724   6.733   0.770   1.148
 7275SOL    HW222725   6.583   0.707   1.158
 7276SOL     OW22726   3.210   1.442   3.676
 7276SOL    HW122727   3.212   1.451   3.576
 7276SOL    HW222728   3.290   1.488   3.715
 7277SOL     OW22729   5.388   0.910   5.058
 7277SOL    HW122730   5.479   0.869   5.061
 7277SOL    HW222731   5.319   0.840   5.079
 7278SOL     OW22732   3.733   2.137   3.148
 7278SOL    HW122733   3.828   2.167   3.137
 7278SOL    HW222734   3.689   2.131   3.059
 7279SOL     OW22735   4.322   3.733   6.632
 7279SOL    HW122736   4.258   3.765   6.562
 7279SOL    HW222737   4.350   3.809   6.689
 7280SOL     OW22738   5.877   2.419   5.331
 7280SOL    HW122739   5.789   2.382   5.302
 7280SOL    HW222740   5.934   2.438   5.251
 7281SOL     OW22741   3.399   0.163   0.761
 7281SOL    HW122742   3.307   0.191   0.735
 7281SOL    HW222743   3.395   0.094   0.833
 7282SOL     OW22744   6.460   5.540   1.705
 7282SOL    HW122745   6.494   5.597   1.631
 7282SOL    HW222746   6.503   5.568   1.791
 7283SOL     OW22747   2.705   6.865   2.240
 7283SOL    HW122748   2.739   6.948   2.283
 7283SOL    HW222749   2.721   6.787   2.300
 7284SOL     OW22750   6.654   2.901   3.821
 7284SOL    HW122751   6.642   2.972   3.891
 7284SOL    HW222752   6.679   2.815   3.865
 7285SOL     OW22753   4.998   3.516   1.715
 7285SOL    HW122754   5.059   3.440   1.692
 7285SOL    HW222755   4.903   3.483   1.718
 7286SOL     OW22756   0.743   1.129   0.531
 7286SOL    HW122757   0.836   1.125   0.566
 7286SOL    HW222758   0.733   1.066   0.453
 7287SOL     OW22759   6.571   3.012   4.089
 7287SOL    HW122760   6.623   3.082   4.137
 7287SOL    HW222761   6.582   2.924   4.136
 7288SOL     OW22762   1.919   2.895   2.244
 7288SOL    HW122763   1.933   2.943   2.330
 7288SOL    HW222764   2.004   2.850   2.216
 7289SOL     OW22765   5.664   3.412   2.302
 7289SOL    HW122766   5.609   3.411   2.219
 7289SOL    HW222767   5.606   3.392   2.381
 7290SOL     OW22768   3.258   0.804   5.330
 7290SOL    HW122769   3.213   0.835   5.414
 7290SOL    HW222770   3.299   0.714   5.346
 7291SOL     OW22771   4.234   0.136   0.756
 7291SOL    HW122772   4.192   0.107   0.670
 7291SOL    HW222773   4.304   0.205   0.737
 7292SOL     OW22774   1.500   6.533   3.551
 7292SOL    HW122775   1.489   6.599   3.626
 7292SOL    HW222776   1.467   6.574   3.466
 7293SOL     OW22777   1.484   1.217   6.160
 7293SOL    HW122778   1.420   1.156   6.207
 7293SOL    HW222779   1.560   1.163   6.124
 7294SOL     OW22780   3.132   4.895   1.560
 7294SOL    HW122781   3.203   4.921   1.495
 7294SOL    HW222782   3.047   4.878   1.511
 7295SOL     OW22783   6.385   4.401   1.687
 7295SOL    HW122784   6.416   4.329   1.625
 7295SOL    HW222785   6.312   4.453   1.644
 7296SOL     OW22786   3.768   5.060   3.045
 7296SOL    HW122787   3.831   5.120   3.094
 7296SOL    HW222788   3.812   4.972   3.027
 7297SOL     OW22789   3.187   6.407   2.405
 7297SOL    HW122790   3.107   6.354   2.432
 7297SOL    HW222791   3.173   6.503   2.429
 7298SOL     OW22792   4.902   6.097   7.009
 7298SOL    HW122793   4.805   6.116   6.992
 7298SOL    HW222794   4.912   6.053   0.077
 7299SOL     OW22795   1.095   1.992   0.165
 7299SOL    HW122796   1.156   1.922   0.128
 7299SOL    HW222797   1.036   1.951   0.235
 7300SOL     OW22798   0.971   5.029   1.936
 7300SOL    HW122799   1.043   4.976   1.981
 7300SOL    HW222800   1.012   5.100   1.879
 7301SOL     OW22801   6.895   0.345   5.665
 7301SOL    HW122802   6.937   0.290   5.593
 7301SOL    HW222803   6.796   0.342   5.656
 7302SOL     OW22804   6.571   1.683   5.322
 7302SOL    HW122805   6.661   1.668   5.364
 7302SOL    HW222806   6.583   1.724   5.231
 7303SOL     OW22807   3.149   1.260   6.788
 7303SOL    HW122808   3.054   1.274   6.759
 7303SOL    HW222809   3.180   1.170   6.757
 7304SOL     OW22810   2.199   5.219   2.005
 7304SOL    HW122811   2.176   5.216   1.908
 7304SOL    HW222812   2.117   5.202   2.059
 7305SOL     OW22813   5.359   2.508   1.162
 7305SOL    HW122814   5.421   2.476   1.091
 7305SOL    HW222815   5.336   2.433   1.224
 7306SOL     OW22816   4.115   1.501   1.658
 7306SOL    HW122817   4.160   1.579   1.702
 7306SOL    HW222818   4.118   1.512   1.559
 7307SOL     OW22819   3.627   6.624   2.044
 7307SOL    HW122820   3.610   6.525   2.045
 7307SOL    HW222821   3.719   6.642   2.078
 7308SOL     OW22822   6.593   1.504   2.765
 7308SOL    HW122823   6.675   1.508   2.823
 7308SOL    HW222824   6.521   1.453   2.812
 7309SOL     OW22825   2.264   6.258   2.853
 7309SOL    HW122826   2.201   6.185   2.830
 7309SOL    HW222827   2.357   6.222   2.856
 7310SOL     OW22828   1.125   3.510   6.927
 7310SOL    HW122829   1.168   3.454   6.855
 7310SOL    HW222830   1.194   3.538   6.993
 7311SOL     OW22831   0.910   0.106   0.529
 7311SOL    HW122832   0.929   0.114   0.432
 7311SOL    HW222833   0.890   0.197   0.567
 7312SOL     OW22834   0.484   1.345   4.842
 7312SOL    HW122835   0.409   1.409   4.852
 7312SOL    HW222836   0.448   1.255   4.818
 7313SOL     OW22837   2.804   1.059   0.747
 7313SOL    HW122838   2.826   1.054   0.650
 7313SOL    HW222839   2.863   0.997   0.798
 7314SOL     OW22840   0.421   3.858   6.837
 7314SOL    HW122841   0.335   3.809   6.831
 7314SOL    HW222842   0.470   3.850   6.750
 7315SOL     OW22843   6.417   5.086   2.525
 7315SOL    HW122844   6.514   5.108   2.511
 7315SOL    HW222845   6.367   5.170   2.548
 7316SOL     OW22846   3.404   1.800   6.112
 7316SOL    HW122847   3.480   1.824   6.051
 7316SOL    HW222848   3.398   1.700   6.119
 7317SOL     OW22849   3.802   1.554   1.711
 7317SOL    HW122850   3.706   1.528   1.707
 7317SOL    HW222851   3.821   1.622   1.640
 7318SOL     OW22852   3.728   6.867   1.881
 7318SOL    HW122853   3.655   6.800   1.866
 7318SOL    HW222854   3.714   6.947   1.823
 7319SOL     OW22855   6.782   2.723   6.149
 7319SOL    HW122856   6.726   2.645   6.121
 7319SOL    HW222857   6.791   2.787   6.073
 7320SOL     OW22858   6.951   4.009   1.134
 7320SOL    HW122859   6.885   4.080   1.159
 7320SOL    HW222860   6.928   3.972   1.044
 7321SOL     OW22861   1.510   6.743   6.156
 7321SOL    HW122862   1.439   6.740   6.226
 7321SOL    HW222863   1.492   6.819   6.094
 7322SOL     OW22864   0.963   2.665   3.232
 7322SOL    HW122865   0.867   2.688   3.249
 7322SOL    HW222866   1.021   2.736   3.272
 7323SOL     OW22867   2.614   1.652   1.582
 7323SOL    HW122868   2.604   1.736   1.528
 7323SOL    HW222869   2.702   1.610   1.560
 7324SOL     OW22870   6.334   4.346   2.246
 7324SOL    HW122871   6.266   4.359   2.174
 7324SOL    HW222872   6.380   4.258   2.234
 7325SOL     OW22873   2.905   0.745   5.845
 7325SOL    HW122874   2.873   0.713   5.756
 7325SOL    HW222875   3.001   0.720   5.858
 7326SOL     OW22876   4.149   6.993   6.150
 7326SOL    HW122877   4.233   7.006   6.098
 7326SOL    HW222878   4.069   7.010   6.092
 7327SOL     OW22879   5.877   4.145   3.749
 7327SOL    HW122880   5.872   4.054   3.708
 7327SOL    HW222881   5.797   4.199   3.720
 7328SOL     OW22882   4.209   5.536   5.645
 7328SOL    HW122883   4.194   5.557   5.741
 7328SOL    HW222884   4.131   5.568   5.592
 7329SOL     OW22885   0.787   2.769   0.325
 7329SOL    HW122886   0.877   2.793   0.288
 7329SOL    HW222887   0.765   2.675   0.301
 7330SOL     OW22888   3.184   3.027   1.013
 7330SOL    HW122889   3.246   2.961   1.055
 7330SOL    HW222890   3.094   3.022   1.056
 7331SOL     OW22891   4.616   0.169   1.825
 7331SOL    HW122892   4.616   0.069   1.828
 7331SOL    HW222893   4.686   0.204   1.888
 7332SOL     OW22894   4.145   4.219   6.863
 7332SOL    HW122895   4.115   4.269   6.781
 7332SOL    HW222896   4.190   4.283   6.926
 7333SOL     OW22897   5.962   3.283   3.315
 7333SOL    HW122898   5.936   3.294   3.411
 7333SOL    HW222899   5.998   3.191   3.300
 7334SOL     OW22900   2.899   5.795   5.867
 7334SOL    HW122901   2.996   5.785   5.846
 7334SOL    HW222902   2.876   5.892   5.875
 7335SOL     OW22903   0.296   3.485   2.898
 7335SOL    HW122904   0.204   3.492   2.934
 7335SOL    HW222905   0.312   3.392   2.863
 7336SOL     OW22906   2.528   6.397   0.940
 7336SOL    HW122907   2.619   6.437   0.947
 7336SOL    HW222908   2.530   6.303   0.972
 7337SOL     OW22909   3.308   2.626   1.301
 7337SOL    HW122910   3.375   2.628   1.227
 7337SOL    HW222911   3.262   2.538   1.301
 7338SOL     OW22912   5.975   2.250   1.559
 7338SOL    HW122913   5.948   2.335   1.604
 7338SOL    HW222914   6.067   2.260   1.521
 7339SOL     OW22915   0.059   6.616   5.810
 7339SOL    HW122916   0.111   6.646   5.730
 7339SOL    HW222917   7.016   6.689   5.837
 7340SOL     OW22918   3.937   0.872   6.584
 7340SOL    HW122919   3.899   0.828   6.502
 7340SOL    HW222920   3.863   0.901   6.644
 7341SOL     OW22921   1.742   5.195   4.583
 7341SOL    HW122922   1.734   5.188   4.682
 7341SOL    HW222923   1.652   5.185   4.541
 7342SOL     OW22924   6.827   6.875   0.482
 7342SOL    HW122925   6.918   6.855   0.518
 7342SOL    HW222926   6.820   6.973   0.463
 7343SOL     OW22927   5.631   4.191   1.712
 7343SOL    HW122928   5.672   4.102   1.733
 7343SOL    HW222929   5.589   4.188   1.622
 7344SOL     OW22930   1.801   0.204   6.658
 7344SOL    HW122931   1.850   0.127   6.618
 7344SOL    HW222932   1.774   0.268   6.585
 7345SOL     OW22933   4.138   4.921   5.989
 7345SOL    HW122934   4.204   4.956   6.056
 7345SOL    HW222935   4.149   4.970   5.903
 7346SOL     OW22936   4.353   3.845   0.834
 7346SOL    HW122937   4.343   3.781   0.910
 7346SOL    HW222938   4.269   3.899   0.826
 7347SOL     OW22939   6.837   2.598   1.939
 7347SOL    HW122940   6.786   2.679   1.968
 7347SOL    HW222941   6.774   2.523   1.921
 7348SOL     OW22942   1.726   4.130   3.491
 7348SOL    HW122943   1.691   4.045   3.452
 7348SOL    HW222944   1.795   4.169   3.430
 7349SOL     OW22945   3.687   1.710   1.101
 7349SOL    HW122946   3.634   1.719   1.017
 7349SOL    HW222947   3.734   1.621   1.101
 7350SOL     OW22948   0.626   2.798   4.163
 7350SOL    HW122949   0.611   2.854   4.081
 7350SOL    HW222950   0.709   2.743   4.152
 7351SOL     OW22951   3.988   4.544   6.872
 7351SOL    HW122952   3.949   4.560   6.781
 7351SOL    HW222953   4.084   4.568   6.872
 7352SOL     OW22954   1.767   2.063   3.735
 7352SOL    HW122955   1.793   2.004   3.812
 7352SOL    HW222956   1.789   2.018   3.649
 7353SOL     OW22957   0.639   1.284   5.354
 7353SOL    HW122958   0.543   1.293   5.383
 7353SOL    HW222959   0.646   1.309   5.257
 7354SOL     OW22960   0.327   0.733   6.468
 7354SOL    HW122961   0.253   0.714   6.533
 7354SOL    HW222962   0.415   0.729   6.516
 7355SOL     OW22963   1.580   6.156   0.986
 7355SOL    HW122964   1.498   6.125   0.937
 7355SOL    HW222965   1.659   6.104   0.954
 7356SOL     OW22966   4.938   2.695   6.523
 7356SOL    HW122967   4.887   2.739   6.597
 7356SOL    HW222968   4.958   2.600   6.547
 7357SOL     OW22969   4.726   0.884   1.412
 7357SOL    HW122970   4.667   0.901   1.490
 7357SOL    HW222971   4.673   0.841   1.338
 7358SOL     OW22972   2.848   1.993   2.387
 7358SOL    HW122973   2.857   2.077   2.334
 7358SOL    HW222974   2.850   2.014   2.485
 7359SOL     OW22975   3.446   2.925   0.781
 7359SOL    HW122976   3.350   2.904   0.795
 7359SOL    HW222977   3.481   2.875   0.702
 7360SOL     OW22978   2.269   2.318   5.773
 7360SOL    HW122979   2.193   2.280   5.825
 7360SOL    HW222980   2.244   2.325   5.677
 7361SOL     OW22981   4.754   6.308   1.977
 7361SOL    HW122982   4.735   6.393   1.927
 7361SOL    HW222983   4.773   6.235   1.911
 7362SOL     OW22984   0.804   6.662   4.893
 7362SOL    HW122985   0.773   6.576   4.934
 7362SOL    HW222986   0.768   6.739   4.947
 7363SOL     OW22987   4.640   1.753   0.090
 7363SOL    HW122988   4.550   1.789   0.068
 7363SOL    HW222989   4.710   1.823   0.073
 7364SOL     OW22990   4.121   6.520   1.486
 7364SOL    HW122991   4.030   6.558   1.500
 7364SOL    HW222992   4.114   6.429   1.445
 7365SOL     OW22993   2.392   6.481   2.326
 7365SOL    HW122994   2.420   6.385   2.334
 7365SOL    HW222995   2.293   6.487   2.329
 7366SOL     OW22996   1.484   5.505   0.253
 7366SOL    HW122997   1.535   5.428   0.292
 7366SOL    HW222998   1.548   5.573   0.218
 7367SOL     OW22999   4.526   3.574   0.808
 7367SOL    HW123000   4.467   3.554   0.887
 7367SOL    HW223001   4.488   3.652   0.758
 7368SOL     OW23002   3.550   2.932   3.959
 7368SOL    HW123003   3.464   2.981   3.947
 7368SOL    HW223004   3.616   2.964   3.891
 7369SOL     OW23005   5.311   3.603   0.820
 7369SOL    HW123006   5.224   3.634   0.781
 7369SOL    HW223007   5.386   3.658   0.784
 7370SOL     OW23008   2.100   0.475   6.390
 7370SOL    HW123009   2.156   0.555   6.414
 7370SOL    HW223010   2.056   0.490   6.302
 7371SOL     OW23011   3.090   5.525   4.209
 7371SOL    HW123012   3.048   5.436   4.230
 7371SOL    HW223013   3.045   5.596   4.262
 7372SOL     OW23014   3.323   0.356   5.503
 7372SOL    HW123015   3.408   0.305   5.490
 7372SOL    HW223016   3.318   0.429   5.435
 7373SOL     OW23017   4.533   1.454   3.565
 7373SOL    HW123018   4.439   1.446   3.598
 7373SOL    HW223019   4.594   1.471   3.642
 7374SOL     OW23020   2.265   2.861   5.448
 7374SOL    HW123021   2.237   2.812   5.531
 7374SOL    HW223022   2.364   2.872   5.447
 7375SOL     OW23023   1.567   2.230   3.688
 7375SOL    HW123024   1.595   2.316   3.731
 7375SOL    HW223025   1.639   2.161   3.699
 7376SOL     OW23026   3.322   2.395   6.982
 7376SOL    HW123027   3.300   2.484   6.944
 7376SOL    HW223028   3.419   2.374   6.966
 7377SOL     OW23029   4.707   5.428   1.835
 7377SOL    HW123030   4.638   5.409   1.765
 7377SOL    HW223031   4.725   5.345   1.887
 7378SOL     OW23032   0.155   1.941   4.582
 7378SOL    HW123033   0.060   1.963   4.604
 7378SOL    HW223034   0.188   1.871   4.645
 7379SOL     OW23035   3.799   1.611   2.655
 7379SOL    HW123036   3.774   1.516   2.674
 7379SOL    HW223037   3.825   1.656   2.740
 7380SOL     OW23038   0.312   3.151   5.839
 7380SOL    HW123039   0.378   3.168   5.911
 7380SOL    HW223040   0.332   3.210   5.760
 7381SOL     OW23041   4.862   3.066   2.440
 7381SOL    HW123042   4.924   2.989   2.460
 7381SOL    HW223043   4.795   3.075   2.513
 7382SOL     OW23044   0.020   5.414   4.787
 7382SOL    HW123045   0.040   5.444   4.880
 7382SOL    HW223046   6.951   5.370   4.784
 7383SOL     OW23047   6.898   6.739   2.510
 7383SOL    HW123048   6.980   6.763   2.562
 7383SOL    HW223049   6.919   6.666   2.446
 7384SOL     OW23050   5.150   1.079   1.880
 7384SOL    HW123051   5.062   1.032   1.881
 7384SOL    HW223052   5.136   1.178   1.880
 7385SOL     OW23053   3.682   5.921   2.187
 7385SOL    HW123054   3.755   5.989   2.177
 7385SOL    HW223055   3.648   5.922   2.281
 7386SOL     OW23056   0.700   2.544   5.346
 7386SOL    HW123057   0.622   2.598   5.314
 7386SOL    HW223058   0.670   2.477   5.413
 7387SOL     OW23059   4.560   6.465   5.137
 7387SOL    HW123060   4.507   6.529   5.082
 7387SOL    HW223061   4.497   6.405   5.188
 7388SOL     OW23062   0.180   5.646   3.697
 7388SOL    HW123063   0.085   5.627   3.673
 7388SOL    HW223064   0.226   5.560   3.720
 7389SOL     OW23065   1.419   4.987   6.661
 7389SOL    HW123066   1.466   4.914   6.711
 7389SOL    HW223067   1.320   4.980   6.676
 7390SOL     OW23068   1.373   1.942   6.541
 7390SOL    HW123069   1.447   1.874   6.545
 7390SOL    HW223070   1.391   2.015   6.606
 7391SOL     OW23071   4.663   3.790   5.367
 7391SOL    HW123072   4.713   3.703   5.360
 7391SOL    HW223073   4.570   3.778   5.333
 7392SOL     OW23074   2.446   6.062   6.362
 7392SOL    HW123075   2.462   6.020   6.273
 7392SOL    HW223076   2.532   6.101   6.396
 7393SOL     OW23077   5.885   5.642   1.635
 7393SOL    HW123078   5.912   5.673   1.726
 7393SOL    HW223079   5.948   5.680   1.567
 7394SOL     OW23080   3.059   3.165   6.332
 7394SOL    HW123081   3.018   3.178   6.423
 7394SOL    HW223082   3.130   3.095   6.337
 7395SOL     OW23083   0.925   1.038   6.895
 7395SOL    HW123084   0.858   1.079   6.833
 7395SOL    HW223085   0.880   0.969   6.952
 7396SOL     OW23086   1.220   0.946   6.900
 7396SOL    HW123087   1.291   0.932   6.969
 7396SOL    HW223088   1.141   0.992   6.942
 7397SOL     OW23089   6.339   5.445   4.096
 7397SOL    HW123090   6.259   5.445   4.036
 7397SOL    HW223091   6.318   5.492   4.182
 7398SOL     OW23092   3.435   4.934   4.124
 7398SOL    HW123093   3.408   4.952   4.218
 7398SOL    HW223094   3.355   4.904   4.071
 7399SOL     OW23095   0.602   3.877   5.469
 7399SOL    HW123096   0.575   3.900   5.562
 7399SOL    HW223097   0.567   3.787   5.445
 7400SOL     OW23098   3.290   4.071   0.133
 7400SOL    HW123099   3.379   4.113   0.113
 7400SOL    HW223100   3.294   3.973   0.114
 7401SOL     OW23101   0.567   1.081   3.703
 7401SOL    HW123102   0.664   1.059   3.685
 7401SOL    HW223103   0.510   1.027   3.641
 7402SOL     OW23104   2.082   6.618   4.444
 7402SOL    HW123105   2.016   6.546   4.466
 7402SOL    HW223106   2.132   6.644   4.526
 7403SOL     OW23107   2.176   3.153   3.264
 7403SOL    HW123108   2.183   3.127   3.360
 7403SOL    HW223109   2.145   3.248   3.257
 7404SOL     OW23110   2.534   6.484   1.406
 7404SOL    HW123111   2.535   6.491   1.306
 7404SOL    HW223112   2.555   6.391   1.433
 7405SOL     OW23113   1.202   5.138   4.766
 7405SOL    HW123114   1.207   5.048   4.722
 7405SOL    HW223115   1.156   5.203   4.705
 7406SOL     OW23116   1.735   3.827   2.390
 7406SOL    HW123117   1.678   3.768   2.333
 7406SOL    HW223118   1.721   3.805   2.486
 7407SOL     OW23119   0.670   6.462   5.012
 7407SOL    HW123120   0.587   6.510   4.981
 7407SOL    HW223121   0.644   6.375   5.055
 7408SOL     OW23122   0.795   4.406   4.940
 7408SOL    HW123123   0.841   4.368   4.860
 7408SOL    HW223124   0.842   4.488   4.971
 7409SOL     OW23125   0.502   0.863   4.606
 7409SOL    HW123126   0.561   0.943   4.601
 7409SOL    HW223127   0.469   0.852   4.700
 7410SOL     OW23128   6.666   5.198   0.812
 7410SOL    HW123129   6.716   5.120   0.849
 7410SOL    HW223130   6.672   5.198   0.712
 7411SOL     OW23131   2.953   6.999   4.229
 7411SOL    HW123132   2.898   6.915   4.221
 7411SOL    HW223133   3.030   6.995   4.166
 7412SOL     OW23134   3.983   1.391   0.813
 7412SOL    HW123135   4.078   1.413   0.834
 7412SOL    HW223136   3.976   1.355   0.720
 7413SOL     OW23137   0.137   4.861   3.887
 7413SOL    HW123138   0.217   4.913   3.916
 7413SOL    HW223139   0.162   4.766   3.870
 7414SOL     OW23140   6.916   0.044   2.627
 7414SOL    HW123141   6.908   6.969   2.600
 7414SOL    HW223142   6.885   0.055   2.721
 7415SOL     OW23143   0.453   3.758   3.201
 7415SOL    HW123144   0.486   3.794   3.114
 7415SOL    HW223145   0.431   3.661   3.191
 7416SOL     OW23146   3.413   0.686   3.780
 7416SOL    HW123147   3.363   0.682   3.866
 7416SOL    HW223148   3.511   0.681   3.799
 7417SOL     OW23149   1.624   6.980   6.868
 7417SOL    HW123150   1.566   7.016   6.795
 7417SOL    HW223151   1.675   6.901   6.835
 7418SOL     OW23152   3.952   5.002   0.923
 7418SOL    HW123153   3.945   4.925   0.860
 7418SOL    HW223154   3.974   4.969   1.014
 7419SOL     OW23155   6.587   2.398   4.671
 7419SOL    HW123156   6.619   2.470   4.733
 7419SOL    HW223157   6.636   2.313   4.690
 7420SOL     OW23158   6.291   6.269   2.771
 7420SOL    HW123159   6.301   6.178   2.730
 7420SOL    HW223160   6.378   6.297   2.811
 7421SOL     OW23161   3.409   3.012   1.908
 7421SOL    HW123162   3.336   2.966   1.859
 7421SOL    HW223163   3.496   2.969   1.886
 7422SOL     OW23164   0.250   3.598   2.649
 7422SOL    HW123165   0.282   3.563   2.737
 7422SOL    HW223166   0.328   3.602   2.585
 7423SOL     OW23167   6.868   3.786   6.541
 7423SOL    HW123168   6.853   3.700   6.491
 7423SOL    HW223169   6.966   3.802   6.552
 7424SOL     OW23170   6.270   1.316   4.139
 7424SOL    HW123171   6.220   1.354   4.061
 7424SOL    HW223172   6.326   1.388   4.181
 7425SOL     OW23173   4.200   4.756   6.594
 7425SOL    HW123174   4.214   4.853   6.613
 7425SOL    HW223175   4.194   4.742   6.495
 7426SOL     OW23176   0.995   1.898   6.880
 7426SOL    HW123177   1.026   1.924   6.971
 7426SOL    HW223178   1.064   1.842   6.836
 7427SOL     OW23179   2.740   6.297   4.970
 7427SOL    HW123180   2.707   6.207   4.943
 7427SOL    HW223181   2.792   6.338   4.895
 7428SOL     OW23182   3.199   1.186   5.451
 7428SOL    HW123183   3.209   1.214   5.355
 7428SOL    HW223184   3.207   1.266   5.510
 7429SOL     OW23185   6.143   0.312   3.340
 7429SOL    HW123186   6.184   0.302   3.431
 7429SOL    HW223187   6.059   0.257   3.335
 7430SOL     OW23188   0.088   4.743   6.006
 7430SOL    HW123189   0.018   4.752   6.077
 7430SOL    HW223190   0.178   4.763   6.044
 7431SOL     OW23191   0.527   3.895   2.152
 7431SOL    HW123192   0.501   3.901   2.056
 7431SOL    HW223193   0.460   3.945   2.207
 7432SOL     OW23194   0.491   0.075   3.669
 7432SOL    HW123195   0.505   6.997   3.675
 7432SOL    HW223196   0.550   0.121   3.735
 7433SOL     OW23197   6.594   5.635   0.398
 7433SOL    HW123198   6.572   5.692   0.318
 7433SOL    HW223199   6.511   5.586   0.426
 7434SOL     OW23200   4.159   1.054   6.571
 7434SOL    HW123201   4.117   1.141   6.544
 7434SOL    HW223202   4.092   0.981   6.562
 7435SOL     OW23203   3.283   6.421   6.572
 7435SOL    HW123204   3.277   6.515   6.605
 7435SOL    HW223205   3.320   6.421   6.479
 7436SOL     OW23206   6.732   2.641   6.407
 7436SOL    HW123207   6.634   2.626   6.394
 7436SOL    HW223208   6.775   2.663   6.320
 7437SOL     OW23209   6.966   5.628   0.030
 7437SOL    HW123210   6.977   5.624   6.952
 7437SOL    HW223211   6.898   5.560   0.059
 7438SOL     OW23212   0.714   4.809   0.597
 7438SOL    HW123213   0.791   4.747   0.609
 7438SOL    HW223214   0.715   4.877   0.670
 7439SOL     OW23215   2.217   6.896   4.425
 7439SOL    HW123216   2.119   6.903   4.442
 7439SOL    HW223217   2.254   6.815   4.471
 7440SOL     OW23218   0.631   2.986   4.715
 7440SOL    HW123219   0.663   3.068   4.669
 7440SOL    HW223220   0.700   2.914   4.705
 7441SOL     OW23221   5.818   6.850   4.573
 7441SOL    HW123222   5.833   6.871   4.477
 7441SOL    HW223223   5.785   6.755   4.582
 7442SOL     OW23224   0.908   1.034   6.125
 7442SOL    HW123225   0.944   0.947   6.158
 7442SOL    HW223226   0.810   1.039   6.144
 7443SOL     OW23227   0.680   1.765   1.074
 7443SOL    HW123228   0.693   1.729   0.981
 7443SOL    HW223229   0.716   1.699   1.140
 7444SOL     OW23230   0.133   3.417   4.944
 7444SOL    HW123231   0.213   3.360   4.960
 7444SOL    HW223232   0.125   3.486   5.016
 7445SOL     OW23233   4.101   0.962   1.239
 7445SOL    HW123234   4.021   0.983   1.295
 7445SOL    HW223235   4.165   0.905   1.291
 7446SOL     OW23236   5.420   4.294   0.196
 7446SOL    HW123237   5.409   4.371   0.260
 7446SOL    HW223238   5.332   4.274   0.153
 7447SOL     OW23239   2.175   3.624   6.841
 7447SOL    HW123240   2.148   3.528   6.829
 7447SOL    HW223241   2.272   3.628   6.865
 7448SOL     OW23242   5.036   5.988   5.955
 7448SOL    HW123243   4.990   6.019   5.872
 7448SOL    HW223244   5.044   6.065   6.019
 7449SOL     OW23245   5.177   2.927   2.178
 7449SOL    HW123246   5.087   2.968   2.163
 7449SOL    HW223247   5.169   2.827   2.181
 7450SOL     OW23248   5.436   2.471   4.778
 7450SOL    HW123249   5.392   2.382   4.780
 7450SOL    HW223250   5.390   2.533   4.841
 7451SOL     OW23251   1.580   0.185   3.570
 7451SOL    HW123252   1.501   0.143   3.613
 7451SOL    HW223253   1.604   0.270   3.619
 7452SOL     OW23254   0.770   6.922   5.035
 7452SOL    HW123255   0.822   6.996   4.992
 7452SOL    HW223256   0.806   6.905   5.127
 7453SOL     OW23257   5.392   5.729   5.440
 7453SOL    HW123258   5.485   5.743   5.474
 7453SOL    HW223259   5.391   5.741   5.340
 7454SOL     OW23260   1.235   3.293   2.181
 7454SOL    HW123261   1.156   3.352   2.196
 7454SOL    HW223262   1.233   3.217   2.247
 7455SOL     OW23263   0.060   1.304   1.876
 7455SOL    HW123264   0.109   1.378   1.922
 7455SOL    HW223265   0.056   1.324   1.778
 7456SOL     OW23266   1.126   2.108   4.742
 7456SOL    HW123267   1.111   2.021   4.694
 7456SOL    HW223268   1.060   2.175   4.709
 7457SOL     OW23269   4.150   0.786   6.046
 7457SOL    HW123270   4.172   0.699   6.091
 7457SOL    HW223271   4.055   0.786   6.018
 7458SOL     OW23272   1.456   0.678   6.513
 7458SOL    HW123273   1.423   0.659   6.605
 7458SOL    HW223274   1.544   0.726   6.519
 7459SOL     OW23275   4.694   6.945   0.331
 7459SOL    HW123276   4.626   6.881   0.366
 7459SOL    HW223277   4.758   6.969   0.404
 7460SOL     OW23278   2.031   4.161   0.936
 7460SOL    HW123279   2.073   4.249   0.958
 7460SOL    HW223280   2.099   4.089   0.942
 7461SOL     OW23281   5.057   1.548   5.888
 7461SOL    HW123282   4.967   1.559   5.846
 7461SOL    HW223283   5.054   1.473   5.954
 7462SOL     OW23284   2.135   2.712   2.199
 7462SOL    HW123285   2.199   2.652   2.248
 7462SOL    HW223286   2.183   2.759   2.125
 7463SOL     OW23287   3.725   4.231   1.446
 7463SOL    HW123288   3.668   4.161   1.490
 7463SOL    HW223289   3.682   4.320   1.455
 7464SOL     OW23290   3.245   6.536   6.297
 7464SOL    HW123291   3.236   6.437   6.289
 7464SOL    HW223292   3.254   6.576   6.206
 7465SOL     OW23293   1.903   0.695   0.776
 7465SOL    HW123294   1.977   0.749   0.817
 7465SOL    HW223295   1.820   0.751   0.772
 7466SOL     OW23296   0.412   0.476   7.000
 7466SOL    HW123297   0.362   0.462   6.914
 7466SOL    HW223298   0.482   0.406   7.009
 7467SOL     OW23299   6.746   1.885   0.843
 7467SOL    HW123300   6.767   1.813   0.909
 7467SOL    HW223301   6.652   1.917   0.856
 7468SOL     OW23302   5.276   2.548   2.584
 7468SOL    HW123303   5.248   2.604   2.662
 7468SOL    HW223304   5.348   2.596   2.533
 7469SOL     OW23305   0.640   0.310   0.561
 7469SOL    HW123306   0.654   0.214   0.588
 7469SOL    HW223307   0.609   0.314   0.466
 7470SOL     OW23308   0.375   2.819   3.909
 7470SOL    HW123309   0.452   2.883   3.908
 7470SOL    HW223310   0.363   2.781   3.817
 7471SOL     OW23311   6.219   0.133   4.455
 7471SOL    HW123312   6.200   0.046   4.409
 7471SOL    HW223313   6.224   0.118   4.554
 7472SOL     OW23314   5.804   6.840   4.298
 7472SOL    HW123315   5.766   6.921   4.255
 7472SOL    HW223316   5.760   6.758   4.260
 7473SOL     OW23317   0.568   4.564   3.294
 7473SOL    HW123318   0.483   4.600   3.258
 7473SOL    HW223319   0.626   4.639   3.324
 7474SOL     OW23320   2.259   1.232   4.906
 7474SOL    HW123321   2.325   1.169   4.945
 7474SOL    HW223322   2.168   1.215   4.944
 7475SOL     OW23323   3.567   1.499   2.093
 7475SOL    HW123324   3.564   1.559   2.173
 7475SOL    HW223325   3.648   1.521   2.038
 7476SOL     OW23326   3.632   6.523   4.134
 7476SOL    HW123327   3.680   6.605   4.166
 7476SOL    HW223328   3.660   6.502   4.041
 7477SOL     OW23329   5.483   1.566   3.733
 7477SOL    HW123330   5.523   1.475   3.726
 7477SOL    HW223331   5.551   1.630   3.769
 7478SOL     OW23332   3.734   4.237   6.217
 7478SOL    HW123333   3.647   4.199   6.184
 7478SOL    HW223334   3.727   4.255   6.315
 7479SOL     OW23335   4.086   2.898   0.759
 7479SOL    HW123336   4.024   2.972   0.783
 7479SOL    HW223337   4.180   2.926   0.777
 7480SOL     OW23338   6.130   4.751   1.635
 7480SOL    HW123339   6.042   4.756   1.681
 7480SOL    HW223340   6.203   4.761   1.703
 7481SOL     OW23341   5.706   5.374   1.647
 7481SOL    HW123342   5.614   5.354   1.680
 7481SOL    HW223343   5.771   5.369   1.724
 7482SOL     OW23344   4.661   1.903   2.537
 7482SOL    HW123345   4.724   1.834   2.571
 7482SOL    HW223346   4.624   1.874   2.449
 7483SOL     OW23347   4.405   2.065   5.038
 7483SOL    HW123348   4.315   2.107   5.044
 7483SOL    HW223349   4.451   2.094   4.954
 7484SOL     OW23350   0.040   0.025   2.308
 7484SOL    HW123351   6.965   0.010   2.329
 7484SOL    HW223352   0.052   0.119   2.274
 7485SOL     OW23353   3.139   5.972   5.555
 7485SOL    HW123354   3.175   6.006   5.641
 7485SOL    HW223355   3.150   5.872   5.552
 7486SOL     OW23356   2.635   0.388   5.635
 7486SOL    HW123357   2.637   0.340   5.722
 7486SOL    HW223358   2.705   0.459   5.634
 7487SOL     OW23359   2.092   6.495   2.581
 7487SOL    HW123360   2.128   6.556   2.651
 7487SOL    HW223361   2.114   6.532   2.490
 7488SOL     OW23362   1.953   6.785   5.008
 7488SOL    HW123363   1.932   6.779   4.911
 7488SOL    HW223364   1.872   6.816   5.058
 7489SOL     OW23365   5.112   2.448   5.411
 7489SOL    HW123366   5.142   2.410   5.324
 7489SOL    HW223367   5.049   2.383   5.455
 7490SOL     OW23368   1.188   1.563   1.333
 7490SOL    HW123369   1.204   1.490   1.399
 7490SOL    HW223370   1.131   1.635   1.375
 7491SOL     OW23371   0.247   4.543   6.700
 7491SOL    HW123372   0.315   4.503   6.638
 7491SOL    HW223373   0.227   4.637   6.670
 7492SOL     OW23374   2.759   1.320   4.756
 7492SOL    HW123375   2.840   1.267   4.782
 7492SOL    HW223376   2.718   1.278   4.674
 7493SOL     OW23377   5.947   4.211   6.217
 7493SOL    HW123378   6.009   4.196   6.294
 7493SOL    HW223379   5.878   4.279   6.242
 7494SOL     OW23380   6.190   1.088   2.723
 7494SOL    HW123381   6.258   1.086   2.650
 7494SOL    HW223382   6.191   1.000   2.771
 7495SOL     OW23383   2.453   1.340   1.156
 7495SOL    HW123384   2.420   1.250   1.184
 7495SOL    HW223385   2.545   1.332   1.119
 7496SOL     OW23386   0.829   3.600   6.154
 7496SOL    HW123387   0.743   3.637   6.189
 7496SOL    HW223388   0.904   3.628   6.214
 7497SOL     OW23389   2.483   4.784   1.173
 7497SOL    HW123390   2.458   4.763   1.268
 7497SOL    HW223391   2.423   4.857   1.139
 7498SOL     OW23392   1.732   0.857   4.436
 7498SOL    HW123393   1.699   0.938   4.387
 7498SOL    HW223394   1.655   0.797   4.456
 7499SOL     OW23395   6.044   1.254   3.338
 7499SOL    HW123396   5.966   1.301   3.296
 7499SOL    HW223397   6.016   1.162   3.366
 7500SOL     OW23398   3.990   6.400   3.626
 7500SOL    HW123399   3.919   6.330   3.614
 7500SOL    HW223400   4.080   6.360   3.607
 7501SOL     OW23401   6.672   4.177   4.344
 7501SOL    HW123402   6.585   4.226   4.344
 7501SOL    HW223403   6.738   4.226   4.288
 7502SOL     OW23404   1.141   0.636   5.432
 7502SOL    HW123405   1.070   0.623   5.501
 7502SOL    HW223406   1.130   0.726   5.390
 7503SOL     OW23407   2.264   1.772   0.026
 7503SOL    HW123408   2.258   1.729   0.116
 7503SOL    HW223409   2.177   1.814   0.003
 7504SOL     OW23410   3.066   0.516   3.706
 7504SOL    HW123411   3.082   0.435   3.649
 7504SOL    HW223412   3.105   0.596   3.662
 7505SOL     OW23413   2.190   0.751   5.309
 7505SOL    HW123414   2.286   0.725   5.307
 7505SOL    HW223415   2.137   0.680   5.356
 7506SOL     OW23416   3.800   0.332   2.606
 7506SOL    HW123417   3.838   0.424   2.601
 7506SOL    HW223418   3.832   0.279   2.527
 7507SOL     OW23419   0.128   0.978   1.148
 7507SOL    HW123420   0.169   0.906   1.204
 7507SOL    HW223421   0.163   0.972   1.054
 7508SOL     OW23422   5.428   0.454   2.195
 7508SOL    HW123423   5.518   0.471   2.234
 7508SOL    HW223424   5.380   0.541   2.182
 7509SOL     OW23425   5.692   4.022   0.897
 7509SOL    HW123426   5.675   4.083   0.821
 7509SOL    HW223427   5.778   3.973   0.883
 7510SOL     OW23428   2.803   4.100   5.327
 7510SOL    HW123429   2.757   4.015   5.302
 7510SOL    HW223430   2.739   4.176   5.321
 7511SOL     OW23431   1.209   0.417   3.499
 7511SOL    HW123432   1.194   0.418   3.400
 7511SOL    HW223433   1.157   0.491   3.542
 7512SOL     OW23434   3.061   4.493   1.334
 7512SOL    HW123435   3.070   4.414   1.273
 7512SOL    HW223436   3.092   4.467   1.426
 7513SOL     OW23437   1.894   1.835   1.655
 7513SOL    HW123438   1.835   1.804   1.729
 7513SOL    HW223439   1.975   1.880   1.693
 7514SOL     OW23440   2.973   5.686   2.631
 7514SOL    HW123441   2.917   5.768   2.628
 7514SOL    HW223442   2.920   5.610   2.670
 7515SOL     OW23443   1.669   6.294   2.206
 7515SOL    HW123444   1.728   6.228   2.252
 7515SOL    HW223445   1.598   6.325   2.269
 7516SOL     OW23446   0.073   6.089   4.475
 7516SOL    HW123447   7.012   6.031   4.477
 7516SOL    HW223448   0.061   6.162   4.408
 7517SOL     OW23449   6.667   3.426   1.533
 7517SOL    HW123450   6.674   3.522   1.506
 7517SOL    HW223451   6.699   3.368   1.458
 7518SOL     OW23452   3.988   5.872   3.632
 7518SOL    HW123453   3.906   5.929   3.627
 7518SOL    HW223454   3.990   5.825   3.721
 7519SOL     OW23455   0.186   6.666   3.407
 7519SOL    HW123456   0.153   6.729   3.477
 7519SOL    HW223457   0.114   6.600   3.385
 7520SOL     OW23458   3.283   6.891   1.854
 7520SOL    HW123459   3.207   6.860   1.911
 7520SOL    HW223460   3.348   6.942   1.910
 7521SOL     OW23461   4.141   4.487   5.960
 7521SOL    HW123462   4.152   4.391   5.933
 7521SOL    HW223463   4.152   4.495   6.059
 7522SOL     OW23464   2.900   0.611   6.554
 7522SOL    HW123465   2.840   0.599   6.634
 7522SOL    HW223466   2.942   0.523   6.531
 7523SOL     OW23467   5.231   0.477   5.688
 7523SOL    HW123468   5.158   0.410   5.696
 7523SOL    HW223469   5.309   0.436   5.640
 7524SOL     OW23470   0.913   2.483   6.648
 7524SOL    HW123471   0.977   2.406   6.645
 7524SOL    HW223472   0.963   2.569   6.644
 7525SOL     OW23473   2.559   6.838   0.114
 7525SOL    HW123474   2.505   6.761   0.149
 7525SOL    HW223475   2.655   6.810   0.105
 7526SOL     OW23476   3.658   3.130   2.623
 7526SOL    HW123477   3.701   3.082   2.547
 7526SOL    HW223478   3.577   3.178   2.591
 7527SOL     OW23479   4.079   5.883   3.381
 7527SOL    HW123480   4.147   5.811   3.366
 7527SOL    HW223481   4.052   5.885   3.477
 7528SOL     OW23482   3.897   1.932   6.489
 7528SOL    HW123483   3.942   1.946   6.401
 7528SOL    HW223484   3.959   1.958   6.563
 7529SOL     OW23485   6.017   0.794   4.366
 7529SOL    HW123486   6.044   0.779   4.271
 7529SOL    HW223487   6.059   0.724   4.424
 7530SOL     OW23488   6.107   3.944   2.459
 7530SOL    HW123489   6.130   4.026   2.407
 7530SOL    HW223490   6.158   3.866   2.423
 7531SOL     OW23491   4.464   2.106   3.875
 7531SOL    HW123492   4.426   2.085   3.785
 7531SOL    HW223493   4.439   2.199   3.901
 7532SOL     OW23494   5.492   5.607   1.601
 7532SOL    HW123495   5.432   5.624   1.524
 7532SOL    HW223496   5.506   5.691   1.653
 7533SOL     OW23497   2.257   0.630   3.035
 7533SOL    HW123498   2.184   0.612   2.969
 7533SOL    HW223499   2.276   0.728   3.040
 7534SOL     OW23500   3.638   6.556   5.412
 7534SOL    HW123501   3.699   6.542   5.489
 7534SOL    HW223502   3.691   6.561   5.327
 7535SOL     OW23503   2.670   0.887   5.858
 7535SOL    HW123504   2.759   0.842   5.851
 7535SOL    HW223505   2.626   0.888   5.768
 7536SOL     OW23506   5.776   4.875   4.816
 7536SOL    HW123507   5.768   4.974   4.804
 7536SOL    HW223508   5.853   4.841   4.763
 7537SOL     OW23509   2.611   5.558   4.813
 7537SOL    HW123510   2.625   5.630   4.745
 7537SOL    HW223511   2.535   5.583   4.873
 7538SOL     OW23512   3.611   2.764   1.894
 7538SOL    HW123513   3.710   2.758   1.881
 7538SOL    HW223514   3.566   2.688   1.846
 7539SOL     OW23515   2.625   2.475   4.491
 7539SOL    HW123516   2.553   2.425   4.540
 7539SOL    HW223517   2.678   2.411   4.435
 7540SOL     OW23518   2.545   0.923   5.598
 7540SOL    HW123519   2.627   0.960   5.553
 7540SOL    HW223520   2.465   0.942   5.542
 7541SOL     OW23521   6.753   3.368   4.695
 7541SOL    HW123522   6.709   3.313   4.767
 7541SOL    HW223523   6.851   3.347   4.693
 7542SOL     OW23524   0.755   6.214   7.018
 7542SOL    HW123525   0.822   6.246   0.063
 7542SOL    HW223526   0.752   6.114   7.020
 7543SOL     OW23527   4.028   2.346   0.857
 7543SOL    HW123528   4.089   2.305   0.925
 7543SOL    HW223529   4.083   2.393   0.787
 7544SOL     OW23530   0.548   2.489   3.785
 7544SOL    HW123531   0.635   2.454   3.818
 7544SOL    HW223532   0.485   2.500   3.862
 7545SOL     OW23533   5.692   6.614   3.048
 7545SOL    HW123534   5.676   6.600   2.950
 7545SOL    HW223535   5.784   6.650   3.062
 7546SOL     OW23536   4.372   1.408   1.588
 7546SOL    HW123537   4.390   1.371   1.679
 7546SOL    HW223538   4.374   1.508   1.591
 7547SOL     OW23539   4.542   6.698   0.994
 7547SOL    HW123540   4.547   6.795   1.019
 7547SOL    HW223541   4.463   6.683   0.935
 7548SOL     OW23542   2.992   2.130   0.609
 7548SOL    HW123543   3.012   2.045   0.657
 7548SOL    HW223544   3.025   2.125   0.515
 7549SOL     OW23545   5.661   1.886   1.491
 7549SOL    HW123546   5.583   1.823   1.481
 7549SOL    HW223547   5.733   1.841   1.545
 7550SOL     OW23548   2.361   4.675   1.979
 7550SOL    HW123549   2.313   4.588   1.970
 7550SOL    HW223550   2.447   4.672   1.930
 7551SOL     OW23551   4.812   4.008   6.992
 7551SOL    HW123552   4.810   4.083   0.038
 7551SOL    HW223553   4.734   3.948   7.008
 7552SOL     OW23554   2.084   5.582   4.200
 7552SOL    HW123555   2.124   5.530   4.125
 7552SOL    HW223556   2.096   5.531   4.286
 7553SOL     OW23557   4.303   5.075   5.258
 7553SOL    HW123558   4.317   5.152   5.195
 7553SOL    HW223559   4.348   5.094   5.345
 7554SOL     OW23560   4.933   0.313   0.597
 7554SOL    HW123561   5.019   0.319   0.547
 7554SOL    HW223562   4.894   0.405   0.607
 7555SOL     OW23563   2.044   5.168   5.015
 7555SOL    HW123564   2.044   5.118   4.929
 7555SOL    HW223565   2.064   5.105   5.090
 7556SOL     OW23566   0.656   2.534   5.723
 7556SOL    HW123567   0.608   2.523   5.636
 7556SOL    HW223568   0.641   2.453   5.780
 7557SOL     OW23569   5.408   2.855   6.437
 7557SOL    HW123570   5.374   2.797   6.364
 7557SOL    HW223571   5.483   2.912   6.402
 7558SOL     OW23572   2.570   2.429   3.044
 7558SOL    HW123573   2.521   2.342   3.041
 7558SOL    HW223574   2.667   2.411   3.064
 7559SOL     OW23575   6.426   5.801   0.867
 7559SOL    HW123576   6.466   5.763   0.950
 7559SOL    HW223577   6.362   5.873   0.890
 7560SOL     OW23578   5.785   6.186   0.153
 7560SOL    HW123579   5.841   6.245   0.211
 7560SOL    HW223580   5.758   6.236   0.070
 7561SOL     OW23581   0.856   3.098   0.828
 7561SOL    HW123582   0.838   3.149   0.912
 7561SOL    HW223583   0.805   3.012   0.829
 7562SOL     OW23584   5.519   6.503   4.658
 7562SOL    HW123585   5.438   6.550   4.625
 7562SOL    HW223586   5.507   6.404   4.650
 7563SOL     OW23587   2.779   6.383   1.240
 7563SOL    HW123588   2.854   6.349   1.184
 7563SOL    HW223589   2.814   6.417   1.327
 7564SOL     OW23590   4.998   1.659   2.820
 7564SOL    HW123591   4.921   1.719   2.798
 7564SOL    HW223592   4.981   1.568   2.781
 7565SOL     OW23593   5.384   4.743   6.923
 7565SOL    HW123594   5.300   4.689   6.929
 7565SOL    HW223595   5.365   4.826   6.870
 7566SOL     OW23596   0.578   5.133   3.423
 7566SOL    HW123597   0.553   5.081   3.505
 7566SOL    HW223598   0.675   5.156   3.427
 7567SOL     OW23599   2.160   2.662   5.067
 7567SOL    HW123600   2.260   2.657   5.059
 7567SOL    HW223601   2.135   2.745   5.116
 7568SOL     OW23602   5.656   6.392   3.720
 7568SOL    HW123603   5.593   6.376   3.644
 7568SOL    HW223604   5.727   6.321   3.720
 7569SOL     OW23605   3.989   4.559   6.557
 7569SOL    HW123606   3.921   4.584   6.488
 7569SOL    HW223607   4.043   4.639   6.582
 7570SOL     OW23608   5.209   4.543   5.711
 7570SOL    HW123609   5.113   4.543   5.682
 7570SOL    HW223610   5.253   4.626   5.679
 7571SOL     OW23611   5.034   5.035   2.507
 7571SOL    HW123612   5.090   4.962   2.546
 7571SOL    HW223613   4.959   4.995   2.455
 7572SOL     OW23614   4.801   0.532   3.435
 7572SOL    HW123615   4.849   0.599   3.492
 7572SOL    HW223616   4.868   0.469   3.395
 7573SOL     OW23617   5.973   6.209   4.527
 7573SOL    HW123618   6.043   6.274   4.556
 7573SOL    HW223619   5.894   6.214   4.589
 7574SOL     OW23620   6.861   0.787   4.858
 7574SOL    HW123621   6.884   0.717   4.790
 7574SOL    HW223622   6.942   0.808   4.913
 7575SOL     OW23623   4.396   0.020   6.002
 7575SOL    HW123624   4.463   0.067   5.945
 7575SOL    HW223625   4.342   6.978   5.946
 7576SOL     OW23626   6.291   5.642   0.327
 7576SOL    HW123627   6.298   5.556   0.377
 7576SOL    HW223628   6.275   5.717   0.392
 7577SOL     OW23629   6.761   6.952   5.535
 7577SOL    HW123630   6.730   6.861   5.562
 7577SOL    HW223631   6.682   7.009   5.513
 7578SOL     OW23632   2.417   6.099   3.498
 7578SOL    HW123633   2.422   6.120   3.401
 7578SOL    HW223634   2.351   6.160   3.543
 7579SOL     OW23635   4.848   2.079   2.268
 7579SOL    HW123636   4.807   1.989   2.276
 7579SOL    HW223637   4.851   2.106   2.171
 7580SOL     OW23638   1.250   4.322   4.329
 7580SOL    HW123639   1.330   4.294   4.383
 7580SOL    HW223640   1.226   4.417   4.352
 7581SOL     OW23641   5.093   0.691   1.205
 7581SOL    HW123642   5.119   0.772   1.257
 7581SOL    HW223643   5.009   0.711   1.154
 7582SOL     OW23644   2.886   1.070   0.052
 7582SOL    HW123645   2.904   0.985   0.003
 7582SOL    HW223646   2.827   1.129   7.017
 7583SOL     OW23647   6.115   3.208   1.225
 7583SOL    HW123648   6.071   3.167   1.145
 7583SOL    HW223649   6.062   3.187   1.306
 7584SOL     OW23650   3.012   6.770   0.914
 7584SOL    HW123651   2.958   6.737   0.991
 7584SOL    HW223652   3.104   6.733   0.920
 7585SOL     OW23653   1.498   3.163   6.133
 7585SOL    HW123654   1.412   3.214   6.139
 7585SOL    HW223655   1.552   3.198   6.057
 7586SOL     OW23656   3.350   0.803   3.367
 7586SOL    HW123657   3.449   0.812   3.379
 7586SOL    HW223658   3.330   0.733   3.299
 7587SOL     OW23659   3.472   1.411   6.450
 7587SOL    HW123660   3.421   1.467   6.385
 7587SOL    HW223661   3.428   1.416   6.540
 7588SOL     OW23662   1.037   3.744   2.270
 7588SOL    HW123663   1.115   3.767   2.214
 7588SOL    HW223664   0.952   3.772   2.224
 7589SOL     OW23665   6.307   6.810   0.964
 7589SOL    HW123666   6.241   6.788   1.037
 7589SOL    HW223667   6.382   6.743   0.966
 7590SOL     OW23668   3.001   2.221   6.722
 7590SOL    HW123669   2.931   2.281   6.760
 7590SOL    HW223670   2.963   2.170   6.644
 7591SOL     OW23671   6.714   4.835   0.675
 7591SOL    HW123672   6.656   4.910   0.642
 7591SOL    HW223673   6.754   4.859   0.763
 7592SOL     OW23674   6.776   4.506   6.757
 7592SOL    HW123675   6.681   4.515   6.785
 7592SOL    HW223676   6.790   4.550   6.669
 7593SOL     OW23677   5.060   2.615   0.659
 7593SOL    HW123678   5.132   2.607   0.728
 7593SOL    HW223679   5.027   2.524   0.635
 7594SOL     OW23680   0.308   4.390   2.152
 7594SOL    HW123681   0.363   4.470   2.179
 7594SOL    HW223682   0.282   4.339   2.234
 7595SOL     OW23683   6.784   2.341   5.885
 7595SOL    HW123684   6.772   2.413   5.817
 7595SOL    HW223685   6.697   2.323   5.930
 7596SOL     OW23686   4.143   5.547   3.121
 7596SOL    HW123687   4.193   5.561   3.206
 7596SOL    HW223688   4.205   5.557   3.043
 7597SOL     OW23689   2.521   5.772   1.964
 7597SOL    HW123690   2.430   5.734   1.981
 7597SOL    HW223691   2.587   5.732   2.027
 7598SOL     OW23692   0.131   1.443   2.791
 7598SOL    HW123693   0.109   1.349   2.765
 7598SOL    HW223694   0.227   1.449   2.817
 7599SOL     OW23695   5.668   1.846   3.336
 7599SOL    HW123696   5.576   1.808   3.324
 7599SOL    HW223697   5.719   1.836   3.250
 7600SOL     OW23698   1.826   0.988   2.472
 7600SOL    HW123699   1.834   0.903   2.524
 7600SOL    HW223700   1.784   0.969   2.383
 7601SOL     OW23701   1.958   5.702   2.613
 7601SOL    HW123702   2.024   5.639   2.573
 7601SOL    HW223703   1.874   5.701   2.559
 7602SOL     OW23704   1.444   4.397   6.609
 7602SOL    HW123705   1.357   4.379   6.563
 7602SOL    HW223706   1.517   4.344   6.566
 7603SOL     OW23707   1.104   5.619   6.023
 7603SOL    HW123708   1.125   5.537   5.970
 7603SOL    HW223709   1.051   5.593   6.105
 7604SOL     OW23710   2.263   4.164   4.157
 7604SOL    HW123711   2.324   4.239   4.182
 7604SOL    HW223712   2.268   4.147   4.059
 7605SOL     OW23713   0.778   6.382   0.650
 7605SOL    HW123714   0.815   6.419   0.735
 7605SOL    HW223715   0.841   6.401   0.575
 7606SOL     OW23716   6.889   3.060   3.730
 7606SOL    HW123717   6.841   3.003   3.797
 7606SOL    HW223718   6.972   3.013   3.701
 7607SOL     OW23719   4.739   6.114   0.371
 7607SOL    HW123720   4.836   6.115   0.346
 7607SOL    HW223721   4.719   6.031   0.423
 7608SOL     OW23722   3.241   4.065   2.427
 7608SOL    HW123723   3.253   4.148   2.373
 7608SOL    HW223724   3.151   4.026   2.409
 7609SOL     OW23725   6.903   4.128   3.640
 7609SOL    HW123726   6.857   4.179   3.712
 7609SOL    HW223727   6.975   4.070   3.680
 7610SOL     OW23728   6.252   6.985   6.890
 7610SOL    HW123729   6.191   6.927   6.945
 7610SOL    HW223730   6.198   0.036   6.846
 7611SOL     OW23731   0.776   2.131   0.074
 7611SOL    HW123732   0.758   2.162   7.001
 7611SOL    HW223733   0.761   2.032   0.079
 7612SOL     OW23734   5.180   2.609   4.860
 7612SOL    HW123735   5.126   2.580   4.939
 7612SOL    HW223736   5.217   2.701   4.878
 7613SOL     OW23737   5.648   2.674   1.600
 7613SOL    HW123738   5.611   2.614   1.670
 7613SOL    HW223739   5.590   2.755   1.591
 7614SOL     OW23740   5.040   3.001   1.574
 7614SOL    HW123741   5.031   3.030   1.479
 7614SOL    HW223742   5.069   2.905   1.578
 7615SOL     OW23743   4.515   3.729   6.263
 7615SOL    HW123744   4.563   3.812   6.290
 7615SOL    HW223745   4.554   3.651   6.313
 7616SOL     OW23746   6.845   4.406   4.255
 7616SOL    HW123747   6.911   4.450   4.194
 7616SOL    HW223748   6.849   4.450   4.345
 7617SOL     OW23749   3.198   5.449   2.916
 7617SOL    HW123750   3.147   5.363   2.919
 7617SOL    HW223751   3.134   5.525   2.927
 7618SOL     OW23752   0.606   2.325   6.644
 7618SOL    HW123753   0.579   2.249   6.584
 7618SOL    HW223754   0.685   2.299   6.699
 7619SOL     OW23755   5.469   3.346   5.462
 7619SOL    HW123756   5.399   3.413   5.488
 7619SOL    HW223757   5.465   3.330   5.363
 7620SOL     OW23758   3.575   5.235   0.132
 7620SOL    HW123759   3.552   5.332   0.126
 7620SOL    HW223760   3.544   5.188   0.049
 7621SOL     OW23761   0.251   1.731   0.563
 7621SOL    HW123762   0.176   1.667   0.582
 7621SOL    HW223763   0.338   1.685   0.578
 7622SOL     OW23764   5.102   5.493   1.711
 7622SOL    HW123765   5.100   5.487   1.611
 7622SOL    HW223766   5.087   5.402   1.750
 7623SOL     OW23767   4.561   4.659   6.708
 7623SOL    HW123768   4.621   4.650   6.629
 7623SOL    HW223769   4.534   4.755   6.718
 7624SOL     OW23770   0.001   2.375   4.736
 7624SOL    HW123771   6.967   2.458   4.724
 7624SOL    HW223772   0.018   2.360   4.833
 7625SOL     OW23773   4.734   0.595   1.688
 7625SOL    HW123774   4.747   0.564   1.594
 7625SOL    HW223775   4.642   0.569   1.719
 7626SOL     OW23776   6.901   6.472   4.318
 7626SOL    HW123777   6.893   6.404   4.391
 7626SOL    HW223778   6.995   6.475   4.285
 7627SOL     OW23779   5.041   3.052   6.633
 7627SOL    HW123780   4.987   3.001   6.567
 7627SOL    HW223781   5.129   3.007   6.646
 7628SOL     OW23782   3.668   0.668   2.024
 7628SOL    HW123783   3.736   0.714   1.968
 7628SOL    HW223784   3.614   0.606   1.967
 7629SOL     OW23785   6.792   0.057   2.869
 7629SOL    HW123786   6.832   0.077   2.959
 7629SOL    HW223787   6.693   0.051   2.878
 7630SOL     OW23788   5.895   6.726   1.829
 7630SOL    HW123789   5.914   6.730   1.927
 7630SOL    HW223790   5.970   6.680   1.782
 7631SOL     OW23791   0.807   0.886   5.318
 7631SOL    HW123792   0.796   0.946   5.239
 7631SOL    HW223793   0.718   0.843   5.339
 7632SOL     OW23794   3.558   2.576   1.726
 7632SOL    HW123795   3.478   2.540   1.679
 7632SOL    HW223796   3.604   2.502   1.776
 7633SOL     OW23797   4.175   2.478   0.602
 7633SOL    HW123798   4.108   2.551   0.611
 7633SOL    HW223799   4.137   2.405   0.545
 7634SOL     OW23800   0.645   1.755   2.837
 7634SOL    HW123801   0.606   1.836   2.881
 7634SOL    HW223802   0.580   1.719   2.770
 7635SOL     OW23803   2.588   6.275   5.218
 7635SOL    HW123804   2.654   6.271   5.143
 7635SOL    HW223805   2.560   6.182   5.242
 7636SOL     OW23806   1.751   2.258   3.475
 7636SOL    HW123807   1.723   2.257   3.379
 7636SOL    HW223808   1.670   2.255   3.534
 7637SOL     OW23809   2.880   6.365   2.906
 7637SOL    HW123810   2.877   6.416   2.992
 7637SOL    HW223811   2.975   6.351   2.878
 7638SOL     OW23812   3.860   5.822   1.802
 7638SOL    HW123813   3.828   5.881   1.728
 7638SOL    HW223814   3.790   5.817   1.873
 7639SOL     OW23815   1.548   2.224   0.633
 7639SOL    HW123816   1.549   2.248   0.536
 7639SOL    HW223817   1.596   2.295   0.685
 7640SOL     OW23818   3.174   1.781   0.130
 7640SOL    HW123819   3.196   1.875   0.103
 7640SOL    HW223820   3.195   1.719   0.054
 7641SOL     OW23821   0.805   4.395   1.694
 7641SOL    HW123822   0.796   4.493   1.713
 7641SOL    HW223823   0.713   4.355   1.685
 7642SOL     OW23824   2.501   1.824   2.229
 7642SOL    HW123825   2.429   1.815   2.159
 7642SOL    HW223826   2.585   1.782   2.195
 7643SOL     OW23827   4.790   2.876   4.311
 7643SOL    HW123828   4.719   2.832   4.255
 7643SOL    HW223829   4.873   2.887   4.257
 7644SOL     OW23830   5.777   2.617   2.078
 7644SOL    HW123831   5.693   2.671   2.068
 7644SOL    HW223832   5.854   2.668   2.041
 7645SOL     OW23833   4.333   3.968   5.415
 7645SOL    HW123834   4.257   4.014   5.368
 7645SOL    HW223835   4.355   3.883   5.367
 7646SOL     OW23836   2.421   2.361   2.383
 7646SOL    HW123837   2.337   2.343   2.333
 7646SOL    HW223838   2.406   2.343   2.480
 7647SOL     OW23839   7.013   3.437   2.484
 7647SOL    HW123840   0.043   3.425   2.399
 7647SOL    HW223841   0.055   3.453   2.560
 7648SOL     OW23842   3.468   1.505   3.403
 7648SOL    HW123843   3.509   1.475   3.490
 7648SOL    HW223844   3.540   1.522   3.336
 7649SOL     OW23845   1.016   1.280   2.889
 7649SOL    HW123846   1.063   1.368   2.883
 7649SOL    HW223847   1.079   1.211   2.926
 7650SOL     OW23848   5.062   2.475   1.307
 7650SOL    HW123849   4.976   2.471   1.359
 7650SOL    HW223850   5.069   2.394   1.249
 7651SOL     OW23851   2.443   6.871   5.433
 7651SOL    HW123852   2.378   6.923   5.378
 7651SOL    HW223853   2.394   6.815   5.499
 7652SOL     OW23854   6.713   3.909   4.248
 7652SOL    HW123855   6.749   3.929   4.157
 7652SOL    HW223856   6.664   3.989   4.283
 7653SOL     OW23857   2.963   1.330   0.675
 7653SOL    HW123858   2.910   1.372   0.601
 7653SOL    HW223859   2.968   1.394   0.752
 7654SOL     OW23860   5.357   3.340   4.106
 7654SOL    HW123861   5.381   3.437   4.100
 7654SOL    HW223862   5.309   3.312   4.022
 7655SOL     OW23863   3.162   0.344   3.514
 7655SOL    HW123864   3.101   0.379   3.443
 7655SOL    HW223865   3.246   0.398   3.516
 7656SOL     OW23866   1.847   4.910   6.286
 7656SOL    HW123867   1.802   4.999   6.278
 7656SOL    HW223868   1.918   4.902   6.216
 7657SOL     OW23869   2.813   2.337   3.147
 7657SOL    HW123870   2.826   2.334   3.246
 7657SOL    HW223871   2.901   2.319   3.101
 7658SOL     OW23872   3.671   6.690   5.709
 7658SOL    HW123873   3.636   6.780   5.681
 7658SOL    HW223874   3.735   6.656   5.640
 7659SOL     OW23875   5.771   5.638   6.637
 7659SOL    HW123876   5.737   5.657   6.545
 7659SOL    HW223877   5.854   5.583   6.632
 7660SOL     OW23878   0.390   6.651   3.948
 7660SOL    HW123879   0.294   6.645   3.920
 7660SOL    HW223880   0.407   6.739   3.992
 7661SOL     OW23881   5.635   2.637   4.721
 7661SOL    HW123882   5.571   2.570   4.757
 7661SOL    HW223883   5.607   2.666   4.630
 7662SOL     OW23884   0.520   2.393   2.474
 7662SOL    HW123885   0.427   2.397   2.438
 7662SOL    HW223886   0.527   2.456   2.552
 7663SOL     OW23887   0.182   6.761   6.265
 7663SOL    HW123888   0.102   6.724   6.218
 7663SOL    HW223889   0.206   6.701   6.342
 7664SOL     OW23890   3.728   0.490   2.233
 7664SOL    HW123891   3.712   0.526   2.325
 7664SOL    HW223892   3.710   0.562   2.166
 7665SOL     OW23893   4.563   0.032   4.953
 7665SOL    HW123894   4.490   0.012   4.888
 7665SOL    HW223895   4.622   6.973   4.962
 7666SOL     OW23896   1.180   6.608   1.741
 7666SOL    HW123897   1.091   6.652   1.729
 7666SOL    HW223898   1.209   6.615   1.836
 7667SOL     OW23899   4.561   6.024   2.066
 7667SOL    HW123900   4.521   6.115   2.078
 7667SOL    HW223901   4.491   5.955   2.087
 7668SOL     OW23902   3.187   4.262   1.186
 7668SOL    HW123903   3.285   4.269   1.164
 7668SOL    HW223904   3.176   4.235   1.281
 7669SOL     OW23905   5.639   1.571   6.017
 7669SOL    HW123906   5.634   1.667   6.043
 7669SOL    HW223907   5.590   1.557   5.931
 7670SOL     OW23908   1.011   4.647   6.473
 7670SOL    HW123909   0.958   4.570   6.438
 7670SOL    HW223910   1.012   4.720   6.405
 7671SOL     OW23911   4.635   0.651   4.419
 7671SOL    HW123912   4.705   0.582   4.405
 7671SOL    HW223913   4.661   0.735   4.372
 7672SOL     OW23914   6.136   6.706   3.499
 7672SOL    HW123915   6.050   6.662   3.472
 7672SOL    HW223916   6.181   6.650   3.568
 7673SOL     OW23917   1.765   5.080   6.808
 7673SOL    HW123918   1.833   5.061   6.879
 7673SOL    HW223919   1.786   5.026   6.727
 7674SOL     OW23920   6.037   2.230   3.523
 7674SOL    HW123921   6.115   2.292   3.512
 7674SOL    HW223922   5.952   2.282   3.514
 7675SOL     OW23923   4.984   6.888   2.533
 7675SOL    HW123924   4.989   6.980   2.494
 7675SOL    HW223925   5.026   6.887   2.623
 7676SOL     OW23926   1.803   2.063   0.354
 7676SOL    HW123927   1.901   2.062   0.336
 7676SOL    HW223928   1.787   2.064   0.453
 7677SOL     OW23929   0.358   4.093   2.314
 7677SOL    HW123930   0.375   4.062   2.407
 7677SOL    HW223931   0.264   4.124   2.305
 7678SOL     OW23932   2.329   1.704   5.097
 7678SOL    HW123933   2.348   1.609   5.070
 7678SOL    HW223934   2.354   1.717   5.192
 7679SOL     OW23935   2.234   6.196   6.048
 7679SOL    HW123936   2.223   6.201   6.148
 7679SOL    HW223937   2.330   6.182   6.026
 7680SOL     OW23938   1.686   1.858   0.202
 7680SOL    HW123939   1.614   1.836   0.268
 7680SOL    HW223940   1.744   1.931   0.238
 7681SOL     OW23941   2.810   6.746   0.059
 7681SOL    HW123942   2.840   6.669   0.003
 7681SOL    HW223943   2.865   6.749   0.143
 7682SOL     OW23944   3.465   0.540   1.918
 7682SOL    HW123945   3.484   0.453   1.872
 7682SOL    HW223946   3.432   0.606   1.851
 7683SOL     OW23947   6.824   2.128   3.671
 7683SOL    HW123948   6.832   2.062   3.596
 7683SOL    HW223949   6.896   2.197   3.663
 7684SOL     OW23950   4.106   2.148   1.389
 7684SOL    HW123951   4.015   2.156   1.349
 7684SOL    HW223952   4.151   2.067   1.352
 7685SOL     OW23953   3.201   3.562   6.866
 7685SOL    HW123954   3.268   3.506   6.914
 7685SOL    HW223955   3.110   3.521   6.875
 7686SOL     OW23956   5.352   6.983   2.891
 7686SOL    HW123957   5.435   6.998   2.945
 7686SOL    HW223958   5.327   0.046   2.844
 7687SOL     OW23959   6.130   4.977   5.178
 7687SOL    HW123960   6.081   4.951   5.261
 7687SOL    HW223961   6.075   5.042   5.125
 7688SOL     OW23962   0.518   6.842   5.648
 7688SOL    HW123963   0.574   6.839   5.566
 7688SOL    HW223964   0.458   6.922   5.646
 7689SOL     OW23965   5.199   6.168   2.917
 7689SOL    HW123966   5.256   6.217   2.983
 7689SOL    HW223967   5.254   6.096   2.873
 7690SOL     OW23968   6.385   4.889   0.787
 7690SOL    HW123969   6.425   4.808   0.830
 7690SOL    HW223970   6.288   4.896   0.813
 7691SOL     OW23971   5.305   3.071   4.176
 7691SOL    HW123972   5.312   3.164   4.139
 7691SOL    HW223973   5.278   3.075   4.272
 7692SOL     OW23974   1.242   6.589   2.002
 7692SOL    HW123975   1.186   6.627   2.076
 7692SOL    HW223976   1.325   6.644   1.993
 7693SOL     OW23977   3.584   0.236   1.372
 7693SOL    HW123978   3.498   0.218   1.420
 7693SOL    HW223979   3.651   0.273   1.437
 7694SOL     OW23980   6.799   4.252   3.863
 7694SOL    HW123981   6.882   4.288   3.906
 7694SOL    HW223982   6.728   4.322   3.863
 7695SOL     OW23983   4.098   6.347   0.244
 7695SOL    HW123984   4.033   6.289   0.293
 7695SOL    HW223985   4.049   6.417   0.193
 7696SOL     OW23986   6.915   1.656   4.317
 7696SOL    HW123987   6.917   1.651   4.217
 7696SOL    HW223988   6.982   1.592   4.355
 7697SOL     OW23989   3.014   0.248   1.807
 7697SOL    HW123990   2.976   0.163   1.842
 7697SOL    HW223991   2.970   0.270   1.719
 7698SOL     OW23992   0.030   1.921   4.021
 7698SOL    HW123993   6.980   1.980   3.983
 7698SOL    HW223994   0.086   1.974   4.085
 7699SOL     OW23995   3.628   5.770   0.413
 7699SOL    HW123996   3.619   5.786   0.315
 7699SOL    HW223997   3.603   5.675   0.433
 7700SOL     OW23998   4.877   6.460   4.766
 7700SOL    HW123999   4.897   6.558   4.768
 7700SOL    HW224000   4.961   6.409   4.784
 7701SOL     OW24001   6.863   1.409   6.671
 7701SOL    HW124002   6.774   1.452   6.661
 7701SOL    HW224003   6.903   1.435   6.759
 7702SOL     OW24004   2.756   6.705   6.013
 7702SOL    HW124005   2.717   6.701   6.105
 7702SOL    HW224006   2.718   6.630   5.958
 7703SOL     OW24007   6.473   0.719   5.199
 7703SOL    HW124008   6.418   0.738   5.118
 7703SOL    HW224009   6.466   0.795   5.263
 7704SOL     OW24010   5.467   4.762   5.533
 7704SOL    HW124011   5.451   4.707   5.451
 7704SOL    HW224012   5.565   4.760   5.555
 7705SOL     OW24013   3.858   4.917   6.069
 7705SOL    HW124014   3.824   4.911   5.975
 7705SOL    HW224015   3.958   4.917   6.069
 7706SOL     OW24016   4.703   2.410   4.963
 7706SOL    HW124017   4.659   2.393   5.051
 7706SOL    HW224018   4.639   2.387   4.889
 7707SOL     OW24019   1.118   5.715   6.530
 7707SOL    HW124020   1.067   5.768   6.462
 7707SOL    HW224021   1.075   5.724   6.619
 7708SOL     OW24022   5.744   6.838   5.282
 7708SOL    HW124023   5.718   6.934   5.268
 7708SOL    HW224024   5.771   6.797   5.195
 7709SOL     OW24025   5.948   4.444   1.435
 7709SOL    HW124026   5.894   4.361   1.444
 7709SOL    HW224027   5.886   4.523   1.429
 7710SOL     OW24028   4.292   0.602   0.905
 7710SOL    HW124029   4.354   0.614   0.829
 7710SOL    HW224030   4.279   0.689   0.953
 7711SOL     OW24031   5.987   6.104   5.265
 7711SOL    HW124032   6.054   6.178   5.270
 7711SOL    HW224033   6.002   6.051   5.181
 7712SOL     OW24034   5.572   5.013   2.207
 7712SOL    HW124035   5.591   5.063   2.122
 7712SOL    HW224036   5.656   5.010   2.263
 7713SOL     OW24037   1.296   4.891   0.391
 7713SOL    HW124038   1.381   4.844   0.367
 7713SOL    HW224039   1.310   4.990   0.387
 7714SOL     OW24040   6.546   4.942   5.362
 7714SOL    HW124041   6.640   4.908   5.360
 7714SOL    HW224042   6.536   5.009   5.435
 7715SOL     OW24043   4.826   1.940   0.029
 7715SOL    HW124044   4.831   1.932   6.950
 7715SOL    HW224045   4.918   1.947   0.066
 7716SOL     OW24046   6.090   4.455   3.777
 7716SOL    HW124047   6.123   4.549   3.785
 7716SOL    HW224048   6.088   4.428   3.681
 7717SOL     OW24049   1.716   1.053   4.721
 7717SOL    HW124050   1.790   1.023   4.782
 7717SOL    HW224051   1.694   0.980   4.657
 7718SOL     OW24052   1.920   1.905   3.282
 7718SOL    HW124053   1.827   1.930   3.255
 7718SOL    HW224054   1.931   1.806   3.278
 7719SOL     OW24055   0.098   3.284   4.456
 7719SOL    HW124056   0.175   3.243   4.406
 7719SOL    HW224057   0.026   3.216   4.468
 7720SOL     OW24058   0.338   0.043   0.593
 7720SOL    HW124059   0.259   0.012   0.540
 7720SOL    HW224060   0.363   0.135   0.564
 7721SOL     OW24061   1.078   5.152   2.430
 7721SOL    HW124062   1.094   5.250   2.432
 7721SOL    HW224063   0.981   5.133   2.416
 7722SOL     OW24064   0.511   5.731   3.159
 7722SOL    HW124065   0.504   5.750   3.061
 7722SOL    HW224066   0.420   5.721   3.197
 7723SOL     OW24067   6.453   3.862   7.011
 7723SOL    HW124068   6.479   3.829   6.920
 7723SOL    HW224069   6.426   3.784   0.047
 7724SOL     OW24070   2.419   4.305   1.731
 7724SOL    HW124071   2.350   4.373   1.708
 7724SOL    HW224072   2.510   4.346   1.725
 7725SOL     OW24073   5.143   3.076   3.728
 7725SOL    HW124074   5.178   2.986   3.703
 7725SOL    HW224075   5.091   3.114   3.651
 7726SOL     OW24076   1.162   6.372   4.879
 7726SOL    HW124077   1.144   6.362   4.781
 7726SOL    HW224078   1.086   6.421   4.922
 7727SOL     OW24079   6.942   0.632   2.864
 7727SOL    HW124080   6.944   0.725   2.901
 7727SOL    HW224081   6.965   0.567   2.936
 7728SOL     OW24082   0.968   5.509   3.521
 7728SOL    HW124083   1.050   5.488   3.574
 7728SOL    HW224084   0.991   5.572   3.447
 7729SOL     OW24085   5.975   2.900   0.508
 7729SOL    HW124086   6.051   2.886   0.445
 7729SOL    HW224087   5.921   2.979   0.480
 7730SOL     OW24088   5.894   5.986   1.823
 7730SOL    HW124089   5.810   5.992   1.769
 7730SOL    HW224090   5.888   6.048   1.901
 7731SOL     OW24091   6.720   1.087   0.892
 7731SOL    HW124092   6.660   1.149   0.942
 7731SOL    HW224093   6.798   1.138   0.855
 7732SOL     OW24094   4.594   6.245   0.740
 7732SOL    HW124095   4.596   6.341   0.712
 7732SOL    HW224096   4.599   6.239   0.839
 7733SOL     OW24097   3.912   0.118   2.418
 7733SOL    HW124098   3.866   0.064   2.488
 7733SOL    HW224099   4.010   0.122   2.437
 7734SOL     OW24100   2.574   4.989   3.264
 7734SOL    HW124101   2.542   4.932   3.188
 7734SOL    HW224102   2.503   5.055   3.287
 7735SOL     OW24103   4.571   6.211   6.188
 7735SOL    HW124104   4.547   6.177   6.279
 7735SOL    HW224105   4.499   6.274   6.156
 7736SOL     OW24106   4.249   3.761   6.941
 7736SOL    HW124107   4.343   3.733   6.920
 7736SOL    HW224108   4.235   3.760   0.019
 7737SOL     OW24109   4.070   0.715   2.302
 7737SOL    HW124110   4.018   0.797   2.278
 7737SOL    HW224111   4.074   0.654   2.223
 7738SOL     OW24112   1.885   5.588   6.741
 7738SOL    HW124113   1.882   5.679   6.781
 7738SOL    HW224114   1.793   5.556   6.723
 7739SOL     OW24115   0.694   1.897   2.249
 7739SOL    HW124116   0.746   1.814   2.268
 7739SOL    HW224117   0.758   1.971   2.225
 7740SOL     OW24118   1.714   0.724   3.178
 7740SOL    HW124119   1.737   0.651   3.242
 7740SOL    HW224120   1.628   0.767   3.206
 7741SOL     OW24121   1.152   5.716   4.733
 7741SOL    HW124122   1.135   5.696   4.637
 7741SOL    HW224123   1.064   5.721   4.782
 7742SOL     OW24124   5.885   2.083   3.166
 7742SOL    HW124125   5.979   2.072   3.198
 7742SOL    HW224126   5.836   1.997   3.175
 7743SOL     OW24127   4.891   1.509   6.441
 7743SOL    HW124128   4.897   1.534   6.537
 7743SOL    HW224129   4.803   1.540   6.405
 7744SOL     OW24130   1.108   6.293   3.462
 7744SOL    HW124131   1.046   6.344   3.402
 7744SOL    HW224132   1.132   6.206   3.419
 7745SOL     OW24133   2.738   1.070   5.477
 7745SOL    HW124134   2.809   1.030   5.419
 7745SOL    HW224135   2.778   1.139   5.536
 7746SOL     OW24136   2.104   6.420   0.262
 7746SOL    HW124137   2.110   6.436   0.361
 7746SOL    HW224138   2.009   6.432   0.232
 7747SOL     OW24139   4.361   5.564   1.670
 7747SOL    HW124140   4.412   5.556   1.585
 7747SOL    HW224141   4.413   5.619   1.735
 7748SOL     OW24142   3.667   3.132   5.409
 7748SOL    HW124143   3.742   3.151   5.473
 7748SOL    HW224144   3.633   3.218   5.371
 7749SOL     OW24145   2.648   2.719   5.609
 7749SOL    HW124146   2.648   2.647   5.540
 7749SOL    HW224147   2.612   2.803   5.568
 7750SOL     OW24148   6.725   6.402   1.618
 7750SOL    HW124149   6.655   6.333   1.638
 7750SOL    HW224150   6.783   6.415   1.698
 7751SOL     OW24151   1.656   1.828   2.309
 7751SOL    HW124152   1.754   1.806   2.308
 7751SOL    HW224153   1.634   1.888   2.233
 7752SOL     OW24154   4.822   6.880   5.527
 7752SOL    HW124155   4.909   6.891   5.479
 7752SOL    HW224156   4.786   6.788   5.511
 7753SOL     OW24157   2.406   1.504   4.784
 7753SOL    HW124158   2.372   1.415   4.817
 7753SOL    HW224159   2.449   1.552   4.860
 7754SOL     OW24160   3.681   6.390   1.123
 7754SOL    HW124161   3.698   6.292   1.119
 7754SOL    HW224162   3.672   6.427   1.030
 7755SOL     OW24163   1.246   2.317   6.011
 7755SOL    HW124164   1.289   2.260   6.081
 7755SOL    HW224165   1.200   2.394   6.054
 7756SOL     OW24166   2.985   6.638   1.808
 7756SOL    HW124167   2.926   6.683   1.741
 7756SOL    HW224168   3.015   6.705   1.876
 7757SOL     OW24169   6.696   4.937   1.396
 7757SOL    HW124170   6.670   4.841   1.389
 7757SOL    HW224171   6.614   4.994   1.405
 7758SOL     OW24172   1.449   6.593   5.894
 7758SOL    HW124173   1.476   6.666   5.832
 7758SOL    HW224174   1.469   6.621   5.988
 7759SOL     OW24175   2.451   1.217   5.642
 7759SOL    HW124176   2.452   1.295   5.704
 7759SOL    HW224177   2.424   1.135   5.693
 7760SOL     OW24178   5.182   2.295   2.557
 7760SOL    HW124179   5.229   2.382   2.548
 7760SOL    HW224180   5.129   2.294   2.642
 7761SOL     OW24181   6.893   6.066   4.751
 7761SOL    HW124182   6.873   6.008   4.672
 7761SOL    HW224183   6.985   6.047   4.785
 7762SOL     OW24184   1.948   0.036   3.861
 7762SOL    HW124185   1.989   0.127   3.867
 7762SOL    HW224186   1.863   0.042   3.810
 7763SOL     OW24187   2.467   0.026   6.459
 7763SOL    HW124188   2.516   7.014   6.540
 7763SOL    HW224189   2.425   0.114   6.480
 7764SOL     OW24190   3.089   3.954   5.911
 7764SOL    HW124191   3.066   3.887   5.982
 7764SOL    HW224192   3.136   4.032   5.952
 7765SOL     OW24193   6.415   3.032   5.244
 7765SOL    HW124194   6.512   3.033   5.220
 7765SOL    HW224195   6.391   2.941   5.278
 7766SOL     OW24196   6.870   3.892   0.889
 7766SOL    HW124197   6.777   3.877   0.856
 7766SOL    HW224198   6.918   3.805   0.896
 7767SOL     OW24199   4.640   6.574   2.336
 7767SOL    HW124200   4.541   6.568   2.318
 7767SOL    HW224201   4.685   6.492   2.301
 7768SOL     OW24202   4.904   4.508   3.923
 7768SOL    HW124203   4.823   4.458   3.895
 7768SOL    HW224204   4.903   4.600   3.883
 7769SOL     OW24205   4.076   1.454   4.828
 7769SOL    HW124206   4.020   1.509   4.889
 7769SOL    HW224207   4.124   1.514   4.764
 7770SOL     OW24208   0.007   3.327   4.710
 7770SOL    HW124209   0.058   3.334   4.625
 7770SOL    HW224210   0.067   3.346   4.787
 7771SOL     OW24211   2.576   1.309   5.874
 7771SOL    HW124212   2.550   1.224   5.919
 7771SOL    HW224213   2.648   1.291   5.807
 7772SOL     OW24214   5.325   6.876   0.770
 7772SOL    HW124215   5.379   6.792   0.780
 7772SOL    HW224216   5.356   6.926   0.689
 7773SOL     OW24217   2.197   5.849   5.674
 7773SOL    HW124218   2.139   5.799   5.739
 7773SOL    HW224219   2.284   5.872   5.719
 7774SOL     OW24220   4.657   2.630   4.525
 7774SOL    HW124221   4.599   2.660   4.450
 7774SOL    HW224222   4.721   2.702   4.549
 7775SOL     OW24223   3.973   6.570   0.101
 7775SOL    HW124224   3.970   6.659   0.145
 7775SOL    HW224225   3.995   6.582   0.004
 7776SOL     OW24226   1.004   6.468   6.844
 7776SOL    HW124227   1.074   6.418   6.792
 7776SOL    HW224228   1.025   6.566   6.842
 7777SOL     OW24229   6.469   5.645   5.111
 7777SOL    HW124230   6.532   5.686   5.177
 7777SOL    HW224231   6.438   5.556   5.144
 7778SOL     OW24232   5.754   4.099   2.223
 7778SOL    HW124233   5.788   4.006   2.232
 7778SOL    HW224234   5.822   4.156   2.177
 7779SOL     OW24235   2.747   1.088   2.791
 7779SOL    HW124236   2.732   1.109   2.887
 7779SOL    HW224237   2.780   1.169   2.743
 7780SOL     OW24238   0.878   5.530   5.693
 7780SOL    HW124239   0.798   5.485   5.734
 7780SOL    HW224240   0.961   5.480   5.716
 7781SOL     OW24241   0.802   3.634   0.630
 7781SOL    HW124242   0.807   3.537   0.653
 7781SOL    HW224243   0.834   3.689   0.707
 7782SOL     OW24244   5.485   5.553   3.961
 7782SOL    HW124245   5.466   5.509   3.873
 7782SOL    HW224246   5.517   5.647   3.944
 7783SOL     OW24247   0.936   0.098   6.252
 7783SOL    HW124248   1.010   0.135   6.308
 7783SOL    HW224249   0.964   0.097   6.156
 7784SOL     OW24250   3.016   2.681   1.739
 7784SOL    HW124251   2.967   2.609   1.788
 7784SOL    HW224252   3.079   2.639   1.673
 7785SOL     OW24253   1.657   6.534   4.088
 7785SOL    HW124254   1.715   6.457   4.061
 7785SOL    HW224255   1.600   6.561   4.011
 7786SOL     OW24256   4.260   0.804   6.381
 7786SOL    HW124257   4.267   0.713   6.422
 7786SOL    HW224258   4.217   0.797   6.291
 7787SOL     OW24259   1.698   3.153   0.366
 7787SOL    HW124260   1.667   3.246   0.385
 7787SOL    HW224261   1.669   3.092   0.439
 7788SOL     OW24262   0.848   5.712   1.960
 7788SOL    HW124263   0.823   5.786   1.897
 7788SOL    HW224264   0.913   5.651   1.916
 7789SOL     OW24265   3.216   6.665   6.703
 7789SOL    HW124266   3.134   6.629   6.659
 7789SOL    HW224267   3.190   6.718   6.784
 7790SOL     OW24268   5.960   4.856   2.525
 7790SOL    HW124269   6.059   4.847   2.513
 7790SOL    HW224270   5.936   4.836   2.620
 7791SOL     OW24271   2.381   5.637   2.354
 7791SOL    HW124272   2.407   5.570   2.425
 7791SOL    HW224273   2.434   5.721   2.367
 7792SOL     OW24274   0.990   7.005   3.121
 7792SOL    HW124275   0.986   0.082   3.142
 7792SOL    HW224276   0.916   6.958   3.169
 7793SOL     OW24277   4.782   0.675   0.163
 7793SOL    HW124278   4.853   0.721   0.110
 7793SOL    HW224279   4.693   0.713   0.139
 7794SOL     OW24280   0.506   5.123   1.906
 7794SOL    HW124281   0.488   5.200   1.968
 7794SOL    HW224282   0.444   5.127   1.828
 7795SOL     OW24283   3.444   5.634   5.682
 7795SOL    HW124284   3.466   5.539   5.661
 7795SOL    HW224285   3.413   5.680   5.598
 7796SOL     OW24286   2.971   2.545   5.575
 7796SOL    HW124287   3.019   2.511   5.494
 7796SOL    HW224288   2.872   2.537   5.560
 7797SOL     OW24289   0.990   5.669   1.556
 7797SOL    HW124290   0.960   5.757   1.593
 7797SOL    HW224291   0.937   5.648   1.474
 7798SOL     OW24292   1.760   1.252   2.520
 7798SOL    HW124293   1.787   1.157   2.507
 7798SOL    HW224294   1.721   1.263   2.612
 7799SOL     OW24295   2.075   5.660   3.396
 7799SOL    HW124296   2.159   5.683   3.347
 7799SOL    HW224297   2.084   5.569   3.438
 7800SOL     OW24298   0.263   6.027   3.195
 7800SOL    HW124299   0.254   6.047   3.292
 7800SOL    HW224300   0.290   6.110   3.146
 7801SOL     OW24301   1.705   1.173   3.407
 7801SOL    HW124302   1.696   1.247   3.339
 7801SOL    HW224303   1.765   1.102   3.371
 7802SOL     OW24304   6.925   3.324   6.956
 7802SOL    HW124305   6.828   3.309   6.975
 7802SOL    HW224306   6.934   3.378   6.872
 7803SOL     OW24307   4.560   1.712   6.815
 7803SOL    HW124308   4.509   1.687   6.897
 7803SOL    HW224309   4.644   1.759   6.840
 7804SOL     OW24310   3.819   2.144   4.893
 7804SOL    HW124311   3.725   2.165   4.921
 7804SOL    HW224312   3.864   2.228   4.861
 7805SOL     OW24313   4.922   3.776   2.814
 7805SOL    HW124314   4.936   3.831   2.731
 7805SOL    HW224315   4.913   3.680   2.788
 7806SOL     OW24316   6.567   1.542   6.355
 7806SOL    HW124317   6.584   1.640   6.348
 7806SOL    HW224318   6.613   1.505   6.435
 7807SOL     OW24319   0.847   4.101   5.308
 7807SOL    HW124320   0.804   4.015   5.336
 7807SOL    HW224321   0.794   4.141   5.233
 7808SOL     OW24322   5.167   3.661   3.355
 7808SOL    HW124323   5.222   3.695   3.279
 7808SOL    HW224324   5.225   3.608   3.417
 7809SOL     OW24325   5.408   4.801   4.386
 7809SOL    HW124326   5.496   4.845   4.407
 7809SOL    HW224327   5.333   4.864   4.406
 7810SOL     OW24328   3.397   6.581   5.041
 7810SOL    HW124329   3.354   6.563   5.130
 7810SOL    HW224330   3.466   6.511   5.024
 7811SOL     OW24331   1.561   5.436   2.681
 7811SOL    HW124332   1.514   5.417   2.595
 7811SOL    HW224333   1.508   5.398   2.757
 7812SOL     OW24334   2.351   3.264   5.342
 7812SOL    HW124335   2.277   3.294   5.282
 7812SOL    HW224336   2.396   3.184   5.302
 7813SOL     OW24337   4.419   2.760   1.131
 7813SOL    HW124338   4.497   2.775   1.193
 7813SOL    HW224339   4.452   2.721   1.045
 7814SOL     OW24340   6.975   3.496   2.777
 7814SOL    HW124341   6.992   3.584   2.732
 7814SOL    HW224342   6.994   3.504   2.875
 7815SOL     OW24343   5.569   2.122   5.229
 7815SOL    HW124344   5.538   2.134   5.135
 7815SOL    HW224345   5.507   2.062   5.278
 7816SOL     OW24346   0.316   2.723   5.898
 7816SOL    HW124347   0.403   2.709   5.944
 7816SOL    HW224348   0.319   2.809   5.845
 7817SOL     OW24349   4.688   3.391   5.595
 7817SOL    HW124350   4.697   3.474   5.650
 7817SOL    HW224351   4.593   3.377   5.569
 7818SOL     OW24352   4.900   0.978   2.859
 7818SOL    HW124353   4.982   0.975   2.802
 7818SOL    HW224354   4.823   1.010   2.805
 7819SOL     OW24355   0.247   3.604   3.510
 7819SOL    HW124356   0.222   3.541   3.584
 7819SOL    HW224357   0.292   3.552   3.437
 7820SOL     OW24358   1.846   0.815   5.862
 7820SOL    HW124359   1.798   0.903   5.863
 7820SOL    HW224360   1.900   0.807   5.778
 7821SOL     OW24361   5.498   5.696   0.358
 7821SOL    HW124362   5.478   5.714   0.454
 7821SOL    HW224363   5.428   5.635   0.321
 7822SOL     OW24364   1.197   1.858   6.190
 7822SOL    HW124365   1.180   1.778   6.248
 7822SOL    HW224366   1.293   1.857   6.160
 7823SOL     OW24367   1.696   4.324   6.497
 7823SOL    HW124368   1.762   4.250   6.509
 7823SOL    HW224369   1.709   4.366   6.408
 7824SOL     OW24370   6.093   0.411   4.836
 7824SOL    HW124371   6.082   0.451   4.745
 7824SOL    HW224372   6.108   0.485   4.902
 7825SOL     OW24373   2.169   2.977   1.456
 7825SOL    HW124374   2.173   3.076   1.470
 7825SOL    HW224375   2.205   2.954   1.366
 7826SOL     OW24376   4.934   2.087   6.501
 7826SOL    HW124377   4.845   2.044   6.516
 7826SOL    HW224378   5.003   2.016   6.488
 7827SOL     OW24379   2.989   5.144   1.265
 7827SOL    HW124380   3.076   5.128   1.312
 7827SOL    HW224381   2.974   5.242   1.257
 7828SOL     OW24382   0.326   5.356   0.602
 7828SOL    HW124383   0.275   5.270   0.607
 7828SOL    HW224384   0.288   5.413   0.530
 7829SOL     OW24385   1.899   3.280   1.242
 7829SOL    HW124386   1.800   3.285   1.251
 7829SOL    HW224387   1.927   3.185   1.228
 7830SOL     OW24388   5.801   3.780   5.970
 7830SOL    HW124389   5.831   3.845   6.040
 7830SOL    HW224390   5.784   3.691   6.012
 7831SOL     OW24391   1.251   5.224   0.306
 7831SOL    HW124392   1.327   5.241   0.244
 7831SOL    HW224393   1.167   5.266   0.269
 7832SOL     OW24394   3.543   0.772   4.463
 7832SOL    HW124395   3.623   0.823   4.495
 7832SOL    HW224396   3.566   0.722   4.379
 7833SOL     OW24397   0.370   0.911   0.711
 7833SOL    HW124398   0.395   0.917   0.614
 7833SOL    HW224399   0.404   0.824   0.748
 7834SOL     OW24400   0.582   1.467   2.508
 7834SOL    HW124401   0.550   1.556   2.539
 7834SOL    HW224402   0.603   1.470   2.410
 7835SOL     OW24403   2.188   2.488   5.339
 7835SOL    HW124404   2.126   2.557   5.302
 7835SOL    HW224405   2.281   2.504   5.306
 7836SOL     OW24406   3.275   1.232   6.086
 7836SOL    HW124407   3.307   1.219   5.992
 7836SOL    HW224408   3.192   1.288   6.084
 7837SOL     OW24409   6.746   6.331   1.345
 7837SOL    HW124410   6.737   6.346   1.443
 7837SOL    HW224411   6.842   6.321   1.321
 7838SOL     OW24412   4.211   6.403   6.509
 7838SOL    HW124413   4.125   6.447   6.535
 7838SOL    HW224414   4.211   6.386   6.410
 7839SOL     OW24415   6.477   4.263   5.036
 7839SOL    HW124416   6.453   4.271   5.133
 7839SOL    HW224417   6.468   4.168   5.007
 7840SOL     OW24418   4.978   3.786   3.801
 7840SOL    HW124419   4.933   3.858   3.854
 7840SOL    HW224420   4.945   3.790   3.706
 7841SOL     OW24421   5.797   1.682   6.350
 7841SOL    HW124422   5.826   1.682   6.446
 7841SOL    HW224423   5.878   1.694   6.291
 7842SOL     OW24424   1.316   1.004   3.629
 7842SOL    HW124425   1.415   0.997   3.640
 7842SOL    HW224426   1.290   0.978   3.536
 7843SOL     OW24427   5.708   4.648   1.689
 7843SOL    HW124428   5.732   4.552   1.699
 7843SOL    HW224429   5.612   4.661   1.715
 7844SOL     OW24430   4.535   0.681   3.838
 7844SOL    HW124431   4.564   0.751   3.903
 7844SOL    HW224432   4.587   0.597   3.854
 7845SOL     OW24433   0.350   1.079   4.230
 7845SOL    HW124434   0.411   1.034   4.165
 7845SOL    HW224435   0.310   1.161   4.188
 7846SOL     OW24436   2.133   0.301   1.549
 7846SOL    HW124437   2.121   0.316   1.451
 7846SOL    HW224438   2.130   0.203   1.569
 7847SOL     OW24439   0.040   2.148   1.264
 7847SOL    HW124440   0.032   2.235   1.313
 7847SOL    HW224441   0.136   2.125   1.253
 7848SOL     OW24442   3.128   4.528   0.955
 7848SOL    HW124443   3.190   4.460   0.994
 7848SOL    HW224444   3.162   4.620   0.976
 7849SOL     OW24445   5.332   4.018   4.467
 7849SOL    HW124446   5.315   3.951   4.395
 7849SOL    HW224447   5.398   4.086   4.434
 7850SOL     OW24448   0.537   0.712   3.629
 7850SOL    HW124449   0.459   0.657   3.599
 7850SOL    HW224450   0.513   0.809   3.626
 7851SOL     OW24451   6.984   6.803   0.782
 7851SOL    HW124452   0.056   6.832   0.763
 7851SOL    HW224453   6.973   6.707   0.757
 7852SOL     OW24454   3.091   6.747   6.341
 7852SOL    HW124455   3.156   6.809   6.385
 7852SOL    HW224456   3.140   6.667   6.306
 7853SOL     OW24457   4.041   1.641   1.392
 7853SOL    HW124458   4.073   1.638   1.298
 7853SOL    HW224459   4.050   1.735   1.428
 7854SOL     OW24460   3.888   4.780   0.773
 7854SOL    HW124461   3.802   4.809   0.731
 7854SOL    HW224462   3.873   4.694   0.823
 7855SOL     OW24463   4.231   5.513   5.928
 7855SOL    HW124464   4.268   5.421   5.921
 7855SOL    HW224465   4.306   5.579   5.933
 7856SOL     OW24466   6.293   5.161   3.816
 7856SOL    HW124467   6.289   5.084   3.879
 7856SOL    HW224468   6.232   5.143   3.738
 7857SOL     OW24469   6.808   2.567   5.502
 7857SOL    HW124470   6.796   2.468   5.514
 7857SOL    HW224471   6.784   2.614   5.587
 7858SOL     OW24472   5.086   5.257   3.583
 7858SOL    HW124473   5.003   5.234   3.531
 7858SOL    HW224474   5.136   5.173   3.603
 7859SOL     OW24475   6.563   4.087   6.052
 7859SOL    HW124476   6.638   4.056   5.994
 7859SOL    HW224477   6.479   4.091   5.998
 7860SOL     OW24478   4.113   6.005   2.649
 7860SOL    HW124479   4.044   6.077   2.646
 7860SOL    HW224480   4.109   5.959   2.738
 7861SOL     OW24481   4.235   5.565   2.316
 7861SOL    HW124482   4.220   5.543   2.413
 7861SOL    HW224483   4.258   5.662   2.308
 7862SOL     OW24484   3.015   4.632   1.664
 7862SOL    HW124485   2.969   4.562   1.719
 7862SOL    HW224486   2.955   4.660   1.589
 7863SOL     OW24487   0.050   5.906   3.764
 7863SOL    HW124488   0.119   5.961   3.716
 7863SOL    HW224489   0.083   5.813   3.775
 7864SOL     OW24490   6.815   6.251   5.948
 7864SOL    HW124491   6.875   6.283   5.874
 7864SOL    HW224492   6.825   6.153   5.959
 7865SOL     OW24493   4.566   6.773   4.268
 7865SOL    HW124494   4.632   6.772   4.193
 7865SOL    HW224495   4.503   6.696   4.257
 7866SOL     OW24496   2.354   2.291   1.041
 7866SOL    HW124497   2.361   2.219   1.109
 7866SOL    HW224498   2.446   2.326   1.020
 7867SOL     OW24499   5.684   5.111   2.561
 7867SOL    HW124500   5.672   5.018   2.593
 7867SOL    HW224501   5.601   5.142   2.514
 7868SOL     OW24502   5.475   6.806   2.694
 7868SOL    HW124503   5.438   6.713   2.704
 7868SOL    HW224504   5.415   6.870   2.742
 7869SOL     OW24505   6.473   3.769   0.741
 7869SOL    HW124506   6.515   3.737   0.826
 7869SOL    HW224507   6.530   3.741   0.663
 7870SOL     OW24508   5.328   6.440   3.949
 7870SOL    HW124509   5.302   6.511   4.014
 7870SOL    HW224510   5.413   6.396   3.980
 7871SOL     OW24511   6.013   3.933   2.932
 7871SOL    HW124512   6.060   3.906   3.016
 7871SOL    HW224513   5.945   3.864   2.908
 7872SOL     OW24514   1.018   4.556   1.903
 7872SOL    HW124515   0.941   4.576   1.963
 7872SOL    HW224516   1.097   4.529   1.958
 7873SOL     OW24517   5.377   0.123   5.654
 7873SOL    HW124518   5.376   0.032   5.614
 7873SOL    HW224519   5.419   0.120   5.745
 7874SOL     OW24520   6.087   1.351   0.039
 7874SOL    HW124521   6.006   1.296   0.057
 7874SOL    HW224522   6.083   1.435   0.094
 7875SOL     OW24523   3.873   3.303   6.551
 7875SOL    HW124524   3.808   3.330   6.480
 7875SOL    HW224525   3.855   3.355   6.634
 7876SOL     OW24526   0.184   6.755   5.024
 7876SOL    HW124527   0.237   6.690   4.970
 7876SOL    HW224528   0.203   6.848   4.992
 7877SOL     OW24529   0.743   3.181   2.483
 7877SOL    HW124530   0.828   3.153   2.438
 7877SOL    HW224531   0.667   3.173   2.418
 7878SOL     OW24532   4.611   4.904   3.906
 7878SOL    HW124533   4.643   4.853   3.986
 7878SOL    HW224534   4.618   5.002   3.923
 7879SOL     OW24535   4.473   6.339   3.217
 7879SOL    HW124536   4.554   6.293   3.252
 7879SOL    HW224537   4.447   6.299   3.129
 7880SOL     OW24538   0.242   5.675   1.470
 7880SOL    HW124539   0.193   5.650   1.386
 7880SOL    HW224540   0.340   5.667   1.454
 7881SOL     OW24541   6.464   3.394   4.948
 7881SOL    HW124542   6.438   3.402   5.044
 7881SOL    HW224543   6.449   3.481   4.901
 7882SOL     OW24544   2.059   2.672   3.673
 7882SOL    HW124545   2.058   2.738   3.749
 7882SOL    HW224546   2.032   2.582   3.707
 7883SOL     OW24547   2.036   0.032   1.061
 7883SOL    HW124548   1.959   6.998   1.028
 7883SOL    HW224549   2.110   6.993   1.090
 7884SOL     OW24550   1.513   4.207   3.627
 7884SOL    HW124551   1.603   4.184   3.589
 7884SOL    HW224552   1.465   4.268   3.565
 7885SOL     OW24553   5.562   6.036   2.655
 7885SOL    HW124554   5.623   5.964   2.620
 7885SOL    HW224555   5.616   6.118   2.674
 7886SOL     OW24556   4.834   3.542   1.096
 7886SOL    HW124557   4.829   3.640   1.115
 7886SOL    HW224558   4.899   3.527   1.022
 7887SOL     OW24559   3.473   2.536   5.414
 7887SOL    HW124560   3.477   2.570   5.508
 7887SOL    HW224561   3.563   2.544   5.372
 7888SOL     OW24562   0.201   7.020   4.748
 7888SOL    HW124563   0.243   0.076   4.702
 7888SOL    HW224564   0.223   0.002   4.846
 7889SOL     OW24565   0.485   5.354   6.640
 7889SOL    HW124566   0.554   5.312   6.700
 7889SOL    HW224567   0.394   5.338   6.677
 7890SOL     OW24568   0.773   3.416   4.037
 7890SOL    HW124569   0.809   3.418   3.943
 7890SOL    HW224570   0.846   3.389   4.100
 7891SOL     OW24571   1.026   3.617   4.562
 7891SOL    HW124572   0.975   3.648   4.642
 7891SOL    HW224573   1.124   3.619   4.582
 7892SOL     OW24574   1.319   2.181   4.474
 7892SOL    HW124575   1.245   2.121   4.443
 7892SOL    HW224576   1.335   2.167   4.572
 7893SOL     OW24577   5.574   6.022   2.294
 7893SOL    HW124578   5.666   6.058   2.306
 7893SOL    HW224579   5.507   6.096   2.306
 7894SOL     OW24580   3.344   1.030   0.602
 7894SOL    HW124581   3.259   1.069   0.567
 7894SOL    HW224582   3.345   0.931   0.587
 7895SOL     OW24583   3.845   6.391   4.744
 7895SOL    HW124584   3.901   6.404   4.826
 7895SOL    HW224585   3.767   6.454   4.747
 7896SOL     OW24586   5.556   3.204   1.566
 7896SOL    HW124587   5.501   3.287   1.556
 7896SOL    HW224588   5.617   3.214   1.645
 7897SOL     OW24589   3.233   3.118   6.828
 7897SOL    HW124590   3.262   3.077   6.742
 7897SOL    HW224591   3.185   3.049   6.884
 7898SOL     OW24592   4.260   0.371   3.851
 7898SOL    HW124593   4.176   0.327   3.818
 7898SOL    HW224594   4.323   0.301   3.885
 7899SOL     OW24595   5.712   6.615   2.139
 7899SOL    HW124596   5.706   6.525   2.095
 7899SOL    HW224597   5.621   6.656   2.143
 7900SOL     OW24598   0.493   4.001   0.479
 7900SOL    HW124599   0.447   4.037   0.561
 7900SOL    HW224600   0.583   3.965   0.504
 7901SOL     OW24601   5.060   0.793   5.932
 7901SOL    HW124602   5.084   0.886   5.906
 7901SOL    HW224603   5.013   0.794   6.021
 7902SOL     OW24604   6.849   5.852   3.568
 7902SOL    HW124605   6.898   5.818   3.648
 7902SOL    HW224606   6.761   5.804   3.560
 7903SOL     OW24607   4.594   1.986   3.193
 7903SOL    HW124608   4.568   1.901   3.147
 7903SOL    HW224609   4.516   2.049   3.194
 7904SOL     OW24610   5.683   0.564   3.368
 7904SOL    HW124611   5.594   0.570   3.323
 7904SOL    HW224612   5.747   0.516   3.308
 7905SOL     OW24613   5.985   1.905   0.811
 7905SOL    HW124614   5.937   1.980   0.765
 7905SOL    HW224615   6.021   1.842   0.743
 7906SOL     OW24616   1.149   5.661   0.659
 7906SOL    HW124617   1.208   5.739   0.681
 7906SOL    HW224618   1.204   5.591   0.613
 7907SOL     OW24619   6.207   1.130   3.013
 7907SOL    HW124620   6.217   1.168   2.921
 7907SOL    HW224621   6.280   1.165   3.072
 7908SOL     OW24622   1.131   1.636   6.342
 7908SOL    HW124623   1.045   1.596   6.309
 7908SOL    HW224624   1.183   1.567   6.393
 7909SOL     OW24625   4.762   4.122   3.647
 7909SOL    HW124626   4.713   4.036   3.663
 7909SOL    HW224627   4.728   4.164   3.563
 7910SOL     OW24628   1.848   3.571   1.095
 7910SOL    HW124629   1.818   3.493   1.041
 7910SOL    HW224630   1.815   3.561   1.189
 7911SOL     OW24631   0.854   4.049   1.405
 7911SOL    HW124632   0.892   4.090   1.322
 7911SOL    HW224633   0.878   4.105   1.484
 7912SOL     OW24634   5.205   4.241   0.513
 7912SOL    HW124635   5.144   4.214   0.587
 7912SOL    HW224636   5.211   4.341   0.511
 7913SOL     OW24637   1.710   4.572   0.973
 7913SOL    HW124638   1.710   4.667   1.005
 7913SOL    HW224639   1.684   4.511   1.048
 7914SOL     OW24640   0.327   4.435   0.870
 7914SOL    HW124641   0.398   4.373   0.836
 7914SOL    HW224642   0.352   4.529   0.848
 7915SOL     OW24643   4.580   1.990   2.778
 7915SOL    HW124644   4.481   2.000   2.788
 7915SOL    HW224645   4.602   1.978   2.681
 7916SOL     OW24646   0.791   6.782   5.281
 7916SOL    HW124647   0.811   6.802   5.377
 7916SOL    HW224648   0.691   6.780   5.268
 7917SOL     OW24649   4.206   2.788   5.474
 7917SOL    HW124650   4.238   2.875   5.436
 7917SOL    HW224651   4.202   2.794   5.574
 7918SOL     OW24652   0.304   0.761   5.171
 7918SOL    HW124653   0.281   0.709   5.253
 7918SOL    HW224654   0.362   0.705   5.111
 7919SOL     OW24655   1.183   4.862   1.983
 7919SOL    HW124656   1.280   4.849   1.999
 7919SOL    HW224657   1.131   4.817   2.055
 7920SOL     OW24658   5.357   0.663   1.892
 7920SOL    HW124659   5.401   0.702   1.973
 7920SOL    HW224660   5.345   0.734   1.823
 7921SOL     OW24661   5.289   0.263   1.870
 7921SOL    HW124662   5.227   0.211   1.811
 7921SOL    HW224663   5.294   0.220   1.960
 7922SOL     OW24664   0.590   6.327   0.246
 7922SOL    HW124665   0.655   6.366   0.180
 7922SOL    HW224666   0.511   6.289   0.197
 7923SOL     OW24667   3.340   1.512   6.232
 7923SOL    HW124668   3.315   1.517   6.135
 7923SOL    HW224669   3.258   1.521   6.288
 7924SOL     OW24670   4.665   0.220   1.552
 7924SOL    HW124671   4.651   0.181   1.643
 7924SOL    HW224672   4.725   0.300   1.558
 7925SOL     OW24673   1.252   0.005   0.890
 7925SOL    HW124674   1.244   0.036   0.796
 7925SOL    HW224675   1.194   0.061   0.949
 7926SOL     OW24676   5.045   1.704   6.731
 7926SOL    HW124677   4.972   1.636   6.722
 7926SOL    HW224678   5.068   1.715   6.828
 7927SOL     OW24679   4.934   6.996   1.828
 7927SOL    HW124680   5.009   6.930   1.840
 7927SOL    HW224681   4.903   0.006   1.918
 7928SOL     OW24682   0.167   1.643   3.789
 7928SOL    HW124683   0.168   1.641   3.889
 7928SOL    HW224684   0.099   1.710   3.758
 7929SOL     OW24685   3.388   4.018   5.937
 7929SOL    HW124686   3.360   4.052   5.847
 7929SOL    HW224687   3.430   3.928   5.927
 7930SOL     OW24688   3.691   5.453   6.516
 7930SOL    HW124689   3.666   5.399   6.597
 7930SOL    HW224690   3.743   5.396   6.453
 7931SOL     OW24691   4.157   3.017   0.467
 7931SOL    HW124692   4.178   3.113   0.449
 7931SOL    HW224693   4.242   2.965   0.475
 7932SOL     OW24694   1.010   5.065   0.695
 7932SOL    HW124695   1.042   4.974   0.723
 7932SOL    HW224696   1.086   5.115   0.652
 7933SOL     OW24697   6.651   6.999   6.114
 7933SOL    HW124698   6.722   0.034   6.072
 7933SOL    HW224699   6.657   6.906   6.077
 7934SOL     OW24700   1.443   4.905   0.080
 7934SOL    HW124701   1.476   4.998   0.093
 7934SOL    HW224702   1.344   4.906   0.065
 7935SOL     OW24703   5.489   5.607   2.180
 7935SOL    HW124704   5.432   5.526   2.170
 7935SOL    HW224705   5.477   5.646   2.271
 7936SOL     OW24706   3.128   5.239   3.365
 7936SOL    HW124707   3.227   5.232   3.376
 7936SOL    HW224708   3.104   5.227   3.269
 7937SOL     OW24709   1.708   5.729   4.217
 7937SOL    HW124710   1.758   5.742   4.303
 7937SOL    HW224711   1.772   5.733   4.140
 7938SOL     OW24712   5.386   5.775   5.150
 7938SOL    HW124713   5.435   5.863   5.152
 7938SOL    HW224714   5.370   5.748   5.056
 7939SOL     OW24715   1.180   1.679   5.851
 7939SOL    HW124716   1.252   1.611   5.867
 7939SOL    HW224717   1.091   1.638   5.869
 7940SOL     OW24718   3.370   1.891   2.658
 7940SOL    HW124719   3.461   1.868   2.693
 7940SOL    HW224720   3.378   1.964   2.589
 7941SOL     OW24721   5.179   6.581   3.236
 7941SOL    HW124722   5.145   6.638   3.161
 7941SOL    HW224723   5.216   6.639   3.308
 7942SOL     OW24724   1.207   3.034   3.188
 7942SOL    HW124725   1.277   3.006   3.122
 7942SOL    HW224726   1.126   3.067   3.138
 7943SOL     OW24727   0.787   4.308   5.894
 7943SOL    HW124728   0.774   4.210   5.884
 7943SOL    HW224729   0.714   4.356   5.845
 7944SOL     OW24730   0.701   3.010   1.802
 7944SOL    HW124731   0.739   2.949   1.732
 7944SOL    HW224732   0.676   3.097   1.760
 7945SOL     OW24733   6.304   5.541   2.725
 7945SOL    HW124734   6.363   5.469   2.761
 7945SOL    HW224735   6.220   5.501   2.688
 7946SOL     OW24736   3.496   6.740   6.154
 7946SOL    HW124737   3.482   6.781   6.244
 7946SOL    HW224738   3.543   6.806   6.095
 7947SOL     OW24739   2.270   2.008   5.652
 7947SOL    HW124740   2.192   2.005   5.714
 7947SOL    HW224741   2.253   2.074   5.579
 7948SOL     OW24742   0.985   5.408   0.930
 7948SOL    HW124743   1.068   5.383   0.880
 7948SOL    HW224744   0.912   5.343   0.907
 7949SOL     OW24745   4.381   4.091   6.102
 7949SOL    HW124746   4.304   4.034   6.073
 7949SOL    HW224747   4.382   4.175   6.048
 7950SOL     OW24748   4.706   5.830   4.773
 7950SOL    HW124749   4.655   5.757   4.817
 7950SOL    HW224750   4.669   5.918   4.800
 7951SOL     OW24751   2.181   5.118   2.388
 7951SOL    HW124752   2.269   5.164   2.373
 7951SOL    HW224753   2.152   5.072   2.304
 7952SOL     OW24754   0.007   3.445   0.145
 7952SOL    HW124755   6.987   3.387   0.076
 7952SOL    HW224756   0.098   3.473   0.116
 7953SOL     OW24757   4.648   2.253   1.920
 7953SOL    HW124758   4.604   2.313   1.987
 7953SOL    HW224759   4.696   2.308   1.852
 7954SOL     OW24760   3.663   4.294   6.506
 7954SOL    HW124761   3.677   4.345   6.591
 7954SOL    HW224762   3.572   4.312   6.470
 7955SOL     OW24763   2.107   1.372   6.671
 7955SOL    HW124764   2.197   1.340   6.642
 7955SOL    HW224765   2.045   1.374   6.593
 7956SOL     OW24766   5.339   1.495   1.713
 7956SOL    HW124767   5.382   1.480   1.624
 7956SOL    HW224768   5.253   1.444   1.717
 7957SOL     OW24769   1.968   1.297   6.874
 7957SOL    HW124770   2.011   1.336   6.793
 7957SOL    HW224771   2.023   1.317   6.955
 7958SOL     OW24772   5.546   4.080   5.701
 7958SOL    HW124773   5.555   4.158   5.763
 7958SOL    HW224774   5.486   4.011   5.743
 7959SOL     OW24775   5.325   0.210   6.912
 7959SOL    HW124776   5.283   0.300   6.904
 7959SOL    HW224777   5.347   0.192   7.008
 7960SOL     OW24778   1.338   1.434   5.979
 7960SOL    HW124779   1.370   1.358   6.036
 7960SOL    HW224780   1.242   1.420   5.955
 7961SOL     OW24781   6.469   0.028   0.788
 7961SOL    HW124782   6.557   0.063   0.821
 7961SOL    HW224783   6.468   6.949   0.792
 7962SOL     OW24784   0.417   1.787   5.773
 7962SOL    HW124785   0.478   1.858   5.737
 7962SOL    HW224786   0.383   1.815   5.863
 7963SOL     OW24787   6.557   5.649   4.295
 7963SOL    HW124788   6.459   5.628   4.297
 7963SOL    HW224789   6.607   5.578   4.345
 7964SOL     OW24790   5.838   2.880   2.525
 7964SOL    HW124791   5.869   2.785   2.524
 7964SOL    HW224792   5.885   2.929   2.598
 7965SOL     OW24793   3.985   2.032   6.251
 7965SOL    HW124794   3.937   2.116   6.276
 7965SOL    HW224795   4.039   2.048   6.169
 7966SOL     OW24796   3.381   2.601   6.039
 7966SOL    HW124797   3.303   2.547   6.069
 7966SOL    HW224798   3.396   2.588   5.941
 7967SOL     OW24799   1.927   5.686   1.984
 7967SOL    HW124800   1.899   5.749   1.912
 7967SOL    HW224801   1.975   5.736   2.056
 7968SOL     OW24802   6.500   2.118   4.821
 7968SOL    HW124803   6.580   2.115   4.761
 7968SOL    HW224804   6.489   2.210   4.857
 7969SOL     OW24805   5.681   6.353   1.131
 7969SOL    HW124806   5.735   6.400   1.061
 7969SOL    HW224807   5.742   6.322   1.205
 7970SOL     OW24808   6.236   3.709   2.365
 7970SOL    HW124809   6.204   3.629   2.314
 7970SOL    HW224810   6.307   3.681   2.430
 7971SOL     OW24811   3.091   1.518   1.309
 7971SOL    HW124812   3.190   1.534   1.305
 7971SOL    HW224813   3.073   1.421   1.326
 7972SOL     OW24814   3.405   3.423   1.478
 7972SOL    HW124815   3.372   3.515   1.463
 7972SOL    HW224816   3.456   3.419   1.565
 7973SOL     OW24817   5.222   4.247   4.672
 7973SOL    HW124818   5.299   4.187   4.648
 7973SOL    HW224819   5.253   4.342   4.673
 7974SOL     OW24820   6.129   1.135   6.049
 7974SOL    HW124821   6.126   1.229   6.083
 7974SOL    HW224822   6.070   1.077   6.106
 7975SOL     OW24823   5.440   0.091   1.049
 7975SOL    HW124824   5.424   7.016   1.027
 7975SOL    HW224825   5.369   0.123   1.112
 7976SOL     OW24826   1.415   0.253   6.426
 7976SOL    HW124827   1.369   0.180   6.376
 7976SOL    HW224828   1.472   0.306   6.364
 7977SOL     OW24829   4.369   5.882   2.347
 7977SOL    HW124830   4.440   5.833   2.398
 7977SOL    HW224831   4.370   5.851   2.251
 7978SOL     OW24832   0.064   2.551   6.192
 7978SOL    HW124833   0.081   2.528   6.096
 7978SOL    HW224834   0.129   2.622   6.221
 7979SOL     OW24835   1.971   4.776   5.570
 7979SOL    HW124836   2.020   4.830   5.639
 7979SOL    HW224837   2.023   4.775   5.485
 7980SOL     OW24838   2.866   5.081   6.616
 7980SOL    HW124839   2.920   5.163   6.634
 7980SOL    HW224840   2.817   5.091   6.530
 7981SOL     OW24841   0.753   5.115   1.778
 7981SOL    HW124842   0.819   5.074   1.840
 7981SOL    HW224843   0.660   5.091   1.806
 7982SOL     OW24844   1.469   1.918   6.155
 7982SOL    HW124845   1.459   1.917   6.055
 7982SOL    HW224846   1.542   1.855   6.181
 7983SOL     OW24847   6.478   2.259   1.021
 7983SOL    HW124848   6.562   2.298   1.061
 7983SOL    HW224849   6.400   2.314   1.048
 7984SOL     OW24850   0.327   1.258   0.466
 7984SOL    HW124851   0.265   1.320   0.515
 7984SOL    HW224852   0.421   1.292   0.475
 7985SOL     OW24853   2.597   1.631   4.597
 7985SOL    HW124854   2.524   1.620   4.665
 7985SOL    HW224855   2.648   1.714   4.616
 7986SOL     OW24856   2.831   0.868   6.211
 7986SOL    HW124857   2.862   0.959   6.183
 7986SOL    HW224858   2.759   0.837   6.150
 7987SOL     OW24859   2.016   3.137   0.530
 7987SOL    HW124860   2.112   3.141   0.557
 7987SOL    HW224861   2.009   3.092   0.441
 7988SOL     OW24862   1.356   0.883   2.528
 7988SOL    HW124863   1.404   0.894   2.615
 7988SOL    HW224864   1.367   0.966   2.473
 7989SOL     OW24865   2.471   3.352   7.019
 7989SOL    HW124866   2.417   3.272   6.992
 7989SOL    HW224867   2.417   3.408   0.060
 7990SOL     OW24868   2.522   5.314   4.712
 7990SOL    HW124869   2.553   5.396   4.761
 7990SOL    HW224870   2.520   5.332   4.614
 7991SOL     OW24871   6.043   1.904   3.781
 7991SOL    HW124872   6.105   1.982   3.771
 7991SOL    HW224873   6.060   1.838   3.707
 7992SOL     OW24874   1.561   0.548   0.446
 7992SOL    HW124875   1.545   0.497   0.531
 7992SOL    HW224876   1.518   0.638   0.453
 7993SOL     OW24877   0.424   0.074   1.578
 7993SOL    HW124878   0.393   0.093   1.671
 7993SOL    HW224879   0.519   0.104   1.569
 7994SOL     OW24880   4.339   0.347   3.293
 7994SOL    HW124881   4.350   0.403   3.211
 7994SOL    HW224882   4.254   0.372   3.340
 7995SOL     OW24883   6.137   5.268   3.113
 7995SOL    HW124884   6.181   5.357   3.099
 7995SOL    HW224885   6.143   5.243   3.209
 7996SOL     OW24886   3.796   6.152   4.632
 7996SOL    HW124887   3.813   6.242   4.672
 7996SOL    HW224888   3.712   6.155   4.578
 7997SOL     OW24889   6.965   1.697   0.204
 7997SOL    HW124890   7.007   1.609   0.225
 7997SOL    HW224891   0.013   1.757   0.162
 7998SOL     OW24892   3.527   6.816   6.675
 7998SOL    HW124893   3.434   6.798   6.641
 7998SOL    HW224894   3.587   6.741   6.648
 7999SOL     OW24895   0.755   1.291   6.044
 7999SOL    HW124896   0.701   1.207   6.047
 7999SOL    HW224897   0.843   1.273   6.001
 8000SOL     OW24898   5.366   6.237   6.460
 8000SOL    HW124899   5.384   6.327   6.500
 8000SOL    HW224900   5.272   6.235   6.425
 8001SOL     OW24901   4.298   5.970   1.560
 8001SOL    HW124902   4.394   5.975   1.586
 8001SOL    HW224903   4.246   5.925   1.633
 8002SOL     OW24904   0.612   0.632   6.119
 8002SOL    HW124905   0.523   0.668   6.147
 8002SOL    HW224906   0.609   0.607   6.022
 8003SOL     OW24907   2.126   5.545   1.737
 8003SOL    HW124908   2.145   5.642   1.752
 8003SOL    HW224909   2.032   5.525   1.763
 8004SOL     OW24910   1.591   3.885   3.426
 8004SOL    HW124911   1.657   3.809   3.428
 8004SOL    HW224912   1.511   3.858   3.372
 8005SOL     OW24913   2.300   0.120   3.477
 8005SOL    HW124914   2.370   0.176   3.521
 8005SOL    HW224915   2.325   0.106   3.381
 8006SOL     OW24916   2.342   6.077   5.416
 8006SOL    HW124917   2.255   6.109   5.378
 8006SOL    HW224918   2.356   6.118   5.506
 8007SOL     OW24919   6.036   1.765   6.243
 8007SOL    HW124920   6.042   1.802   6.336
 8007SOL    HW224921   6.115   1.707   6.224
 8008SOL     OW24922   3.608   5.921   6.494
 8008SOL    HW124923   3.637   5.912   6.399
 8008SOL    HW224924   3.509   5.908   6.500
 8009SOL     OW24925   4.878   0.562   0.655
 8009SOL    HW124926   4.832   0.577   0.742
 8009SOL    HW224927   4.868   0.644   0.598
 8010SOL     OW24928   2.350   2.104   4.994
 8010SOL    HW124929   2.364   2.172   5.066
 8010SOL    HW224930   2.436   2.087   4.947
 8011SOL     OW24931   3.690   2.018   1.135
 8011SOL    HW124932   3.592   2.034   1.120
 8011SOL    HW224933   3.719   1.938   1.084
 8012SOL     OW24934   1.426   2.846   0.113
 8012SOL    HW124935   1.478   2.926   0.144
 8012SOL    HW224936   1.449   2.827   0.017
 8013SOL     OW24937   1.344   4.560   3.435
 8013SOL    HW124938   1.374   4.465   3.438
 8013SOL    HW224939   1.312   4.588   3.525
 8014SOL     OW24940   1.927   0.323   4.620
 8014SOL    HW124941   1.871   0.274   4.687
 8014SOL    HW224942   2.018   0.340   4.659
 8015SOL     OW24943   1.983   0.516   6.159
 8015SOL    HW124944   1.891   0.534   6.125
 8015SOL    HW224945   2.041   0.486   6.084
 8016SOL     OW24946   3.928   1.245   4.748
 8016SOL    HW124947   3.887   1.208   4.831
 8016SOL    HW224948   4.003   1.307   4.772
 8017SOL     OW24949   6.411   0.046   0.063
 8017SOL    HW124950   6.499   0.073   0.024
 8017SOL    HW224951   6.352   0.010   7.012
 8018SOL     OW24952   3.264   2.802   0.082
 8018SOL    HW124953   3.202   2.874   0.113
 8018SOL    HW224954   3.358   2.836   0.083
 8019SOL     OW24955   1.886   4.376   1.298
 8019SOL    HW124956   1.909   4.290   1.344
 8019SOL    HW224957   1.950   4.392   1.223
 8020SOL     OW24958   6.671   6.886   6.544
 8020SOL    HW124959   6.668   6.968   6.487
 8020SOL    HW224960   6.608   6.896   6.621
 8021SOL     OW24961   1.628   3.098   1.893
 8021SOL    HW124962   1.602   3.195   1.901
 8021SOL    HW224963   1.623   3.054   1.982
 8022SOL     OW24964   5.974   0.558   2.024
 8022SOL    HW124965   5.942   0.543   2.117
 8022SOL    HW224966   5.896   0.563   1.962
 8023SOL     OW24967   5.982   4.448   2.411
 8023SOL    HW124968   5.938   4.385   2.475
 8023SOL    HW224969   6.078   4.461   2.438
 8024SOL     OW24970   1.261   5.225   6.492
 8024SOL    HW124971   1.295   5.164   6.565
 8024SOL    HW224972   1.337   5.280   6.458
 8025SOL     OW24973   1.678   5.666   1.053
 8025SOL    HW124974   1.772   5.675   1.087
 8025SOL    HW224975   1.648   5.571   1.063
 8026SOL     OW24976   6.828   4.242   1.270
 8026SOL    HW124977   6.733   4.239   1.300
 8026SOL    HW224978   6.836   4.293   1.185
 8027SOL     OW24979   3.337   6.947   5.819
 8027SOL    HW124980   3.263   7.004   5.854
 8027SOL    HW224981   3.330   6.855   5.857
 8028SOL     OW24982   3.752   5.034   4.950
 8028SOL    HW124983   3.753   5.027   4.850
 8028SOL    HW224984   3.664   5.070   4.981
 8029SOL     OW24985   5.352   2.501   2.037
 8029SOL    HW124986   5.266   2.482   1.989
 8029SOL    HW224987   5.334   2.516   2.134
 8030SOL     OW24988   5.851   5.518   1.075
 8030SOL    HW124989   5.872   5.609   1.110
 8030SOL    HW224990   5.804   5.526   0.987
 8031SOL     OW24991   6.865   6.505   2.841
 8031SOL    HW124992   6.918   6.535   2.920
 8031SOL    HW224993   6.926   6.480   2.766
 8032SOL     OW24994   5.456   3.928   1.517
 8032SOL    HW124995   5.537   3.871   1.523
 8032SOL    HW224996   5.428   3.937   1.421
 8033SOL     OW24997   4.488   3.019   6.978
 8033SOL    HW124998   4.496   3.119   6.983
 8033SOL    HW224999   4.577   2.980   6.956
 8034SOL     OW25000   4.937   6.846   5.789
 8034SOL    HW125001   4.905   6.769   5.844
 8034SOL    HW225002   4.888   6.846   5.702
 8035SOL     OW25003   4.964   1.893   1.994
 8035SOL    HW125004   4.930   1.986   1.978
 8035SOL    HW225005   5.062   1.889   1.977
 8036SOL     OW25006   6.538   3.739   3.902
 8036SOL    HW125007   6.497   3.751   3.993
 8036SOL    HW225008   6.521   3.821   3.848
 8037SOL     OW25009   1.601   3.312   0.090
 8037SOL    HW125010   1.652   3.310   0.004
 8037SOL    HW225011   1.647   3.374   0.154
 8038SOL     OW25012   4.311   6.778   3.028
 8038SOL    HW125013   4.401   6.820   3.013
 8038SOL    HW225014   4.307   6.691   2.980
 8039SOL     OW25015   6.818   1.857   4.568
 8039SOL    HW125016   6.736   1.887   4.519
 8039SOL    HW225017   6.839   1.762   4.543
 8040SOL     OW25018   1.541   6.278   6.934
 8040SOL    HW125019   1.522   6.332   6.852
 8040SOL    HW225020   1.639   6.260   6.939
 8041SOL     OW25021   3.076   1.164   2.450
 8041SOL    HW125022   3.078   1.066   2.427
 8041SOL    HW225023   3.102   1.175   2.546
 8042SOL     OW25024   4.255   3.700   5.735
 8042SOL    HW125025   4.247   3.703   5.636
 8042SOL    HW225026   4.218   3.613   5.769
 8043SOL     OW25027   3.816   4.990   0.553
 8043SOL    HW125028   3.875   5.044   0.613
 8043SOL    HW225029   3.752   5.050   0.506
 8044SOL     OW25030   3.862   3.588   0.452
 8044SOL    HW125031   3.902   3.674   0.484
 8044SOL    HW225032   3.763   3.591   0.464
 8045SOL     OW25033   6.042   2.521   2.301
 8045SOL    HW125034   6.126   2.537   2.354
 8045SOL    HW225035   5.990   2.447   2.342
 8046SOL     OW25036   0.751   4.209   2.492
 8046SOL    HW125037   0.726   4.201   2.396
 8046SOL    HW225038   0.848   4.189   2.504
 8047SOL     OW25039   3.361   6.280   6.327
 8047SOL    HW125040   3.343   6.195   6.376
 8047SOL    HW225041   3.418   6.261   6.247
 8048SOL     OW25042   3.247   2.342   0.231
 8048SOL    HW125043   3.298   2.340   0.145
 8048SOL    HW225044   3.265   2.428   0.278
 8049SOL     OW25045   0.611   6.833   0.440
 8049SOL    HW125046   0.514   6.816   0.457
 8049SOL    HW225047   0.621   6.889   0.358
 8050SOL     OW25048   1.848   3.495   3.942
 8050SOL    HW125049   1.853   3.581   3.892
 8050SOL    HW225050   1.913   3.430   3.902
 8051SOL     OW25051   5.090   6.289   4.804
 8051SOL    HW125052   5.096   6.282   4.904
 8051SOL    HW225053   5.099   6.198   4.763
 8052SOL     OW25054   2.884   2.062   1.315
 8052SOL    HW125055   2.969   2.089   1.361
 8052SOL    HW225056   2.808   2.068   1.379
 8053SOL     OW25057   3.065   2.796   5.319
 8053SOL    HW125058   3.118   2.820   5.237
 8053SOL    HW225059   3.075   2.697   5.336
 8054SOL     OW25060   6.813   4.273   4.927
 8054SOL    HW125061   6.722   4.245   4.896
 8054SOL    HW225062   6.880   4.207   4.895
 8055SOL     OW25063   6.864   0.739   5.771
 8055SOL    HW125064   6.818   0.682   5.703
 8055SOL    HW225065   6.797   0.795   5.819
 8056SOL     OW25066   3.131   0.698   5.110
 8056SOL    HW125067   3.177   0.759   5.174
 8056SOL    HW225068   3.172   0.709   5.019
 8057SOL     OW25069   2.578   2.419   2.788
 8057SOL    HW125070   2.653   2.353   2.778
 8057SOL    HW225071   2.572   2.448   2.883
 8058SOL     OW25072   2.895   6.780   2.491
 8058SOL    HW125073   2.884   6.878   2.474
 8058SOL    HW225074   2.891   6.762   2.589
 8059SOL     OW25075   2.524   1.279   5.382
 8059SOL    HW125076   2.518   1.246   5.476
 8059SOL    HW225077   2.560   1.206   5.323
 8060SOL     OW25078   0.395   2.393   6.208
 8060SOL    HW125079   0.348   2.398   6.296
 8060SOL    HW225080   0.490   2.422   6.218
 8061SOL     OW25081   0.694   0.080   2.273
 8061SOL    HW125082   0.742   0.131   2.202
 8061SOL    HW225083   0.723   7.006   2.270
 8062SOL     OW25084   4.120   5.412   4.259
 8062SOL    HW125085   4.163   5.405   4.170
 8062SOL    HW225086   4.184   5.381   4.330
 8063SOL     OW25087   2.587   0.806   3.323
 8063SOL    HW125088   2.628   0.743   3.388
 8063SOL    HW225089   2.510   0.853   3.366
 8064SOL     OW25090   5.650   2.168   0.252
 8064SOL    HW125091   5.690   2.134   0.167
 8064SOL    HW225092   5.556   2.199   0.236
 8065SOL     OW25093   2.846   6.432   4.436
 8065SOL    HW125094   2.877   6.499   4.368
 8065SOL    HW225095   2.769   6.380   4.399
 8066SOL     OW25096   6.414   6.717   5.455
 8066SOL    HW125097   6.319   6.746   5.469
 8066SOL    HW225098   6.434   6.716   5.357
 8067SOL     OW25099   5.046   2.491   2.899
 8067SOL    HW125100   5.085   2.563   2.956
 8067SOL    HW225101   5.100   2.408   2.908
 8068SOL     OW25102   0.427   4.935   1.449
 8068SOL    HW125103   0.466   5.018   1.410
 8068SOL    HW225104   0.471   4.855   1.408
 8069SOL     OW25105   2.087   4.828   1.306
 8069SOL    HW125106   2.110   4.866   1.216
 8069SOL    HW225107   2.018   4.756   1.295
 8070SOL     OW25108   3.928   2.960   0.285
 8070SOL    HW125109   3.946   2.961   0.187
 8070SOL    HW225110   4.015   2.966   0.335
 8071SOL     OW25111   2.861   6.792   5.397
 8071SOL    HW125112   2.826   6.738   5.474
 8071SOL    HW225113   2.862   6.736   5.315
 8072SOL     OW25114   3.484   1.638   0.919
 8072SOL    HW125115   3.512   1.571   0.988
 8072SOL    HW225116   3.385   1.649   0.921
 8073SOL     OW25117   3.524   5.763   5.382
 8073SOL    HW125118   3.609   5.758   5.435
 8073SOL    HW225119   3.497   5.859   5.372
 8074SOL     OW25120   2.863   1.735   0.531
 8074SOL    HW125121   2.880   1.761   0.626
 8074SOL    HW225122   2.893   1.809   0.471
 8075SOL     OW25123   6.462   0.058   0.505
 8075SOL    HW125124   6.457   0.157   0.513
 8075SOL    HW225125   6.476   0.018   0.596
 8076SOL     OW25126   6.190   6.630   5.005
 8076SOL    HW125127   6.203   6.704   5.071
 8076SOL    HW225128   6.169   6.545   5.053
 8077SOL     OW25129   3.111   5.843   2.803
 8077SOL    HW125130   3.210   5.835   2.799
 8077SOL    HW225131   3.069   5.778   2.740
 8078SOL     OW25132   0.676   2.114   1.245
 8078SOL    HW125133   0.742   2.039   1.252
 8078SOL    HW225134   0.618   2.114   1.327
 8079SOL     OW25135   6.582   1.475   3.406
 8079SOL    HW125136   6.497   1.435   3.440
 8079SOL    HW225137   6.653   1.405   3.404
 8080SOL     OW25138   1.143   1.919   2.543
 8080SOL    HW125139   1.211   1.876   2.602
 8080SOL    HW225140   1.130   2.014   2.571
 8081SOL     OW25141   6.102   5.657   6.252
 8081SOL    HW125142   6.129   5.637   6.157
 8081SOL    HW225143   6.167   5.721   6.292
 8082SOL     OW25144   3.074   0.888   2.409
 8082SOL    HW125145   2.978   0.859   2.407
 8082SOL    HW225146   3.132   0.807   2.415
 8083SOL     OW25147   5.154   2.549   4.170
 8083SOL    HW125148   5.106   2.609   4.106
 8083SOL    HW225149   5.207   2.482   4.119
 8084SOL     OW25150   2.997   0.005   6.619
 8084SOL    HW125151   3.032   7.005   6.710
 8084SOL    HW225152   2.931   6.957   6.591
 8085SOL     OW25153   6.079   5.686   2.531
 8085SOL    HW125154   6.010   5.756   2.507
 8085SOL    HW225155   6.131   5.717   2.610
 8086SOL     OW25156   6.750   0.608   1.718
 8086SOL    HW125157   6.736   0.603   1.817
 8086SOL    HW225158   6.762   0.704   1.691
 8087SOL     OW25159   1.399   0.437   0.208
 8087SOL    HW125160   1.454   0.466   0.286
 8087SOL    HW225161   1.457   0.426   0.127
 8088SOL     OW25162   5.936   0.896   0.956
 8088SOL    HW125163   5.901   0.826   1.019
 8088SOL    HW225164   5.949   0.982   1.005
 8089SOL     OW25165   5.115   2.963   6.928
 8089SOL    HW125166   5.074   2.911   6.854
 8089SOL    HW225167   5.046   3.022   6.970
 8090SOL     OW25168   4.118   1.094   5.830
 8090SOL    HW125169   4.122   1.187   5.793
 8090SOL    HW225170   4.209   1.052   5.825
 8091SOL     OW25171   1.628   3.562   5.030
 8091SOL    HW125172   1.550   3.580   4.971
 8091SOL    HW225173   1.596   3.531   5.120
 8092SOL     OW25174   5.202   1.769   5.039
 8092SOL    HW125175   5.102   1.765   5.036
 8092SOL    HW225176   5.236   1.809   4.954
 8093SOL     OW25177   2.898   5.139   3.515
 8093SOL    HW125178   2.861   5.232   3.525
 8093SOL    HW225179   2.989   5.144   3.472
 8094SOL     OW25180   0.189   2.968   4.558
 8094SOL    HW125181   0.138   2.985   4.642
 8094SOL    HW225182   0.143   2.897   4.504
 8095SOL     OW25183   0.426   4.405   5.250
 8095SOL    HW125184   0.335   4.405   5.291
 8095SOL    HW225185   0.479   4.483   5.284
 8096SOL     OW25186   2.411   0.824   2.126
 8096SOL    HW125187   2.463   0.741   2.108
 8096SOL    HW225188   2.435   0.860   2.216
 8097SOL     OW25189   4.625   6.836   5.163
 8097SOL    HW125190   4.723   6.856   5.161
 8097SOL    HW225191   4.585   6.875   5.246
 8098SOL     OW25192   2.320   6.612   3.621
 8098SOL    HW125193   2.303   6.571   3.531
 8098SOL    HW225194   2.399   6.568   3.663
 8099SOL     OW25195   4.477   6.537   4.115
 8099SOL    HW125196   4.468   6.442   4.087
 8099SOL    HW225197   4.470   6.596   4.034
 8100SOL     OW25198   6.713   0.706   7.010
 8100SOL    HW125199   6.621   0.670   0.002
 8100SOL    HW225200   6.731   0.777   0.057
 8101SOL     OW25201   1.880   5.737   1.497
 8101SOL    HW125202   1.947   5.678   1.452
 8101SOL    HW225203   1.796   5.740   1.442
 8102SOL     OW25204   0.590   3.640   3.499
 8102SOL    HW125205   0.497   3.659   3.468
 8102SOL    HW225206   0.641   3.596   3.425
 8103SOL     OW25207   3.329   0.198   1.476
 8103SOL    HW125208   3.361   0.114   1.518
 8103SOL    HW225209   3.294   0.260   1.546
 8104SOL     OW25210   1.658   0.814   6.660
 8104SOL    HW125211   1.654   0.838   6.757
 8104SOL    HW225212   1.696   0.722   6.651
 8105SOL     OW25213   0.033   3.039   2.971
 8105SOL    HW125214   0.023   3.085   2.883
 8105SOL    HW225215   6.963   3.018   3.008
 8106SOL     OW25216   3.103   5.647   3.664
 8106SOL    HW125217   3.098   5.548   3.650
 8106SOL    HW225218   3.083   5.668   3.759
 8107SOL     OW25219   1.105   5.575   3.892
 8107SOL    HW125220   1.033   5.587   3.823
 8107SOL    HW225221   1.127   5.663   3.934
 8108SOL     OW25222   6.583   2.591   6.835
 8108SOL    HW125223   6.626   2.523   6.894
 8108SOL    HW225224   6.632   2.678   6.842
 8109SOL     OW25225   6.941   3.462   6.399
 8109SOL    HW125226   6.897   3.509   6.323
 8109SOL    HW225227   6.919   3.365   6.395
 8110SOL     OW25228   3.950   5.832   2.445
 8110SOL    HW125229   4.004   5.877   2.516
 8110SOL    HW225230   3.902   5.754   2.484
 8111SOL     OW25231   4.911   1.177   4.667
 8111SOL    HW125232   5.002   1.146   4.694
 8111SOL    HW225233   4.860   1.100   4.630
 8112SOL     OW25234   2.177   3.144   4.335
 8112SOL    HW125235   2.085   3.145   4.297
 8112SOL    HW225236   2.172   3.135   4.434
 8113SOL     OW25237   0.606   4.081   0.973
 8113SOL    HW125238   0.696   4.048   1.001
 8113SOL    HW225239   0.551   4.005   0.938
 8114SOL     OW25240   2.065   3.618   2.533
 8114SOL    HW125241   2.049   3.708   2.574
 8114SOL    HW225242   2.100   3.555   2.602
 8115SOL     OW25243   3.920   6.814   6.664
 8115SOL    HW125244   3.882   6.845   6.751
 8115SOL    HW225245   3.944   6.894   6.608
 8116SOL     OW25246   4.235   5.156   0.384
 8116SOL    HW125247   4.313   5.103   0.419
 8116SOL    HW225248   4.269   5.235   0.333
 8117SOL     OW25249   1.096   0.496   3.213
 8117SOL    HW125250   1.140   0.477   3.126
 8117SOL    HW225251   1.070   0.593   3.217
 8118SOL     OW25252   4.815   4.247   6.095
 8118SOL    HW125253   4.866   4.253   6.009
 8118SOL    HW225254   4.753   4.169   6.091
 8119SOL     OW25255   5.302   5.960   6.475
 8119SOL    HW125256   5.315   5.929   6.569
 8119SOL    HW225257   5.337   6.053   6.464
 8120SOL     OW25258   3.546   4.696   1.004
 8120SOL    HW125259   3.542   4.598   0.986
 8120SOL    HW225260   3.557   4.745   0.917
 8121SOL     OW25261   0.759   5.044   1.517
 8121SOL    HW125262   0.678   5.095   1.490
 8121SOL    HW225263   0.770   5.049   1.616
 8122SOL     OW25264   0.327   4.616   2.770
 8122SOL    HW125265   0.317   4.674   2.851
 8122SOL    HW225266   0.237   4.581   2.743
 8123SOL     OW25267   6.661   1.780   6.612
 8123SOL    HW125268   6.707   1.745   6.694
 8123SOL    HW225269   6.713   1.753   6.531
 8124SOL     OW25270   5.006   6.148   2.128
 8124SOL    HW125271   5.085   6.091   2.151
 8124SOL    HW225272   5.035   6.226   2.073
 8125SOL     OW25273   1.609   1.661   3.299
 8125SOL    HW125274   1.683   1.672   3.365
 8125SOL    HW225275   1.646   1.628   3.212
 8126SOL     OW25276   5.372   4.475   3.160
 8126SOL    HW125277   5.411   4.537   3.092
 8126SOL    HW225278   5.296   4.423   3.118
 8127SOL     OW25279   2.604   3.181   6.224
 8127SOL    HW125280   2.694   3.180   6.182
 8127SOL    HW225281   2.605   3.243   6.303
 8128SOL     OW25282   2.852   2.236   2.289
 8128SOL    HW125283   2.871   2.251   2.192
 8128SOL    HW225284   2.809   2.317   2.328
 8129SOL     OW25285   3.850   1.327   6.066
 8129SOL    HW125286   3.757   1.324   6.103
 8129SOL    HW225287   3.895   1.239   6.083
 8130SOL     OW25288   0.724   4.367   6.748
 8130SOL    HW125289   0.661   4.341   6.821
 8130SOL    HW225290   0.815   4.330   6.766
 8131SOL     OW25291   2.159   2.059   1.498
 8131SOL    HW125292   2.138   1.977   1.444
 8131SOL    HW225293   2.213   2.122   1.442
 8132SOL     OW25294   5.255   6.808   5.037
 8132SOL    HW125295   5.353   6.823   5.025
 8132SOL    HW225296   5.225   6.731   4.981
 8133SOL     OW25297   3.001   5.186   2.457
 8133SOL    HW125298   3.031   5.092   2.446
 8133SOL    HW225299   3.049   5.244   2.391
 8134SOL     OW25300   7.010   1.885   6.398
 8134SOL    HW125301   6.981   1.882   6.302
 8134SOL    HW225302   0.039   1.970   6.415
 8135SOL     OW25303   2.728   0.461   1.374
 8135SOL    HW125304   2.671   0.542   1.388
 8135SOL    HW225305   2.765   0.461   1.282
 8136SOL     OW25306   4.642   5.410   2.969
 8136SOL    HW125307   4.678   5.431   2.879
 8136SOL    HW225308   4.716   5.415   3.037
 8137SOL     OW25309   3.016   1.566   5.071
 8137SOL    HW125310   3.040   1.649   5.123
 8137SOL    HW225311   2.996   1.591   4.976
 8138SOL     OW25312   5.041   1.202   0.995
 8138SOL    HW125313   4.976   1.279   0.992
 8138SOL    HW225314   5.112   1.216   0.926
 8139SOL     OW25315   0.159   0.657   1.697
 8139SOL    HW125316   0.154   0.712   1.613
 8139SOL    HW225317   0.107   0.573   1.685
 8140SOL     OW25318   5.834   0.657   5.961
 8140SOL    HW125319   5.769   0.731   5.947
 8140SOL    HW225320   5.790   0.583   6.011
 8141SOL     OW25321   4.470   5.166   4.712
 8141SOL    HW125322   4.414   5.113   4.649
 8141SOL    HW225323   4.448   5.263   4.703
 8142SOL     OW25324   0.086   5.233   6.957
 8142SOL    HW125325   0.017   5.173   6.919
 8142SOL    HW225326   0.106   5.207   0.030
 8143SOL     OW25327   5.644   4.163   0.671
 8143SOL    HW125328   5.723   4.116   0.630
 8143SOL    HW225329   5.660   4.262   0.670
 8144SOL     OW25330   6.066   6.485   6.612
 8144SOL    HW125331   5.980   6.473   6.563
 8144SOL    HW225332   6.142   6.458   6.553
 8145SOL     OW25333   5.554   6.088   1.129
 8145SOL    HW125334   5.603   6.031   1.063
 8145SOL    HW225335   5.603   6.174   1.141
 8146SOL     OW25336   3.909   0.826   4.680
 8146SOL    HW125337   3.989   0.885   4.672
 8146SOL    HW225338   3.926   0.741   4.630
 8147SOL     OW25339   5.866   2.093   1.777
 8147SOL    HW125340   5.910   2.162   1.719
 8147SOL    HW225341   5.803   2.138   1.840
 8148SOL     OW25342   5.312   4.472   1.388
 8148SOL    HW125343   5.366   4.534   1.332
 8148SOL    HW225344   5.232   4.441   1.335
 8149SOL     OW25345   2.428   6.024   2.133
 8149SOL    HW125346   2.458   6.032   2.038
 8149SOL    HW225347   2.487   5.959   2.181
 8150SOL     OW25348   0.317   4.809   6.933
 8150SOL    HW125349   0.368   4.748   6.994
 8150SOL    HW225350   0.349   4.797   6.839
 8151SOL     OW25351   6.321   2.267   1.813
 8151SOL    HW125352   6.234   2.238   1.851
 8151SOL    HW225353   6.395   2.209   1.850
 8152SOL     OW25354   0.318   1.877   3.008
 8152SOL    HW125355   0.377   1.950   2.974
 8152SOL    HW225356   0.368   1.822   3.075
 8153SOL     OW25357   3.195   0.323   2.733
 8153SOL    HW125358   3.282   0.276   2.749
 8153SOL    HW225359   3.190   0.352   2.638
 8154SOL     OW25360   2.901   5.856   3.811
 8154SOL    HW125361   2.813   5.870   3.767
 8154SOL    HW225362   2.969   5.918   3.771
 8155SOL     OW25363   2.406   3.806   1.578
 8155SOL    HW125364   2.402   3.903   1.603
 8155SOL    HW225365   2.350   3.753   1.640
 8156SOL     OW25366   5.141   6.825   6.343
 8156SOL    HW125367   5.115   6.760   6.414
 8156SOL    HW225368   5.072   6.897   6.337
 8157SOL     OW25369   5.747   5.338   6.463
 8157SOL    HW125370   5.698   5.425   6.463
 8157SOL    HW225371   5.781   5.319   6.555
 8158SOL     OW25372   0.151   5.019   1.547
 8158SOL    HW125373   0.200   4.966   1.478
 8158SOL    HW225374   0.071   4.968   1.578
 8159SOL     OW25375   2.741   6.017   2.992
 8159SOL    HW125376   2.832   6.018   2.950
 8159SOL    HW225377   2.745   6.063   3.081
 8160SOL     OW25378   4.642   1.537   2.313
 8160SOL    HW125379   4.551   1.580   2.312
 8160SOL    HW225380   4.700   1.585   2.378
 8161SOL     OW25381   4.883   1.399   7.004
 8161SOL    HW125382   4.944   1.476   0.003
 8161SOL    HW225383   4.877   1.340   0.063
 8162SOL     OW25384   6.481   6.491   6.041
 8162SOL    HW125385   6.522   6.457   6.126
 8162SOL    HW225386   6.505   6.429   5.966
 8163SOL     OW25387   2.798   3.496   5.545
 8163SOL    HW125388   2.722   3.469   5.486
 8163SOL    HW225389   2.855   3.562   5.498
 8164SOL     OW25390   6.070   3.191   0.689
 8164SOL    HW125391   6.037   3.248   0.764
 8164SOL    HW225392   6.169   3.177   0.699
 8165SOL     OW25393   0.986   5.442   6.524
 8165SOL    HW125394   1.012   5.373   6.591
 8165SOL    HW225395   1.027   5.530   6.549
 8166SOL     OW25396   2.318   1.124   2.056
 8166SOL    HW125397   2.219   1.115   2.062
 8166SOL    HW225398   2.353   1.155   2.145
 8167SOL     OW25399   6.033   1.210   4.194
 8167SOL    HW125400   6.117   1.260   4.172
 8167SOL    HW225401   5.954   1.267   4.170
 8168SOL     OW25402   3.201   1.538   3.383
 8168SOL    HW125403   3.296   1.510   3.365
 8168SOL    HW225404   3.198   1.637   3.397
 8169SOL     OW25405   5.051   3.029   1.309
 8169SOL    HW125406   5.120   3.044   1.239
 8169SOL    HW225407   4.973   3.089   1.294
 8170SOL     OW25408   1.450   5.733   2.672
 8170SOL    HW125409   1.453   5.680   2.587
 8170SOL    HW225410   1.520   5.697   2.735
 8171SOL     OW25411   1.144   1.596   0.144
 8171SOL    HW125412   1.061   1.611   0.091
 8171SOL    HW225413   1.120   1.558   0.234
 8172SOL     OW25414   0.812   0.916   1.968
 8172SOL    HW125415   0.865   0.965   2.037
 8172SOL    HW225416   0.732   0.971   1.942
 8173SOL     OW25417   3.534   1.753   0.469
 8173SOL    HW125418   3.572   1.813   0.540
 8173SOL    HW225419   3.456   1.799   0.426
 8174SOL     OW25420   4.879   2.011   0.384
 8174SOL    HW125421   4.918   1.964   0.305
 8174SOL    HW225422   4.926   1.983   0.467
 8175SOL     OW25423   0.082   2.563   5.724
 8175SOL    HW125424   7.016   2.598   5.758
 8175SOL    HW225425   0.066   2.507   5.643
 8176SOL     OW25426   2.557   5.471   2.510
 8176SOL    HW125427   2.552   5.379   2.549
 8176SOL    HW225428   2.635   5.477   2.448
 8177SOL     OW25429   2.126   6.667   4.153
 8177SOL    HW125430   2.051   6.697   4.095
 8177SOL    HW225431   2.092   6.650   4.245
 8178SOL     OW25432   2.106   6.746   6.754
 8178SOL    HW125433   2.200   6.756   6.721
 8178SOL    HW225434   2.090   6.810   6.829
 8179SOL     OW25435   3.564   2.695   6.948
 8179SOL    HW125436   3.542   2.702   6.850
 8179SOL    HW225437   3.530   2.776   6.996
 8180SOL     OW25438   6.885   0.265   4.592
 8180SOL    HW125439   6.828   0.308   4.662
 8180SOL    HW225440   6.853   0.172   4.575
 8181SOL     OW25441   1.906   1.392   2.366
 8181SOL    HW125442   1.831   1.339   2.405
 8181SOL    HW225443   1.969   1.418   2.439
 8182SOL     OW25444   3.943   1.554   0.080
 8182SOL    HW125445   3.980   1.645   0.059
 8182SOL    HW225446   3.876   1.562   0.154
 8183SOL     OW25447   0.615   2.552   4.948
 8183SOL    HW125448   0.711   2.542   4.923
 8183SOL    HW225449   0.560   2.485   4.898
 8184SOL     OW25450   5.514   1.475   5.759
 8184SOL    HW125451   5.532   1.573   5.770
 8184SOL    HW225452   5.419   1.462   5.729
 8185SOL     OW25453   3.355   0.274   0.396
 8185SOL    HW125454   3.312   0.357   0.432
 8185SOL    HW225455   3.326   0.196   0.451
 8186SOL     OW25456   3.021   6.089   6.298
 8186SOL    HW125457   2.959   6.013   6.317
 8186SOL    HW225458   3.065   6.119   6.383
 8187SOL     OW25459   1.787   2.332   4.917
 8187SOL    HW125460   1.737   2.375   4.842
 8187SOL    HW225461   1.863   2.391   4.946
 8188SOL     OW25462   5.602   2.084   2.598
 8188SOL    HW125463   5.536   2.139   2.649
 8188SOL    HW225464   5.653   2.142   2.534
 8189SOL     OW25465   5.247   4.214   2.029
 8189SOL    HW125466   5.321   4.277   2.007
 8189SOL    HW225467   5.187   4.256   2.098
 8190SOL     OW25468   5.074   5.762   4.400
 8190SOL    HW125469   5.099   5.696   4.471
 8190SOL    HW225470   5.024   5.715   4.327
 8191SOL     OW25471   2.842   5.386   3.597
 8191SOL    HW125472   2.781   5.388   3.676
 8191SOL    HW225473   2.935   5.413   3.625
 8192SOL     OW25474   2.965   5.709   6.989
 8192SOL    HW125475   2.920   5.715   0.057
 8192SOL    HW225476   2.985   5.614   6.968
 8193SOL     OW25477   6.662   0.134   4.337
 8193SOL    HW125478   6.726   0.209   4.322
 8193SOL    HW225479   6.568   0.169   4.335
 8194SOL     OW25480   5.936   2.555   0.157
 8194SOL    HW125481   5.964   2.531   0.250
 8194SOL    HW225482   6.015   2.587   0.106
 8195SOL     OW25483   0.583   0.709   0.840
 8195SOL    HW125484   0.546   0.744   0.926
 8195SOL    HW225485   0.527   0.633   0.808
 8196SOL     OW25486   3.585   6.974   5.684
 8196SOL    HW125487   3.505   6.971   5.744
 8196SOL    HW225488   3.570   0.023   5.614
 8197SOL     OW25489   5.161   1.757   6.017
 8197SOL    HW125490   5.133   1.717   6.104
 8197SOL    HW225491   5.176   1.684   5.950
 8198SOL     OW25492   3.031   7.018   2.195
 8198SOL    HW125493   3.027   0.097   2.201
 8198SOL    HW225494   2.952   6.979   2.241
 8199SOL     OW25495   6.928   4.004   0.615
 8199SOL    HW125496   6.954   3.961   0.702
 8199SOL    HW225497   7.007   4.005   0.554
 8200SOL     OW25498   4.557   4.000   1.059
 8200SOL    HW125499   4.516   3.952   0.982
 8200SOL    HW225500   4.486   4.045   1.113
 8201SOL     OW25501   5.319   0.931   4.672
 8201SOL    HW125502   5.298   1.006   4.609
 8201SOL    HW225503   5.277   0.950   4.761
 8202SOL     OW25504   1.037   5.519   4.248
 8202SOL    HW125505   1.021   5.611   4.212
 8202SOL    HW225506   1.136   5.504   4.259
 8203SOL     OW25507   4.815   3.345   0.176
 8203SOL    HW125508   4.833   3.306   0.266
 8203SOL    HW225509   4.738   3.296   0.134
 8204SOL     OW25510   3.470   5.284   1.317
 8204SOL    HW125511   3.559   5.301   1.275
 8204SOL    HW225512   3.426   5.371   1.338
 8205SOL     OW25513   6.396   4.597   2.161
 8205SOL    HW125514   6.388   4.504   2.198
 8205SOL    HW225515   6.446   4.593   2.074
 8206SOL     OW25516   2.951   2.209   5.530
 8206SOL    HW125517   2.909   2.179   5.616
 8206SOL    HW225518   2.879   2.226   5.463
 8207SOL     OW25519   3.600   4.710   5.372
 8207SOL    HW125520   3.542   4.768   5.314
 8207SOL    HW225521   3.652   4.647   5.314
 8208SOL     OW25522   2.503   6.571   1.686
 8208SOL    HW125523   2.529   6.667   1.688
 8208SOL    HW225524   2.507   6.538   1.591
 8209SOL     OW25525   0.736   1.091   5.505
 8209SOL    HW125526   0.774   1.012   5.457
 8209SOL    HW225527   0.707   1.160   5.438
 8210SOL     OW25528   3.445   0.493   6.914
 8210SOL    HW125529   3.377   0.422   6.897
 8210SOL    HW225530   3.402   0.583   6.906
 8211SOL     OW25531   3.656   4.171   4.104
 8211SOL    HW125532   3.712   4.157   4.186
 8211SOL    HW225533   3.667   4.264   4.071
 8212SOL     OW25534   3.327   0.738   0.796
 8212SOL    HW125535   3.280   0.752   0.709
 8212SOL    HW225536   3.342   0.641   0.811
 8213SOL     OW25537   4.794   5.254   3.454
 8213SOL    HW125538   4.746   5.275   3.539
 8213SOL    HW225539   4.744   5.294   3.377
 8214SOL     OW25540   1.998   6.164   3.784
 8214SOL    HW125541   1.936   6.116   3.846
 8214SOL    HW225542   2.071   6.207   3.836
 8215SOL     OW25543   4.365   5.364   0.235
 8215SOL    HW125544   4.415   5.332   0.155
 8215SOL    HW225545   4.429   5.391   0.307
 8216SOL     OW25546   5.489   0.082   3.370
 8216SOL    HW125547   5.503   0.172   3.329
 8216SOL    HW225548   5.392   0.058   3.364
 8217SOL     OW25549   2.397   4.378   2.311
 8217SOL    HW125550   2.395   4.403   2.215
 8217SOL    HW225551   2.406   4.279   2.320
 8218SOL     OW25552   1.490   0.298   4.756
 8218SOL    HW125553   1.396   0.277   4.783
 8218SOL    HW225554   1.524   0.376   4.808
 8219SOL     OW25555   2.780   4.473   1.043
 8219SOL    HW125556   2.781   4.466   1.143
 8219SOL    HW225557   2.692   4.511   1.013
 8220SOL     OW25558   3.445   4.207   5.187
 8220SOL    HW125559   3.515   4.216   5.115
 8220SOL    HW225560   3.391   4.125   5.170
 8221SOL     OW25561   5.962   4.306   3.285
 8221SOL    HW125562   6.032   4.276   3.219
 8221SOL    HW225563   5.889   4.237   3.289
 8222SOL     OW25564   5.471   2.187   0.533
 8222SOL    HW125565   5.447   2.227   0.445
 8222SOL    HW225566   5.566   2.211   0.556
 8223SOL     OW25567   7.016   4.903   5.576
 8223SOL    HW125568   0.069   4.893   5.643
 8223SOL    HW225569   0.026   4.960   5.500
 8224SOL     OW25570   4.312   1.964   1.255
 8224SOL    HW125571   4.408   1.969   1.280
 8224SOL    HW225572   4.303   1.942   1.158
 8225SOL     OW25573   4.523   6.958   1.125
 8225SOL    HW125574   4.535   0.009   1.057
 8225SOL    HW225575   4.425   6.945   1.143
 8226SOL     OW25576   3.550   0.302   0.589
 8226SOL    HW125577   3.495   0.306   0.506
 8226SOL    HW225578   3.504   0.246   0.658
 8227SOL     OW25579   6.174   1.440   2.361
 8227SOL    HW125580   6.265   1.420   2.326
 8227SOL    HW225581   6.170   1.417   2.458
 8228SOL     OW25582   0.480   1.004   5.482
 8228SOL    HW125583   0.467   0.910   5.515
 8228SOL    HW225584   0.556   1.047   5.532
 8229SOL     OW25585   4.836   4.336   1.266
 8229SOL    HW125586   4.793   4.310   1.179
 8229SOL    HW225587   4.907   4.270   1.289
 8230SOL     OW25588   4.168   0.058   5.513
 8230SOL    HW125589   4.126   0.134   5.563
 8230SOL    HW225590   4.268   0.065   5.520
 8231SOL     OW25591   3.360   1.753   2.299
 8231SOL    HW125592   3.273   1.773   2.343
 8231SOL    HW225593   3.422   1.710   2.364
 8232SOL     OW25594   5.562   1.140   2.298
 8232SOL    HW125595   5.564   1.199   2.217
 8232SOL    HW225596   5.614   1.182   2.372
 8233SOL     OW25597   0.959   0.318   5.892
 8233SOL    HW125598   1.005   0.365   5.968
 8233SOL    HW225599   0.876   0.369   5.867
 8234SOL     OW25600   3.459   3.173   0.223
 8234SOL    HW125601   3.536   3.225   0.263
 8234SOL    HW225602   3.420   3.225   0.147
 8235SOL     OW25603   6.902   4.619   0.155
 8235SOL    HW125604   6.961   4.655   0.083
 8235SOL    HW225605   6.833   4.558   0.115
 8236SOL     OW25606   0.185   5.945   5.906
 8236SOL    HW125607   0.088   5.952   5.929
 8236SOL    HW225608   0.220   6.036   5.881
 8237SOL     OW25609   4.375   5.267   5.912
 8237SOL    HW125610   4.408   5.211   5.836
 8237SOL    HW225611   4.356   5.208   5.991
 8238SOL     OW25612   0.990   5.677   6.780
 8238SOL    HW125613   0.923   5.609   6.809
 8238SOL    HW225614   0.983   5.758   6.839
 8239SOL     OW25615   0.316   0.893   4.859
 8239SOL    HW125616   0.227   0.938   4.868
 8239SOL    HW225617   0.352   0.872   4.950
 8240SOL     OW25618   3.021   3.311   2.996
 8240SOL    HW125619   3.018   3.240   2.926
 8240SOL    HW225620   3.117   3.329   3.020
 8241SOL     OW25621   0.982   3.335   0.069
 8241SOL    HW125622   1.009   3.238   0.068
 8241SOL    HW225623   1.034   3.384   7.020
 8242SOL     OW25624   0.957   3.384   4.466
 8242SOL    HW125625   0.957   3.477   4.502
 8242SOL    HW225626   0.988   3.321   4.537
 8243SOL     OW25627   0.542   4.610   6.214
 8243SOL    HW125628   0.633   4.637   6.183
 8243SOL    HW225629   0.543   4.512   6.234
 8244SOL     OW25630   1.036   0.583   3.637
 8244SOL    HW125631   1.091   0.589   3.721
 8244SOL    HW225632   0.955   0.641   3.647
 8245SOL     OW25633   4.602   1.871   3.478
 8245SOL    HW125634   4.641   1.921   3.556
 8245SOL    HW225635   4.674   1.847   3.413
 8246SOL     OW25636   1.233   4.111   6.095
 8246SOL    HW125637   1.249   4.200   6.052
 8246SOL    HW225638   1.142   4.110   6.137
 8247SOL     OW25639   3.272   5.408   3.996
 8247SOL    HW125640   3.227   5.345   4.060
 8247SOL    HW225641   3.232   5.499   4.005
 8248SOL     OW25642   1.414   5.909   4.489
 8248SOL    HW125643   1.426   5.818   4.529
 8248SOL    HW225644   1.316   5.930   4.483
 8249SOL     OW25645   2.367   1.770   5.355
 8249SOL    HW125646   2.438   1.723   5.407
 8249SOL    HW225647   2.278   1.755   5.397
 8250SOL     OW25648   3.227   1.674   0.891
 8250SOL    HW125649   3.152   1.614   0.917
 8250SOL    HW225650   3.244   1.666   0.793
 8251SOL     OW25651   6.358   1.937   4.156
 8251SOL    HW125652   6.354   1.972   4.249
 8251SOL    HW225653   6.284   1.975   4.102
 8252SOL     OW25654   2.717   2.047   6.677
 8252SOL    HW125655   2.719   2.110   6.754
 8252SOL    HW225656   2.777   2.082   6.605
 8253SOL     OW25657   3.966   5.813   6.721
 8253SOL    HW125658   4.052   5.761   6.722
 8253SOL    HW225659   3.914   5.790   6.639
 8254SOL     OW25660   5.944   5.038   5.874
 8254SOL    HW125661   5.971   5.005   5.784
 8254SOL    HW225662   5.857   5.087   5.867
 8255SOL     OW25663   1.145   6.795   6.094
 8255SOL    HW125664   1.045   6.792   6.097
 8255SOL    HW225665   1.182   6.740   6.170
 8256SOL     OW25666   6.781   6.802   3.113
 8256SOL    HW125667   6.782   6.876   3.046
 8256SOL    HW225668   6.801   6.715   3.067
 8257SOL     OW25669   5.754   4.190   4.155
 8257SOL    HW125670   5.803   4.156   4.235
 8257SOL    HW225671   5.796   4.274   4.122
 8258SOL     OW25672   5.534   2.712   0.991
 8258SOL    HW125673   5.453   2.735   0.937
 8258SOL    HW225674   5.615   2.753   0.949
 8259SOL     OW25675   3.944   1.894   4.912
 8259SOL    HW125676   3.983   1.886   4.820
 8259SOL    HW225677   3.901   1.984   4.922
 8260SOL     OW25678   1.956   6.647   0.719
 8260SOL    HW125679   1.957   6.553   0.753
 8260SOL    HW225680   1.893   6.702   0.774
 8261SOL     OW25681   5.658   6.618   3.491
 8261SOL    HW125682   5.640   6.716   3.491
 8261SOL    HW225683   5.599   6.574   3.559
 8262SOL     OW25684   0.456   5.062   0.439
 8262SOL    HW125685   0.451   5.125   0.361
 8262SOL    HW225686   0.539   5.080   0.491
 8263SOL     OW25687   6.860   2.682   6.634
 8263SOL    HW125688   6.832   2.763   6.686
 8263SOL    HW225689   6.806   2.676   6.550
 8264SOL     OW25690   1.355   6.755   1.475
 8264SOL    HW125691   1.295   6.816   1.527
 8264SOL    HW225692   1.395   6.687   1.537
 8265SOL     OW25693   4.129   0.281   1.601
 8265SOL    HW125694   4.207   0.341   1.582
 8265SOL    HW225695   4.150   0.189   1.569
 8266SOL     OW25696   3.039   0.404   4.663
 8266SOL    HW125697   3.040   0.388   4.762
 8266SOL    HW225698   3.026   0.317   4.616
 8267SOL     OW25699   1.340   5.071   2.299
 8267SOL    HW125700   1.381   5.133   2.366
 8267SOL    HW225701   1.311   4.987   2.344
 8268SOL     OW25702   2.065   3.883   6.874
 8268SOL    HW125703   2.100   3.958   6.818
 8268SOL    HW225704   2.109   3.797   6.847
 8269SOL     OW25705   4.720   2.795   3.138
 8269SOL    HW125706   4.720   2.894   3.121
 8269SOL    HW225707   4.636   2.770   3.185
 8270SOL     OW25708   2.632   6.274   5.748
 8270SOL    HW125709   2.552   6.217   5.766
 8270SOL    HW225710   2.684   6.235   5.672
 8271SOL     OW25711   6.008   6.593   4.761
 8271SOL    HW125712   6.007   6.672   4.823
 8271SOL    HW225713   5.938   6.605   4.691
 8272SOL     OW25714   0.257   0.559   2.073
 8272SOL    HW125715   0.273   0.611   1.989
 8272SOL    HW225716   0.313   0.476   2.072
 8273SOL     OW25717   3.240   6.879   0.037
 8273SOL    HW125718   3.216   6.782   0.044
 8273SOL    HW225719   3.334   6.888   0.004
 8274SOL     OW25720   4.067   4.305   6.616
 8274SOL    HW125721   4.017   4.388   6.589
 8274SOL    HW225722   4.149   4.295   6.560
 8275SOL     OW25723   6.451   0.194   4.721
 8275SOL    HW125724   6.520   0.182   4.792
 8275SOL    HW225725   6.481   0.264   4.657
 8276SOL     OW25726   6.594   2.598   5.963
 8276SOL    HW125727   6.578   2.696   5.971
 8276SOL    HW225728   6.517   2.548   6.002
 8277SOL     OW25729   2.486   5.547   5.447
 8277SOL    HW125730   2.530   5.561   5.536
 8277SOL    HW225731   2.477   5.635   5.401
 8278SOL     OW25732   3.298   1.204   6.377
 8278SOL    HW125733   3.258   1.198   6.285
 8278SOL    HW225734   3.385   1.252   6.372
 8279SOL     OW25735   5.363   5.586   6.949
 8279SOL    HW125736   5.282   5.606   6.894
 8279SOL    HW225737   5.441   5.572   6.889
 8280SOL     OW25738   4.430   2.538   6.984
 8280SOL    HW125739   4.432   2.438   6.980
 8280SOL    HW225740   4.484   2.576   6.909
 8281SOL     OW25741   2.032   4.280   0.572
 8281SOL    HW125742   1.974   4.249   0.648
 8281SOL    HW225743   2.119   4.313   0.608
 8282SOL     OW25744   3.066   2.166   1.048
 8282SOL    HW125745   3.093   2.245   0.993
 8282SOL    HW225746   2.971   2.176   1.077
 8283SOL     OW25747   0.696   5.233   3.867
 8283SOL    HW125748   0.625   5.224   3.798
 8283SOL    HW225749   0.776   5.180   3.839
 8284SOL     OW25750   1.973   2.616   2.554
 8284SOL    HW125751   2.057   2.664   2.529
 8284SOL    HW225752   1.914   2.609   2.473
 8285SOL     OW25753   3.240   3.735   5.754
 8285SOL    HW125754   3.325   3.759   5.800
 8285SOL    HW225755   3.163   3.779   5.800
 8286SOL     OW25756   5.531   1.218   4.476
 8286SOL    HW125757   5.564   1.274   4.552
 8286SOL    HW225758   5.603   1.157   4.445
 8287SOL     OW25759   1.486   6.939   4.511
 8287SOL    HW125760   1.407   6.999   4.522
 8287SOL    HW225761   1.486   6.900   4.419
 8288SOL     OW25762   1.934   2.272   2.236
 8288SOL    HW125763   1.939   2.339   2.310
 8288SOL    HW225764   1.947   2.180   2.273
 8289SOL     OW25765   6.140   0.781   5.783
 8289SOL    HW125766   6.219   0.738   5.826
 8289SOL    HW225767   6.076   0.812   5.853
 8290SOL     OW25768   4.119   3.349   1.594
 8290SOL    HW125769   4.042   3.341   1.531
 8290SOL    HW225770   4.116   3.274   1.659
 8291SOL     OW25771   5.813   6.640   6.372
 8291SOL    HW125772   5.830   6.554   6.421
 8291SOL    HW225773   5.717   6.665   6.382
 8292SOL     OW25774   2.086   5.068   5.603
 8292SOL    HW125775   2.178   5.094   5.631
 8292SOL    HW225776   2.020   5.131   5.642
 8293SOL     OW25777   2.108   4.533   2.102
 8293SOL    HW125778   2.069   4.576   2.183
 8293SOL    HW225779   2.051   4.555   2.022
 8294SOL     OW25780   6.625   3.539   5.780
 8294SOL    HW125781   6.530   3.519   5.757
 8294SOL    HW225782   6.631   3.632   5.817
 8295SOL     OW25783   4.918   4.009   2.962
 8295SOL    HW125784   4.835   4.015   3.017
 8295SOL    HW225785   4.918   3.923   2.911
 8296SOL     OW25786   3.667   5.707   0.046
 8296SOL    HW125787   3.686   5.662   6.980
 8296SOL    HW225788   3.612   5.790   0.030
 8297SOL     OW25789   5.982   3.931   1.610
 8297SOL    HW125790   5.975   3.857   1.677
 8297SOL    HW225791   5.967   4.018   1.656
 8298SOL     OW25792   0.650   1.015   6.213
 8298SOL    HW125793   0.627   1.090   6.274
 8298SOL    HW225794   0.571   0.993   6.156
 8299SOL     OW25795   0.250   3.904   1.319
 8299SOL    HW125796   0.202   3.838   1.261
 8299SOL    HW225797   0.221   3.892   1.414
 8300SOL     OW25798   6.030   5.709   4.271
 8300SOL    HW125799   5.966   5.688   4.197
 8300SOL    HW225800   5.980   5.738   4.352
 8301SOL     OW25801   4.197   0.187   6.904
 8301SOL    HW125802   4.175   0.284   6.893
 8301SOL    HW225803   4.272   0.163   6.842
 8302SOL     OW25804   3.139   6.747   5.260
 8302SOL    HW125805   3.074   6.771   5.187
 8302SOL    HW225806   3.101   6.773   5.349
 8303SOL     OW25807   7.014   0.286   2.630
 8303SOL    HW125808   6.980   0.193   2.617
 8303SOL    HW225809   6.946   0.339   2.680
 8304SOL     OW25810   5.628   4.161   3.053
 8304SOL    HW125811   5.674   4.177   3.141
 8304SOL    HW225812   5.618   4.247   3.004
 8305SOL     OW25813   4.593   5.331   4.128
 8305SOL    HW125814   4.556   5.260   4.187
 8305SOL    HW225815   4.563   5.421   4.161
 8306SOL     OW25816   6.331   1.069   2.455
 8306SOL    HW125817   6.422   1.106   2.437
 8306SOL    HW225818   6.278   1.067   2.370
 8307SOL     OW25819   1.463   5.207   1.071
 8307SOL    HW125820   1.464   5.134   1.139
 8307SOL    HW225821   1.380   5.200   1.016
 8308SOL     OW25822   1.602   4.114   0.147
 8308SOL    HW125823   1.695   4.130   0.180
 8308SOL    HW225824   1.591   4.152   0.055
 8309SOL     OW25825   6.656   4.931   4.694
 8309SOL    HW125826   6.593   5.008   4.702
 8309SOL    HW225827   6.745   4.957   4.730
 8310SOL     OW25828   0.936   6.318   1.169
 8310SOL    HW125829   0.947   6.289   1.265
 8310SOL    HW225830   0.920   6.416   1.166
 8311SOL     OW25831   5.460   0.136   4.464
 8311SOL    HW125832   5.530   0.136   4.392
 8311SOL    HW225833   5.477   0.061   4.527
 8312SOL     OW25834   5.688   0.171   0.350
 8312SOL    HW125835   5.600   0.134   0.380
 8312SOL    HW225836   5.673   0.251   0.292
 8313SOL     OW25837   3.913   0.231   5.434
 8313SOL    HW125838   3.926   0.136   5.409
 8313SOL    HW225839   3.840   0.271   5.378
 8314SOL     OW25840   5.557   6.358   6.676
 8314SOL    HW125841   5.514   6.409   6.751
 8314SOL    HW225842   5.569   6.262   6.704
 8315SOL     OW25843   3.741   3.724   3.723
 8315SOL    HW125844   3.694   3.757   3.641
 8315SOL    HW225845   3.697   3.641   3.756
 8316SOL     OW25846   0.852   3.596   6.519
 8316SOL    HW125847   0.855   3.674   6.582
 8316SOL    HW225848   0.763   3.552   6.525
 8317SOL     OW25849   2.238   2.111   4.760
 8317SOL    HW125850   2.252   2.114   4.859
 8317SOL    HW225851   2.194   2.196   4.730
 8318SOL     OW25852   4.483   1.223   6.028
 8318SOL    HW125853   4.429   1.146   6.062
 8318SOL    HW225854   4.448   1.250   5.938
 8319SOL     OW25855   1.063   0.435   6.105
 8319SOL    HW125856   1.132   0.504   6.085
 8319SOL    HW225857   1.057   0.422   6.204
 8320SOL     OW25858   3.496   4.126   3.726
 8320SOL    HW125859   3.576   4.069   3.744
 8320SOL    HW225860   3.479   4.185   3.805
 8321SOL     OW25861   0.018   0.513   6.363
 8321SOL    HW125862   0.064   0.577   6.301
 8321SOL    HW225863   0.060   0.423   6.356
 8322SOL     OW25864   7.001   1.274   0.455
 8322SOL    HW125865   0.013   1.360   0.493
 8322SOL    HW225866   0.007   1.199   0.515
 8323SOL     OW25867   4.796   4.611   1.303
 8323SOL    HW125868   4.760   4.518   1.288
 8323SOL    HW225869   4.886   4.618   1.260
 8324SOL     OW25870   5.848   0.517   0.092
 8324SOL    HW125871   5.784   0.472   0.154
 8324SOL    HW225872   5.936   0.530   0.138
 8325SOL     OW25873   1.335   5.125   5.288
 8325SOL    HW125874   1.351   5.137   5.386
 8325SOL    HW225875   1.354   5.210   5.240
 8326SOL     OW25876   3.292   3.794   0.080
 8326SOL    HW125877   3.233   3.722   0.115
 8326SOL    HW225878   3.383   3.784   0.119
 8327SOL     OW25879   0.579   0.734   5.362
 8327SOL    HW125880   0.629   0.654   5.330
 8327SOL    HW225881   0.484   0.710   5.379
 8328SOL     OW25882   0.951   6.511   5.795
 8328SOL    HW125883   0.920   6.451   5.868
 8328SOL    HW225884   0.889   6.502   5.717
 8329SOL     OW25885   0.913   2.921   5.370
 8329SOL    HW125886   0.882   2.828   5.348
 8329SOL    HW225887   0.858   2.957   5.445
 8330SOL     OW25888   3.827   1.053   6.312
 8330SOL    HW125889   3.787   1.032   6.222
 8330SOL    HW225890   3.754   1.063   6.379
 8331SOL     OW25891   2.683   2.042   0.493
 8331SOL    HW125892   2.776   2.010   0.473
 8331SOL    HW225893   2.680   2.142   0.485
 8332SOL     OW25894   5.357   5.387   2.173
 8332SOL    HW125895   5.288   5.346   2.232
 8332SOL    HW225896   5.339   5.361   2.078
 8333SOL     OW25897   1.715   5.240   0.759
 8333SOL    HW125898   1.662   5.322   0.781
 8333SOL    HW225899   1.663   5.183   0.694
 8334SOL     OW25900   3.137   1.487   6.406
 8334SOL    HW125901   3.040   1.512   6.400
 8334SOL    HW225902   3.146   1.394   6.440
 8335SOL     OW25903   4.266   2.556   6.639
 8335SOL    HW125904   4.299   2.621   6.707
 8335SOL    HW225905   4.267   2.464   6.678
 8336SOL     OW25906   1.494   4.001   2.394
 8336SOL    HW125907   1.456   3.922   2.347
 8336SOL    HW225908   1.594   3.993   2.398
 8337SOL     OW25909   0.841   0.676   5.074
 8337SOL    HW125910   0.789   0.726   5.005
 8337SOL    HW225911   0.923   0.728   5.098
 8338SOL     OW25912   4.070   4.759   2.245
 8338SOL    HW125913   3.994   4.817   2.215
 8338SOL    HW225914   4.130   4.740   2.167
 8339SOL     OW25915   6.933   0.840   0.601
 8339SOL    HW125916   6.969   0.785   0.525
 8339SOL    HW225917   6.858   0.897   0.568
 8340SOL     OW25918   5.230   3.045   0.502
 8340SOL    HW125919   5.155   3.100   0.538
 8340SOL    HW225920   5.315   3.097   0.509
 8341SOL     OW25921   3.132   0.508   6.373
 8341SOL    HW125922   3.142   0.409   6.359
 8341SOL    HW225923   3.202   0.539   6.437
 8342SOL     OW25924   3.479   6.240   0.304
 8342SOL    HW125925   3.418   6.171   0.343
 8342SOL    HW225926   3.448   6.264   0.212
 8343SOL     OW25927   6.784   5.413   3.810
 8343SOL    HW125928   6.825   5.357   3.739
 8343SOL    HW225929   6.684   5.404   3.806
 8344SOL     OW25930   0.206   4.621   3.847
 8344SOL    HW125931   0.288   4.596   3.899
 8344SOL    HW225932   0.156   4.538   3.820
 8345SOL     OW25933   5.443   1.300   3.344
 8345SOL    HW125934   5.453   1.381   3.402
 8345SOL    HW225935   5.499   1.311   3.262
 8346SOL     OW25936   4.105   2.928   6.091
 8346SOL    HW125937   4.025   2.922   6.150
 8346SOL    HW225938   4.092   2.869   6.012
 8347SOL     OW25939   2.160   6.542   6.302
 8347SOL    HW125940   2.203   6.588   6.381
 8347SOL    HW225941   2.065   6.521   6.323
 8348SOL     OW25942   2.878   0.021   1.470
 8348SOL    HW125943   2.935   6.994   1.536
 8348SOL    HW225944   2.919   0.016   1.379
 8349SOL     OW25945   1.059   6.355   1.847
 8349SOL    HW125946   1.131   6.421   1.825
 8349SOL    HW225947   1.059   6.336   1.945
 8350SOL     OW25948   2.874   6.821   6.486
 8350SOL    HW125949   2.836   6.840   6.396
 8350SOL    HW225950   2.955   6.762   6.476
 8351SOL     OW25951   5.832   5.596   3.669
 8351SOL    HW125952   5.773   5.674   3.649
 8351SOL    HW225953   5.925   5.629   3.688
 8352SOL     OW25954   2.782   6.212   2.668
 8352SOL    HW125955   2.704   6.226   2.608
 8352SOL    HW225956   2.773   6.269   2.749
 8353SOL     OW25957   1.499   4.257   1.413
 8353SOL    HW125958   1.462   4.174   1.455
 8353SOL    HW225959   1.529   4.320   1.485
 8354SOL     OW25960   3.481   6.861   4.056
 8354SOL    HW125961   3.546   6.938   4.063
 8354SOL    HW225962   3.477   6.813   4.143
 8355SOL     OW25963   1.237   0.564   6.355
 8355SOL    HW125964   1.316   0.589   6.409
 8355SOL    HW225965   1.158   0.550   6.415
 8356SOL     OW25966   1.429   5.340   1.943
 8356SOL    HW125967   1.351   5.283   1.966
 8356SOL    HW225968   1.509   5.283   1.925
 8357SOL     OW25969   3.546   5.471   6.108
 8357SOL    HW125970   3.622   5.535   6.104
 8357SOL    HW225971   3.515   5.461   6.203
 8358SOL     OW25972   0.976   2.925   5.743
 8358SOL    HW125973   1.044   2.905   5.813
 8358SOL    HW225974   0.892   2.874   5.762
 8359SOL     OW25975   1.980   1.506   4.428
 8359SOL    HW125976   1.984   1.604   4.404
 8359SOL    HW225977   2.073   1.469   4.430
 8360SOL     OW25978   4.822   6.723   0.824
 8360SOL    HW125979   4.731   6.721   0.866
 8360SOL    HW225980   4.863   6.632   0.831
 8361SOL     OW25981   2.286   6.640   6.517
 8361SOL    HW125982   2.317   6.625   6.610
 8361SOL    HW225983   2.256   6.735   6.506
 8362SOL     OW25984   6.202   2.114   0.448
 8362SOL    HW125985   6.213   2.184   0.377
 8362SOL    HW225986   6.154   2.154   0.526
 8363SOL     OW25987   4.171   1.738   0.368
 8363SOL    HW125988   4.087   1.780   0.336
 8363SOL    HW225989   4.185   1.759   0.465
 8364SOL     OW25990   0.984   2.886   4.002
 8364SOL    HW125991   1.073   2.918   3.968
 8364SOL    HW225992   0.938   2.834   3.931
 8365SOL     OW25993   2.117   2.537   2.984
 8365SOL    HW125994   2.115   2.505   3.078
 8365SOL    HW225995   2.194   2.599   2.971
 8366SOL     OW25996   4.043   5.287   1.363
 8366SOL    HW125997   4.104   5.313   1.438
 8366SOL    HW225998   4.000   5.199   1.384
 8367SOL     OW25999   2.983   5.176   5.160
 8367SOL    HW126000   3.074   5.196   5.197
 8367SOL    HW226001   2.944   5.098   5.210
 8368SOL     OW26002   1.141   6.025   6.989
 8368SOL    HW126003   1.184   5.981   0.046
 8368SOL    HW226004   1.126   6.122   7.009
 8369SOL     OW26005   0.784   1.277   0.962
 8369SOL    HW126006   0.719   1.264   0.887
 8369SOL    HW226007   0.817   1.372   0.961
 8370SOL     OW26008   2.540   1.837   6.681
 8370SOL    HW126009   2.551   1.790   6.594
 8370SOL    HW226010   2.605   1.913   6.686
 8371SOL     OW26011   1.686   3.261   5.941
 8371SOL    HW126012   1.724   3.242   5.851
 8371SOL    HW226013   1.716   3.351   5.972
 8372SOL     OW26014   2.170   6.161   1.772
 8372SOL    HW126015   2.162   6.210   1.859
 8372SOL    HW226016   2.190   6.226   1.699
 8373SOL     OW26017   1.357   1.566   4.650
 8373SOL    HW126018   1.426   1.626   4.691
 8373SOL    HW226019   1.306   1.519   4.722
 8374SOL     OW26020   0.839   0.559   4.510
 8374SOL    HW126021   0.755   0.609   4.492
 8374SOL    HW226022   0.912   0.624   4.532
 8375SOL     OW26023   3.414   0.617   5.685
 8375SOL    HW126024   3.442   0.574   5.771
 8375SOL    HW226025   3.477   0.589   5.612
 8376SOL     OW26026   1.644   1.358   3.886
 8376SOL    HW126027   1.569   1.295   3.907
 8376SOL    HW226028   1.706   1.364   3.963
 8377SOL     OW26029   5.100   5.474   0.537
 8377SOL    HW126030   5.006   5.466   0.504
 8377SOL    HW226031   5.158   5.408   0.489
 8378SOL     OW26032   5.377   5.366   3.076
 8378SOL    HW126033   5.390   5.337   2.982
 8378SOL    HW226034   5.376   5.286   3.136
 8379SOL     OW26035   4.955   2.245   1.176
 8379SOL    HW126036   4.984   2.207   1.264
 8379SOL    HW226037   4.868   2.292   1.188
 8380SOL     OW26038   0.263   6.759   6.915
 8380SOL    HW126039   0.261   6.730   6.819
 8380SOL    HW226040   0.170   6.774   6.948
 8381SOL     OW26041   0.416   2.822   3.417
 8381SOL    HW126042   0.394   2.749   3.352
 8381SOL    HW226043   0.398   2.790   3.510
 8382SOL     OW26044   2.546   0.515   1.017
 8382SOL    HW126045   2.495   0.597   0.993
 8382SOL    HW226046   2.499   0.434   0.981
 8383SOL     OW26047   2.487   0.688   5.216
 8383SOL    HW126048   2.494   0.784   5.243
 8383SOL    HW226049   2.461   0.683   5.119
 8384SOL     OW26050   6.937   1.657   0.943
 8384SOL    HW126051   6.943   1.558   0.936
 8384SOL    HW226052   0.007   1.697   0.929
 8385SOL     OW26053   4.795   3.002   0.594
 8385SOL    HW126054   4.719   2.965   0.541
 8385SOL    HW226055   4.780   2.986   0.691
 8386SOL     OW26056   1.960   5.670   1.111
 8386SOL    HW126057   1.972   5.592   1.050
 8386SOL    HW226058   1.982   5.643   1.205
 8387SOL     OW26059   1.686   1.495   1.642
 8387SOL    HW126060   1.625   1.564   1.681
 8387SOL    HW226061   1.711   1.522   1.549
 8388SOL     OW26062   1.870   0.436   0.924
 8388SOL    HW126063   1.791   0.408   0.978
 8388SOL    HW226064   1.856   0.529   0.890
 8389SOL     OW26065   1.005   3.393   4.193
 8389SOL    HW126066   0.974   3.410   4.286
 8389SOL    HW226067   1.049   3.475   4.156
 8390SOL     OW26068   3.309   0.117   6.492
 8390SOL    HW126069   3.221   0.154   6.463
 8390SOL    HW226070   3.374   0.192   6.507
 8391SOL     OW26071   5.347   5.110   0.659
 8391SOL    HW126072   5.306   5.023   0.688
 8391SOL    HW226073   5.313   5.184   0.717
 8392SOL     OW26074   6.191   5.806   5.346
 8392SOL    HW126075   6.198   5.893   5.395
 8392SOL    HW226076   6.234   5.814   5.257
 8393SOL     OW26077   0.313   0.439   3.816
 8393SOL    HW126078   0.240   0.370   3.810
 8393SOL    HW226079   0.296   0.512   3.750
 8394SOL     OW26080   0.511   1.960   2.431
 8394SOL    HW126081   0.525   2.031   2.501
 8394SOL    HW226082   0.582   1.966   2.362
 8395SOL     OW26083   1.101   6.447   3.755
 8395SOL    HW126084   1.011   6.461   3.714
 8395SOL    HW226085   1.148   6.372   3.708
 8396SOL     OW26086   4.695   4.240   2.409
 8396SOL    HW126087   4.665   4.299   2.335
 8396SOL    HW226088   4.703   4.146   2.375
 8397SOL     OW26089   2.280   0.051   2.659
 8397SOL    HW126090   2.330   0.102   2.588
 8397SOL    HW226091   2.311   6.977   2.659
 8398SOL     OW26092   3.409   1.521   6.999
 8398SOL    HW126093   3.460   1.435   6.994
 8398SOL    HW226094   3.360   1.525   0.065
 8399SOL     OW26095   6.717   6.462   0.057
 8399SOL    HW126096   6.795   6.516   0.091
 8399SOL    HW226097   6.668   6.422   0.134
 8400SOL     OW26098   1.127   0.853   3.379
 8400SOL    HW126099   1.117   0.951   3.363
 8400SOL    HW226100   1.036   0.812   3.394
 8401SOL     OW26101   4.038   3.005   5.741
 8401SOL    HW126102   4.005   3.043   5.655
 8401SOL    HW226103   3.966   2.949   5.782
 8402SOL     OW26104   2.883   1.515   5.470
 8402SOL    HW126105   2.835   1.600   5.492
 8402SOL    HW226106   2.980   1.534   5.457
 8403SOL     OW26107   0.459   1.272   3.257
 8403SOL    HW126108   0.437   1.312   3.346
 8403SOL    HW226109   0.431   1.176   3.256
 8404SOL     OW26110   5.823   6.384   6.482
 8404SOL    HW126111   5.728   6.359   6.463
 8404SOL    HW226112   5.881   6.304   6.468
 8405SOL     OW26113   1.802   1.570   6.731
 8405SOL    HW126114   1.742   1.646   6.707
 8405SOL    HW226115   1.787   1.543   6.826
 8406SOL     OW26116   3.772   0.759   1.252
 8406SOL    HW126117   3.776   0.810   1.166
 8406SOL    HW226118   3.835   0.682   1.249
 8407SOL     OW26119   5.380   5.779   4.362
 8407SOL    HW126120   5.389   5.701   4.300
 8407SOL    HW226121   5.285   5.812   4.360
 8408SOL     OW26122   4.503   1.568   3.309
 8408SOL    HW126123   4.601   1.577   3.290
 8408SOL    HW226124   4.489   1.536   3.403
 8409SOL     OW26125   6.434   2.483   3.712
 8409SOL    HW126126   6.491   2.416   3.666
 8409SOL    HW226127   6.487   2.529   3.783
 8410SOL     OW26128   4.509   0.855   1.945
 8410SOL    HW126129   4.437   0.920   1.922
 8410SOL    HW226130   4.492   0.817   2.036
 8411SOL     OW26131   1.861   5.428   4.138
 8411SOL    HW126132   1.922   5.482   4.197
 8411SOL    HW226133   1.853   5.335   4.174
 8412SOL     OW26134   3.868   1.892   1.358
 8412SOL    HW126135   3.890   1.802   1.319
 8412SOL    HW226136   3.814   1.944   1.293
 8413SOL     OW26137   4.836   4.637   0.188
 8413SOL    HW126138   4.776   4.557   0.176
 8413SOL    HW226139   4.814   4.705   0.118
 8414SOL     OW26140   3.985   0.171   2.045
 8414SOL    HW126141   4.035   0.120   2.115
 8414SOL    HW226142   3.987   0.268   2.067
 8415SOL     OW26143   0.337   5.019   3.986
 8415SOL    HW126144   0.378   5.031   3.896
 8415SOL    HW226145   0.407   5.033   4.056
 8416SOL     OW26146   4.912   5.029   3.362
 8416SOL    HW126147   4.901   4.957   3.430
 8416SOL    HW226148   4.862   5.111   3.390
 8417SOL     OW26149   1.470   5.666   5.451
 8417SOL    HW126150   1.491   5.760   5.477
 8417SOL    HW226151   1.472   5.657   5.352
 8418SOL     OW26152   5.836   5.458   1.341
 8418SOL    HW126153   5.920   5.412   1.372
 8418SOL    HW226154   5.841   5.475   1.243
 8419SOL     OW26155   4.654   1.047   2.173
 8419SOL    HW126156   4.683   0.975   2.109
 8419SOL    HW226157   4.559   1.072   2.154
 8420SOL     OW26158   3.677   6.527   0.880
 8420SOL    HW126159   3.696   6.499   0.786
 8420SOL    HW226160   3.729   6.609   0.901
 8421SOL     OW26161   3.288   6.572   1.192
 8421SOL    HW126162   3.218   6.599   1.258
 8421SOL    HW226163   3.369   6.629   1.203
 8422SOL     OW26164   4.717   6.220   1.497
 8422SOL    HW126165   4.648   6.293   1.492
 8422SOL    HW226166   4.789   6.239   1.430
 8423SOL     OW26167   3.946   3.899   6.221
 8423SOL    HW126168   3.853   3.908   6.258
 8423SOL    HW226169   3.991   3.820   6.263
 8424SOL     OW26170   2.453   2.674   3.085
 8424SOL    HW126171   2.489   2.582   3.104
 8424SOL    HW226172   2.529   2.737   3.072
 8425SOL     OW26173   6.513   5.375   1.109
 8425SOL    HW126174   6.479   5.312   1.040
 8425SOL    HW226175   6.612   5.387   1.097
 8426SOL     OW26176   3.849   2.970   4.358
 8426SOL    HW126177   3.886   3.045   4.414
 8426SOL    HW226178   3.857   2.884   4.409
 8427SOL     OW26179   1.422   4.249   5.833
 8427SOL    HW126180   1.455   4.220   5.923
 8427SOL    HW226181   1.492   4.304   5.787
 8428SOL     OW26182   6.561   4.658   1.912
 8428SOL    HW126183   6.627   4.725   1.946
 8428SOL    HW226184   6.602   4.607   1.836
 8429SOL     OW26185   2.136   4.645   4.377
 8429SOL    HW126186   2.129   4.546   4.366
 8429SOL    HW226187   2.170   4.666   4.469
 8430SOL     OW26188   4.049   5.272   3.173
 8430SOL    HW126189   4.102   5.234   3.097
 8430SOL    HW226190   4.029   5.368   3.154
 8431SOL     OW26191   2.078   5.022   1.530
 8431SOL    HW126192   1.983   5.049   1.512
 8431SOL    HW226193   2.096   4.935   1.482
 8432SOL     OW26194   4.483   5.721   5.666
 8432SOL    HW126195   4.428   5.682   5.592
 8432SOL    HW226196   4.580   5.712   5.643
 8433SOL     OW26197   6.844   2.430   6.291
 8433SOL    HW126198   6.920   2.465   6.237
 8433SOL    HW226199   6.829   2.488   6.370
 8434SOL     OW26200   3.066   0.678   4.652
 8434SOL    HW126201   3.040   0.583   4.665
 8434SOL    HW226202   2.992   0.726   4.604
 8435SOL     OW26203   4.861   1.632   1.320
 8435SOL    HW126204   4.919   1.561   1.360
 8435SOL    HW226205   4.906   1.721   1.329
 8436SOL     OW26206   3.426   6.393   4.228
 8436SOL    HW126207   3.483   6.455   4.173
 8436SOL    HW226208   3.370   6.338   4.166
 8437SOL     OW26209   2.017   0.252   2.503
 8437SOL    HW126210   1.996   0.179   2.568
 8437SOL    HW226211   1.951   0.326   2.515
 8438SOL     OW26212   3.086   4.951   2.434
 8438SOL    HW126213   3.024   4.902   2.495
 8438SOL    HW226214   3.087   4.907   2.344
 8439SOL     OW26215   6.675   5.734   1.583
 8439SOL    HW126216   6.692   5.833   1.585
 8439SOL    HW226217   6.763   5.686   1.585
 8440SOL     OW26218   0.443   0.680   2.808
 8440SOL    HW126219   0.520   0.623   2.835
 8440SOL    HW226220   0.361   0.624   2.797
 8441SOL     OW26221   6.561   6.150   0.316
 8441SOL    HW126222   6.537   6.247   0.316
 8441SOL    HW226223   6.521   6.106   0.397
 8442SOL     OW26224   3.304   3.115   6.087
 8442SOL    HW126225   3.397   3.098   6.053
 8442SOL    HW226226   3.241   3.115   6.009
 8443SOL     OW26227   1.496   6.764   3.015
 8443SOL    HW126228   1.550   6.833   2.967
 8443SOL    HW226229   1.514   6.674   2.975
 8444SOL     OW26230   3.063   6.254   3.647
 8444SOL    HW126231   3.022   6.296   3.727
 8444SOL    HW226232   3.122   6.321   3.601
 8445SOL     OW26233   3.398   5.243   2.013
 8445SOL    HW126234   3.419   5.171   2.079
 8445SOL    HW226235   3.483   5.282   1.977
 8446SOL     OW26236   5.315   5.588   1.366
 8446SOL    HW126237   5.339   5.684   1.378
 8446SOL    HW226238   5.395   5.539   1.330
 8447SOL     OW26239   5.749   2.342   2.133
 8447SOL    HW126240   5.778   2.294   2.216
 8447SOL    HW226241   5.777   2.438   2.138
 8448SOL     OW26242   6.709   3.639   5.534
 8448SOL    HW126243   6.705   3.546   5.496
 8448SOL    HW226244   6.675   3.637   5.628
 8449SOL     OW26245   0.048   2.788   4.412
 8449SOL    HW126246   0.048   2.702   4.360
 8449SOL    HW226247   6.986   2.839   4.391
 8450SOL     OW26248   1.880   6.046   2.245
 8450SOL    HW126249   1.841   6.026   2.155
 8450SOL    HW226250   1.970   6.088   2.234
 8451SOL     OW26251   4.309   3.071   0.158
 8451SOL    HW126252   4.358   3.034   0.079
 8451SOL    HW226253   4.334   3.020   0.240
 8452SOL     OW26254   0.262   0.248   1.349
 8452SOL    HW126255   0.256   0.156   1.388
 8452SOL    HW226256   0.183   0.301   1.377
 8453SOL     OW26257   5.945   4.364   5.971
 8453SOL    HW126258   5.943   4.309   6.054
 8453SOL    HW226259   5.855   4.405   5.955
 8454SOL     OW26260   1.366   5.649   1.525
 8454SOL    HW126261   1.346   5.699   1.609
 8454SOL    HW226262   1.302   5.677   1.453
 8455SOL     OW26263   4.698   2.567   0.568
 8455SOL    HW126264   4.661   2.486   0.523
 8455SOL    HW226265   4.755   2.619   0.503
 8456SOL     OW26266   5.395   4.686   3.413
 8456SOL    HW126267   5.355   4.777   3.405
 8456SOL    HW226268   5.359   4.628   3.340
 8457SOL     OW26269   6.184   6.415   5.746
 8457SOL    HW126270   6.195   6.392   5.843
 8457SOL    HW226271   6.274   6.417   5.702
 8458SOL     OW26272   2.362   1.035   6.835
 8458SOL    HW126273   2.413   1.056   6.752
 8458SOL    HW226274   2.264   1.048   6.818
 8459SOL     OW26275   3.102   6.759   1.403
 8459SOL    HW126276   3.033   6.773   1.474
 8459SOL    HW226277   3.191   6.743   1.445
 8460SOL     OW26278   4.484   1.981   5.580
 8460SOL    HW126279   4.421   1.971   5.657
 8460SOL    HW226280   4.566   2.030   5.611
 8461SOL     OW26281   1.208   4.205   1.905
 8461SOL    HW126282   1.223   4.269   1.830
 8461SOL    HW226283   1.123   4.155   1.889
 8462SOL     OW26284   3.012   2.545   0.290
 8462SOL    HW126285   3.008   2.631   0.238
 8462SOL    HW226286   2.926   2.531   0.338
 8463SOL     OW26287   6.567   1.198   0.490
 8463SOL    HW126288   6.576   1.224   0.394
 8463SOL    HW226289   6.620   1.262   0.547
 8464SOL     OW26290   0.007   4.428   5.065
 8464SOL    HW126291   0.028   4.369   4.987
 8464SOL    HW226292   6.929   4.432   5.078
 8465SOL     OW26293   3.306   2.104   0.550
 8465SOL    HW126294   3.367   2.027   0.565
 8465SOL    HW226295   3.236   2.078   0.483
 8466SOL     OW26296   5.844   6.744   5.039
 8466SOL    HW126297   5.776   6.686   4.994
 8466SOL    HW226298   5.935   6.718   5.006
 8467SOL     OW26299   4.094   1.170   1.043
 8467SOL    HW126300   4.127   1.255   1.085
 8467SOL    HW226301   4.077   1.102   1.115
 8468SOL     OW26302   5.634   3.430   6.875
 8468SOL    HW126303   5.627   3.439   6.974
 8468SOL    HW226304   5.565   3.365   6.842
 8469SOL     OW26305   2.705   1.785   5.479
 8469SOL    HW126306   2.672   1.856   5.541
 8469SOL    HW226307   2.670   1.696   5.508
 8470SOL     OW26308   1.307   4.602   0.238
 8470SOL    HW126309   1.374   4.608   0.312
 8470SOL    HW226310   1.278   4.694   0.211
 8471SOL     OW26311   3.816   0.724   5.936
 8471SOL    HW126312   3.804   0.767   6.025
 8471SOL    HW226313   3.854   0.632   5.948
 8472SOL     OW26314   5.625   0.759   5.065
 8472SOL    HW126315   5.713   0.745   5.021
 8472SOL    HW226316   5.634   0.742   5.163
 8473SOL     OW26317   6.185   5.100   0.438
 8473SOL    HW126318   6.267   5.049   0.465
 8473SOL    HW226319   6.209   5.164   0.365
 8474SOL     OW26320   3.745   3.900   1.726
 8474SOL    HW126321   3.793   3.951   1.797
 8474SOL    HW226322   3.694   3.963   1.668
 8475SOL     OW26323   0.027   2.870   2.718
 8475SOL    HW126324   0.044   2.862   2.816
 8475SOL    HW226325   0.075   2.798   2.669
 8476SOL     OW26326   6.852   1.810   1.352
 8476SOL    HW126327   6.823   1.900   1.319
 8476SOL    HW226328   6.805   1.739   1.300
 8477SOL     OW26329   4.202   6.791   2.604
 8477SOL    HW126330   4.103   6.797   2.591
 8477SOL    HW226331   4.224   6.821   2.697
 8478SOL     OW26332   0.701   0.815   5.734
 8478SOL    HW126333   0.701   0.913   5.754
 8478SOL    HW226334   0.608   0.785   5.712
 8479SOL     OW26335   1.230   3.583   1.010
 8479SOL    HW126336   1.327   3.561   1.017
 8479SOL    HW226337   1.219   3.675   0.973
 8480SOL     OW26338   5.200   3.311   6.954
 8480SOL    HW126339   5.209   3.403   6.991
 8480SOL    HW226340   5.132   3.311   6.881
 8481SOL     OW26341   4.963   2.355   4.804
 8481SOL    HW126342   4.936   2.360   4.707
 8481SOL    HW226343   4.910   2.422   4.856
 8482SOL     OW26344   5.009   0.193   2.179
 8482SOL    HW126345   5.000   0.275   2.122
 8482SOL    HW226346   5.067   0.214   2.258
 8483SOL     OW26347   3.290   5.793   3.503
 8483SOL    HW126348   3.239   5.867   3.460
 8483SOL    HW226349   3.226   5.723   3.534
 8484SOL     OW26350   6.847   6.281   4.500
 8484SOL    HW126351   6.768   6.329   4.462
 8484SOL    HW226352   6.818   6.223   4.576
 8485SOL     OW26353   3.656   2.813   0.307
 8485SOL    HW126354   3.704   2.731   0.274
 8485SOL    HW226355   3.721   2.889   0.312
 8486SOL     OW26356   1.846   0.746   2.941
 8486SOL    HW126357   1.788   0.736   3.022
 8486SOL    HW226358   1.914   0.818   2.957
 8487SOL     OW26359   5.717   2.111   5.956
 8487SOL    HW126360   5.707   2.141   5.861
 8487SOL    HW226361   5.767   2.025   5.958
 8488SOL     OW26362   5.351   6.177   2.352
 8488SOL    HW126363   5.291   6.249   2.316
 8488SOL    HW226364   5.325   6.157   2.447
 8489SOL     OW26365   6.237   1.168   1.576
 8489SOL    HW126366   6.320   1.221   1.593
 8489SOL    HW226367   6.225   1.156   1.477
 8490SOL     OW26368   3.125   6.789   5.560
 8490SOL    HW126369   3.116   6.693   5.587
 8490SOL    HW226370   3.221   6.810   5.544
 8491SOL     OW26371   1.407   6.080   2.440
 8491SOL    HW126372   1.387   6.069   2.537
 8491SOL    HW226373   1.506   6.089   2.427
 8492SOL     OW26374   5.694   4.926   4.372
 8492SOL    HW126375   5.757   4.869   4.321
 8492SOL    HW226376   5.745   4.994   4.425
 8493SOL     OW26377   1.674   2.154   6.815
 8493SOL    HW126378   1.581   2.118   6.802
 8493SOL    HW226379   1.676   2.209   6.899
 8494SOL     OW26380   4.107   5.091   2.176
 8494SOL    HW126381   4.065   5.171   2.219
 8494SOL    HW226382   4.043   5.051   2.111
 8495SOL     OW26383   0.301   5.064   0.923
 8495SOL    HW126384   0.286   5.042   0.827
 8495SOL    HW226385   0.381   5.124   0.931
 8496SOL     OW26386   6.974   1.196   2.683
 8496SOL    HW126387   7.008   1.159   2.769
 8496SOL    HW226388   6.996   1.134   2.609
 8497SOL     OW26389   6.961   1.197   3.272
 8497SOL    HW126390   0.037   1.196   3.296
 8497SOL    HW226391   6.908   1.235   3.348
 8498SOL     OW26392   6.516   6.819   3.226
 8498SOL    HW126393   6.460   6.841   3.147
 8498SOL    HW226394   6.613   6.824   3.201
 8499SOL     OW26395   1.035   3.935   6.979
 8499SOL    HW126396   0.990   3.850   6.953
 8499SOL    HW226397   0.983   4.013   6.945
 8500SOL     OW26398   1.662   6.527   6.147
 8500SOL    HW126399   1.599   6.604   6.137
 8500SOL    HW226400   1.737   6.535   6.082
 8501SOL     OW26401   0.693   2.880   6.379
 8501SOL    HW126402   0.682   2.817   6.455
 8501SOL    HW226403   0.607   2.887   6.328
 8502SOL     OW26404   0.278   3.158   1.672
 8502SOL    HW126405   0.204   3.118   1.617
 8502SOL    HW226406   0.319   3.087   1.729
 8503SOL     OW26407   0.179   5.619   5.150
 8503SOL    HW126408   0.211   5.666   5.067
 8503SOL    HW226409   0.222   5.661   5.230
 8504SOL     OW26410   1.663   5.789   2.247
 8504SOL    HW126411   1.686   5.838   2.164
 8504SOL    HW226412   1.591   5.837   2.296
 8505SOL     OW26413   6.345   3.243   2.863
 8505SOL    HW126414   6.248   3.256   2.842
 8505SOL    HW226415   6.395   3.228   2.778
 8506SOL     OW26416   1.070   1.082   6.633
 8506SOL    HW126417   1.075   1.060   6.731
 8506SOL    HW226418   0.989   1.138   6.615
 8507SOL     OW26419   3.631   6.582   4.766
 8507SOL    HW126420   3.582   6.616   4.846
 8507SOL    HW226421   3.682   6.656   4.724
 8508SOL     OW26422   4.418   1.601   5.602
 8508SOL    HW126423   4.390   1.663   5.529
 8508SOL    HW226424   4.499   1.549   5.573
 8509SOL     OW26425   5.804   0.362   3.190
 8509SOL    HW126426   5.817   0.307   3.107
 8509SOL    HW226427   5.884   0.419   3.205
 8510SOL     OW26428   5.484   4.044   2.560
 8510SOL    HW126429   5.518   3.950   2.557
 8510SOL    HW226430   5.555   4.107   2.528
 8511SOL     OW26431   6.265   2.943   2.766
 8511SOL    HW126432   6.330   2.956   2.691
 8511SOL    HW226433   6.177   2.982   2.742
 8512SOL     OW26434   2.740   0.409   2.677
 8512SOL    HW126435   2.680   0.452   2.610
 8512SOL    HW226436   2.768   0.477   2.745
 8513SOL     OW26437   0.351   5.392   0.886
 8513SOL    HW126438   0.402   5.390   0.801
 8513SOL    HW226439   0.254   5.410   0.866
 8514SOL     OW26440   2.465   0.482   3.590
 8514SOL    HW126441   2.559   0.517   3.593
 8514SOL    HW226442   2.459   0.407   3.524
 8515SOL     OW26443   4.926   2.341   0.727
 8515SOL    HW126444   4.982   2.331   0.810
 8515SOL    HW226445   4.831   2.321   0.749
 8516SOL     OW26446   6.925   2.122   2.356
 8516SOL    HW126447   7.011   2.167   2.381
 8516SOL    HW226448   6.880   2.174   2.284
 8517SOL     OW26449   0.718   3.048   5.552
 8517SOL    HW126450   0.720   3.146   5.568
 8517SOL    HW226451   0.702   3.000   5.638
 8518SOL     OW26452   4.481   4.179   6.980
 8518SOL    HW126453   4.417   4.256   6.983
 8518SOL    HW226454   4.543   4.190   6.903
 8519SOL     OW26455   1.962   5.487   2.219
 8519SOL    HW126456   1.867   5.482   2.189
 8519SOL    HW226457   2.003   5.573   2.186
 8520SOL     OW26458   3.943   1.097   0.330
 8520SOL    HW126459   4.037   1.127   0.347
 8520SOL    HW226460   3.882   1.140   0.397
 8521SOL     OW26461   1.869   5.766   5.712
 8521SOL    HW126462   1.795   5.755   5.778
 8521SOL    HW226463   1.941   5.699   5.730
 8522SOL     OW26464   1.191   5.440   2.445
 8522SOL    HW126465   1.282   5.480   2.433
 8522SOL    HW226466   1.166   5.443   2.542
 8523SOL     OW26467   2.786   6.399   6.460
 8523SOL    HW126468   2.710   6.464   6.459
 8523SOL    HW226469   2.828   6.396   6.369
 8524SOL     OW26470   1.416   2.808   4.644
 8524SOL    HW126471   1.382   2.747   4.716
 8524SOL    HW226472   1.494   2.765   4.598
 8525SOL     OW26473   6.000   3.922   3.615
 8525SOL    HW126474   6.063   3.996   3.636
 8525SOL    HW226475   6.012   3.848   3.682
 8526SOL     OW26476   2.637   4.036   1.165
 8526SOL    HW126477   2.538   4.032   1.151
 8526SOL    HW226478   2.682   4.069   1.081
 8527SOL     OW26479   3.550   6.949   4.818
 8527SOL    HW126480   3.488   0.006   4.826
 8527SOL    HW226481   3.534   6.903   4.731
 8528SOL     OW26482   5.362   3.272   6.192
 8528SOL    HW126483   5.306   3.205   6.239
 8528SOL    HW226484   5.355   3.258   6.093
 8529SOL     OW26485   1.106   0.314   0.019
 8529SOL    HW126486   1.024   0.360   0.054
 8529SOL    HW226487   1.145   0.257   0.091
 8530SOL     OW26488   1.153   5.130   6.068
 8530SOL    HW126489   1.110   5.117   6.157
 8530SOL    HW226490   1.189   5.043   6.035
 8531SOL     OW26491   5.584   4.381   2.880
 8531SOL    HW126492   5.500   4.437   2.880
 8531SOL    HW226493   5.659   4.434   2.840
 8532SOL     OW26494   4.322   4.733   4.914
 8532SOL    HW126495   4.394   4.789   4.956
 8532SOL    HW226496   4.336   4.637   4.939
 8533SOL     OW26497   1.782   0.806   5.307
 8533SOL    HW126498   1.781   0.720   5.358
 8533SOL    HW226499   1.833   0.794   5.222
 8534SOL     OW26500   0.384   4.162   3.339
 8534SOL    HW126501   0.437   4.198   3.416
 8534SOL    HW226502   0.328   4.085   3.370
 8535SOL     OW26503   0.749   2.161   4.927
 8535SOL    HW126504   0.654   2.135   4.946
 8535SOL    HW226505   0.751   2.220   4.846
 8536SOL     OW26506   6.405   2.347   4.982
 8536SOL    HW126507   6.392   2.440   4.949
 8536SOL    HW226508   6.331   2.323   5.045
 8537SOL     OW26509   6.541   1.451   0.938
 8537SOL    HW126510   6.531   1.361   0.981
 8537SOL    HW226511   6.495   1.520   0.994
 8538SOL     OW26512   0.577   0.273   5.181
 8538SOL    HW126513   0.621   0.356   5.217
 8538SOL    HW226514   0.612   0.255   5.089
 8539SOL     OW26515   6.278   2.313   2.440
 8539SOL    HW126516   6.239   2.235   2.489
 8539SOL    HW226517   6.213   2.388   2.437
 8540SOL     OW26518   3.671   1.296   0.225
 8540SOL    HW126519   3.689   1.391   0.250
 8540SOL    HW226520   3.667   1.240   0.307
 8541SOL     OW26521   2.711   2.036   5.135
 8541SOL    HW126522   2.684   2.073   5.046
 8541SOL    HW226523   2.630   2.016   5.189
 8542SOL     OW26524   3.186   4.466   6.762
 8542SOL    HW126525   3.174   4.565   6.777
 8542SOL    HW226526   3.119   4.416   6.818
 8543SOL     OW26527   2.799   1.439   5.205
 8543SOL    HW126528   2.799   1.452   5.304
 8543SOL    HW226529   2.881   1.481   5.166
 8544SOL     OW26530   5.378   3.033   5.161
 8544SOL    HW126531   5.474   3.043   5.186
 8544SOL    HW226532   5.323   3.103   5.207
 8545SOL     OW26533   3.026   6.790   4.779
 8545SOL    HW126534   2.939   6.755   4.743
 8545SOL    HW226535   3.027   6.890   4.770
 8546SOL     OW26536   5.737   0.407   1.272
 8546SOL    HW126537   5.836   0.422   1.270
 8546SOL    HW226538   5.718   0.310   1.259
 8547SOL     OW26539   6.729   0.868   5.401
 8547SOL    HW126540   6.663   0.913   5.341
 8547SOL    HW226541   6.818   0.865   5.355
 8548SOL     OW26542   0.603   2.895   5.352
 8548SOL    HW126543   0.672   2.905   5.279
 8548SOL    HW226544   0.626   2.955   5.428
 8549SOL     OW26545   0.876   2.140   4.272
 8549SOL    HW126546   0.927   2.211   4.223
 8549SOL    HW226547   0.934   2.099   4.341
 8550SOL     OW26548   0.940   3.793   6.343
 8550SOL    HW126549   1.035   3.798   6.374
 8550SOL    HW226550   0.893   3.719   6.390
 8551SOL     OW26551   2.490   2.662   6.904
 8551SOL    HW126552   2.444   2.574   6.893
 8551SOL    HW226553   2.570   2.650   6.964
 8552SOL     OW26554   3.167   0.686   1.891
 8552SOL    HW126555   3.236   0.697   1.818
 8552SOL    HW226556   3.087   0.742   1.869
 8553SOL     OW26557   4.328   4.244   0.447
 8553SOL    HW126558   4.257   4.228   0.378
 8553SOL    HW226559   4.322   4.175   0.519
 8554SOL     OW26560   0.733   6.313   1.708
 8554SOL    HW126561   0.698   6.221   1.687
 8554SOL    HW226562   0.833   6.312   1.700
 8555SOL     OW26563   4.296   1.636   3.118
 8555SOL    HW126564   4.348   1.714   3.152
 8555SOL    HW226565   4.344   1.551   3.141
 8556SOL     OW26566   1.637   6.312   5.636
 8556SOL    HW126567   1.731   6.338   5.659
 8556SOL    HW226568   1.582   6.311   5.720
 8557SOL     OW26569   6.510   1.202   1.060
 8557SOL    HW126570   6.416   1.176   1.035
 8557SOL    HW226571   6.526   1.180   1.156
 8558SOL     OW26572   2.286   5.133   3.063
 8558SOL    HW126573   2.317   5.124   3.158
 8558SOL    HW226574   2.253   5.227   3.049
 8559SOL     OW26575   1.645   6.525   2.909
 8559SOL    HW126576   1.625   6.456   2.840
 8559SOL    HW226577   1.699   6.484   2.983
 8560SOL     OW26578   1.414   5.618   1.984
 8560SOL    HW126579   1.425   5.521   2.007
 8560SOL    HW226580   1.348   5.627   1.909
 8561SOL     OW26581   4.106   0.025   3.550
 8561SOL    HW126582   4.134   0.031   3.646
 8561SOL    HW226583   4.185   0.036   3.491
 8562SOL     OW26584   3.943   0.098   6.843
 8562SOL    HW126585   3.896   0.182   6.815
 8562SOL    HW226586   4.033   0.122   6.881
 8563SOL     OW26587   0.729   5.336   2.300
 8563SOL    HW126588   0.728   5.242   2.264
 8563SOL    HW226589   0.642   5.354   2.346
 8564SOL     OW26590   3.842   6.091   6.057
 8564SOL    HW126591   3.807   6.169   6.004
 8564SOL    HW226592   3.868   6.017   5.995
 8565SOL     OW26593   3.858   5.173   1.653
 8565SOL    HW126594   3.921   5.096   1.659
 8565SOL    HW226595   3.797   5.161   1.575
 8566SOL     OW26596   2.174   0.997   2.407
 8566SOL    HW126597   2.243   1.064   2.378
 8566SOL    HW226598   2.086   1.020   2.365
 8567SOL     OW26599   1.730   2.041   2.106
 8567SOL    HW126600   1.816   2.083   2.134
 8567SOL    HW226601   1.654   2.090   2.148
 8568SOL     OW26602   5.913   1.279   0.790
 8568SOL    HW126603   5.945   1.211   0.724
 8568SOL    HW226604   5.832   1.245   0.837
 8569SOL     OW26605   5.185   1.956   5.841
 8569SOL    HW126606   5.208   1.900   5.762
 8569SOL    HW226607   5.173   1.897   5.921
 8570SOL     OW26608   1.889   1.999   4.282
 8570SOL    HW126609   1.907   2.046   4.368
 8570SOL    HW226610   1.797   2.022   4.250
 8571SOL     OW26611   0.837   0.387   4.717
 8571SOL    HW126612   0.871   0.293   4.704
 8571SOL    HW226613   0.840   0.436   4.630
 8572SOL     OW26614   1.821   4.073   5.736
 8572SOL    HW126615   1.756   4.003   5.709
 8572SOL    HW226616   1.819   4.148   5.670
 8573SOL     OW26617   2.912   5.935   6.514
 8573SOL    HW126618   2.951   5.930   6.606
 8573SOL    HW226619   2.857   5.853   6.497
 8574SOL     OW26620   6.097   6.787   5.953
 8574SOL    HW126621   6.078   6.764   6.048
 8574SOL    HW226622   6.192   6.764   5.931
 8575SOL     OW26623   3.341   0.919   2.642
 8575SOL    HW126624   3.392   0.922   2.556
 8575SOL    HW226625   3.276   0.843   2.639
 8576SOL     OW26626   1.900   4.798   4.262
 8576SOL    HW126627   1.827   4.830   4.321
 8576SOL    HW226628   1.960   4.735   4.312
 8577SOL     OW26629   1.301   0.617   6.071
 8577SOL    HW126630   1.300   0.715   6.049
 8577SOL    HW226631   1.277   0.605   6.167
 8578SOL     OW26632   6.129   5.604   5.996
 8578SOL    HW126633   6.168   5.694   5.979
 8578SOL    HW226634   6.192   5.534   5.960
 8579SOL     OW26635   1.385   6.250   2.235
 8579SOL    HW126636   1.349   6.216   2.322
 8579SOL    HW226637   1.431   6.175   2.187
 8580SOL     OW26638   2.299   5.968   0.934
 8580SOL    HW126639   2.221   5.910   0.910
 8580SOL    HW226640   2.271   6.036   1.001
 8581SOL     OW26641   3.918   4.659   1.560
 8581SOL    HW126642   4.006   4.635   1.599
 8581SOL    HW226643   3.847   4.598   1.596
 8582SOL     OW26644   4.861   4.443   5.417
 8582SOL    HW126645   4.883   4.345   5.419
 8582SOL    HW226646   4.793   4.460   5.346
 8583SOL     OW26647   2.940   6.776   2.766
 8583SOL    HW126648   2.990   6.698   2.804
 8583SOL    HW226649   3.000   6.856   2.765
 8584SOL     OW26650   0.300   0.262   5.214
 8584SOL    HW126651   0.272   0.210   5.294
 8584SOL    HW226652   0.391   0.233   5.184
 8585SOL     OW26653   6.183   1.559   0.927
 8585SOL    HW126654   6.211   1.485   0.866
 8585SOL    HW226655   6.264   1.608   0.959
 8586SOL     OW26656   4.321   6.708   1.521
 8586SOL    HW126657   4.345   6.752   1.608
 8586SOL    HW226658   4.239   6.652   1.533
 8587SOL     OW26659   1.113   1.263   4.839
 8587SOL    HW126660   1.128   1.361   4.851
 8587SOL    HW226661   1.168   1.212   4.905
 8588SOL     OW26662   4.775   1.273   0.211
 8588SOL    HW126663   4.766   1.332   0.291
 8588SOL    HW226664   4.777   1.177   0.240
 8589SOL     OW26665   6.715   2.695   5.262
 8589SOL    HW126666   6.737   2.654   5.350
 8589SOL    HW226667   6.632   2.653   5.225
 8590SOL     OW26668   0.587   0.694   2.346
 8590SOL    HW126669   0.604   0.698   2.247
 8590SOL    HW226670   0.524   0.767   2.373
 8591SOL     OW26671   6.977   4.405   0.666
 8591SOL    HW126672   0.013   4.397   0.584
 8591SOL    HW226673   7.002   4.332   0.731
 8592SOL     OW26674   0.124   2.826   6.925
 8592SOL    HW126675   0.168   2.860   7.008
 8592SOL    HW226676   0.127   2.726   6.924
 8593SOL     OW26677   3.287   1.018   6.728
 8593SOL    HW126678   3.265   0.955   6.653
 8593SOL    HW226679   3.384   1.041   6.725
 8594SOL     OW26680   6.121   2.201   6.267
 8594SOL    HW126681   6.166   2.129   6.214
 8594SOL    HW226682   6.085   2.271   6.204
 8595SOL     OW26683   6.324   1.071   3.585
 8595SOL    HW126684   6.298   1.070   3.681
 8595SOL    HW226685   6.302   0.983   3.543
 8596SOL     OW26686   1.359   4.712   3.054
 8596SOL    HW126687   1.416   4.739   3.132
 8596SOL    HW226688   1.396   4.752   2.970
 8597SOL     OW26689   5.645   2.036   1.132
 8597SOL    HW126690   5.653   1.937   1.140
 8597SOL    HW226691   5.688   2.080   1.211
 8598SOL     OW26692   5.012   0.268   5.476
 8598SOL    HW126693   4.929   0.212   5.480
 8598SOL    HW226694   5.049   0.279   5.568
 8599SOL     OW26695   1.248   2.568   4.215
 8599SOL    HW126696   1.323   2.511   4.247
 8599SOL    HW226697   1.232   2.642   4.281
 8600SOL     OW26698   5.475   3.512   0.487
 8600SOL    HW126699   5.488   3.597   0.539
 8600SOL    HW226700   5.407   3.527   0.416
 8601SOL     OW26701   6.801   1.848   3.492
 8601SOL    HW126702   6.832   1.755   3.473
 8601SOL    HW226703   6.749   1.882   3.414
 8602SOL     OW26704   2.684   6.693   2.896
 8602SOL    HW126705   2.702   6.705   2.993
 8602SOL    HW226706   2.769   6.706   2.845
 8603SOL     OW26707   5.460   0.022   6.728
 8603SOL    HW126708   5.382   6.996   6.686
 8603SOL    HW226709   5.427   0.096   6.786
 8604SOL     OW26710   1.018   2.991   6.184
 8604SOL    HW126711   1.060   2.973   6.095
 8604SOL    HW226712   0.981   3.084   6.185
 8605SOL     OW26713   1.101   4.802   3.858
 8605SOL    HW126714   1.068   4.888   3.898
 8605SOL    HW226715   1.094   4.729   3.926
 8606SOL     OW26716   2.819   2.233   0.137
 8606SOL    HW126717   2.744   2.247   0.072
 8606SOL    HW226718   2.904   2.215   0.087
 8607SOL     OW26719   2.366   4.299   6.831
 8607SOL    HW126720   2.398   4.292   6.736
 8607SOL    HW226721   2.347   4.394   6.853
 8608SOL     OW26722   1.977   4.834   2.325
 8608SOL    HW126723   1.923   4.813   2.244
 8608SOL    HW226724   2.033   4.755   2.350
 8609SOL     OW26725   4.950   0.637   4.090
 8609SOL    HW126726   4.883   0.707   4.115
 8609SOL    HW226727   4.965   0.640   3.991
 8610SOL     OW26728   6.757   0.329   3.093
 8610SOL    HW126729   6.726   0.330   2.998
 8610SOL    HW226730   6.695   0.272   3.147
 8611SOL     OW26731   2.969   1.145   4.260
 8611SOL    HW126732   2.955   1.117   4.355
 8611SOL    HW226733   2.886   1.127   4.207
 8612SOL     OW26734   2.735   3.459   1.709
 8612SOL    HW126735   2.805   3.424   1.646
 8612SOL    HW226736   2.647   3.418   1.688
 8613SOL     OW26737   2.918   2.322   1.645
 8613SOL    HW126738   2.935   2.365   1.733
 8613SOL    HW226739   2.859   2.242   1.658
 8614SOL     OW26740   1.687   2.585   3.534
 8614SOL    HW126741   1.602   2.549   3.572
 8614SOL    HW226742   1.763   2.524   3.557
 8615SOL     OW26743   4.837   1.963   5.237
 8615SOL    HW126744   4.852   1.939   5.332
 8615SOL    HW226745   4.825   2.062   5.229
 8616SOL     OW26746   2.613   4.655   1.822
 8616SOL    HW126747   2.685   4.689   1.882
 8616SOL    HW226748   2.638   4.566   1.786
 8617SOL     OW26749   5.836   1.448   3.837
 8617SOL    HW126750   5.814   1.545   3.833
 8617SOL    HW226751   5.813   1.405   3.750
 8618SOL     OW26752   6.249   4.523   1.191
 8618SOL    HW126753   6.228   4.583   1.113
 8618SOL    HW226754   6.251   4.577   1.275
 8619SOL     OW26755   3.674   5.497   3.438
 8619SOL    HW126756   3.616   5.540   3.507
 8619SOL    HW226757   3.690   5.401   3.464
 8620SOL     OW26758   1.950   6.975   4.474
 8620SOL    HW126759   1.938   0.050   4.446
 8620SOL    HW226760   1.890   6.917   4.418
 8621SOL     OW26761   4.947   3.025   2.145
 8621SOL    HW126762   4.901   3.019   2.234
 8621SOL    HW226763   4.879   3.036   2.073
 8622SOL     OW26764   5.260   4.892   1.348
 8622SOL    HW126765   5.279   4.826   1.275
 8622SOL    HW226766   5.342   4.903   1.405
 8623SOL     OW26767   0.519   4.059   5.042
 8623SOL    HW126768   0.447   4.122   5.016
 8623SOL    HW226769   0.599   4.110   5.074
 8624SOL     OW26770   3.635   3.850   5.394
 8624SOL    HW126771   3.629   3.805   5.484
 8624SOL    HW226772   3.589   3.939   5.398
 8625SOL     OW26773   4.272   0.743   5.660
 8625SOL    HW126774   4.326   0.796   5.725
 8625SOL    HW226775   4.279   0.784   5.569
 8626SOL     OW26776   3.915   3.004   6.644
 8626SOL    HW126777   3.890   3.100   6.631
 8626SOL    HW226778   4.008   2.989   6.611
 8627SOL     OW26779   1.947   1.727   2.267
 8627SOL    HW126780   1.953   1.725   2.367
 8627SOL    HW226781   1.995   1.648   2.229
 8628SOL     OW26782   6.451   6.609   6.726
 8628SOL    HW126783   6.522   6.635   6.792
 8628SOL    HW226784   6.369   6.580   6.775
 8629SOL     OW26785   1.615   6.258   5.367
 8629SOL    HW126786   1.566   6.341   5.339
 8629SOL    HW226787   1.614   6.251   5.466
 8630SOL     OW26788   4.917   3.832   4.116
 8630SOL    HW126789   4.874   3.895   4.052
 8630SOL    HW226790   4.907   3.738   4.083
 8631SOL     OW26791   1.581   6.115   6.435
 8631SOL    HW126792   1.493   6.076   6.460
 8631SOL    HW226793   1.575   6.215   6.437
 8632SOL     OW26794   3.929   3.857   5.353
 8632SOL    HW126795   3.830   3.849   5.362
 8632SOL    HW226796   3.952   3.948   5.318
 8633SOL     OW26797   5.754   3.031   5.712
 8633SOL    HW126798   5.718   3.105   5.655
 8633SOL    HW226799   5.752   3.059   5.808
 8634SOL     OW26800   4.807   4.180   0.184
 8634SOL    HW126801   4.790   4.096   0.235
 8634SOL    HW226802   4.896   4.217   0.208
 8635SOL     OW26803   5.451   2.638   0.018
 8635SOL    HW126804   5.446   2.698   6.959
 8635SOL    HW226805   5.408   2.550   7.017
 8636SOL     OW26806   5.017   5.915   1.144
 8636SOL    HW126807   5.010   5.884   1.239
 8636SOL    HW226808   4.926   5.925   1.105
 8637SOL     OW26809   1.699   1.198   6.360
 8637SOL    HW126810   1.632   1.125   6.367
 8637SOL    HW226811   1.718   1.216   6.263
 8638SOL     OW26812   3.957   2.357   5.333
 8638SOL    HW126813   4.002   2.423   5.273
 8638SOL    HW226814   3.859   2.357   5.315
 8639SOL     OW26815   4.424   3.528   6.784
 8639SOL    HW126816   4.361   3.471   6.837
 8639SOL    HW226817   4.373   3.601   6.738
 8640SOL     OW26818   4.147   3.505   0.784
 8640SOL    HW126819   4.218   3.456   0.835
 8640SOL    HW226820   4.064   3.510   0.839
 8641SOL     OW26821   3.937   4.852   4.372
 8641SOL    HW126822   3.845   4.819   4.348
 8641SOL    HW226823   3.943   4.950   4.351
 8642SOL     OW26824   0.884   0.353   3.279
 8642SOL    HW126825   0.971   0.399   3.260
 8642SOL    HW226826   0.857   0.372   3.373
 8643SOL     OW26827   2.326   0.151   0.086
 8643SOL    HW126828   2.228   0.154   0.067
 8643SOL    HW226829   2.344   0.087   0.161
 8644SOL     OW26830   5.991   2.685   6.409
 8644SOL    HW126831   6.040   2.614   6.460
 8644SOL    HW226832   5.904   2.647   6.376
 8645SOL     OW26833   4.300   4.770   1.479
 8645SOL    HW126834   4.298   4.842   1.549
 8645SOL    HW226835   4.387   4.774   1.430
 8646SOL     OW26836   0.720   1.924   6.807
 8646SOL    HW126837   0.812   1.886   6.815
 8646SOL    HW226838   0.686   1.910   6.713
 8647SOL     OW26839   1.975   5.016   6.985
 8647SOL    HW126840   1.997   5.068   0.047
 8647SOL    HW226841   1.927   4.932   7.010
 8648SOL     OW26842   6.092   6.575   0.614
 8648SOL    HW126843   5.996   6.594   0.591
 8648SOL    HW226844   6.142   6.661   0.621
 8649SOL     OW26845   5.724   6.402   0.545
 8649SOL    HW126846   5.703   6.399   0.447
 8649SOL    HW226847   5.699   6.315   0.588
 8650SOL     OW26848   1.544   6.893   4.854
 8650SOL    HW126849   1.450   6.900   4.888
 8650SOL    HW226850   1.550   6.819   4.788
 8651SOL     OW26851   3.755   1.467   0.565
 8651SOL    HW126852   3.661   1.472   0.597
 8651SOL    HW226853   3.780   1.371   0.549
 8652SOL     OW26854   1.149   5.010   3.716
 8652SOL    HW126855   1.239   5.050   3.733
 8652SOL    HW226856   1.139   4.926   3.769
 8653SOL     OW26857   6.397   1.388   6.043
 8653SOL    HW126858   6.383   1.385   6.142
 8653SOL    HW226859   6.461   1.461   6.021
 8654SOL     OW26860   0.249   4.681   1.183
 8654SOL    HW126861   0.212   4.773   1.195
 8654SOL    HW226862   0.336   4.686   1.134
 8655SOL     OW26863   5.560   0.681   4.163
 8655SOL    HW126864   5.568   0.776   4.134
 8655SOL    HW226865   5.599   0.671   4.254
 8656SOL     OW26866   5.421   1.002   1.970
 8656SOL    HW126867   5.329   1.040   1.968
 8656SOL    HW226868   5.432   0.938   1.893
 8657SOL     OW26869   5.950   5.832   6.994
 8657SOL    HW126870   6.037   5.879   6.976
 8657SOL    HW226871   5.968   5.744   0.015
 8658SOL     OW26872   6.284   5.772   0.635
 8658SOL    HW126873   6.334   5.803   0.716
 8658SOL    HW226874   6.267   5.674   0.642
 8659SOL     OW26875   4.599   2.431   2.583
 8659SOL    HW126876   4.548   2.367   2.526
 8659SOL    HW226877   4.694   2.401   2.590
 8660SOL     OW26878   0.430   2.945   2.600
 8660SOL    HW126879   0.465   2.891   2.523
 8660SOL    HW226880   0.475   2.916   2.684
 8661SOL     OW26881   6.020   3.991   1.323
 8661SOL    HW126882   6.006   3.964   1.418
 8661SOL    HW226883   6.118   3.995   1.303
 8662SOL     OW26884   4.109   5.879   2.252
 8662SOL    HW126885   4.028   5.886   2.309
 8662SOL    HW226886   4.191   5.882   2.310
 8663SOL     OW26887   2.700   5.116   2.300
 8663SOL    HW126888   2.729   5.210   2.288
 8663SOL    HW226889   2.766   5.054   2.258
 8664SOL     OW26890   2.425   5.204   2.310
 8664SOL    HW126891   2.412   5.274   2.240
 8664SOL    HW226892   2.512   5.157   2.295
 8665SOL     OW26893   6.269   5.563   4.323
 8665SOL    HW126894   6.215   5.646   4.310
 8665SOL    HW226895   6.250   5.524   4.413
 8666SOL     OW26896   5.160   0.695   4.254
 8666SOL    HW126897   5.083   0.676   4.193
 8666SOL    HW226898   5.215   0.612   4.264
 8667SOL     OW26899   5.205   1.995   3.835
 8667SOL    HW126900   5.249   1.984   3.924
 8667SOL    HW226901   5.212   1.909   3.783
 8668SOL     OW26902   5.328   3.426   4.955
 8668SOL    HW126903   5.403   3.453   4.895
 8668SOL    HW226904   5.326   3.327   4.964
 8669SOL     OW26905   0.618   6.217   6.376
 8669SOL    HW126906   0.628   6.313   6.354
 8669SOL    HW226907   0.600   6.207   6.474
 8670SOL     OW26908   4.878   5.114   5.966
 8670SOL    HW126909   4.907   5.026   5.929
 8670SOL    HW226910   4.805   5.101   6.033
 8671SOL     OW26911   0.292   1.878   2.269
 8671SOL    HW126912   0.216   1.866   2.332
 8671SOL    HW226913   0.370   1.918   2.317
 8672SOL     OW26914   0.612   7.013   3.389
 8672SOL    HW126915   0.655   6.924   3.402
 8672SOL    HW226916   0.599   0.036   3.478
 8673SOL     OW26917   6.617   1.562   0.509
 8673SOL    HW126918   6.606   1.590   0.414
 8673SOL    HW226919   6.694   1.611   0.550
 8674SOL     OW26920   6.688   4.680   2.674
 8674SOL    HW126921   6.591   4.699   2.689
 8674SOL    HW226922   6.719   4.726   2.591
 8675SOL     OW26923   4.344   1.053   5.182
 8675SOL    HW126924   4.396   1.083   5.102
 8675SOL    HW226925   4.387   1.087   5.265
 8676SOL     OW26926   5.200   0.230   1.394
 8676SOL    HW126927   5.210   0.320   1.352
 8676SOL    HW226928   5.185   0.162   1.323
 8677SOL     OW26929   1.812   6.059   6.085
 8677SOL    HW126930   1.739   6.127   6.096
 8677SOL    HW226931   1.858   6.075   5.997
 8678SOL     OW26932   1.249   0.307   0.815
 8678SOL    HW126933   1.227   0.387   0.759
 8678SOL    HW226934   1.196   0.310   0.900
 8679SOL     OW26935   1.897   1.008   3.729
 8679SOL    HW126936   1.957   1.019   3.650
 8679SOL    HW226937   1.913   1.083   3.794
 8680SOL     OW26938   6.117   2.516   6.608
 8680SOL    HW126939   6.092   2.420   6.617
 8680SOL    HW226940   6.216   2.524   6.594
 8681SOL     OW26941   4.655   5.188   1.335
 8681SOL    HW126942   4.634   5.123   1.407
 8681SOL    HW226943   4.697   5.270   1.374
 8682SOL     OW26944   6.824   0.617   1.418
 8682SOL    HW126945   6.776   0.584   1.499
 8682SOL    HW226946   6.757   0.642   1.347
 8683SOL     OW26947   1.696   2.886   4.846
 8683SOL    HW126948   1.668   2.888   4.751
 8683SOL    HW226949   1.678   2.974   4.889
 8684SOL     OW26950   6.736   2.966   4.711
 8684SOL    HW126951   6.835   2.979   4.717
 8684SOL    HW226952   6.690   3.031   4.771
 8685SOL     OW26953   5.710   2.986   6.633
 8685SOL    HW126954   5.804   3.006   6.606
 8685SOL    HW226955   5.703   2.891   6.664
 8686SOL     OW26956   6.330   6.938   2.279
 8686SOL    HW126957   6.255   6.943   2.212
 8686SOL    HW226958   6.303   6.987   2.362
 8687SOL     OW26959   6.029   5.157   2.854
 8687SOL    HW126960   6.062   5.211   2.932
 8687SOL    HW226961   6.105   5.108   2.812
 8688SOL     OW26962   1.380   4.123   6.747
 8688SOL    HW126963   1.353   4.067   6.825
 8688SOL    HW226964   1.478   4.143   6.752
 8689SOL     OW26965   4.224   3.358   6.918
 8689SOL    HW126966   4.201   3.261   6.917
 8689SOL    HW226967   4.242   3.388   7.011
 8690SOL     OW26968   0.973   2.905   2.837
 8690SOL    HW126969   1.041   2.868   2.773
 8690SOL    HW226970   0.882   2.899   2.796
 8691SOL     OW26971   2.819   1.804   5.234
 8691SOL    HW126972   2.825   1.904   5.227
 8691SOL    HW226973   2.783   1.779   5.324
 8692SOL     OW26974   3.659   0.935   4.687
 8692SOL    HW126975   3.674   1.030   4.716
 8692SOL    HW226976   3.746   0.887   4.684
 8693SOL     OW26977   6.216   0.632   6.132
 8693SOL    HW126978   6.293   0.674   6.179
 8693SOL    HW226979   6.151   0.703   6.104
 8694SOL     OW26980   6.218   2.111   4.698
 8694SOL    HW126981   6.311   2.123   4.731
 8694SOL    HW226982   6.177   2.031   4.743
 8695SOL     OW26983   3.982   2.745   5.897
 8695SOL    HW126984   3.925   2.748   5.815
 8695SOL    HW226985   3.964   2.661   5.947
 8696SOL     OW26986   2.805   5.835   5.274
 8696SOL    HW126987   2.795   5.736   5.277
 8696SOL    HW226988   2.719   5.878   5.301
 8697SOL     OW26989   0.377   4.091   6.279
 8697SOL    HW126990   0.338   4.049   6.197
 8697SOL    HW226991   0.312   4.157   6.317
 8698SOL     OW26992   5.060   6.162   5.544
 8698SOL    HW126993   5.069   6.227   5.468
 8698SOL    HW226994   5.140   6.102   5.546
 8699SOL     OW26995   1.732   2.981   6.037
 8699SOL    HW126996   1.701   3.076   6.034
 8699SOL    HW226997   1.737   2.945   5.943
 8700SOL     OW26998   1.299   0.945   5.221
 8700SOL    HW126999   1.278   0.946   5.318
 8700SOL    HW227000   1.389   0.905   5.206
 8701SOL     OW27001   1.735   1.237   0.036
 8701SOL    HW127002   1.659   1.180   0.003
 8701SOL    HW227003   1.817   1.219   7.003
 8702SOL     OW27004   5.287   4.998   2.049
 8702SOL    HW127005   5.272   4.943   1.966
 8702SOL    HW227006   5.243   4.953   2.127
 8703SOL     OW27007   3.168   4.734   6.779
 8703SOL    HW127008   3.159   4.788   6.695
 8703SOL    HW227009   3.083   4.736   6.830
 8704SOL     OW27010   6.247   3.958   3.423
 8704SOL    HW127011   6.253   4.027   3.495
 8704SOL    HW227012   6.187   3.883   3.453
 8705SOL     OW27013   4.322   1.779   6.210
 8705SOL    HW127014   4.341   1.704   6.274
 8705SOL    HW227015   4.271   1.744   6.132
 8706SOL     OW27016   5.121   2.001   6.806
 8706SOL    HW127017   5.092   1.927   6.867
 8706SOL    HW227018   5.121   1.967   6.712
 8707SOL     OW27019   1.235   2.774   4.395
 8707SOL    HW127020   1.246   2.842   4.322
 8707SOL    HW227021   1.299   2.796   4.469
 8708SOL     OW27022   4.098   1.892   3.917
 8708SOL    HW127023   4.105   1.992   3.923
 8708SOL    HW227024   4.065   1.866   3.826
 8709SOL     OW27025   6.645   6.687   6.901
 8709SOL    HW127026   6.703   6.766   6.920
 8709SOL    HW227027   6.674   6.609   6.957
 8710SOL     OW27028   2.032   2.982   3.413
 8710SOL    HW127029   1.955   2.986   3.475
 8710SOL    HW227030   2.004   2.937   3.328
 8711SOL     OW27031   1.555   6.473   2.536
 8711SOL    HW127032   1.643   6.521   2.532
 8711SOL    HW227033   1.570   6.379   2.568
 8712SOL     OW27034   3.410   1.441   4.130
 8712SOL    HW127035   3.314   1.447   4.155
 8712SOL    HW227036   3.457   1.375   4.189
 8713SOL     OW27037   0.070   4.278   1.301
 8713SOL    HW127038   6.992   4.287   1.293
 8713SOL    HW227039   0.107   4.236   1.219
 8714SOL     OW27040   1.057   6.793   6.429
 8714SOL    HW127041   0.958   6.786   6.425
 8714SOL    HW227042   1.098   6.709   6.393
 8715SOL     OW27043   3.893   1.281   0.024
 8715SOL    HW127044   3.880   1.380   0.035
 8715SOL    HW227045   3.835   1.232   0.088
 8716SOL     OW27046   0.615   6.517   1.061
 8716SOL    HW127047   0.537   6.549   1.114
 8716SOL    HW227048   0.619   6.417   1.064
 8717SOL     OW27049   2.287   3.713   6.002
 8717SOL    HW127050   2.292   3.812   6.009
 8717SOL    HW227051   2.361   3.680   5.944
 8718SOL     OW27052   1.969   2.926   6.375
 8718SOL    HW127053   2.008   2.833   6.379
 8718SOL    HW227054   1.890   2.926   6.314
 8719SOL     OW27055   3.967   0.309   0.323
 8719SOL    HW127056   3.965   0.379   0.251
 8719SOL    HW227057   3.910   0.338   0.399
 8720SOL     OW27058   0.169   6.190   6.470
 8720SOL    HW127059   0.134   6.197   6.563
 8720SOL    HW227060   0.217   6.275   6.446
 8721SOL     OW27061   6.277   0.354   0.250
 8721SOL    HW127062   6.368   0.339   0.287
 8721SOL    HW227063   6.236   0.266   0.225
 8722SOL     OW27064   3.755   1.070   6.911
 8722SOL    HW127065   3.818   0.993   6.902
 8722SOL    HW227066   3.808   1.155   6.922
 8723SOL     OW27067   5.413   7.019   2.319
 8723SOL    HW127068   5.476   6.985   2.388
 8723SOL    HW227069   5.331   6.962   2.317
 8724SOL     OW27070   6.109   0.818   4.113
 8724SOL    HW127071   6.037   0.832   4.045
 8724SOL    HW227072   6.199   0.822   4.068
 8725SOL     OW27073   0.949   6.168   5.249
 8725SOL    HW127074   0.917   6.077   5.277
 8725SOL    HW227075   0.900   6.238   5.301
 8726SOL     OW27076   6.724   0.568   0.648
 8726SOL    HW127077   6.744   0.515   0.731
 8726SOL    HW227078   6.651   0.633   0.667
 8727SOL     OW27079   5.733   6.795   6.993
 8727SOL    HW127080   5.802   6.747   6.939
 8727SOL    HW227081   5.715   6.885   6.953
 8728SOL     OW27082   5.266   1.845   2.119
 8728SOL    HW127083   5.285   1.788   2.040
 8728SOL    HW227084   5.304   1.803   2.201
 8729SOL     OW27085   3.049   5.389   5.513
 8729SOL    HW127086   2.960   5.434   5.503
 8729SOL    HW227087   3.090   5.415   5.600
 8730SOL     OW27088   5.081   4.484   3.413
 8730SOL    HW127089   5.069   4.395   3.458
 8730SOL    HW227090   5.084   4.471   3.314
 8731SOL     OW27091   0.773   3.119   3.158
 8731SOL    HW127092   0.857   3.110   3.105
 8731SOL    HW227093   0.722   3.033   3.154
 8732SOL     OW27094   5.886   4.359   2.166
 8732SOL    HW127095   5.915   4.394   2.255
 8732SOL    HW227096   5.841   4.432   2.115
 8733SOL     OW27097   0.764   6.073   0.450
 8733SOL    HW127098   0.687   6.014   0.427
 8733SOL    HW227099   0.769   6.085   0.549
 8734SOL     OW27100   6.642   3.112   2.736
 8734SOL    HW127101   6.720   3.051   2.723
 8734SOL    HW227102   6.668   3.186   2.797
 8735SOL     OW27103   1.023   3.351   5.255
 8735SOL    HW127104   1.052   3.276   5.314
 8735SOL    HW227105   0.924   3.359   5.256
 8736SOL     OW27106   0.393   5.306   2.138
 8736SOL    HW127107   0.394   5.208   2.157
 8736SOL    HW227108   0.376   5.357   2.222
 8737SOL     OW27109   2.543   6.381   6.904
 8737SOL    HW127110   2.632   6.418   6.932
 8737SOL    HW227111   2.497   6.342   6.984
 8738SOL     OW27112   2.393   5.474   3.494
 8738SOL    HW127113   2.294   5.461   3.499
 8738SOL    HW227114   2.417   5.522   3.409
 8739SOL     OW27115   5.345   4.440   5.925
 8739SOL    HW127116   5.365   4.527   5.971
 8739SOL    HW227117   5.277   4.456   5.853
 8740SOL     OW27118   3.661   2.104   2.589
 8740SOL    HW127119   3.576   2.067   2.552
 8740SOL    HW227120   3.699   2.171   2.525
 8741SOL     OW27121   2.451   0.388   2.736
 8741SOL    HW127122   2.397   0.372   2.653
 8741SOL    HW227123   2.512   0.467   2.721
 8742SOL     OW27124   4.121   6.992   1.773
 8742SOL    HW127125   4.209   0.006   1.741
 8742SOL    HW227126   4.136   6.934   1.853
 8743SOL     OW27127   2.093   0.818   1.239
 8743SOL    HW127128   2.096   0.754   1.316
 8743SOL    HW227129   2.118   0.910   1.270
 8744SOL     OW27130   4.411   2.901   0.512
 8744SOL    HW127131   4.475   2.947   0.451
 8744SOL    HW227132   4.387   2.811   0.473
 8745SOL     OW27133   6.532   2.225   6.421
 8745SOL    HW127134   6.490   2.151   6.473
 8745SOL    HW227135   6.604   2.268   6.476
 8746SOL     OW27136   4.965   5.822   4.869
 8746SOL    HW127137   4.976   5.878   4.952
 8746SOL    HW227138   4.868   5.822   4.843
 8747SOL     OW27139   0.428   0.910   2.434
 8747SOL    HW127140   0.437   1.009   2.422
 8747SOL    HW227141   0.338   0.889   2.470
 8748SOL     OW27142   0.817   2.090   4.575
 8748SOL    HW127143   0.762   2.163   4.615
 8748SOL    HW227144   0.767   2.004   4.581
 8749SOL     OW27145   1.843   1.069   5.339
 8749SOL    HW127146   1.791   1.111   5.264
 8749SOL    HW227147   1.819   0.972   5.344
 8750SOL     OW27148   3.836   3.659   5.554
 8750SOL    HW127149   3.830   3.582   5.618
 8750SOL    HW227150   3.887   3.733   5.596
 8751SOL     OW27151   0.019   1.025   1.665
 8751SOL    HW127152   0.097   1.053   1.721
 8751SOL    HW227153   0.050   0.963   1.593
 8752SOL     OW27154   4.285   2.912   6.295
 8752SOL    HW127155   4.316   2.820   6.273
 8752SOL    HW227156   4.227   2.946   6.221
 8753SOL     OW27157   2.268   3.210   6.906
 8753SOL    HW127158   2.197   3.268   6.867
 8753SOL    HW227159   2.267   3.122   6.860
 8754SOL     OW27160   3.129   4.578   5.739
 8754SOL    HW127161   3.095   4.639   5.668
 8754SOL    HW227162   3.119   4.483   5.708
 8755SOL     OW27163   2.210   1.332   1.333
 8755SOL    HW127164   2.199   1.414   1.389
 8755SOL    HW227165   2.296   1.336   1.282
 8756SOL     OW27166   1.529   2.837   3.469
 8756SOL    HW127167   1.622   2.801   3.469
 8756SOL    HW227168   1.485   2.817   3.382
 8757SOL     OW27169   5.063   5.857   6.405
 8757SOL    HW127170   5.138   5.916   6.436
 8757SOL    HW227171   4.983   5.914   6.384
 8758SOL     OW27172   4.861   6.433   3.595
 8758SOL    HW127173   4.781   6.376   3.611
 8758SOL    HW227174   4.877   6.442   3.497
 8759SOL     OW27175   6.101   2.263   6.693
 8759SOL    HW127176   6.181   2.205   6.704
 8759SOL    HW227177   6.041   2.254   6.772
 8760SOL     OW27178   2.532   1.565   4.338
 8760SOL    HW127179   2.540   1.624   4.419
 8760SOL    HW227180   2.575   1.477   4.357
 8761SOL     OW27181   6.196   1.754   1.798
 8761SOL    HW127182   6.266   1.708   1.853
 8761SOL    HW227183   6.144   1.686   1.747
 8762SOL     OW27184   1.049   5.779   4.167
 8762SOL    HW127185   1.129   5.788   4.108
 8762SOL    HW227186   0.987   5.855   4.151
 8763SOL     OW27187   5.567   0.332   5.281
 8763SOL    HW127188   5.498   0.342   5.210
 8763SOL    HW227189   5.655   0.311   5.239
 8764SOL     OW27190   4.657   5.993   5.944
 8764SOL    HW127191   4.629   6.025   5.854
 8764SOL    HW227192   4.718   6.060   5.986
 8765SOL     OW27193   5.679   1.397   4.639
 8765SOL    HW127194   5.678   1.438   4.730
 8765SOL    HW227195   5.771   1.364   4.618
 8766SOL     OW27196   4.143   4.112   5.276
 8766SOL    HW127197   4.194   4.198   5.279
 8766SOL    HW227198   4.059   4.125   5.224
 8767SOL     OW27199   4.207   6.984   3.191
 8767SOL    HW127200   4.241   6.907   3.137
 8767SOL    HW227201   4.109   6.995   3.174
 8768SOL     OW27202   1.278   2.182   0.954
 8768SOL    HW127203   1.253   2.185   0.858
 8768SOL    HW227204   1.365   2.132   0.965
 8769SOL     OW27205   0.152   1.465   1.613
 8769SOL    HW127206   0.188   1.516   1.535
 8769SOL    HW227207   0.145   1.525   1.692
 8770SOL     OW27208   5.229   4.601   2.346
 8770SOL    HW127209   5.299   4.539   2.381
 8770SOL    HW227210   5.152   4.604   2.410
 8771SOL     OW27211   0.250   2.712   6.262
 8771SOL    HW127212   0.219   2.680   6.352
 8771SOL    HW227213   0.347   2.737   6.267
 8772SOL     OW27214   4.653   0.655   5.855
 8772SOL    HW127215   4.608   0.592   5.792
 8772SOL    HW227216   4.751   0.634   5.859
 8773SOL     OW27217   5.511   2.760   3.023
 8773SOL    HW127218   5.539   2.803   2.937
 8773SOL    HW227219   5.587   2.710   3.062
 8774SOL     OW27220   0.514   0.348   0.313
 8774SOL    HW127221   0.561   0.335   0.226
 8774SOL    HW227222   0.415   0.342   0.298
 8775SOL     OW27223   5.018   1.104   5.316
 8775SOL    HW127224   5.025   1.051   5.401
 8775SOL    HW227225   5.101   1.092   5.262
 8776SOL     OW27226   5.131   3.252   1.665
 8776SOL    HW127227   5.120   3.161   1.627
 8776SOL    HW227228   5.204   3.251   1.734
 8777SOL     OW27229   0.208   3.432   3.707
 8777SOL    HW127230   0.256   3.371   3.644
 8777SOL    HW227231   0.254   3.432   3.796
 8778SOL     OW27232   5.187   3.369   5.688
 8778SOL    HW127233   5.159   3.282   5.730
 8778SOL    HW227234   5.162   3.444   5.749
 8779SOL     OW27235   2.765   5.422   2.810
 8779SOL    HW127236   2.814   5.358   2.751
 8779SOL    HW227237   2.720   5.372   2.883
 8780SOL     OW27238   0.441   6.648   3.507
 8780SOL    HW127239   0.436   6.568   3.568
 8780SOL    HW227240   0.363   6.647   3.444
 8781SOL     OW27241   4.596   0.057   3.491
 8781SOL    HW127242   4.602   0.151   3.526
 8781SOL    HW227243   4.507   0.043   3.448
 8782SOL     OW27244   5.816   1.603   1.844
 8782SOL    HW127245   5.865   1.527   1.886
 8782SOL    HW227246   5.720   1.601   1.874
 8783SOL     OW27247   6.515   3.932   4.592
 8783SOL    HW127248   6.467   3.856   4.549
 8783SOL    HW227249   6.580   3.897   4.659
 8784SOL     OW27250   6.437   6.056   0.534
 8784SOL    HW127251   6.342   6.031   0.518
 8784SOL    HW227252   6.448   6.087   0.628
 8785SOL     OW27253   6.728   5.135   6.361
 8785SOL    HW127254   6.646   5.095   6.318
 8785SOL    HW227255   6.700   5.191   6.439
 8786SOL     OW27256   3.539   1.502   1.778
 8786SOL    HW127257   3.524   1.601   1.776
 8786SOL    HW227258   3.472   1.459   1.838
 8787SOL     OW27259   3.347   0.669   2.357
 8787SOL    HW127260   3.341   0.609   2.277
 8787SOL    HW227261   3.401   0.625   2.428
 8788SOL     OW27262   6.667   1.488   5.534
 8788SOL    HW127263   6.704   1.401   5.565
 8788SOL    HW227264   6.571   1.476   5.508
 8789SOL     OW27265   6.737   4.288   5.485
 8789SOL    HW127266   6.801   4.245   5.421
 8789SOL    HW227267   6.666   4.223   5.510
 8790SOL     OW27268   6.608   1.126   6.578
 8790SOL    HW127269   6.635   1.137   6.674
 8790SOL    HW227270   6.509   1.142   6.569
 8791SOL     OW27271   4.802   6.466   5.248
 8791SOL    HW127272   4.878   6.512   5.203
 8791SOL    HW227273   4.716   6.499   5.209
 8792SOL     OW27274   3.211   4.869   2.753
 8792SOL    HW127275   3.123   4.862   2.706
 8792SOL    HW227276   3.284   4.882   2.685
 8793SOL     OW27277   0.706   4.927   3.775
 8793SOL    HW127278   0.738   4.877   3.856
 8793SOL    HW227279   0.772   4.914   3.700
 8794SOL     OW27280   6.183   0.847   3.456
 8794SOL    HW127281   6.106   0.787   3.477
 8794SOL    HW227282   6.167   0.891   3.367
 8795SOL     OW27283   1.482   5.262   4.797
 8795SOL    HW127284   1.405   5.199   4.790
 8795SOL    HW227285   1.499   5.283   4.893
 8796SOL     OW27286   5.992   3.430   3.077
 8796SOL    HW127287   5.966   3.380   3.159
 8796SOL    HW227288   6.044   3.512   3.103
 8797SOL     OW27289   6.898   0.163   4.149
 8797SOL    HW127290   6.933   0.111   4.071
 8797SOL    HW227291   6.868   0.100   4.221
 8798SOL     OW27292   4.291   6.085   5.941
 8798SOL    HW127293   4.269   6.026   6.019
 8798SOL    HW227294   4.328   6.171   5.974
 8799SOL     OW27295   2.960   4.849   2.681
 8799SOL    HW127296   2.901   4.929   2.685
 8799SOL    HW227297   2.906   4.767   2.705
 8800SOL     OW27298   6.093   5.010   5.654
 8800SOL    HW127299   6.092   5.049   5.562
 8800SOL    HW227300   6.152   5.065   5.713
 8801SOL     OW27301   6.197   1.729   4.534
 8801SOL    HW127302   6.132   1.734   4.610
 8801SOL    HW227303   6.158   1.775   4.454
 8802SOL     OW27304   1.688   5.494   5.756
 8802SOL    HW127305   1.694   5.511   5.658
 8802SOL    HW227306   1.656   5.576   5.802
 8803SOL     OW27307   6.720   0.536   0.203
 8803SOL    HW127308   6.660   0.607   0.239
 8803SOL    HW227309   6.743   0.556   0.108
 8804SOL     OW27310   2.049   6.254   1.246
 8804SOL    HW127311   2.030   6.328   1.311
 8804SOL    HW227312   2.047   6.166   1.294
 8805SOL     OW27313   3.924   5.329   3.970
 8805SOL    HW127314   3.913   5.392   3.893
 8805SOL    HW227315   4.021   5.311   3.985
 8806SOL     OW27316   2.058   4.879   0.796
 8806SOL    HW127317   2.007   4.947   0.848
 8806SOL    HW227318   2.043   4.788   0.837
 8807SOL     OW27319   4.568   1.438   6.733
 8807SOL    HW127320   4.489   1.400   6.685
 8807SOL    HW227321   4.557   1.537   6.742
 8808SOL     OW27322   0.263   2.209   6.792
 8808SOL    HW127323   0.180   2.213   6.736
 8808SOL    HW227324   0.329   2.276   6.760
 8809SOL     OW27325   2.116   4.478   3.514
 8809SOL    HW127326   2.195   4.535   3.539
 8809SOL    HW227327   2.116   4.462   3.415
 8810SOL     OW27328   5.722   1.243   5.261
 8810SOL    HW127329   5.770   1.288   5.337
 8810SOL    HW227330   5.780   1.171   5.224
 8811SOL     OW27331   3.605   0.566   2.989
 8811SOL    HW127332   3.692   0.561   2.941
 8811SOL    HW227333   3.545   0.632   2.944
 8812SOL     OW27334   3.016   0.418   0.332
 8812SOL    HW127335   3.048   0.390   0.241
 8812SOL    HW227336   3.091   0.461   0.382
 8813SOL     OW27337   1.838   4.860   2.907
 8813SOL    HW127338   1.857   4.794   2.834
 8813SOL    HW227339   1.832   4.813   2.995
 8814SOL     OW27340   5.507   6.645   0.766
 8814SOL    HW127341   5.572   6.714   0.798
 8814SOL    HW227342   5.549   6.591   0.693
 8815SOL     OW27343   5.665   0.152   1.208
 8815SOL    HW127344   5.597   0.167   1.280
 8815SOL    HW227345   5.619   0.121   1.125
 8816SOL     OW27346   0.510   0.207   6.880
 8816SOL    HW127347   0.606   0.188   6.862
 8816SOL    HW227348   0.474   0.266   6.807
 8817SOL     OW27349   6.969   3.550   4.295
 8817SOL    HW127350   6.974   3.450   4.287
 8817SOL    HW227351   6.907   3.574   4.369
 8818SOL     OW27352   1.257   6.182   3.673
 8818SOL    HW127353   1.224   6.213   3.584
 8818SOL    HW227354   1.351   6.215   3.687
 8819SOL     OW27355   6.106   4.490   5.390
 8819SOL    HW127356   6.096   4.544   5.474
 8819SOL    HW227357   6.185   4.523   5.338
 8820SOL     OW27358   2.794   1.855   4.664
 8820SOL    HW127359   2.764   1.895   4.578
 8820SOL    HW227360   2.873   1.906   4.698
 8821SOL     OW27361   1.025   5.407   0.606
 8821SOL    HW127362   1.027   5.504   0.627
 8821SOL    HW227363   0.973   5.392   0.522
 8822SOL     OW27364   0.677   0.169   3.200
 8822SOL    HW127365   0.667   0.104   3.275
 8822SOL    HW227366   0.743   0.240   3.226
 8823SOL     OW27367   2.465   0.809   2.385
 8823SOL    HW127368   2.452   0.803   2.484
 8823SOL    HW227369   2.551   0.857   2.366
 8824SOL     OW27370   1.369   0.886   0.903
 8824SOL    HW127371   1.310   0.823   0.952
 8824SOL    HW227372   1.342   0.980   0.924
 8825SOL     OW27373   0.694   0.790   1.474
 8825SOL    HW127374   0.667   0.857   1.543
 8825SOL    HW227375   0.785   0.755   1.496
 8826SOL     OW27376   1.449   3.299   1.123
 8826SOL    HW127377   1.527   3.350   1.085
 8826SOL    HW227378   1.424   3.339   1.211
 8827SOL     OW27379   3.857   0.251   2.860
 8827SOL    HW127380   3.827   0.298   2.777
 8827SOL    HW227381   3.795   0.175   2.879
 8828SOL     OW27382   3.783   4.895   0.106
 8828SOL    HW127383   3.808   4.990   0.124
 8828SOL    HW227384   3.760   4.850   0.192
 8829SOL     OW27385   6.313   2.000   1.683
 8829SOL    HW127386   6.273   2.091   1.685
 8829SOL    HW227387   6.290   1.951   1.767
 8830SOL     OW27388   1.886   1.573   3.301
 8830SOL    HW127389   1.869   1.519   3.384
 8830SOL    HW227390   1.967   1.537   3.255
 8831SOL     OW27391   5.981   2.986   2.765
 8831SOL    HW127392   5.950   3.081   2.772
 8831SOL    HW227393   5.993   2.948   2.856
 8832SOL     OW27394   0.701   6.460   4.436
 8832SOL    HW127395   0.696   6.526   4.511
 8832SOL    HW227396   0.752   6.379   4.465
 8833SOL     OW27397   3.614   3.834   0.108
 8833SOL    HW127398   3.669   3.788   0.038
 8833SOL    HW227399   3.664   3.913   0.143
 8834SOL     OW27400   5.840   3.858   5.019
 8834SOL    HW127401   5.760   3.806   4.990
 8834SOL    HW227402   5.906   3.797   5.063
 8835SOL     OW27403   5.552   1.402   6.678
 8835SOL    HW127404   5.576   1.427   6.772
 8835SOL    HW227405   5.555   1.484   6.620
 8836SOL     OW27406   4.983   2.663   0.131
 8836SOL    HW127407   4.986   2.615   0.043
 8836SOL    HW227408   5.058   2.729   0.136
 8837SOL     OW27409   6.937   6.832   1.699
 8837SOL    HW127410   6.912   6.864   1.790
 8837SOL    HW227411   6.893   6.890   1.630
 8838SOL     OW27412   0.893   4.921   2.497
 8838SOL    HW127413   0.945   4.836   2.510
 8838SOL    HW227414   0.849   4.919   2.407
 8839SOL     OW27415   3.659   5.911   2.496
 8839SOL    HW127416   3.756   5.929   2.480
 8839SOL    HW227417   3.625   5.971   2.568
 8840SOL     OW27418   5.903   0.182   1.923
 8840SOL    HW127419   5.813   0.185   1.968
 8840SOL    HW227420   5.914   0.095   1.876
 8841SOL     OW27421   5.454   1.285   2.595
 8841SOL    HW127422   5.472   1.381   2.615
 8841SOL    HW227423   5.355   1.269   2.594
 8842SOL     OW27424   3.145   3.823   3.649
 8842SOL    HW127425   3.179   3.898   3.706
 8842SOL    HW227426   3.153   3.848   3.552
 8843SOL     OW27427   1.450   3.536   4.276
 8843SOL    HW127428   1.393   3.525   4.357
 8843SOL    HW227429   1.529   3.476   4.283
 8844SOL     OW27430   0.236   1.736   4.721
 8844SOL    HW127431   0.285   1.700   4.642
 8844SOL    HW227432   0.206   1.661   4.779
 8845SOL     OW27433   2.247   4.796   0.061
 8845SOL    HW127434   2.202   4.866   0.116
 8845SOL    HW227435   2.347   4.808   0.067
 8846SOL     OW27436   5.373   4.416   4.432
 8846SOL    HW127437   5.345   4.450   4.521
 8846SOL    HW227438   5.334   4.474   4.360
 8847SOL     OW27439   2.156   1.416   3.574
 8847SOL    HW127440   2.209   1.399   3.658
 8847SOL    HW227441   2.203   1.483   3.518
 8848SOL     OW27442   3.334   1.798   2.044
 8848SOL    HW127443   3.289   1.887   2.045
 8848SOL    HW227444   3.351   1.768   2.138
 8849SOL     OW27445   2.984   4.860   3.699
 8849SOL    HW127446   3.027   4.935   3.748
 8849SOL    HW227447   3.032   4.843   3.613
 8850SOL     OW27448   3.114   1.196   0.863
 8850SOL    HW127449   3.058   1.222   0.784
 8850SOL    HW227450   3.210   1.195   0.836
 8851SOL     OW27451   1.219   4.455   2.071
 8851SOL    HW127452   1.264   4.448   2.160
 8851SOL    HW227453   1.227   4.367   2.023
 8852SOL     OW27454   4.691   3.120   5.856
 8852SOL    HW127455   4.712   3.049   5.789
 8852SOL    HW227456   4.772   3.137   5.913
 8853SOL     OW27457   3.083   0.576   4.121
 8853SOL    HW127458   3.067   0.654   4.059
 8853SOL    HW227459   3.121   0.609   4.207
 8854SOL     OW27460   2.629   0.474   6.253
 8854SOL    HW127461   2.628   0.382   6.214
 8854SOL    HW227462   2.584   0.474   6.342
 8855SOL     OW27463   0.146   6.409   0.335
 8855SOL    HW127464   0.219   6.458   0.382
 8855SOL    HW227465   0.165   6.407   0.236
 8856SOL     OW27466   6.117   0.044   5.655
 8856SOL    HW127467   6.136   0.086   5.567
 8856SOL    HW227468   6.093   0.115   5.722
 8857SOL     OW27469   6.391   2.165   3.913
 8857SOL    HW127470   6.394   2.171   3.814
 8857SOL    HW227471   6.296   2.152   3.943
 8858SOL     OW27472   2.100   3.464   5.766
 8858SOL    HW127473   2.141   3.418   5.845
 8858SOL    HW227474   2.157   3.541   5.738
 8859SOL     OW27475   0.013   6.875   5.496
 8859SOL    HW127476   6.993   6.822   5.422
 8859SOL    HW227477   6.962   6.907   5.558
 8860SOL     OW27478   1.779   4.145   2.875
 8860SOL    HW127479   1.723   4.228   2.877
 8860SOL    HW227480   1.762   4.091   2.957
 8861SOL     OW27481   3.301   2.088   5.761
 8861SOL    HW127482   3.359   2.099   5.841
 8861SOL    HW227483   3.233   2.017   5.778
 8862SOL     OW27484   6.386   1.306   3.499
 8862SOL    HW127485   6.395   1.358   3.584
 8862SOL    HW227486   6.376   1.209   3.521
 8863SOL     OW27487   1.728   5.939   4.621
 8863SOL    HW127488   1.820   5.910   4.650
 8863SOL    HW227489   1.728   5.954   4.522
 8864SOL     OW27490   2.637   3.375   6.433
 8864SOL    HW127491   2.725   3.392   6.476
 8864SOL    HW227492   2.564   3.382   6.502
 8865SOL     OW27493   3.022   1.937   4.807
 8865SOL    HW127494   3.096   1.875   4.833
 8865SOL    HW227495   2.985   1.980   4.889
 8866SOL     OW27496   5.013   6.990   4.053
 8866SOL    HW127497   4.915   7.004   4.038
 8866SOL    HW227498   5.061   6.986   3.966
 8867SOL     OW27499   5.259   3.148   2.882
 8867SOL    HW127500   5.168   3.185   2.864
 8867SOL    HW227501   5.268   3.126   2.979
 8868SOL     OW27502   5.995   3.607   0.800
 8868SOL    HW127503   6.058   3.621   0.877
 8868SOL    HW227504   5.917   3.668   0.809
 8869SOL     OW27505   4.513   5.789   3.321
 8869SOL    HW127506   4.500   5.692   3.343
 8869SOL    HW227507   4.571   5.797   3.240
 8870SOL     OW27508   3.975   6.853   0.163
 8870SOL    HW127509   3.913   6.835   0.086
 8870SOL    HW227510   3.976   6.950   0.183
 8871SOL     OW27511   3.317   0.927   3.742
 8871SOL    HW127512   3.320   0.827   3.735
 8871SOL    HW227513   3.356   0.955   3.830
 8872SOL     OW27514   1.627   4.200   4.702
 8872SOL    HW127515   1.658   4.115   4.661
 8872SOL    HW227516   1.658   4.205   4.797
 8873SOL     OW27517   6.451   6.091   1.910
 8873SOL    HW127518   6.544   6.074   1.941
 8873SOL    HW227519   6.409   6.004   1.881
 8874SOL     OW27520   2.254   6.355   0.891
 8874SOL    HW127521   2.341   6.381   0.933
 8874SOL    HW227522   2.268   6.337   0.793
 8875SOL     OW27523   1.030   3.006   5.062
 8875SOL    HW127524   0.999   2.953   5.141
 8875SOL    HW227525   1.026   2.950   4.980
 8876SOL     OW27526   0.874   0.129   4.694
 8876SOL    HW127527   0.904   0.079   4.775
 8876SOL    HW227528   0.914   0.086   4.612
 8877SOL     OW27529   3.245   0.759   4.855
 8877SOL    HW127530   3.195   0.727   4.775
 8877SOL    HW227531   3.339   0.780   4.829
 8878SOL     OW27532   0.596   5.425   0.592
 8878SOL    HW127533   0.577   5.489   0.667
 8878SOL    HW227534   0.509   5.388   0.558
 8879SOL     OW27535   5.922   4.816   1.065
 8879SOL    HW127536   5.846   4.867   1.105
 8879SOL    HW227537   5.983   4.785   1.138
 8880SOL     OW27538   0.147   5.648   4.385
 8880SOL    HW127539   0.087   5.725   4.403
 8880SOL    HW227540   0.182   5.654   4.292
 8881SOL     OW27541   5.989   0.018   4.181
 8881SOL    HW127542   6.064   6.985   4.219
 8881SOL    HW227543   5.940   0.065   4.254
 8882SOL     OW27544   4.930   1.890   0.650
 8882SOL    HW127545   4.956   1.933   0.737
 8882SOL    HW227546   4.907   1.794   0.666
 8883SOL     OW27547   0.940   0.727   5.623
 8883SOL    HW127548   0.869   0.773   5.676
 8883SOL    HW227549   0.987   0.793   5.565
 8884SOL     OW27550   5.622   5.865   6.176
 8884SOL    HW127551   5.545   5.838   6.234
 8884SOL    HW227552   5.656   5.786   6.126
 8885SOL     OW27553   6.694   3.667   1.433
 8885SOL    HW127554   6.639   3.724   1.494
 8885SOL    HW227555   6.788   3.702   1.429
 8886SOL     OW27556   3.372   6.743   5.431
 8886SOL    HW127557   3.360   6.698   5.343
 8886SOL    HW227558   3.470   6.742   5.455
 8887SOL     OW27559   3.105   1.104   1.105
 8887SOL    HW127560   3.077   1.147   1.019
 8887SOL    HW227561   3.200   1.072   1.097
 8888SOL     OW27562   1.231   1.856   1.067
 8888SOL    HW127563   1.136   1.849   1.095
 8888SOL    HW227564   1.242   1.816   0.976
 8889SOL     OW27565   5.401   6.520   5.506
 8889SOL    HW127566   5.382   6.448   5.572
 8889SOL    HW227567   5.349   6.602   5.530
 8890SOL     OW27568   6.473   6.008   4.177
 8890SOL    HW127569   6.506   5.946   4.106
 8890SOL    HW227570   6.388   6.051   4.148
 8891SOL     OW27571   6.077   3.096   6.027
 8891SOL    HW127572   6.070   3.195   6.014
 8891SOL    HW227573   6.104   3.053   5.941
 8892SOL     OW27574   3.453   5.996   3.577
 8892SOL    HW127575   3.396   5.918   3.552
 8892SOL    HW227576   3.413   6.080   3.539
 8893SOL     OW27577   1.030   0.628   1.993
 8893SOL    HW127578   1.096   0.672   2.053
 8893SOL    HW227579   1.014   0.686   1.913
 8894SOL     OW27580   3.814   2.697   5.663
 8894SOL    HW127581   3.720   2.730   5.655
 8894SOL    HW227582   3.859   2.701   5.574
 8895SOL     OW27583   6.659   1.592   1.708
 8895SOL    HW127584   6.651   1.648   1.791
 8895SOL    HW227585   6.655   1.495   1.734
 8896SOL     OW27586   1.833   3.276   4.624
 8896SOL    HW127587   1.921   3.249   4.661
 8896SOL    HW227588   1.811   3.369   4.654
 8897SOL     OW27589   2.114   1.646   3.065
 8897SOL    HW127590   2.099   1.677   2.971
 8897SOL    HW227591   2.199   1.686   3.100
 8898SOL     OW27592   6.216   3.177   4.623
 8898SOL    HW127593   6.239   3.193   4.719
 8898SOL    HW227594   6.252   3.251   4.567
 8899SOL     OW27595   1.546   4.775   0.324
 8899SOL    HW127596   1.561   4.799   0.228
 8899SOL    HW227597   1.619   4.712   0.353
 8900SOL     OW27598   5.620   3.639   2.927
 8900SOL    HW127599   5.632   3.663   3.023
 8900SOL    HW227600   5.543   3.690   2.889
 8901SOL     OW27601   2.520   0.936   4.129
 8901SOL    HW127602   2.474   0.986   4.055
 8901SOL    HW227603   2.456   0.921   4.204
 8902SOL     OW27604   3.146   6.091   6.996
 8902SOL    HW127605   3.195   6.026   0.035
 8902SOL    HW227606   3.076   6.139   0.028
 8903SOL     OW27607   1.384   0.900   4.423
 8903SOL    HW127608   1.285   0.915   4.427
 8903SOL    HW227609   1.411   0.836   4.495
 8904SOL     OW27610   6.612   5.696   3.576
 8904SOL    HW127611   6.585   5.600   3.568
 8904SOL    HW227612   6.620   5.720   3.673
 8905SOL     OW27613   2.135   4.167   4.795
 8905SOL    HW127614   2.119   4.086   4.739
 8905SOL    HW227615   2.195   4.145   4.871
 8906SOL     OW27616   0.105   0.096   6.974
 8906SOL    HW127617   0.147   0.123   0.040
 8906SOL    HW227618   0.042   0.168   6.944
 8907SOL     OW27619   3.246   2.117   4.806
 8907SOL    HW127620   3.166   2.065   4.775
 8907SOL    HW227621   3.220   2.175   4.883
 8908SOL     OW27622   1.389   3.140   0.006
 8908SOL    HW127623   1.369   3.238   0.005
 8908SOL    HW227624   1.485   3.126   0.029
 8909SOL     OW27625   1.530   0.816   4.846
 8909SOL    HW127626   1.585   0.827   4.929
 8909SOL    HW227627   1.441   0.776   4.869
 8910SOL     OW27628   2.015   3.461   6.274
 8910SOL    HW127629   1.968   3.525   6.212
 8910SOL    HW227630   2.113   3.472   6.263
 8911SOL     OW27631   4.127   2.264   4.755
 8911SOL    HW127632   4.158   2.324   4.682
 8911SOL    HW227633   4.138   2.309   4.843
 8912SOL     OW27634   4.164   1.427   0.257
 8912SOL    HW127635   4.114   1.496   0.205
 8912SOL    HW227636   4.245   1.469   0.298
 8913SOL     OW27637   4.427   5.299   0.708
 8913SOL    HW127638   4.494   5.336   0.772
 8913SOL    HW227639   4.336   5.305   0.748
 8914SOL     OW27640   4.145   0.604   5.071
 8914SOL    HW127641   4.060   0.647   5.040
 8914SOL    HW227642   4.223   0.664   5.050
 8915SOL     OW27643   1.284   2.880   3.841
 8915SOL    HW127644   1.252   2.805   3.783
 8915SOL    HW227645   1.231   2.962   3.823
 8916SOL     OW27646   0.934   3.583   2.026
 8916SOL    HW127647   1.001   3.519   2.063
 8916SOL    HW227648   0.850   3.579   2.081
 8917SOL     OW27649   5.731   4.406   6.447
 8917SOL    HW127650   5.753   4.313   6.475
 8917SOL    HW227651   5.804   4.468   6.475
 8918SOL     OW27652   0.147   5.588   1.017
 8918SOL    HW127653   0.074   5.656   1.015
 8918SOL    HW227654   0.124   5.513   0.954
 8919SOL     OW27655   4.502   3.882   0.395
 8919SOL    HW127656   4.495   3.962   0.455
 8919SOL    HW227657   4.424   3.823   0.410
 8920SOL     OW27658   0.410   6.828   6.659
 8920SOL    HW127659   0.507   6.814   6.677
 8920SOL    HW227660   0.399   6.880   6.574
 8921SOL     OW27661   2.188   2.021   3.304
 8921SOL    HW127662   2.096   1.992   3.278
 8921SOL    HW227663   2.191   2.037   3.402
 8922SOL     OW27664   2.801   4.923   1.709
 8922SOL    HW127665   2.836   5.006   1.665
 8922SOL    HW227666   2.737   4.877   1.647
 8923SOL     OW27667   1.131   3.776   5.759
 8923SOL    HW127668   1.164   3.763   5.666
 8923SOL    HW227669   1.096   3.689   5.794
 8924SOL     OW27670   3.276   6.128   5.721
 8924SOL    HW127671   3.245   6.118   5.815
 8924SOL    HW227672   3.230   6.206   5.679
 8925SOL     OW27673   0.975   0.802   2.338
 8925SOL    HW127674   1.061   0.789   2.287
 8925SOL    HW227675   0.919   0.720   2.328
 8926SOL     OW27676   6.008   3.272   0.007
 8926SOL    HW127677   6.027   3.189   6.976
 8926SOL    HW227678   5.975   3.343   6.966
 8927SOL     OW27679   1.779   2.164   4.661
 8927SOL    HW127680   1.820   2.099   4.596
 8927SOL    HW227681   1.851   2.221   4.700
 8928SOL     OW27682   6.981   1.115   5.071
 8928SOL    HW127683   6.968   1.131   5.169
 8928SOL    HW227684   6.924   1.179   5.019
 8929SOL     OW27685   0.525   3.525   4.082
 8929SOL    HW127686   0.618   3.490   4.070
 8929SOL    HW227687   0.501   3.582   4.003
 8930SOL     OW27688   2.217   4.762   4.630
 8930SOL    HW127689   2.230   4.722   4.721
 8930SOL    HW227690   2.295   4.820   4.607
 8931SOL     OW27691   3.479   2.804   0.518
 8931SOL    HW127692   3.440   2.719   0.551
 8931SOL    HW227693   3.527   2.787   0.432
 8932SOL     OW27694   5.251   0.357   0.141
 8932SOL    HW127695   5.208   0.360   0.231
 8932SOL    HW227696   5.260   0.450   0.105
 8933SOL     OW27697   1.073   1.952   5.483
 8933SOL    HW127698   1.040   1.932   5.575
 8933SOL    HW227699   1.170   1.976   5.486
 8934SOL     OW27700   2.576   5.887   3.839
 8934SOL    HW127701   2.642   5.834   3.892
 8934SOL    HW227702   2.514   5.826   3.791
 8935SOL     OW27703   5.436   4.677   1.763
 8935SOL    HW127704   5.357   4.736   1.779
 8935SOL    HW227705   5.405   4.590   1.724
 8936SOL     OW27706   0.796   3.640   1.059
 8936SOL    HW127707   0.806   3.694   0.975
 8936SOL    HW227708   0.881   3.590   1.076
 8937SOL     OW27709   0.520   0.522   4.253
 8937SOL    HW127710   0.549   0.614   4.282
 8937SOL    HW227711   0.421   0.519   4.244
 8938SOL     OW27712   0.243   1.289   0.206
 8938SOL    HW127713   0.290   1.248   0.285
 8938SOL    HW227714   0.145   1.274   0.215
 8939SOL     OW27715   6.475   3.089   4.614
 8939SOL    HW127716   6.568   3.054   4.622
 8939SOL    HW227717   6.476   3.175   4.562
 8940SOL     OW27718   5.214   2.177   0.592
 8940SOL    HW127719   5.162   2.204   0.672
 8940SOL    HW227720   5.309   2.208   0.601
 8941SOL     OW27721   5.154   2.206   1.811
 8941SOL    HW127722   5.191   2.163   1.893
 8941SOL    HW227723   5.227   2.219   1.744
 8942SOL     OW27724   0.917   5.198   4.592
 8942SOL    HW127725   0.890   5.246   4.509
 8942SOL    HW227726   0.921   5.099   4.574
 8943SOL     OW27727   4.444   4.972   0.438
 8943SOL    HW127728   4.447   4.962   0.339
 8943SOL    HW227729   4.537   4.966   0.475
 8944SOL     OW27730   5.160   4.950   4.432
 8944SOL    HW127731   5.091   5.015   4.463
 8944SOL    HW227732   5.146   4.862   4.478
 8945SOL     OW27733   6.699   2.138   4.656
 8945SOL    HW127734   6.695   2.126   4.557
 8945SOL    HW227735   6.777   2.087   4.693
 8946SOL     OW27736   3.510   0.514   4.544
 8946SOL    HW127737   3.515   0.613   4.534
 8946SOL    HW227738   3.602   0.476   4.542
 8947SOL     OW27739   2.102   3.887   6.228
 8947SOL    HW127740   2.191   3.932   6.237
 8947SOL    HW227741   2.059   3.880   6.319
 8948SOL     OW27742   6.239   5.666   3.332
 8948SOL    HW127743   6.302   5.741   3.311
 8948SOL    HW227744   6.243   5.645   3.430
 8949SOL     OW27745   3.904   5.980   7.012
 8949SOL    HW127746   3.848   5.958   6.933
 8949SOL    HW227747   3.848   6.022   0.062
 8950SOL     OW27748   4.476   3.270   1.411
 8950SOL    HW127749   4.476   3.315   1.500
 8950SOL    HW227750   4.525   3.326   1.344
 8951SOL     OW27751   2.005   1.013   4.461
 8951SOL    HW127752   1.922   0.958   4.449
 8951SOL    HW227753   1.994   1.071   4.542
 8952SOL     OW27754   1.748   5.299   3.218
 8952SOL    HW127755   1.679   5.313   3.290
 8952SOL    HW227756   1.839   5.311   3.258
 8953SOL     OW27757   1.871   4.671   1.309
 8953SOL    HW127758   1.869   4.571   1.306
 8953SOL    HW227759   1.839   4.708   1.222
 8954SOL     OW27760   0.110   6.575   3.817
 8954SOL    HW127761   0.051   6.507   3.775
 8954SOL    HW227762   0.120   6.654   3.756
 8955SOL     OW27763   0.200   3.100   2.565
 8955SOL    HW127764   0.119   3.044   2.548
 8955SOL    HW227765   0.280   3.040   2.574
 8956SOL     OW27766   0.668   0.194   6.336
 8956SOL    HW127767   0.716   0.109   6.316
 8956SOL    HW227768   0.711   0.269   6.286
 8957SOL     OW27769   2.098   4.698   1.574
 8957SOL    HW127770   2.109   4.740   1.484
 8957SOL    HW227771   2.008   4.720   1.610
 8958SOL     OW27772   1.279   2.741   5.059
 8958SOL    HW127773   1.243   2.724   5.151
 8958SOL    HW227774   1.379   2.747   5.064
 8959SOL     OW27775   1.454   3.761   2.265
 8959SOL    HW127776   1.474   3.672   2.307
 8959SOL    HW227777   1.391   3.748   2.189
 8960SOL     OW27778   6.711   5.455   3.460
 8960SOL    HW127779   6.612   5.443   3.452
 8960SOL    HW227780   6.747   5.495   3.375
 8961SOL     OW27781   4.283   1.687   3.874
 8961SOL    HW127782   4.260   1.615   3.809
 8961SOL    HW227783   4.211   1.756   3.875
 8962SOL     OW27784   7.010   6.303   1.597
 8962SOL    HW127785   0.031   6.322   1.686
 8962SOL    HW227786   6.978   6.388   1.557
 8963SOL     OW27787   3.287   6.726   4.785
 8963SOL    HW127788   3.293   6.685   4.876
 8963SOL    HW227789   3.194   6.755   4.767
 8964SOL     OW27790   4.964   3.944   2.582
 8964SOL    HW127791   4.910   3.933   2.499
 8964SOL    HW227792   5.061   3.926   2.562
 8965SOL     OW27793   3.736   5.256   0.657
 8965SOL    HW127794   3.810   5.317   0.685
 8965SOL    HW227795   3.667   5.252   0.728
 8966SOL     OW27796   6.683   4.650   6.471
 8966SOL    HW127797   6.623   4.680   6.397
 8966SOL    HW227798   6.683   4.719   6.543
 8967SOL     OW27799   4.344   0.894   3.121
 8967SOL    HW127800   4.273   0.848   3.067
 8967SOL    HW227801   4.367   0.837   3.200
 8968SOL     OW27802   2.923   5.169   1.948
 8968SOL    HW127803   2.983   5.139   1.873
 8968SOL    HW227804   2.959   5.253   1.988
 8969SOL     OW27805   0.177   0.504   3.366
 8969SOL    HW127806   0.228   0.532   3.285
 8969SOL    HW227807   0.177   0.579   3.433
 8970SOL     OW27808   1.306   2.294   0.208
 8970SOL    HW127809   1.233   2.247   0.258
 8970SOL    HW227810   1.285   2.391   0.203
 8971SOL     OW27811   4.997   6.765   2.035
 8971SOL    HW127812   4.969   6.857   2.062
 8971SOL    HW227813   5.070   6.770   1.967
 8972SOL     OW27814   5.063   4.241   0.248
 8972SOL    HW127815   5.109   4.210   0.331
 8972SOL    HW227816   5.115   4.211   0.167
 8973SOL     OW27817   0.215   2.583   2.443
 8973SOL    HW127818   0.259   2.593   2.354
 8973SOL    HW227819   0.160   2.664   2.463
 8974SOL     OW27820   1.763   4.033   3.974
 8974SOL    HW127821   1.847   4.001   4.018
 8974SOL    HW227822   1.778   4.040   3.875
 8975SOL     OW27823   0.414   0.067   0.076
 8975SOL    HW127824   0.346   0.107   0.137
 8975SOL    HW227825   0.410   0.112   7.008
 8976SOL     OW27826   6.952   6.176   0.739
 8976SOL    HW127827   6.941   6.079   0.719
 8976SOL    HW227828   6.886   6.229   0.685
 8977SOL     OW27829   0.006   4.322   6.725
 8977SOL    HW127830   6.940   4.369   6.734
 8977SOL    HW227831   0.070   4.379   6.673
 8978SOL     OW27832   5.399   6.435   5.058
 8978SOL    HW127833   5.455   6.464   4.981
 8978SOL    HW227834   5.443   6.463   5.144
 8979SOL     OW27835   0.990   5.481   6.253
 8979SOL    HW127836   0.891   5.495   6.254
 8979SOL    HW227837   1.021   5.448   6.342
 8980SOL     OW27838   5.565   2.249   5.725
 8980SOL    HW127839   5.574   2.342   5.689
 8980SOL    HW227840   5.484   2.244   5.784
 8981SOL     OW27841   5.056   1.752   5.644
 8981SOL    HW127842   5.041   1.705   5.731
 8981SOL    HW227843   5.154   1.763   5.629
 8982SOL     OW27844   6.613   2.048   1.581
 8982SOL    HW127845   6.602   2.120   1.513
 8982SOL    HW227846   6.591   1.960   1.540
 8983SOL     OW27847   1.226   5.357   1.307
 8983SOL    HW127848   1.303   5.383   1.366
 8983SOL    HW227849   1.159   5.431   1.304
 8984SOL     OW27850   6.183   0.422   4.464
 8984SOL    HW127851   6.159   0.328   4.440
 8984SOL    HW227852   6.282   0.428   4.480
 8985SOL     OW27853   3.776   2.453   0.783
 8985SOL    HW127854   3.750   2.396   0.706
 8985SOL    HW227855   3.825   2.398   0.850
 8986SOL     OW27856   5.383   4.383   2.398
 8986SOL    HW127857   5.319   4.320   2.441
 8986SOL    HW227858   5.474   4.342   2.397
 8987SOL     OW27859   3.153   0.594   1.212
 8987SOL    HW127860   3.106   0.512   1.245
 8987SOL    HW227861   3.088   0.653   1.164
 8988SOL     OW27862   2.012   5.135   0.210
 8988SOL    HW127863   1.935   5.151   0.272
 8988SOL    HW227864   2.025   5.215   0.151
 8989SOL     OW27865   4.992   3.196   2.829
 8989SOL    HW127866   4.979   3.224   2.924
 8989SOL    HW227867   4.914   3.142   2.799
 8990SOL     OW27868   2.246   6.316   1.540
 8990SOL    HW127869   2.339   6.328   1.575
 8990SOL    HW227870   2.234   6.371   1.457
 8991SOL     OW27871   2.392   2.128   1.299
 8991SOL    HW127872   2.454   2.155   1.373
 8991SOL    HW227873   2.404   2.030   1.279
 8992SOL     OW27874   0.534   3.233   0.752
 8992SOL    HW127875   0.576   3.311   0.798
 8992SOL    HW227876   0.593   3.202   0.677
 8993SOL     OW27877   5.256   2.703   2.798
 8993SOL    HW127878   5.310   2.786   2.782
 8993SOL    HW227879   5.234   2.696   2.896
 8994SOL     OW27880   1.828   5.166   4.203
 8994SOL    HW127881   1.881   5.100   4.256
 8994SOL    HW227882   1.863   5.169   4.109
 8995SOL     OW27883   1.392   2.600   4.840
 8995SOL    HW127884   1.347   2.551   4.765
 8995SOL    HW227885   1.323   2.632   4.904
 8996SOL     OW27886   0.987   4.021   1.946
 8996SOL    HW127887   1.006   3.925   1.926
 8996SOL    HW227888   0.933   4.027   2.030
 8997SOL     OW27889   5.516   0.715   6.262
 8997SOL    HW127890   5.576   0.792   6.243
 8997SOL    HW227891   5.486   0.674   6.175
 8998SOL     OW27892   0.171   1.558   4.898
 8998SOL    HW127893   0.190   1.545   4.995
 8998SOL    HW227894   0.164   1.469   4.853
 8999SOL     OW27895   4.974   0.571   6.710
 8999SOL    HW127896   5.019   0.582   6.622
 8999SOL    HW227897   4.948   0.475   6.722
 9000SOL     OW27898   2.637   4.145   6.753
 9000SOL    HW127899   2.687   4.075   6.705
 9000SOL    HW227900   2.571   4.102   6.815
 9001SOL     OW27901   1.264   4.878   2.731
 9001SOL    HW127902   1.237   4.783   2.746
 9001SOL    HW227903   1.358   4.892   2.764
 9002SOL     OW27904   0.068   5.140   5.974
 9002SOL    HW127905   0.037   5.234   5.962
 9002SOL    HW227906   0.089   5.123   6.071
 9003SOL     OW27907   6.255   2.177   0.865
 9003SOL    HW127908   6.301   2.245   0.922
 9003SOL    HW227909   6.222   2.102   0.922
 9004SOL     OW27910   5.107   6.361   1.974
 9004SOL    HW127911   5.093   6.306   1.891
 9004SOL    HW227912   5.083   6.456   1.956
 9005SOL     OW27913   4.948   2.732   3.742
 9005SOL    HW127914   5.036   2.777   3.725
 9005SOL    HW227915   4.963   2.642   3.781
 9006SOL     OW27916   1.272   5.775   0.906
 9006SOL    HW127917   1.180   5.764   0.944
 9006SOL    HW227918   1.329   5.699   0.936
 9007SOL     OW27919   3.504   5.654   4.015
 9007SOL    HW127920   3.481   5.629   3.921
 9007SOL    HW227921   3.598   5.628   4.035
 9008SOL     OW27922   6.244   4.865   2.534
 9008SOL    HW127923   6.309   4.939   2.517
 9008SOL    HW227924   6.261   4.790   2.470
 9009SOL     OW27925   3.264   6.397   0.631
 9009SOL    HW127926   3.298   6.456   0.558
 9009SOL    HW227927   3.330   6.396   0.707
 9010SOL     OW27928   1.173   6.539   5.304
 9010SOL    HW127929   1.130   6.484   5.376
 9010SOL    HW227930   1.104   6.570   5.239
 9011SOL     OW27931   3.900   2.488   1.186
 9011SOL    HW127932   3.999   2.477   1.176
 9011SOL    HW227933   3.877   2.585   1.188
 9012SOL     OW27934   2.071   5.416   0.418
 9012SOL    HW127935   2.039   5.391   0.509
 9012SOL    HW227936   2.169   5.395   0.410
 9013SOL     OW27937   6.196   5.875   4.581
 9013SOL    HW127938   6.103   5.840   4.592
 9013SOL    HW227939   6.262   5.805   4.606
 9014SOL     OW27940   1.508   1.792   0.544
 9014SOL    HW127941   1.564   1.709   0.538
 9014SOL    HW227942   1.479   1.818   0.452
 9015SOL     OW27943   6.542   1.032   0.009
 9015SOL    HW127944   6.568   0.992   0.097
 9015SOL    HW227945   6.451   1.071   0.016
 9016SOL     OW27946   6.459   6.059   5.782
 9016SOL    HW127947   6.499   5.977   5.741
 9016SOL    HW227948   6.363   6.042   5.803
 9017SOL     OW27949   5.504   1.806   2.889
 9017SOL    HW127950   5.602   1.792   2.875
 9017SOL    HW227951   5.489   1.892   2.937
 9018SOL     OW27952   3.423   1.623   5.225
 9018SOL    HW127953   3.410   1.713   5.265
 9018SOL    HW227954   3.417   1.553   5.297
 9019SOL     OW27955   1.460   6.685   0.423
 9019SOL    HW127956   1.510   6.731   0.496
 9019SOL    HW227957   1.522   6.626   0.371
 9020SOL     OW27958   1.948   4.011   2.418
 9020SOL    HW127959   1.885   3.936   2.397
 9020SOL    HW227960   1.948   4.028   2.517
 9021SOL     OW27961   6.861   6.851   3.951
 9021SOL    HW127962   6.764   6.832   3.966
 9021SOL    HW227963   6.886   6.826   3.858
 9022SOL     OW27964   2.703   0.479   0.262
 9022SOL    HW127965   2.789   0.444   0.299
 9022SOL    HW227966   2.644   0.402   0.239
 9023SOL     OW27967   3.707   3.368   3.502
 9023SOL    HW127968   3.704   3.391   3.404
 9023SOL    HW227969   3.799   3.384   3.537
 9024SOL     OW27970   2.074   5.949   6.123
 9024SOL    HW127971   1.986   5.993   6.104
 9024SOL    HW227972   2.148   6.008   6.091
 9025SOL     OW27973   6.289   6.086   1.431
 9025SOL    HW127974   6.335   6.002   1.401
 9025SOL    HW227975   6.214   6.062   1.492
 9026SOL     OW27976   3.601   3.489   3.766
 9026SOL    HW127977   3.508   3.456   3.782
 9026SOL    HW227978   3.631   3.460   3.675
 9027SOL     OW27979   2.531   1.898   3.773
 9027SOL    HW127980   2.540   1.806   3.810
 9027SOL    HW227981   2.461   1.948   3.825
 9028SOL     OW27982   2.525   4.434   6.322
 9028SOL    HW127983   2.500   4.439   6.418
 9028SOL    HW227984   2.458   4.377   6.273
 9029SOL     OW27985   3.711   5.200   4.506
 9029SOL    HW127986   3.665   5.265   4.567
 9029SOL    HW227987   3.725   5.114   4.555
 9030SOL     OW27988   1.570   0.780   2.246
 9030SOL    HW127989   1.516   0.812   2.323
 9030SOL    HW227990   1.620   0.856   2.205
 9031SOL     OW27991   3.288   5.087   5.952
 9031SOL    HW127992   3.218   5.058   5.887
 9031SOL    HW227993   3.344   5.159   5.912
 9032SOL     OW27994   3.748   2.869   0.641
 9032SOL    HW127995   3.675   2.854   0.574
 9032SOL    HW227996   3.803   2.948   0.614
 9033SOL     OW27997   1.468   3.208   4.010
 9033SOL    HW127998   1.370   3.206   4.030
 9033SOL    HW227999   1.512   3.128   4.051
 9034SOL     OW28000   2.617   6.648   5.342
 9034SOL    HW128001   2.574   6.731   5.379
 9034SOL    HW228002   2.645   6.589   5.417
 9035SOL     OW28003   0.452   6.575   5.661
 9035SOL    HW128004   0.457   6.674   5.652
 9035SOL    HW228005   0.364   6.543   5.626
 9036SOL     OW28006   2.219   2.209   5.410
 9036SOL    HW128007   2.254   2.179   5.321
 9036SOL    HW228008   2.183   2.302   5.402
 9037SOL     OW28009   1.729   3.675   6.936
 9037SOL    HW128010   1.657   3.741   6.912
 9037SOL    HW228011   1.744   3.677   0.014
 9038SOL     OW28012   5.545   0.840   5.647
 9038SOL    HW128013   5.449   0.820   5.631
 9038SOL    HW228014   5.561   0.939   5.640
 9039SOL     OW28015   1.942   4.529   5.090
 9039SOL    HW128016   1.864   4.475   5.121
 9039SOL    HW228017   1.997   4.475   5.027
 9040SOL     OW28018   2.834   1.129   3.504
 9040SOL    HW128019   2.897   1.145   3.428
 9040SOL    HW228020   2.881   1.074   3.574
 9041SOL     OW28021   0.811   1.649   2.280
 9041SOL    HW128022   0.872   1.601   2.218
 9041SOL    HW228023   0.858   1.666   2.367
 9042SOL     OW28024   2.532   6.491   3.740
 9042SOL    HW128025   2.592   6.567   3.715
 9042SOL    HW228026   2.587   6.414   3.771
 9043SOL     OW28027   2.121   1.785   5.557
 9043SOL    HW128028   2.084   1.790   5.464
 9043SOL    HW228029   2.170   1.869   5.578
 9044SOL     OW28030   6.149   1.344   1.089
 9044SOL    HW128031   6.201   1.268   1.051
 9044SOL    HW228032   6.153   1.422   1.027
 9045SOL     OW28033   3.862   1.472   2.243
 9045SOL    HW128034   3.897   1.466   2.336
 9045SOL    HW228035   3.789   1.540   2.239
 9046SOL     OW28036   3.657   4.234   5.029
 9046SOL    HW128037   3.732   4.297   5.049
 9046SOL    HW228038   3.644   4.229   4.930
 9047SOL     OW28039   1.802   4.294   5.574
 9047SOL    HW128040   1.762   4.256   5.491
 9047SOL    HW228041   1.868   4.365   5.550
 9048SOL     OW28042   0.461   3.559   6.016
 9048SOL    HW128043   0.530   3.500   5.973
 9048SOL    HW228044   0.392   3.583   5.947
 9049SOL     OW28045   4.913   6.444   6.523
 9049SOL    HW128046   4.892   6.422   6.618
 9049SOL    HW228047   4.829   6.440   6.469
 9050SOL     OW28048   1.245   5.399   6.119
 9050SOL    HW128049   1.167   5.453   6.151
 9050SOL    HW228050   1.212   5.314   6.077
 9051SOL     OW28051   4.640   6.193   1.174
 9051SOL    HW128052   4.565   6.192   1.240
 9051SOL    HW228053   4.656   6.287   1.144
 9052SOL     OW28054   2.651   4.668   4.560
 9052SOL    HW128055   2.583   4.740   4.572
 9052SOL    HW228056   2.670   4.624   4.648
 9053SOL     OW28057   2.567   2.080   4.036
 9053SOL    HW128058   2.504   2.156   4.018
 9053SOL    HW228059   2.516   1.994   4.038
 9054SOL     OW28060   1.577   0.895   1.632
 9054SOL    HW128061   1.480   0.908   1.613
 9054SOL    HW228062   1.630   0.908   1.548
 9055SOL     OW28063   0.595   3.992   3.606
 9055SOL    HW128064   0.694   4.000   3.621
 9055SOL    HW228065   0.578   3.963   3.512
 9056SOL     OW28066   4.884   0.334   1.712
 9056SOL    HW128067   4.909   0.431   1.717
 9056SOL    HW228068   4.864   0.300   1.804
 9057SOL     OW28069   6.848   4.671   5.698
 9057SOL    HW128070   6.870   4.762   5.731
 9057SOL    HW228071   6.923   4.608   5.720
 9058SOL     OW28072   2.389   1.870   4.047
 9058SOL    HW128073   2.374   1.783   4.094
 9058SOL    HW228074   2.301   1.911   4.022
 9059SOL     OW28075   0.001   0.424   3.052
 9059SOL    HW128076   0.069   0.357   3.021
 9059SOL    HW228077   6.946   0.376   3.097
 9060SOL     OW28078   6.766   3.872   2.488
 9060SOL    HW128079   6.773   3.806   2.413
 9060SOL    HW228080   6.769   3.823   2.575
 9061SOL     OW28081   4.344   5.560   2.916
 9061SOL    HW128082   4.412   5.511   2.972
 9061SOL    HW228083   4.379   5.650   2.893
 9062SOL     OW28084   0.768   4.795   2.288
 9062SOL    HW128085   0.681   4.815   2.244
 9062SOL    HW228086   0.758   4.715   2.347
 9063SOL     OW28087   3.393   0.861   1.990
 9063SOL    HW128088   3.392   0.847   1.891
 9063SOL    HW228089   3.394   0.772   2.036
 9064SOL     OW28090   6.327   4.129   4.558
 9064SOL    HW128091   6.400   4.060   4.555
 9064SOL    HW228092   6.360   4.213   4.516
 9065SOL     OW28093   2.460   5.907   6.146
 9065SOL    HW128094   2.379   5.857   6.115
 9065SOL    HW228095   2.540   5.848   6.141
 9066SOL     OW28096   5.995   0.271   5.802
 9066SOL    HW128097   5.986   0.336   5.726
 9066SOL    HW228098   6.037   0.316   5.880
 9067SOL     OW28099   6.137   5.970   4.236
 9067SOL    HW128100   6.111   5.873   4.232
 9067SOL    HW228101   6.085   6.016   4.307
 9068SOL     OW28102   3.658   6.925   5.331
 9068SOL    HW128103   3.741   6.979   5.323
 9068SOL    HW228104   3.640   6.877   5.245
 9069SOL     OW28105   4.260   1.980   2.527
 9069SOL    HW128106   4.191   2.052   2.530
 9069SOL    HW228107   4.306   1.974   2.616
 9070SOL     OW28108   1.311   2.908   6.350
 9070SOL    HW128109   1.309   2.917   6.250
 9070SOL    HW228110   1.253   2.979   6.391
 9071SOL     OW28111   4.985   0.003   6.440
 9071SOL    HW128112   5.043   0.062   6.495
 9071SOL    HW228113   4.894   0.043   6.431
 9072SOL     OW28114   5.062   6.761   1.256
 9072SOL    HW128115   5.038   6.826   1.184
 9072SOL    HW228116   4.984   6.702   1.274
 9073SOL     OW28117   3.599   6.547   1.375
 9073SOL    HW128118   3.563   6.461   1.411
 9073SOL    HW228119   3.665   6.528   1.302
 9074SOL     OW28120   1.910   0.477   1.405
 9074SOL    HW128121   1.844   0.401   1.409
 9074SOL    HW228122   1.870   0.558   1.449
 9075SOL     OW28123   0.355   0.321   1.986
 9075SOL    HW128124   0.368   0.246   2.051
 9075SOL    HW228125   0.300   0.289   1.909
 9076SOL     OW28126   4.673   1.700   3.991
 9076SOL    HW128127   4.614   1.774   4.021
 9076SOL    HW228128   4.760   1.739   3.959
 9077SOL     OW28129   4.417   1.608   6.384
 9077SOL    HW128130   4.399   1.513   6.409
 9077SOL    HW228131   4.411   1.666   6.466
 9078SOL     OW28132   5.175   4.572   6.855
 9078SOL    HW128133   5.186   4.481   6.894
 9078SOL    HW228134   5.087   4.577   6.808
 9079SOL     OW28135   1.285   6.862   4.959
 9079SOL    HW128136   1.198   6.834   4.918
 9079SOL    HW228137   1.305   6.805   5.038
 9080SOL     OW28138   5.780   2.780   0.111
 9080SOL    HW128139   5.774   2.854   0.177
 9080SOL    HW228140   5.831   2.704   0.151
 9081SOL     OW28141   3.564   1.209   1.739
 9081SOL    HW128142   3.550   1.302   1.707
 9081SOL    HW228143   3.477   1.169   1.767
 9082SOL     OW28144   2.115   6.135   5.250
 9082SOL    HW128145   2.037   6.123   5.312
 9082SOL    HW228146   2.136   6.232   5.241
 9083SOL     OW28147   3.701   3.965   6.689
 9083SOL    HW128148   3.766   4.021   6.638
 9083SOL    HW228149   3.693   4.001   6.782
 9084SOL     OW28150   1.244   2.432   6.502
 9084SOL    HW128151   1.339   2.452   6.528
 9084SOL    HW228152   1.225   2.473   6.413
 9085SOL     OW28153   2.489   5.805   1.085
 9085SOL    HW128154   2.508   5.734   1.018
 9085SOL    HW228155   2.408   5.856   1.058
 9086SOL     OW28156   5.767   4.083   1.159
 9086SOL    HW128157   5.863   4.057   1.150
 9086SOL    HW228158   5.721   4.074   1.070
 9087SOL     OW28159   5.078   3.299   2.142
 9087SOL    HW128160   5.027   3.212   2.138
 9087SOL    HW228161   5.020   3.369   2.182
 9088SOL     OW28162   6.655   6.961   1.184
 9088SOL    HW128163   6.665   6.896   1.109
 9088SOL    HW228164   6.725   0.011   1.177
 9089SOL     OW28165   4.011   6.008   5.508
 9089SOL    HW128166   3.973   6.078   5.448
 9089SOL    HW228167   4.066   6.051   5.579
 9090SOL     OW28168   5.080   0.328   3.441
 9090SOL    HW128169   5.150   0.334   3.370
 9090SOL    HW228170   4.996   0.292   3.402
 9091SOL     OW28171   2.569   3.401   0.563
 9091SOL    HW128172   2.584   3.392   0.662
 9091SOL    HW228173   2.610   3.486   0.531
 9092SOL     OW28174   0.648   1.232   6.987
 9092SOL    HW128175   0.693   1.208   6.901
 9092SOL    HW228176   0.551   1.251   6.969
 9093SOL     OW28177   1.347   6.405   0.054
 9093SOL    HW128178   1.260   6.366   0.022
 9093SOL    HW228179   1.421   6.371   7.016
 9094SOL     OW28180   0.902   5.012   2.744
 9094SOL    HW128181   0.901   4.986   2.647
 9094SOL    HW228182   0.929   4.933   2.799
 9095SOL     OW28183   4.239   3.744   6.304
 9095SOL    HW128184   4.338   3.748   6.293
 9095SOL    HW228185   4.207   3.829   6.347
 9096SOL     OW28186   5.766   3.620   2.607
 9096SOL    HW128187   5.753   3.542   2.669
 9096SOL    HW228188   5.810   3.589   2.523
 9097SOL     OW28189   0.328   3.252   6.677
 9097SOL    HW128190   0.411   3.279   6.726
 9097SOL    HW228191   0.257   3.321   6.692
 9098SOL     OW28192   3.432   2.804   6.709
 9098SOL    HW128193   3.444   2.747   6.628
 9098SOL    HW228194   3.410   2.897   6.681
 9099SOL     OW28195   3.585   3.542   0.557
 9099SOL    HW128196   3.581   3.462   0.616
 9099SOL    HW228197   3.565   3.624   0.611
 9100SOL     OW28198   0.968   3.516   2.877
 9100SOL    HW128199   0.918   3.446   2.826
 9100SOL    HW228200   0.905   3.563   2.940
 9101SOL     OW28201   2.057   2.942   3.148
 9101SOL    HW128202   2.101   3.011   3.205
 9101SOL    HW228203   2.121   2.911   3.078
 9102SOL     OW28204   3.513   6.710   1.832
 9102SOL    HW128205   3.414   6.694   1.837
 9102SOL    HW228206   3.556   6.676   1.916
 9103SOL     OW28207   6.368   3.653   0.192
 9103SOL    HW128208   6.306   3.577   0.171
 9103SOL    HW228209   6.446   3.618   0.246
 9104SOL     OW28210   4.359   6.542   2.892
 9104SOL    HW128211   4.387   6.459   2.941
 9104SOL    HW228212   4.425   6.562   2.819
 9105SOL     OW28213   1.977   1.241   0.409
 9105SOL    HW128214   1.964   1.338   0.427
 9105SOL    HW228215   2.015   1.197   0.491
 9106SOL     OW28216   6.081   4.055   6.814
 9106SOL    HW128217   6.000   4.095   6.769
 9106SOL    HW228218   6.054   4.016   6.902
 9107SOL     OW28219   3.137   0.599   5.904
 9107SOL    HW128220   3.087   0.588   5.990
 9107SOL    HW228221   3.226   0.642   5.923
 9108SOL     OW28222   5.410   3.878   5.801
 9108SOL    HW128223   5.457   3.843   5.883
 9108SOL    HW228224   5.313   3.857   5.807
 9109SOL     OW28225   1.385   2.781   2.801
 9109SOL    HW128226   1.438   2.853   2.757
 9109SOL    HW228227   1.418   2.692   2.771
 9110SOL     OW28228   1.987   4.232   4.198
 9110SOL    HW128229   1.985   4.230   4.098
 9110SOL    HW228230   2.082   4.236   4.230
 9111SOL     OW28231   3.852   2.986   6.914
 9111SOL    HW128232   3.913   3.030   6.980
 9111SOL    HW228233   3.894   2.987   6.823
 9112SOL     OW28234   0.843   4.733   5.378
 9112SOL    HW128235   0.866   4.735   5.280
 9112SOL    HW228236   0.853   4.825   5.416
 9113SOL     OW28237   4.557   6.626   1.284
 9113SOL    HW128238   4.593   6.646   1.193
 9113SOL    HW228239   4.619   6.663   1.353
 9114SOL     OW28240   1.190   4.730   1.360
 9114SOL    HW128241   1.097   4.705   1.389
 9114SOL    HW228242   1.255   4.701   1.429
 9115SOL     OW28243   1.065   5.265   5.458
 9115SOL    HW128244   0.989   5.329   5.448
 9115SOL    HW228245   1.040   5.192   5.521
 9116SOL     OW28246   6.387   1.333   0.245
 9116SOL    HW128247   6.486   1.324   0.239
 9116SOL    HW228248   6.346   1.303   0.159
 9117SOL     OW28249   5.569   2.853   0.399
 9117SOL    HW128250   5.499   2.850   0.470
 9117SOL    HW228251   5.649   2.801   0.429
 9118SOL     OW28252   6.198   5.309   7.007
 9118SOL    HW128253   6.137   5.388   7.006
 9118SOL    HW228254   6.147   5.229   0.018
 9119SOL     OW28255   5.052   0.947   1.436
 9119SOL    HW128256   5.057   1.022   1.503
 9119SOL    HW228257   4.976   0.887   1.461
 9120SOL     OW28258   6.238   2.276   5.392
 9120SOL    HW128259   6.197   2.314   5.309
 9120SOL    HW228260   6.307   2.340   5.426
 9121SOL     OW28261   2.411   2.312   6.170
 9121SOL    HW128262   2.317   2.278   6.159
 9121SOL    HW228263   2.453   2.323   6.080
 9122SOL     OW28264   2.108   4.282   2.175
 9122SOL    HW128265   2.122   4.381   2.174
 9122SOL    HW228266   2.011   4.262   2.186
 9123SOL     OW28267   3.334   0.049   4.278
 9123SOL    HW128268   3.318   7.008   4.202
 9123SOL    HW228269   3.290   0.013   4.361
 9124SOL     OW28270   5.181   6.525   6.268
 9124SOL    HW128271   5.265   6.536   6.216
 9124SOL    HW228272   5.203   6.513   6.365
 9125SOL     OW28273   5.331   4.451   1.660
 9125SOL    HW128274   5.317   4.461   1.562
 9125SOL    HW228275   5.243   4.434   1.705
 9126SOL     OW28276   5.988   2.350   0.949
 9126SOL    HW128277   6.080   2.324   0.978
 9126SOL    HW228278   5.971   2.445   0.976
 9127SOL     OW28279   6.434   1.028   6.135
 9127SOL    HW128280   6.390   1.110   6.173
 9127SOL    HW228281   6.494   1.054   6.060
 9128SOL     OW28282   5.293   1.400   5.208
 9128SOL    HW128283   5.268   1.363   5.297
 9128SOL    HW228284   5.212   1.408   5.151
 9129SOL     OW28285   0.185   2.640   0.785
 9129SOL    HW128286   0.210   2.566   0.848
 9129SOL    HW228287   0.123   2.604   0.714
 9130SOL     OW28288   0.183   3.376   0.584
 9130SOL    HW128289   0.186   3.475   0.594
 9130SOL    HW228290   0.221   3.334   0.667
 9131SOL     OW28291   6.724   2.910   5.596
 9131SOL    HW128292   6.822   2.896   5.590
 9131SOL    HW228293   6.706   3.005   5.623
 9132SOL     OW28294   0.552   5.117   4.406
 9132SOL    HW128295   0.542   5.066   4.320
 9132SOL    HW228296   0.612   5.066   4.468
 9133SOL     OW28297   3.932   6.074   2.107
 9133SOL    HW128298   3.973   6.143   2.048
 9133SOL    HW228299   3.991   5.993   2.109
 9134SOL     OW28300   5.006   5.978   0.290
 9134SOL    HW128301   5.023   6.001   0.386
 9134SOL    HW228302   4.952   5.894   0.285
 9135SOL     OW28303   6.395   6.773   1.271
 9135SOL    HW128304   6.481   6.818   1.248
 9135SOL    HW228305   6.334   6.839   1.316
 9136SOL     OW28306   5.479   5.389   5.912
 9136SOL    HW128307   5.457   5.387   6.009
 9136SOL    HW228308   5.463   5.480   5.876
 9137SOL     OW28309   4.990   1.902   1.288
 9137SOL    HW128310   5.047   1.907   1.205
 9137SOL    HW228311   4.982   1.993   1.328
 9138SOL     OW28312   0.417   5.912   6.061
 9138SOL    HW128313   0.325   5.906   6.021
 9138SOL    HW228314   0.430   6.002   6.102
 9139SOL     OW28315   2.247   1.564   4.510
 9139SOL    HW128316   2.299   1.489   4.551
 9139SOL    HW228317   2.247   1.643   4.571
 9140SOL     OW28318   6.362   3.407   3.074
 9140SOL    HW128319   6.423   3.359   3.137
 9140SOL    HW228320   6.345   3.350   2.994
 9141SOL     OW28321   5.830   0.452   6.851
 9141SOL    HW128322   5.826   0.551   6.832
 9141SOL    HW228323   5.829   0.437   6.950
 9142SOL     OW28324   0.366   2.396   1.300
 9142SOL    HW128325   0.274   2.392   1.261
 9142SOL    HW228326   0.361   2.435   1.393
 9143SOL     OW28327   6.362   3.222   0.799
 9143SOL    HW128328   6.311   3.295   0.844
 9143SOL    HW228329   6.437   3.192   0.858
 9144SOL     OW28330   2.416   5.152   5.212
 9144SOL    HW128331   2.449   5.178   5.303
 9144SOL    HW228332   2.412   5.232   5.153
 9145SOL     OW28333   0.128   5.434   0.366
 9145SOL    HW128334   0.144   5.502   0.294
 9145SOL    HW228335   0.041   5.454   0.412
 9146SOL     OW28336   5.277   3.054   3.159
 9146SOL    HW128337   5.290   2.978   3.222
 9146SOL    HW228338   5.288   3.140   3.209
 9147SOL     OW28339   6.398   0.630   4.751
 9147SOL    HW128340   6.457   0.552   4.773
 9147SOL    HW228341   6.432   0.676   4.669
 9148SOL     OW28342   5.137   5.751   0.490
 9148SOL    HW128343   5.082   5.792   0.563
 9148SOL    HW228344   5.165   5.659   0.518
 9149SOL     OW28345   6.096   3.678   3.765
 9149SOL    HW128346   6.127   3.752   3.825
 9149SOL    HW228347   6.029   3.621   3.813
 9150SOL     OW28348   3.067   5.399   1.622
 9150SOL    HW128349   2.973   5.402   1.590
 9150SOL    HW228350   3.078   5.323   1.686
 9151SOL     OW28351   1.735   4.578   3.821
 9151SOL    HW128352   1.826   4.550   3.790
 9151SOL    HW228353   1.735   4.584   3.921
 9152SOL     OW28354   2.230   4.360   4.993
 9152SOL    HW128355   2.231   4.329   4.898
 9152SOL    HW228356   2.228   4.281   5.054
 9153SOL     OW28357   1.338   3.145   0.309
 9153SOL    HW128358   1.281   3.149   0.226
 9153SOL    HW228359   1.331   3.054   0.349
 9154SOL     OW28360   4.143   4.393   6.227
 9154SOL    HW128361   4.221   4.384   6.289
 9154SOL    HW228362   4.098   4.305   6.216
 9155SOL     OW28363   1.823   4.053   1.871
 9155SOL    HW128364   1.891   4.124   1.851
 9155SOL    HW228365   1.813   4.044   1.970
 9156SOL     OW28366   1.272   2.399   1.107
 9156SOL    HW128367   1.252   2.308   1.069
 9156SOL    HW228368   1.197   2.427   1.167
 9157SOL     OW28369   6.647   4.488   5.645
 9157SOL    HW128370   6.724   4.549   5.663
 9157SOL    HW228371   6.682   4.397   5.623
 9158SOL     OW28372   6.017   2.877   4.861
 9158SOL    HW128373   6.071   2.903   4.941
 9158SOL    HW228374   6.016   2.952   4.795
 9159SOL     OW28375   1.766   0.901   1.961
 9159SOL    HW128376   1.817   0.820   1.932
 9159SOL    HW228377   1.800   0.982   1.914
 9160SOL     OW28378   5.618   0.059   5.209
 9160SOL    HW128379   5.677   0.127   5.165
 9160SOL    HW228380   5.556   0.106   5.273
 9161SOL     OW28381   5.074   4.088   4.860
 9161SOL    HW128382   5.133   4.138   4.796
 9161SOL    HW228383   4.979   4.119   4.849
 9162SOL     OW28384   4.340   1.360   4.292
 9162SOL    HW128385   4.271   1.291   4.270
 9162SOL    HW228386   4.388   1.388   4.209
 9163SOL     OW28387   1.669   2.686   4.514
 9163SOL    HW128388   1.753   2.740   4.512
 9163SOL    HW228389   1.636   2.673   4.421
 9164SOL     OW28390   2.687   0.213   6.599
 9164SOL    HW128391   2.689   0.120   6.635
 9164SOL    HW228392   2.595   0.234   6.566
 9165SOL     OW28393   6.221   1.755   5.846
 9165SOL    HW128394   6.273   1.682   5.890
 9165SOL    HW228395   6.284   1.823   5.809
 9166SOL     OW28396   4.042   6.205   1.848
 9166SOL    HW128397   4.047   6.143   1.770
 9166SOL    HW228398   4.002   6.292   1.818
 9167SOL     OW28399   1.933   2.524   6.662
 9167SOL    HW128400   1.870   2.509   6.586
 9167SOL    HW228401   2.027   2.506   6.633
 9168SOL     OW28402   6.870   0.128   6.623
 9168SOL    HW128403   6.804   0.090   6.558
 9168SOL    HW228404   6.938   0.058   6.646
 9169SOL     OW28405   5.872   0.701   4.922
 9169SOL    HW128406   5.883   0.661   4.831
 9169SOL    HW228407   5.956   0.688   4.975
 9170SOL     OW28408   1.437   5.984   0.186
 9170SOL    HW128409   1.360   6.032   0.229
 9170SOL    HW228410   1.403   5.905   0.135
 9171SOL     OW28411   4.328   4.920   0.807
 9171SOL    HW128412   4.353   4.864   0.728
 9171SOL    HW228413   4.280   4.864   0.874
 9172SOL     OW28414   4.131   1.086   2.237
 9172SOL    HW128415   4.082   1.011   2.192
 9172SOL    HW228416   4.069   1.133   2.300
 9173SOL     OW28417   6.415   3.511   6.064
 9173SOL    HW128418   6.449   3.420   6.088
 9173SOL    HW228419   6.479   3.580   6.095
 9174SOL     OW28420   5.822   4.220   1.438
 9174SOL    HW128421   5.735   4.265   1.416
 9174SOL    HW228422   5.848   4.160   1.362
 9175SOL     OW28423   0.367   0.057   5.704
 9175SOL    HW128424   0.433   0.120   5.745
 9175SOL    HW228425   0.277   0.072   5.747
 9176SOL     OW28426   2.038   1.067   3.998
 9176SOL    HW128427   2.005   1.145   3.945
 9176SOL    HW228428   2.122   1.031   3.957
 9177SOL     OW28429   0.485   4.928   4.975
 9177SOL    HW128430   0.510   4.840   4.935
 9177SOL    HW228431   0.394   4.955   4.942
 9178SOL     OW28432   1.630   4.830   0.595
 9178SOL    HW128433   1.573   4.777   0.659
 9178SOL    HW228434   1.626   4.786   0.505
 9179SOL     OW28435   2.397   4.333   3.671
 9179SOL    HW128436   2.460   4.305   3.599
 9179SOL    HW228437   2.412   4.429   3.694
 9180SOL     OW28438   6.604   2.780   3.392
 9180SOL    HW128439   6.681   2.843   3.388
 9180SOL    HW228440   6.540   2.800   3.317
 9181SOL     OW28441   4.854   2.226   5.174
 9181SOL    HW128442   4.784   2.283   5.130
 9181SOL    HW228443   4.868   2.257   5.268
 9182SOL     OW28444   2.876   6.215   2.108
 9182SOL    HW128445   2.849   6.147   2.040
 9182SOL    HW228446   2.927   6.288   2.063
 9183SOL     OW28447   4.921   5.277   0.140
 9183SOL    HW128448   4.862   5.201   0.114
 9183SOL    HW228449   4.998   5.283   0.077
 9184SOL     OW28450   4.508   2.083   0.287
 9184SOL    HW128451   4.546   1.993   0.306
 9184SOL    HW228452   4.563   2.154   0.331
 9185SOL     OW28453   4.890   6.750   4.682
 9185SOL    HW128454   4.962   6.812   4.713
 9185SOL    HW228455   4.830   6.799   4.618
 9186SOL     OW28456   5.761   6.210   4.677
 9186SOL    HW128457   5.663   6.192   4.673
 9186SOL    HW228458   5.784   6.251   4.765
 9187SOL     OW28459   2.460   1.869   0.683
 9187SOL    HW128460   2.488   1.778   0.651
 9187SOL    HW228461   2.476   1.936   0.611
 9188SOL     OW28462   1.622   6.805   0.670
 9188SOL    HW128463   1.662   6.723   0.711
 9188SOL    HW228464   1.524   6.807   0.688
 9189SOL     OW28465   2.655   5.918   1.787
 9189SOL    HW128466   2.593   5.857   1.837
 9189SOL    HW228467   2.625   6.012   1.797
 9190SOL     OW28468   2.384   4.607   5.572
 9190SOL    HW128469   2.321   4.557   5.513
 9190SOL    HW228470   2.476   4.603   5.532
 9191SOL     OW28471   6.654   1.797   6.313
 9191SOL    HW128472   6.705   1.773   6.231
 9191SOL    HW228473   6.567   1.839   6.287
 9192SOL     OW28474   0.933   2.504   6.348
 9192SOL    HW128475   0.924   2.604   6.353
 9192SOL    HW228476   0.916   2.465   6.438
 9193SOL     OW28477   3.470   4.182   6.142
 9193SOL    HW128478   3.436   4.121   6.069
 9193SOL    HW228479   3.400   4.250   6.163
 9194SOL     OW28480   3.232   1.171   3.640
 9194SOL    HW128481   3.277   1.102   3.698
 9194SOL    HW228482   3.235   1.260   3.686
 9195SOL     OW28483   1.215   1.758   3.085
 9195SOL    HW128484   1.145   1.688   3.096
 9195SOL    HW228485   1.192   1.816   3.006
 9196SOL     OW28486   5.867   0.297   2.543
 9196SOL    HW128487   5.859   0.381   2.596
 9196SOL    HW228488   5.866   0.218   2.605
 9197SOL     OW28489   1.771   4.862   1.830
 9197SOL    HW128490   1.858   4.908   1.843
 9197SOL    HW228491   1.716   4.912   1.763
 9198SOL     OW28492   5.952   4.844   6.850
 9198SOL    HW128493   5.989   4.867   6.760
 9198SOL    HW228494   5.886   4.769   6.841
 9199SOL     OW28495   0.757   3.553   5.126
 9199SOL    HW128496   0.705   3.633   5.157
 9199SOL    HW228497   0.756   3.483   5.197
 9200SOL     OW28498   2.984   6.060   6.770
 9200SOL    HW128499   2.910   6.126   6.758
 9200SOL    HW228500   3.029   6.076   6.858
 9201SOL     OW28501   6.833   3.431   0.369
 9201SOL    HW128502   6.861   3.435   0.273
 9201SOL    HW228503   6.866   3.512   0.417
 9202SOL     OW28504   0.993   6.469   2.465
 9202SOL    HW128505   1.080   6.513   2.486
 9202SOL    HW228506   1.010   6.375   2.436
 9203SOL     OW28507   0.182   3.633   5.823
 9203SOL    HW128508   0.094   3.679   5.836
 9203SOL    HW228509   0.168   3.534   5.822
 9204SOL     OW28510   4.729   2.917   5.672
 9204SOL    HW128511   4.803   2.849   5.670
 9204SOL    HW228512   4.675   2.909   5.588
 9205SOL     OW28513   5.456   6.082   3.231
 9205SOL    HW128514   5.368   6.114   3.266
 9205SOL    HW228515   5.446   5.991   3.192
 9206SOL     OW28516   3.352   5.319   3.744
 9206SOL    HW128517   3.337   5.345   3.839
 9206SOL    HW228518   3.387   5.225   3.741
 9207SOL     OW28519   4.912   4.292   5.837
 9207SOL    HW128520   4.976   4.320   5.765
 9207SOL    HW228521   4.820   4.283   5.798
 9208SOL     OW28522   5.791   4.981   3.953
 9208SOL    HW128523   5.867   4.940   3.902
 9208SOL    HW228524   5.770   4.924   4.032
 9209SOL     OW28525   4.439   0.245   0.100
 9209SOL    HW128526   4.371   0.318   0.112
 9209SOL    HW228527   4.500   0.269   0.024
 9210SOL     OW28528   0.209   1.378   2.094
 9210SOL    HW128529   0.125   1.373   2.148
 9210SOL    HW228530   0.234   1.286   2.064
 9211SOL     OW28531   6.987   2.894   6.248
 9211SOL    HW128532   6.917   2.825   6.228
 9211SOL    HW228533   0.045   2.878   6.190
 9212SOL     OW28534   4.437   5.796   4.235
 9212SOL    HW128535   4.477   5.870   4.181
 9212SOL    HW228536   4.393   5.833   4.316
 9213SOL     OW28537   5.537   3.334   5.185
 9213SOL    HW128538   5.618   3.288   5.148
 9213SOL    HW228539   5.465   3.335   5.116
 9214SOL     OW28540   6.815   3.919   6.217
 9214SOL    HW128541   6.796   4.004   6.167
 9214SOL    HW228542   6.912   3.916   6.243
 9215SOL     OW28543   1.362   2.924   1.810
 9215SOL    HW128544   1.448   2.942   1.859
 9215SOL    HW228545   1.287   2.970   1.858
 9216SOL     OW28546   3.536   0.294   2.194
 9216SOL    HW128547   3.467   0.360   2.164
 9216SOL    HW228548   3.620   0.342   2.219
 9217SOL     OW28549   6.791   3.179   6.732
 9217SOL    HW128550   6.726   3.144   6.664
 9217SOL    HW228551   6.880   3.136   6.716
 9218SOL     OW28552   2.086   1.063   6.826
 9218SOL    HW128553   2.026   0.992   6.864
 9218SOL    HW228554   2.042   1.152   6.835
 9219SOL     OW28555   5.907   3.188   0.489
 9219SOL    HW128556   5.812   3.169   0.512
 9219SOL    HW228557   5.962   3.191   0.573
 9220SOL     OW28558   1.362   6.179   1.886
 9220SOL    HW128559   1.317   6.208   1.802
 9220SOL    HW228560   1.461   6.176   1.872
 9221SOL     OW28561   2.791   0.630   3.222
 9221SOL    HW128562   2.714   0.694   3.217
 9221SOL    HW228563   2.772   0.550   3.165
 9222SOL     OW28564   2.724   6.078   6.124
 9222SOL    HW128565   2.726   6.090   6.223
 9222SOL    HW228566   2.736   5.981   6.102
 9223SOL     OW28567   0.866   2.271   3.799
 9223SOL    HW128568   0.950   2.221   3.778
 9223SOL    HW228569   0.790   2.230   3.749
 9224SOL     OW28570   1.134   5.178   4.294
 9224SOL    HW128571   1.167   5.246   4.360
 9224SOL    HW228572   1.053   5.213   4.249
 9225SOL     OW28573   2.822   6.268   6.718
 9225SOL    HW128574   2.812   6.337   6.646
 9225SOL    HW228575   2.800   6.309   6.807
 9226SOL     OW28576   6.367   6.947   1.901
 9226SOL    HW128577   6.285   6.937   1.956
 9226SOL    HW228578   6.389   0.023   1.891
 9227SOL     OW28579   1.836   6.083   0.873
 9227SOL    HW128580   1.916   6.135   0.904
 9227SOL    HW228581   1.863   6.019   0.801
 9228SOL     OW28582   1.827   2.071   5.921
 9228SOL    HW128583   1.769   1.995   5.951
 9228SOL    HW228584   1.776   2.129   5.858
 9229SOL     OW28585   1.186   5.477   5.296
 9229SOL    HW128586   1.133   5.403   5.337
 9229SOL    HW228587   1.149   5.565   5.325
 9230SOL     OW28588   5.198   2.672   3.053
 9230SOL    HW128589   5.288   2.663   3.094
 9230SOL    HW228590   5.131   2.694   3.124
 9231SOL     OW28591   0.337   3.207   4.907
 9231SOL    HW128592   0.363   3.113   4.928
 9231SOL    HW228593   0.341   3.221   4.808
 9232SOL     OW28594   4.270   5.584   0.457
 9232SOL    HW128595   4.227   5.512   0.512
 9232SOL    HW228596   4.223   5.591   0.369
 9233SOL     OW28597   5.891   5.374   1.858
 9233SOL    HW128598   5.828   5.397   1.932
 9233SOL    HW228599   5.980   5.415   1.876
 9234SOL     OW28600   3.331   5.947   6.469
 9234SOL    HW128601   3.265   6.014   6.504
 9234SOL    HW228602   3.312   5.930   6.372
 9235SOL     OW28603   1.437   3.296   2.920
 9235SOL    HW128604   1.517   3.355   2.908
 9235SOL    HW228605   1.452   3.236   2.999
 9236SOL     OW28606   2.071   4.572   5.962
 9236SOL    HW128607   2.105   4.550   5.871
 9236SOL    HW228608   2.143   4.617   6.015
 9237SOL     OW28609   1.664   6.014   4.362
 9237SOL    HW128610   1.680   5.949   4.288
 9237SOL    HW228611   1.577   5.995   4.406
 9238SOL     OW28612   2.905   1.930   0.360
 9238SOL    HW128613   2.958   2.014   0.356
 9238SOL    HW228614   2.895   1.892   0.268
 9239SOL     OW28615   6.712   4.004   6.927
 9239SOL    HW128616   6.701   4.102   6.944
 9239SOL    HW228617   6.634   3.955   6.966
 9240SOL     OW28618   4.542   1.610   1.402
 9240SOL    HW128619   4.641   1.602   1.395
 9240SOL    HW228620   4.499   1.524   1.375
 9241SOL     OW28621   0.613   5.431   5.804
 9241SOL    HW128622   0.599   5.465   5.897
 9241SOL    HW228623   0.529   5.439   5.751
 9242SOL     OW28624   0.968   5.083   6.884
 9242SOL    HW128625   0.982   5.076   6.983
 9242SOL    HW228626   1.025   5.156   6.847
 9243SOL     OW28627   6.660   6.640   1.467
 9243SOL    HW128628   6.654   6.558   1.525
 9243SOL    HW228629   6.620   6.621   1.378
 9244SOL     OW28630   4.308   5.397   6.480
 9244SOL    HW128631   4.297   5.330   6.406
 9244SOL    HW228632   4.404   5.423   6.488
 9245SOL     OW28633   1.794   4.723   3.149
 9245SOL    HW128634   1.725   4.665   3.193
 9245SOL    HW228635   1.799   4.811   3.197
 9246SOL     OW28636   0.068   5.648   2.493
 9246SOL    HW128637   0.119   5.589   2.554
 9246SOL    HW228638   6.992   5.623   2.494
 9247SOL     OW28639   1.077   6.835   2.570
 9247SOL    HW128640   1.167   6.793   2.571
 9247SOL    HW228641   1.010   6.772   2.609
 9248SOL     OW28642   2.180   2.029   4.235
 9248SOL    HW128643   2.084   2.033   4.206
 9248SOL    HW228644   2.216   1.937   4.218
 9249SOL     OW28645   3.724   3.559   0.108
 9249SOL    HW128646   3.779   3.615   0.171
 9249SOL    HW228647   3.785   3.503   0.051
 9250SOL     OW28648   5.569   3.334   3.801
 9250SOL    HW128649   5.479   3.368   3.828
 9250SOL    HW228650   5.614   3.293   3.880
 9251SOL     OW28651   3.858   1.745   2.425
 9251SOL    HW128652   3.845   1.701   2.513
 9251SOL    HW228653   3.954   1.771   2.414
 9252SOL     OW28654   5.336   0.435   4.262
 9252SOL    HW128655   5.388   0.469   4.340
 9252SOL    HW228656   5.396   0.430   4.182
 9253SOL     OW28657   5.671   6.313   5.005
 9253SOL    HW128658   5.634   6.241   5.063
 9253SOL    HW228659   5.729   6.373   5.060
 9254SOL     OW28660   6.711   4.426   2.779
 9254SOL    HW128661   6.739   4.512   2.737
 9254SOL    HW228662   6.725   4.430   2.878
 9255SOL     OW28663   4.763   3.611   0.174
 9255SOL    HW128664   4.837   3.673   0.149
 9255SOL    HW228665   4.797   3.516   0.170
 9256SOL     OW28666   3.744   6.966   2.547
 9256SOL    HW128667   3.667   6.927   2.496
 9256SOL    HW228668   3.787   6.895   2.602
 9257SOL     OW28669   6.889   3.336   3.117
 9257SOL    HW128670   6.923   3.308   3.207
 9257SOL    HW228671   6.805   3.389   3.128
 9258SOL     OW28672   3.163   3.019   3.359
 9258SOL    HW128673   3.261   3.015   3.344
 9258SOL    HW228674   3.119   2.941   3.313
 9259SOL     OW28675   1.027   2.500   0.403
 9259SOL    HW128676   0.955   2.436   0.375
 9259SOL    HW228677   1.080   2.460   0.477
 9260SOL     OW28678   5.434   1.626   4.772
 9260SOL    HW128679   5.351   1.599   4.723
 9260SOL    HW228680   5.427   1.723   4.798
 9261SOL     OW28681   4.272   0.494   0.063
 9261SOL    HW128682   4.183   0.524   0.096
 9261SOL    HW228683   4.343   0.520   0.129
 9262SOL     OW28684   6.874   4.112   5.973
 9262SOL    HW128685   6.876   4.029   5.918
 9262SOL    HW228686   6.849   4.190   5.915
 9263SOL     OW28687   5.085   6.382   1.071
 9263SOL    HW128688   5.114   6.290   1.095
 9263SOL    HW228689   5.147   6.449   1.114
 9264SOL     OW28690   4.966   4.762   0.435
 9264SOL    HW128691   4.948   4.705   0.354
 9264SOL    HW228692   5.041   4.825   0.416
 9265SOL     OW28693   3.782   2.152   0.083
 9265SOL    HW128694   3.877   2.146   0.115
 9265SOL    HW228695   3.780   2.197   7.015
 9266SOL     OW28696   2.425   0.174   1.610
 9266SOL    HW128697   2.362   0.223   1.669
 9266SOL    HW228698   2.429   0.218   1.521
 9267SOL     OW28699   6.583   2.881   4.932
 9267SOL    HW128700   6.626   2.792   4.915
 9267SOL    HW228701   6.505   2.891   4.871
 9268SOL     OW28702   0.758   5.370   1.883
 9268SOL    HW128703   0.745   5.434   1.806
 9268SOL    HW228704   0.737   5.277   1.853
 9269SOL     OW28705   2.984   1.323   6.008
 9269SOL    HW128706   2.951   1.413   5.981
 9269SOL    HW228707   3.016   1.273   5.927
 9270SOL     OW28708   4.319   6.347   5.983
 9270SOL    HW128709   4.255   6.406   5.934
 9270SOL    HW228710   4.390   6.403   6.027
 9271SOL     OW28711   6.799   6.908   0.013
 9271SOL    HW128712   6.739   6.975   6.989
 9271SOL    HW228713   6.854   6.954   0.083
 9272SOL     OW28714   1.532   5.610   4.410
 9272SOL    HW128715   1.587   5.665   4.347
 9272SOL    HW228716   1.561   5.628   4.504
 9273SOL     OW28717   6.347   6.282   3.732
 9273SOL    HW128718   6.415   6.318   3.796
 9273SOL    HW228719   6.391   6.220   3.667
 9274SOL     OW28720   6.481   2.265   6.929
 9274SOL    HW128721   6.504   2.247   0.004
 9274SOL    HW228722   6.404   2.329   6.925
 9275SOL     OW28723   0.223   1.367   6.549
 9275SOL    HW128724   0.124   1.380   6.545
 9275SOL    HW228725   0.269   1.453   6.528
 9276SOL     OW28726   2.224   3.900   2.071
 9276SOL    HW128727   2.139   3.940   2.103
 9276SOL    HW228728   2.225   3.802   2.089
 9277SOL     OW28729   4.949   3.270   6.822
 9277SOL    HW128730   4.879   3.309   6.761
 9277SOL    HW228731   4.982   3.183   6.784
 9278SOL     OW28732   1.539   0.471   6.293
 9278SOL    HW128733   1.489   0.450   6.209
 9278SOL    HW228734   1.564   0.568   6.295
 9279SOL     OW28735   4.499   0.892   1.655
 9279SOL    HW128736   4.511   0.989   1.634
 9279SOL    HW228737   4.554   0.868   1.735
 9280SOL     OW28738   1.925   2.056   3.508
 9280SOL    HW128739   1.860   2.132   3.508
 9280SOL    HW228740   1.918   2.007   3.421
 9281SOL     OW28741   2.788   4.747   0.675
 9281SOL    HW128742   2.831   4.739   0.585
 9281SOL    HW228743   2.696   4.784   0.665
 9282SOL     OW28744   4.498   1.271   4.046
 9282SOL    HW128745   4.585   1.274   4.096
 9282SOL    HW228746   4.517   1.263   3.948
 9283SOL     OW28747   5.327   0.668   3.486
 9283SOL    HW128748   5.275   0.599   3.537
 9283SOL    HW228749   5.359   0.629   3.400
 9284SOL     OW28750   3.388   3.516   5.892
 9284SOL    HW128751   3.343   3.530   5.980
 9284SOL    HW228752   3.421   3.604   5.857
 9285SOL     OW28753   5.021   3.107   1.034
 9285SOL    HW128754   5.035   3.065   0.944
 9285SOL    HW228755   4.956   3.051   1.086
 9286SOL     OW28756   5.528   6.120   0.228
 9286SOL    HW128757   5.526   6.170   0.314
 9286SOL    HW228758   5.615   6.138   0.181
 9287SOL     OW28759   3.424   4.732   6.678
 9287SOL    HW128760   3.498   4.792   6.709
 9287SOL    HW228761   3.363   4.713   6.755
 9288SOL     OW28762   4.869   1.272   3.940
 9288SOL    HW128763   4.890   1.174   3.938
 9288SOL    HW228764   4.806   1.291   4.016
 9289SOL     OW28765   3.708   1.273   2.499
 9289SOL    HW128766   3.686   1.177   2.481
 9289SOL    HW228767   3.660   1.331   2.433
 9290SOL     OW28768   5.345   1.383   2.940
 9290SOL    HW128769   5.257   1.352   2.975
 9290SOL    HW228770   5.406   1.305   2.926
 9291SOL     OW28771   1.499   6.405   4.320
 9291SOL    HW128772   1.562   6.482   4.311
 9291SOL    HW228773   1.521   6.354   4.404
 9292SOL     OW28774   0.729   3.420   0.137
 9292SOL    HW128775   0.659   3.350   0.128
 9292SOL    HW228776   0.818   3.384   0.109
 9293SOL     OW28777   5.179   3.750   6.611
 9293SOL    HW128778   5.173   3.837   6.562
 9293SOL    HW228779   5.207   3.678   6.547
 9294SOL     OW28780   4.012   0.819   5.465
 9294SOL    HW128781   4.109   0.805   5.449
 9294SOL    HW228782   3.998   0.849   5.559
 9295SOL     OW28783   5.593   2.349   4.547
 9295SOL    HW128784   5.638   2.350   4.636
 9295SOL    HW228785   5.512   2.406   4.549
 9296SOL     OW28786   0.701   6.595   0.059
 9296SOL    HW128787   0.646   6.567   7.001
 9296SOL    HW228788   0.641   6.640   0.126
 9297SOL     OW28789   6.562   0.465   0.996
 9297SOL    HW128790   6.646   0.438   0.951
 9297SOL    HW228791   6.583   0.527   1.072
 9298SOL     OW28792   0.586   0.386   5.655
 9298SOL    HW128793   0.656   0.328   5.614
 9298SOL    HW228794   0.496   0.362   5.618
 9299SOL     OW28795   0.477   2.701   5.133
 9299SOL    HW128796   0.500   2.798   5.119
 9299SOL    HW228797   0.526   2.645   5.067
 9300SOL     OW28798   0.654   4.851   5.620
 9300SOL    HW128799   0.598   4.769   5.637
 9300SOL    HW228800   0.713   4.868   5.699
 9301SOL     OW28801   4.826   4.751   3.800
 9301SOL    HW128802   4.748   4.799   3.841
 9301SOL    HW228803   4.792   4.676   3.743
 9302SOL     OW28804   2.183   3.312   3.988
 9302SOL    HW128805   2.227   3.225   4.009
 9302SOL    HW228806   2.165   3.317   3.889
 9303SOL     OW28807   2.466   4.846   0.683
 9303SOL    HW128808   2.397   4.774   0.689
 9303SOL    HW228809   2.426   4.933   0.712
 9304SOL     OW28810   4.317   4.702   2.082
 9304SOL    HW128811   4.366   4.615   2.080
 9304SOL    HW228812   4.359   4.762   2.150
 9305SOL     OW28813   3.538   0.971   0.340
 9305SOL    HW128814   3.623   0.956   0.290
 9305SOL    HW228815   3.469   1.009   0.279
 9306SOL     OW28816   0.149   4.768   4.449
 9306SOL    HW128817   0.087   4.837   4.486
 9306SOL    HW228818   0.174   4.792   4.355
 9307SOL     OW28819   1.972   3.415   1.889
 9307SOL    HW128820   1.938   3.507   1.870
 9307SOL    HW228821   2.055   3.421   1.945
 9308SOL     OW28822   1.837   3.658   0.626
 9308SOL    HW128823   1.816   3.635   0.721
 9308SOL    HW228824   1.865   3.575   0.577
 9309SOL     OW28825   3.421   4.669   6.115
 9309SOL    HW128826   3.411   4.677   6.214
 9309SOL    HW228827   3.404   4.575   6.087
 9310SOL     OW28828   4.618   5.035   6.451
 9310SOL    HW128829   4.578   4.987   6.529
 9310SOL    HW228830   4.691   5.095   6.483
 9311SOL     OW28831   4.231   4.968   2.388
 9311SOL    HW128832   4.166   4.896   2.414
 9311SOL    HW228833   4.186   5.031   2.325
 9312SOL     OW28834   1.227   3.582   1.390
 9312SOL    HW128835   1.220   3.664   1.333
 9312SOL    HW228836   1.136   3.557   1.423
 9313SOL     OW28837   0.713   0.903   1.208
 9313SOL    HW128838   0.652   0.843   1.156
 9313SOL    HW228839   0.723   0.868   1.301
 9314SOL     OW28840   5.179   5.220   6.592
 9314SOL    HW128841   5.166   5.259   6.684
 9314SOL    HW228842   5.197   5.294   6.527
 9315SOL     OW28843   6.110   0.611   5.010
 9315SOL    HW128844   6.122   0.585   5.105
 9315SOL    HW228845   6.167   0.691   4.990
 9316SOL     OW28846   4.192   5.697   5.083
 9316SOL    HW128847   4.139   5.765   5.133
 9316SOL    HW228848   4.272   5.671   5.138
 9317SOL     OW28849   5.421   5.159   3.253
 9317SOL    HW128850   5.338   5.120   3.292
 9317SOL    HW228851   5.457   5.229   3.314
 9318SOL     OW28852   6.162   1.000   5.580
 9318SOL    HW128853   6.153   1.074   5.646
 9318SOL    HW228854   6.162   0.912   5.627
 9319SOL     OW28855   1.997   2.993   0.287
 9319SOL    HW128856   1.934   2.925   0.250
 9319SOL    HW228857   2.065   3.016   0.217
 9320SOL     OW28858   3.878   0.139   4.995
 9320SOL    HW128859   3.956   0.201   4.993
 9320SOL    HW228860   3.796   0.189   5.022
 9321SOL     OW28861   6.857   0.172   3.471
 9321SOL    HW128862   6.945   0.125   3.475
 9321SOL    HW228863   6.872   0.267   3.441
 9322SOL     OW28864   0.274   4.373   6.915
 9322SOL    HW128865   0.179   4.378   6.946
 9322SOL    HW228866   0.287   4.437   6.839
 9323SOL     OW28867   0.877   0.476   5.528
 9323SOL    HW128868   0.897   0.561   5.576
 9323SOL    HW228869   0.949   0.409   5.548
 9324SOL     OW28870   1.134   4.481   0.708
 9324SOL    HW128871   1.130   4.537   0.792
 9324SOL    HW228872   1.223   4.436   0.703
 9325SOL     OW28873   5.422   0.201   0.427
 9325SOL    HW128874   5.433   0.217   0.525
 9325SOL    HW228875   5.363   0.271   0.388
 9326SOL     OW28876   2.244   5.312   0.125
 9326SOL    HW128877   2.298   5.267   0.054
 9326SOL    HW228878   2.150   5.322   0.093
 9327SOL     OW28879   5.529   0.825   2.729
 9327SOL    HW128880   5.571   0.901   2.681
 9327SOL    HW228881   5.574   0.811   2.817
 9328SOL     OW28882   2.508   1.105   4.989
 9328SOL    HW128883   2.542   1.039   4.922
 9328SOL    HW228884   2.583   1.135   5.048
 9329SOL     OW28885   5.864   3.783   1.034
 9329SOL    HW128886   5.878   3.723   1.112
 9329SOL    HW228887   5.768   3.782   1.007
 9330SOL     OW28888   6.468   6.898   6.284
 9330SOL    HW128889   6.517   6.938   6.206
 9330SOL    HW228890   6.437   6.970   6.345
 9331SOL     OW28891   2.646   1.260   0.221
 9331SOL    HW128892   2.645   1.320   0.300
 9331SOL    HW228893   2.556   1.219   0.209
 9332SOL     OW28894   4.051   4.098   1.502
 9332SOL    HW128895   4.009   4.015   1.464
 9332SOL    HW228896   4.040   4.173   1.436
 9333SOL     OW28897   4.552   3.937   0.025
 9333SOL    HW128898   4.514   4.023   7.011
 9333SOL    HW228899   4.558   3.941   0.125
 9334SOL     OW28900   6.072   5.975   3.284
 9334SOL    HW128901   6.009   5.995   3.209
 9334SOL    HW228902   6.027   5.914   3.349
 9335SOL     OW28903   0.868   1.465   6.847
 9335SOL    HW128904   0.786   1.493   6.797
 9335SOL    HW228905   0.945   1.455   6.783
 9336SOL     OW28906   3.178   5.782   5.776
 9336SOL    HW128907   3.257   5.817   5.826
 9336SOL    HW228908   3.200   5.693   5.736
 9337SOL     OW28909   4.008   1.841   4.638
 9337SOL    HW128910   4.028   1.807   4.546
 9337SOL    HW228911   3.918   1.883   4.639
 9338SOL     OW28912   5.047   0.404   1.999
 9338SOL    HW128913   5.029   0.500   1.978
 9338SOL    HW228914   5.145   0.386   1.991
 9339SOL     OW28915   5.904   7.012   1.742
 9339SOL    HW128916   5.884   6.915   1.757
 9339SOL    HW228917   5.973   7.020   1.669
 9340SOL     OW28918   5.563   4.203   4.452
 9340SOL    HW128919   5.547   4.198   4.550
 9340SOL    HW228920   5.500   4.269   4.411
 9341SOL     OW28921   0.158   5.972   0.869
 9341SOL    HW128922   0.153   5.956   0.770
 9341SOL    HW228923   0.254   5.979   0.896
 9342SOL     OW28924   2.267   6.358   3.842
 9342SOL    HW128925   2.362   6.380   3.820
 9342SOL    HW228926   2.265   6.287   3.912
 9343SOL     OW28927   5.626   4.259   2.423
 9343SOL    HW128928   5.689   4.278   2.499
 9343SOL    HW228929   5.672   4.199   2.357
 9344SOL     OW28930   5.097   6.395   2.749
 9344SOL    HW128931   5.035   6.361   2.678
 9344SOL    HW228932   5.149   6.318   2.787
 9345SOL     OW28933   5.858   5.692   2.166
 9345SOL    HW128934   5.936   5.638   2.197
 9345SOL    HW228935   5.780   5.631   2.149
 9346SOL     OW28936   5.754   1.782   1.166
 9346SOL    HW128937   5.798   1.793   1.255
 9346SOL    HW228938   5.813   1.731   1.104
 9347SOL     OW28939   3.006   3.795   0.355
 9347SOL    HW128940   3.028   3.730   0.283
 9347SOL    HW228941   2.962   3.875   0.316
 9348SOL     OW28942   3.320   6.497   1.985
 9348SOL    HW128943   3.295   6.577   2.040
 9348SOL    HW228944   3.347   6.422   2.045
 9349SOL     OW28945   6.916   5.756   3.286
 9349SOL    HW128946   6.907   5.806   3.200
 9349SOL    HW228947   6.903   5.818   3.363
 9350SOL     OW28948   0.341   3.040   5.223
 9350SOL    HW128949   0.364   3.038   5.125
 9350SOL    HW228950   0.380   2.960   5.268
 9351SOL     OW28951   3.107   0.042   0.207
 9351SOL    HW128952   3.083   0.134   0.177
 9351SOL    HW228953   3.183   0.007   0.152
 9352SOL     OW28954   3.971   1.532   6.509
 9352SOL    HW128955   4.004   1.480   6.588
 9352SOL    HW228956   3.872   1.544   6.516
 9353SOL     OW28957   0.578   4.303   0.790
 9353SOL    HW128958   0.579   4.220   0.846
 9353SOL    HW228959   0.615   4.282   0.699
 9354SOL     OW28960   0.077   2.136   6.420
 9354SOL    HW128961   0.062   2.157   6.517
 9354SOL    HW228962   0.134   2.207   6.379
 9355SOL     OW28963   0.532   1.764   4.328
 9355SOL    HW128964   0.516   1.770   4.229
 9355SOL    HW228965   0.507   1.850   4.372
 9356SOL     OW28966   4.801   0.303   1.970
 9356SOL    HW128967   4.742   0.317   2.050
 9356SOL    HW228968   4.896   0.318   1.996
 9357SOL     OW28969   1.766   3.172   5.701
 9357SOL    HW128970   1.843   3.192   5.640
 9357SOL    HW228971   1.745   3.074   5.696
 9358SOL     OW28972   6.720   3.316   2.012
 9358SOL    HW128973   6.643   3.253   2.007
 9358SOL    HW228974   6.746   3.344   1.920
 9359SOL     OW28975   1.972   4.482   5.521
 9359SOL    HW128976   2.042   4.489   5.593
 9359SOL    HW228977   1.912   4.562   5.526
 9360SOL     OW28978   0.775   4.655   6.630
 9360SOL    HW128979   0.867   4.662   6.591
 9360SOL    HW228980   0.759   4.560   6.657
 9361SOL     OW28981   1.928   5.461   3.019
 9361SOL    HW128982   1.891   5.373   2.989
 9361SOL    HW228983   1.857   5.510   3.071
 9362SOL     OW28984   1.781   1.609   2.755
 9362SOL    HW128985   1.825   1.564   2.678
 9362SOL    HW228986   1.803   1.707   2.753
 9363SOL     OW28987   3.092   5.583   1.835
 9363SOL    HW128988   3.060   5.551   1.746
 9363SOL    HW228989   3.140   5.670   1.824
 9364SOL     OW28990   2.687   2.302   6.392
 9364SOL    HW128991   2.735   2.222   6.356
 9364SOL    HW228992   2.753   2.375   6.412
 9365SOL     OW28993   3.127   2.204   3.420
 9365SOL    HW128994   3.090   2.293   3.393
 9365SOL    HW228995   3.128   2.199   3.520
 9366SOL     OW28996   3.440   5.451   6.371
 9366SOL    HW128997   3.514   5.470   6.436
 9366SOL    HW228998   3.377   5.385   6.411
 9367SOL     OW28999   6.676   6.238   2.225
 9367SOL    HW129000   6.698   6.157   2.279
 9367SOL    HW229001   6.751   6.303   2.229
 9368SOL     OW29002   3.173   0.590   3.008
 9368SOL    HW129003   3.234   0.562   3.081
 9368SOL    HW229004   3.115   0.513   2.981
 9369SOL     OW29005   6.850   6.740   3.685
 9369SOL    HW129006   6.780   6.674   3.713
 9369SOL    HW229007   6.861   6.737   3.586
 9370SOL     OW29008   5.462   0.527   4.485
 9370SOL    HW129009   5.483   0.461   4.557
 9370SOL    HW229010   5.490   0.619   4.515
 9371SOL     OW29011   2.370   5.300   0.372
 9371SOL    HW129012   2.317   5.300   0.287
 9371SOL    HW229013   2.466   5.284   0.351
 9372SOL     OW29014   5.247   6.558   1.165
 9372SOL    HW129015   5.180   6.626   1.195
 9372SOL    HW229016   5.339   6.592   1.180
 9373SOL     OW29017   4.528   2.626   1.468
 9373SOL    HW129018   4.533   2.674   1.555
 9373SOL    HW229019   4.563   2.685   1.395
 9374SOL     OW29020   0.881   2.951   6.636
 9374SOL    HW129021   0.837   2.965   6.547
 9374SOL    HW229022   0.816   2.971   6.709
 9375SOL     OW29023   0.676   2.414   0.956
 9375SOL    HW129024   0.602   2.362   0.913
 9375SOL    HW229025   0.711   2.482   0.891
 9376SOL     OW29026   2.385   4.132   1.395
 9376SOL    HW129027   2.300   4.184   1.390
 9376SOL    HW229028   2.397   4.080   1.310
 9377SOL     OW29029   1.942   5.015   3.121
 9377SOL    HW129030   1.860   5.022   3.066
 9377SOL    HW229031   2.010   4.960   3.072
 9378SOL     OW29032   2.950   1.457   3.299
 9378SOL    HW129033   3.034   1.489   3.343
 9378SOL    HW229034   2.948   1.357   3.299
 9379SOL     OW29035   4.731   0.124   5.196
 9379SOL    HW129036   4.653   0.117   5.134
 9379SOL    HW229037   4.714   0.068   5.277
 9380SOL     OW29038   3.773   5.390   4.978
 9380SOL    HW129039   3.714   5.466   5.005
 9380SOL    HW229040   3.784   5.328   5.055
 9381SOL     OW29041   5.519   2.997   5.987
 9381SOL    HW129042   5.470   3.071   6.033
 9381SOL    HW229043   5.612   3.028   5.965
 9382SOL     OW29044   3.923   0.447   3.330
 9382SOL    HW129045   3.920   0.544   3.354
 9382SOL    HW229046   3.945   0.438   3.232
 9383SOL     OW29047   5.486   4.779   3.782
 9383SOL    HW129048   5.421   4.738   3.845
 9383SOL    HW229049   5.495   4.877   3.803
 9384SOL     OW29050   4.126   0.032   2.242
 9384SOL    HW129051   4.194   7.017   2.307
 9384SOL    HW229052   4.034   0.012   2.276
 9385SOL     OW29053   4.497   1.607   4.181
 9385SOL    HW129054   4.577   1.621   4.124
 9385SOL    HW229055   4.490   1.681   4.248
 9386SOL     OW29056   3.258   5.716   5.455
 9386SOL    HW129057   3.213   5.688   5.370
 9386SOL    HW229058   3.355   5.732   5.438
 9387SOL     OW29059   2.737   2.262   0.731
 9387SOL    HW129060   2.693   2.288   0.645
 9387SOL    HW229061   2.820   2.209   0.712
 9388SOL     OW29062   2.580   6.115   3.699
 9388SOL    HW129063   2.515   6.115   3.623
 9388SOL    HW229064   2.583   6.025   3.741
 9389SOL     OW29065   2.801   0.378   3.074
 9389SOL    HW129066   2.718   0.349   3.027
 9389SOL    HW229067   2.874   0.395   3.007
 9390SOL     OW29068   5.670   5.179   5.891
 9390SOL    HW129069   5.693   5.119   5.968
 9390SOL    HW229070   5.592   5.236   5.916
 9391SOL     OW29071   0.396   6.966   6.437
 9391SOL    HW129072   0.478   6.968   6.379
 9391SOL    HW229073   0.349   0.032   6.432
 9392SOL     OW29074   5.262   4.872   5.155
 9392SOL    HW129075   5.308   4.922   5.081
 9392SOL    HW229076   5.321   4.798   5.186
 9393SOL     OW29077   2.922   0.320   5.752
 9393SOL    HW129078   2.937   0.404   5.701
 9393SOL    HW229079   2.916   0.340   5.849
 9394SOL     OW29080   6.172   0.753   1.018
 9394SOL    HW129081   6.137   0.662   0.996
 9394SOL    HW229082   6.108   0.822   0.983
 9395SOL     OW29083   2.690   0.879   0.532
 9395SOL    HW129084   2.688   0.834   0.443
 9395SOL    HW229085   2.772   0.851   0.582
 9396SOL     OW29086   1.945   4.834   4.634
 9396SOL    HW129087   2.043   4.842   4.615
 9396SOL    HW229088   1.925   4.741   4.667
 9397SOL     OW29089   3.224   6.241   5.979
 9397SOL    HW129090   3.308   6.228   6.032
 9397SOL    HW229091   3.164   6.306   6.026
 9398SOL     OW29092   6.048   0.813   6.034
 9398SOL    HW129093   5.982   0.739   6.021
 9398SOL    HW229094   6.009   0.883   6.093
 9399SOL     OW29095   0.710   3.178   4.544
 9399SOL    HW129096   0.794   3.173   4.489
 9399SOL    HW229097   0.684   3.274   4.556
 9400SOL     OW29098   4.630   0.817   1.161
 9400SOL    HW129099   4.665   0.758   1.088
 9400SOL    HW229100   4.543   0.780   1.194
 9401SOL     OW29101   6.931   2.055   2.936
 9401SOL    HW129102   6.835   2.034   2.950
 9401SOL    HW229103   6.983   2.035   3.019
 9402SOL     OW29104   0.995   3.850   3.050
 9402SOL    HW129105   0.998   3.938   3.097
 9402SOL    HW229106   1.025   3.862   2.955
 9403SOL     OW29107   6.396   1.657   1.982
 9403SOL    HW129108   6.477   1.693   1.936
 9403SOL    HW229109   6.408   1.665   2.081
 9404SOL     OW29110   0.484   2.235   1.492
 9404SOL    HW129111   0.414   2.207   1.558
 9404SOL    HW229112   0.444   2.301   1.428
 9405SOL     OW29113   1.982   4.238   3.898
 9405SOL    HW129114   1.986   4.321   3.843
 9405SOL    HW229115   1.932   4.167   3.848
 9406SOL     OW29116   0.653   3.395   6.559
 9406SOL    HW129117   0.642   3.366   6.653
 9406SOL    HW229118   0.694   3.322   6.505
 9407SOL     OW29119   2.568   5.567   4.443
 9407SOL    HW129120   2.498   5.618   4.493
 9407SOL    HW229121   2.653   5.569   4.495
 9408SOL     OW29122   6.864   2.697   5.777
 9408SOL    HW129123   6.796   2.734   5.841
 9408SOL    HW229124   6.906   2.772   5.726
 9409SOL     OW29125   6.267   5.881   1.883
 9409SOL    HW129126   6.191   5.910   1.941
 9409SOL    HW229127   6.241   5.799   1.831
 9410SOL     OW29128   3.787   1.025   1.763
 9410SOL    HW129129   3.755   0.933   1.740
 9410SOL    HW229130   3.710   1.088   1.767
 9411SOL     OW29131   3.950   3.162   3.405
 9411SOL    HW129132   3.960   3.188   3.501
 9411SOL    HW229133   3.983   3.236   3.346
 9412SOL     OW29134   2.014   0.570   2.283
 9412SOL    HW129135   2.032   0.598   2.377
 9412SOL    HW229136   2.060   0.632   2.220
 9413SOL     OW29137   4.660   5.249   3.888
 9413SOL    HW129138   4.646   5.266   3.985
 9413SOL    HW229139   4.757   5.262   3.866
 9414SOL     OW29140   3.036   1.393   3.910
 9414SOL    HW129141   2.947   1.364   3.875
 9414SOL    HW229142   3.089   1.433   3.835
 9415SOL     OW29143   2.108   6.815   1.788
 9415SOL    HW129144   2.154   6.748   1.731
 9415SOL    HW229145   2.049   6.873   1.731
 9416SOL     OW29146   6.972   0.572   5.961
 9416SOL    HW129147   6.936   0.641   5.898
 9416SOL    HW229148   6.898   0.513   5.993
 9417SOL     OW29149   3.647   6.823   0.572
 9417SOL    HW129150   3.555   6.809   0.609
 9417SOL    HW229151   3.666   6.920   0.566
 9418SOL     OW29152   1.959   1.479   2.100
 9418SOL    HW129153   1.875   1.502   2.051
 9418SOL    HW229154   1.936   1.438   2.188
 9419SOL     OW29155   1.657   3.549   6.227
 9419SOL    HW129156   1.700   3.542   6.317
 9419SOL    HW229157   1.586   3.620   6.230
 9420SOL     OW29158   5.743   4.211   6.903
 9420SOL    HW129159   5.677   4.185   6.973
 9420SOL    HW229160   5.785   4.298   6.927
 9421SOL     OW29161   3.089   5.429   4.902
 9421SOL    HW129162   3.000   5.387   4.921
 9421SOL    HW229163   3.161   5.376   4.947
 9422SOL     OW29164   3.208   6.053   3.371
 9422SOL    HW129165   3.110   6.046   3.352
 9422SOL    HW229166   3.228   6.143   3.408
 9423SOL     OW29167   3.916   6.552   3.133
 9423SOL    HW129168   3.842   6.548   3.201
 9423SOL    HW229169   3.999   6.585   3.177
 9424SOL     OW29170   5.262   1.878   4.585
 9424SOL    HW129171   5.334   1.907   4.647
 9424SOL    HW229172   5.260   1.778   4.580
 9425SOL     OW29173   5.585   4.945   0.877
 9425SOL    HW129174   5.614   5.008   0.804
 9425SOL    HW229175   5.514   4.989   0.932
 9426SOL     OW29176   2.453   1.691   5.912
 9426SOL    HW129177   2.393   1.627   5.864
 9426SOL    HW229178   2.449   1.674   6.010
 9427SOL     OW29179   2.631   5.651   3.257
 9427SOL    HW129180   2.652   5.664   3.160
 9427SOL    HW229181   2.669   5.563   3.287
 9428SOL     OW29182   0.226   6.899   0.785
 9428SOL    HW129183   0.224   6.999   0.777
 9428SOL    HW229184   0.293   6.873   0.853
 9429SOL     OW29185   2.323   2.758   3.626
 9429SOL    HW129186   2.327   2.832   3.693
 9429SOL    HW229187   2.230   2.721   3.624
 9430SOL     OW29188   0.487   1.997   4.769
 9430SOL    HW129189   0.523   1.994   4.676
 9430SOL    HW229190   0.397   2.040   4.769
 9431SOL     OW29191   6.638   5.009   1.053
 9431SOL    HW129192   6.567   5.065   1.011
 9431SOL    HW229193   6.597   4.954   1.126
 9432SOL     OW29194   5.964   1.314   4.551
 9432SOL    HW129195   6.012   1.365   4.479
 9432SOL    HW229196   5.945   1.221   4.518
 9433SOL     OW29197   3.396   6.776   2.958
 9433SOL    HW129198   3.465   6.741   3.022
 9433SOL    HW229199   3.415   6.741   2.867
 9434SOL     OW29200   6.012   5.569   2.917
 9434SOL    HW129201   6.034   5.508   2.841
 9434SOL    HW229202   6.092   5.579   2.976
 9435SOL     OW29203   0.436   1.746   3.207
 9435SOL    HW129204   0.351   1.719   3.253
 9435SOL    HW229205   0.499   1.669   3.208
 9436SOL     OW29206   1.640   1.220   2.768
 9436SOL    HW129207   1.547   1.235   2.801
 9436SOL    HW229208   1.705   1.259   2.833
 9437SOL     OW29209   0.406   5.251   3.230
 9437SOL    HW129210   0.458   5.269   3.146
 9437SOL    HW229211   0.457   5.190   3.289
 9438SOL     OW29212   1.290   6.929   1.985
 9438SOL    HW129213   1.316   0.005   1.983
 9438SOL    HW229214   1.346   6.881   2.053
 9439SOL     OW29215   0.686   3.187   1.579
 9439SOL    HW129216   0.748   3.263   1.558
 9439SOL    HW229217   0.646   3.152   1.494
 9440SOL     OW29218   3.816   4.900   3.450
 9440SOL    HW129219   3.719   4.899   3.475
 9440SOL    HW229220   3.871   4.865   3.526
 9441SOL     OW29221   6.606   5.794   5.734
 9441SOL    HW129222   6.570   5.743   5.655
 9441SOL    HW229223   6.683   5.743   5.773
 9442SOL     OW29224   4.741   3.429   1.693
 9442SOL    HW129225   4.673   3.372   1.648
 9442SOL    HW229226   4.782   3.379   1.769
 9443SOL     OW29227   2.314   5.376   0.654
 9443SOL    HW129228   2.348   5.349   0.564
 9443SOL    HW229229   2.355   5.463   0.681
 9444SOL     OW29230   1.817   4.251   0.764
 9444SOL    HW129231   1.885   4.219   0.831
 9444SOL    HW229232   1.727   4.219   0.790
 9445SOL     OW29233   6.740   3.142   3.522
 9445SOL    HW129234   6.643   3.155   3.544
 9445SOL    HW229235   6.787   3.101   3.601
 9446SOL     OW29236   6.989   5.464   4.484
 9446SOL    HW129237   0.030   5.533   4.449
 9446SOL    HW229238   7.011   5.445   4.580
 9447SOL     OW29239   5.473   5.297   3.496
 9447SOL    HW129240   5.427   5.314   3.584
 9447SOL    HW229241   5.515   5.206   3.498
 9448SOL     OW29242   6.731   6.705   6.137
 9448SOL    HW129243   6.700   6.712   6.042
 9448SOL    HW229244   6.656   6.728   6.199
 9449SOL     OW29245   6.153   6.779   0.015
 9449SOL    HW129246   6.244   6.772   0.055
 9449SOL    HW229247   6.084   6.780   0.087
 9450SOL     OW29248   2.346   5.639   3.273
 9450SOL    HW129249   2.433   5.681   3.296
 9450SOL    HW229250   2.359   5.572   3.199
 9451SOL     OW29251   3.671   5.904   5.619
 9451SOL    HW129252   3.748   5.858   5.573
 9451SOL    HW229253   3.701   5.992   5.654
 9452SOL     OW29254   1.119   4.244   0.104
 9452SOL    HW129255   1.215   4.273   0.098
 9452SOL    HW229256   1.110   4.152   0.064
 9453SOL     OW29257   2.719   4.978   2.782
 9453SOL    HW129258   2.646   5.007   2.844
 9453SOL    HW229259   2.726   4.878   2.784
 9454SOL     OW29260   3.585   3.087   6.374
 9454SOL    HW129261   3.520   3.154   6.410
 9454SOL    HW229262   3.612   3.114   6.282
 9455SOL     OW29263   2.728   2.210   2.671
 9455SOL    HW129264   2.728   2.262   2.586
 9455SOL    HW229265   2.798   2.139   2.668
 9456SOL     OW29266   6.105   3.722   1.263
 9456SOL    HW129267   6.064   3.813   1.275
 9456SOL    HW229268   6.046   3.653   1.304
 9457SOL     OW29269   0.289   5.173   4.514
 9457SOL    HW129270   0.310   5.222   4.598
 9457SOL    HW229271   0.373   5.149   4.467
 9458SOL     OW29272   0.215   4.164   0.234
 9458SOL    HW129273   0.238   4.195   0.142
 9458SOL    HW229274   0.242   4.068   0.245
 9459SOL     OW29275   5.430   5.046   3.840
 9459SOL    HW129276   5.512   5.101   3.822
 9459SOL    HW229277   5.434   5.009   3.933
 9460SOL     OW29278   2.075   3.591   4.792
 9460SOL    HW129279   2.096   3.664   4.857
 9460SOL    HW229280   2.097   3.620   4.699
 9461SOL     OW29281   0.322   2.284   2.343
 9461SOL    HW129282   0.406   2.240   2.312
 9461SOL    HW229283   0.252   2.278   2.271
 9462SOL     OW29284   1.850   2.852   3.568
 9462SOL    HW129285   1.902   2.767   3.559
 9462SOL    HW229286   1.788   2.844   3.647
 9463SOL     OW29287   5.522   6.594   1.134
 9463SOL    HW129288   5.573   6.519   1.092
 9463SOL    HW229289   5.552   6.606   1.229
 9464SOL     OW29290   5.967   6.960   0.948
 9464SOL    HW129291   6.007   6.957   0.857
 9464SOL    HW229292   5.979   0.030   0.987
 9465SOL     OW29293   0.082   3.630   1.784
 9465SOL    HW129294   0.109   3.632   1.881
 9465SOL    HW229295   0.028   3.711   1.763
 9466SOL     OW29296   3.357   4.107   5.684
 9466SOL    HW129297   3.289   4.179   5.674
 9466SOL    HW229298   3.404   4.092   5.597
 9467SOL     OW29299   0.564   2.799   1.129
 9467SOL    HW129300   0.544   2.701   1.129
 9467SOL    HW229301   0.568   2.832   1.035
 9468SOL     OW29302   6.339   3.394   6.459
 9468SOL    HW129303   6.288   3.334   6.397
 9468SOL    HW229304   6.306   3.487   6.450
 9469SOL     OW29305   6.814   5.719   1.220
 9469SOL    HW129306   6.833   5.817   1.223
 9469SOL    HW229307   6.893   5.669   1.255
 9470SOL     OW29308   4.579   3.319   0.035
 9470SOL    HW129309   4.498   3.365   0.073
 9470SOL    HW229310   4.608   3.368   6.974
 9471SOL     OW29311   6.404   1.855   4.751
 9471SOL    HW129312   6.446   1.945   4.766
 9471SOL    HW229313   6.451   1.809   4.676
 9472SOL     OW29314   0.340   3.879   5.911
 9472SOL    HW129315   0.274   3.808   5.886
 9472SOL    HW229316   0.292   3.956   5.953
 9473SOL     OW29317   3.351   4.116   6.660
 9473SOL    HW129318   3.371   4.193   6.720
 9473SOL    HW229319   3.336   4.034   6.715
 9474SOL     OW29320   5.933   3.946   2.078
 9474SOL    HW129321   5.946   3.873   2.146
 9474SOL    HW229322   5.987   3.926   1.997
 9475SOL     OW29323   4.595   3.237   0.370
 9475SOL    HW129324   4.562   3.262   0.461
 9475SOL    HW229325   4.634   3.317   0.326
 9476SOL     OW29326   4.040   3.833   4.638
 9476SOL    HW129327   4.126   3.882   4.653
 9476SOL    HW229328   4.057   3.755   4.578
 9477SOL     OW29329   0.487   2.538   1.121
 9477SOL    HW129330   0.557   2.493   1.066
 9477SOL    HW229331   0.456   2.476   1.192
 9478SOL     OW29332   5.410   3.333   1.328
 9478SOL    HW129333   5.357   3.369   1.252
 9478SOL    HW229334   5.418   3.234   1.320
 9479SOL     OW29335   4.625   6.426   1.021
 9479SOL    HW129336   4.604   6.520   0.995
 9479SOL    HW229337   4.555   6.392   1.084
 9480SOL     OW29338   5.970   4.962   0.295
 9480SOL    HW129339   5.975   4.869   0.332
 9480SOL    HW229340   6.039   5.020   0.339
 9481SOL     OW29341   4.838   2.353   2.345
 9481SOL    HW129342   4.858   2.365   2.443
 9481SOL    HW229343   4.858   2.259   2.318
 9482SOL     OW29344   6.803   0.540   2.674
 9482SOL    HW129345   6.732   0.609   2.663
 9482SOL    HW229346   6.861   0.563   2.753
 9483SOL     OW29347   1.675   1.173   0.532
 9483SOL    HW129348   1.701   1.233   0.457
 9483SOL    HW229349   1.735   1.187   0.610
 9484SOL     OW29350   3.242   0.061   4.715
 9484SOL    HW129351   3.260   0.160   4.712
 9484SOL    HW229352   3.153   0.042   4.673
 9485SOL     OW29353   0.414   1.824   0.921
 9485SOL    HW129354   0.388   1.862   0.832
 9485SOL    HW229355   0.484   1.882   0.963
 9486SOL     OW29356   4.414   6.182   1.376
 9486SOL    HW129357   4.387   6.109   1.439
 9486SOL    HW229358   4.449   6.260   1.428
 9487SOL     OW29359   3.410   4.052   4.009
 9487SOL    HW129360   3.498   4.077   4.051
 9487SOL    HW229361   3.339   4.053   4.079
 9488SOL     OW29362   2.788   0.434   1.124
 9488SOL    HW129363   2.809   0.357   1.065
 9488SOL    HW229364   2.707   0.481   1.090
 9489SOL     OW29365   5.138   4.392   1.171
 9489SOL    HW129366   5.153   4.373   1.074
 9489SOL    HW229367   5.068   4.331   1.207
 9490SOL     OW29368   6.954   5.591   3.666
 9490SOL    HW129369   6.896   5.529   3.720
 9490SOL    HW229370   6.923   5.592   3.571
 9491SOL     OW29371   5.548   5.819   3.922
 9491SOL    HW129372   5.474   5.866   3.971
 9491SOL    HW229373   5.610   5.887   3.884
 9492SOL     OW29374   3.689   3.403   4.868
 9492SOL    HW129375   3.664   3.308   4.889
 9492SOL    HW229376   3.706   3.412   4.770
 9493SOL     OW29377   2.961   5.787   4.598
 9493SOL    HW129378   2.960   5.735   4.683
 9493SOL    HW229379   2.985   5.727   4.522
 9494SOL     OW29380   5.570   2.970   2.569
 9494SOL    HW129381   5.660   3.011   2.556
 9494SOL    HW229382   5.514   2.985   2.487
 9495SOL     OW29383   6.884   1.539   2.895
 9495SOL    HW129384   6.966   1.486   2.873
 9495SOL    HW229385   6.912   1.628   2.931
 9496SOL     OW29386   5.301   2.733   1.775
 9496SOL    HW129387   5.331   2.816   1.823
 9496SOL    HW229388   5.371   2.662   1.785
 9497SOL     OW29389   4.630   5.913   5.086
 9497SOL    HW129390   4.582   5.982   5.031
 9497SOL    HW229391   4.728   5.929   5.080
 9498SOL     OW29392   6.510   4.792   4.519
 9498SOL    HW129393   6.562   4.826   4.598
 9498SOL    HW229394   6.421   4.836   4.516
 9499SOL     OW29395   1.144   5.897   5.070
 9499SOL    HW129396   1.075   5.849   5.016
 9499SOL    HW229397   1.176   5.977   5.021
 9500SOL     OW29398   4.084   6.776   0.589
 9500SOL    HW129399   4.095   6.746   0.494
 9500SOL    HW229400   4.080   6.696   0.649
 9501SOL     OW29401   1.905   1.254   4.284
 9501SOL    HW129402   1.964   1.173   4.288
 9501SOL    HW229403   1.885   1.286   4.376
 9502SOL     OW29404   6.091   3.437   5.210
 9502SOL    HW129405   6.087   3.452   5.111
 9502SOL    HW229406   6.067   3.521   5.257
 9503SOL     OW29407   6.553   2.703   0.156
 9503SOL    HW129408   6.600   2.778   0.204
 9503SOL    HW229409   6.621   2.637   0.123
 9504SOL     OW29410   6.985   4.028   2.023
 9504SOL    HW129411   7.019   3.974   2.100
 9504SOL    HW229412   6.905   4.080   2.052
 9505SOL     OW29413   4.953   4.572   5.619
 9505SOL    HW129414   4.921   4.513   5.545
 9505SOL    HW229415   4.919   4.665   5.606
 9506SOL     OW29416   1.518   2.772   0.958
 9506SOL    HW129417   1.464   2.689   0.942
 9506SOL    HW229418   1.614   2.748   0.965
 9507SOL     OW29419   6.795   0.911   1.686
 9507SOL    HW129420   6.756   0.969   1.758
 9507SOL    HW229421   6.895   0.919   1.688
 9508SOL     OW29422   5.778   1.974   2.828
 9508SOL    HW129423   5.730   2.011   2.748
 9508SOL    HW229424   5.821   2.049   2.878
 9509SOL     OW29425   6.931   0.843   3.033
 9509SOL    HW129426   6.946   0.878   3.125
 9509SOL    HW229427   6.877   0.909   2.981
 9510SOL     OW29428   1.340   4.142   3.177
 9510SOL    HW129429   1.338   4.049   3.214
 9510SOL    HW229430   1.249   4.166   3.145
 9511SOL     OW29431   2.310   0.638   1.211
 9511SOL    HW129432   2.250   0.662   1.287
 9511SOL    HW229433   2.334   0.541   1.217
 9512SOL     OW29434   6.718   2.066   0.361
 9512SOL    HW129435   6.731   2.165   0.353
 9512SOL    HW229436   6.641   2.047   0.423
 9513SOL     OW29437   2.808   4.365   6.712
 9513SOL    HW129438   2.747   4.286   6.721
 9513SOL    HW229439   2.875   4.347   6.641
 9514SOL     OW29440   2.671   4.679   6.656
 9514SOL    HW129441   2.755   4.689   6.603
 9514SOL    HW229442   2.661   4.585   6.687
 9515SOL     OW29443   1.978   6.299   2.746
 9515SOL    HW129444   2.018   6.352   2.671
 9515SOL    HW229445   2.034   6.218   2.763
 9516SOL     OW29446   5.747   4.515   0.192
 9516SOL    HW129447   5.656   4.514   0.151
 9516SOL    HW229448   5.753   4.443   0.262
 9517SOL     OW29449   2.114   4.215   1.352
 9517SOL    HW129450   2.091   4.275   1.275
 9517SOL    HW229451   2.077   4.123   1.335
 9518SOL     OW29452   2.020   1.443   0.756
 9518SOL    HW129453   1.976   1.533   0.746
 9518SOL    HW229454   2.026   1.420   0.853
 9519SOL     OW29455   2.946   3.093   5.244
 9519SOL    HW129456   3.015   3.161   5.217
 9519SOL    HW229457   2.983   3.001   5.231
 9520SOL     OW29458   2.577   0.674   2.940
 9520SOL    HW129459   2.598   0.764   2.979
 9520SOL    HW229460   2.491   0.640   2.979
 9521SOL     OW29461   5.809   5.491   2.551
 9521SOL    HW129462   5.825   5.414   2.614
 9521SOL    HW229463   5.789   5.455   2.460
 9522SOL     OW29464   3.002   5.410   1.207
 9522SOL    HW129465   3.015   5.463   1.291
 9522SOL    HW229466   3.071   5.436   1.139
 9523SOL     OW29467   3.107   5.526   5.216
 9523SOL    HW129468   3.122   5.435   5.254
 9523SOL    HW229469   3.191   5.557   5.170
 9524SOL     OW29470   3.778   2.721   1.142
 9524SOL    HW129471   3.834   2.785   1.196
 9524SOL    HW229472   3.778   2.749   1.046
 9525SOL     OW29473   2.458   2.495   6.359
 9525SOL    HW129474   2.426   2.440   6.282
 9525SOL    HW229475   2.546   2.459   6.392
 9526SOL     OW29476   4.898   6.122   1.706
 9526SOL    HW129477   4.869   6.057   1.777
 9526SOL    HW229478   4.828   6.128   1.635
 9527SOL     OW29479   0.643   0.440   2.157
 9527SOL    HW129480   0.615   0.536   2.152
 9527SOL    HW229481   0.585   0.386   2.097
 9528SOL     OW29482   6.579   0.675   0.375
 9528SOL    HW129483   6.485   0.703   0.395
 9528SOL    HW229484   6.629   0.663   0.461
 9529SOL     OW29485   0.104   2.926   5.253
 9529SOL    HW129486   0.109   2.833   5.289
 9529SOL    HW229487   0.196   2.957   5.228
 9530SOL     OW29488   1.556   3.184   3.513
 9530SOL    HW129489   1.569   3.212   3.608
 9530SOL    HW229490   1.570   3.086   3.505
 9531SOL     OW29491   3.847   5.156   3.310
 9531SOL    HW129492   3.927   5.195   3.264
 9531SOL    HW229493   3.859   5.057   3.320
 9532SOL     OW29494   0.255   6.019   1.996
 9532SOL    HW129495   0.241   6.113   2.026
 9532SOL    HW229496   0.326   6.016   1.926
 9533SOL     OW29497   0.144   0.632   4.838
 9533SOL    HW129498   0.161   0.691   4.917
 9533SOL    HW229499   0.088   0.554   4.866
 9534SOL     OW29500   6.171   2.843   5.482
 9534SOL    HW129501   6.164   2.823   5.385
 9534SOL    HW229502   6.097   2.905   5.509
 9535SOL     OW29503   2.249   1.476   5.822
 9535SOL    HW129504   2.179   1.512   5.884
 9535SOL    HW229505   2.217   1.484   5.728
 9536SOL     OW29506   2.840   4.938   5.248
 9536SOL    HW129507   2.834   4.942   5.149
 9536SOL    HW229508   2.792   4.856   5.281
 9537SOL     OW29509   2.580   0.421   2.190
 9537SOL    HW129510   2.618   0.481   2.119
 9537SOL    HW229511   2.563   0.474   2.273
 9538SOL     OW29512   6.551   1.830   4.439
 9538SOL    HW129513   6.474   1.890   4.463
 9538SOL    HW229514   6.524   1.769   4.366
 9539SOL     OW29515   2.301   4.347   6.147
 9539SOL    HW129516   2.290   4.263   6.093
 9539SOL    HW229517   2.239   4.345   6.225
 9540SOL     OW29518   4.556   4.188   5.261
 9540SOL    HW129519   4.644   4.158   5.225
 9540SOL    HW229520   4.513   4.113   5.311
 9541SOL     OW29521   2.181   1.988   5.968
 9541SOL    HW129522   2.126   2.015   5.889
 9541SOL    HW229523   2.173   1.889   5.981
 9542SOL     OW29524   4.793   3.546   5.395
 9542SOL    HW129525   4.775   3.554   5.297
 9542SOL    HW229526   4.739   3.470   5.432
 9543SOL     OW29527   4.059   0.614   4.230
 9543SOL    HW129528   4.045   0.515   4.240
 9543SOL    HW229529   4.157   0.634   4.235
 9544SOL     OW29530   6.321   0.908   2.180
 9544SOL    HW129531   6.267   0.824   2.172
 9544SOL    HW229532   6.416   0.885   2.199
 9545SOL     OW29533   6.793   5.052   3.219
 9545SOL    HW129534   6.769   4.969   3.169
 9545SOL    HW229535   6.814   5.125   3.153
 9546SOL     OW29536   2.012   3.580   0.188
 9546SOL    HW129537   1.968   3.662   0.150
 9546SOL    HW229538   1.981   3.499   0.138
 9547SOL     OW29539   2.501   6.370   4.144
 9547SOL    HW129540   2.443   6.449   4.167
 9547SOL    HW229541   2.527   6.375   4.047
 9548SOL     OW29542   6.638   5.646   4.897
 9548SOL    HW129543   6.713   5.612   4.955
 9548SOL    HW229544   6.554   5.647   4.950
 9549SOL     OW29545   2.894   4.813   1.077
 9549SOL    HW129546   2.835   4.879   1.030
 9549SOL    HW229547   2.858   4.721   1.063
 9550SOL     OW29548   0.046   1.248   6.253
 9550SOL    HW129549   6.979   1.249   6.299
 9550SOL    HW229550   0.107   1.183   6.299
 9551SOL     OW29551   0.225   6.846   4.538
 9551SOL    HW129552   0.236   6.905   4.617
 9551SOL    HW229553   0.200   6.901   4.458
 9552SOL     OW29554   1.015   6.212   2.382
 9552SOL    HW129555   1.055   6.175   2.465
 9552SOL    HW229556   1.008   6.140   2.313
 9553SOL     OW29557   5.679   4.133   6.540
 9553SOL    HW129558   5.685   4.044   6.494
 9553SOL    HW229559   5.589   4.173   6.522
 9554SOL     OW29560   2.769   1.297   1.316
 9554SOL    HW129561   2.846   1.239   1.344
 9554SOL    HW229562   2.732   1.264   1.229
 9555SOL     OW29563   6.811   2.399   0.795
 9555SOL    HW129564   6.731   2.445   0.756
 9555SOL    HW229565   6.856   2.460   0.861
 9556SOL     OW29566   2.101   1.860   1.323
 9556SOL    HW129567   2.167   1.822   1.258
 9556SOL    HW229568   2.048   1.932   1.278
 9557SOL     OW29569   6.080   0.685   2.603
 9557SOL    HW129570   6.130   0.756   2.653
 9557SOL    HW229571   6.084   0.599   2.653
 9558SOL     OW29572   6.880   5.574   4.009
 9558SOL    HW129573   6.840   5.524   3.932
 9558SOL    HW229574   6.963   5.621   3.979
 9559SOL     OW29575   0.104   4.076   1.796
 9559SOL    HW129576   0.162   4.155   1.818
 9559SOL    HW229577   0.053   4.048   1.877
 9560SOL     OW29578   1.695   1.630   3.052
 9560SOL    HW129579   1.626   1.591   2.991
 9560SOL    HW229580   1.727   1.717   3.014
 9561SOL     OW29581   2.770   6.981   1.060
 9561SOL    HW129582   2.810   7.007   0.972
 9561SOL    HW229583   2.778   6.882   1.073
 9562SOL     OW29584   2.857   6.375   4.739
 9562SOL    HW129585   2.831   6.393   4.644
 9562SOL    HW229586   2.949   6.337   4.741
 9563SOL     OW29587   6.301   6.055   6.733
 9563SOL    HW129588   6.304   6.155   6.732
 9563SOL    HW229589   6.386   6.019   6.770
 9564SOL     OW29590   2.420   0.147   6.851
 9564SOL    HW129591   2.443   0.054   6.822
 9564SOL    HW229592   2.388   0.144   6.946
 9565SOL     OW29593   4.310   5.643   4.816
 9565SOL    HW129594   4.250   5.654   4.736
 9565SOL    HW229595   4.270   5.689   4.895
 9566SOL     OW29596   3.234   4.695   0.315
 9566SOL    HW129597   3.209   4.754   0.392
 9566SOL    HW229598   3.155   4.682   0.256
 9567SOL     OW29599   6.272   5.215   6.235
 9567SOL    HW129600   6.193   5.199   6.176
 9567SOL    HW229601   6.252   5.290   6.298
 9568SOL     OW29602   4.495   2.993   6.467
 9568SOL    HW129603   4.485   3.063   6.537
 9568SOL    HW229604   4.410   2.983   6.417
 9569SOL     OW29605   6.134   1.079   0.705
 9569SOL    HW129606   6.184   1.076   0.619
 9569SOL    HW229607   6.054   1.019   0.699
 9570SOL     OW29608   0.660   1.840   1.965
 9570SOL    HW129609   0.651   1.834   2.065
 9570SOL    HW229610   0.624   1.928   1.934
 9571SOL     OW29611   2.828   3.419   0.370
 9571SOL    HW129612   2.809   3.506   0.417
 9571SOL    HW229613   2.917   3.384   0.399
 9572SOL     OW29614   1.151   5.187   1.108
 9572SOL    HW129615   1.178   5.250   1.182
 9572SOL    HW229616   1.115   5.103   1.148
 9573SOL     OW29617   0.498   1.076   6.738
 9573SOL    HW129618   0.444   1.088   6.655
 9573SOL    HW229619   0.450   1.013   6.799
 9574SOL     OW29620   3.567   3.185   4.994
 9574SOL    HW129621   3.601   3.095   4.966
 9574SOL    HW229622   3.497   3.173   5.064
 9575SOL     OW29623   5.612   1.044   1.105
 9575SOL    HW129624   5.627   0.948   1.082
 9575SOL    HW229625   5.514   1.063   1.108
 9576SOL     OW29626   3.436   1.155   3.216
 9576SOL    HW129627   3.374   1.101   3.273
 9576SOL    HW229628   3.470   1.098   3.141
 9577SOL     OW29629   1.539   0.635   1.999
 9577SOL    HW129630   1.613   0.638   2.066
 9577SOL    HW229631   1.505   0.728   1.982
 9578SOL     OW29632   5.896   3.269   2.872
 9578SOL    HW129633   5.812   3.299   2.826
 9578SOL    HW229634   5.920   3.335   2.943
 9579SOL     OW29635   1.239   6.599   2.545
 9579SOL    HW129636   1.315   6.664   2.541
 9579SOL    HW229637   1.271   6.513   2.586
 9580SOL     OW29638   5.412   3.990   6.938
 9580SOL    HW129639   5.482   4.056   6.965
 9580SOL    HW229640   5.442   3.940   6.857
 9581SOL     OW29641   2.771   4.672   6.224
 9581SOL    HW129642   2.701   4.611   6.261
 9581SOL    HW229643   2.799   4.640   6.133
 9582SOL     OW29644   4.420   4.545   4.046
 9582SOL    HW129645   4.326   4.571   4.027
 9582SOL    HW229646   4.462   4.508   3.963
 9583SOL     OW29647   2.235   3.202   1.810
 9583SOL    HW129648   2.258   3.299   1.812
 9583SOL    HW229649   2.232   3.166   1.903
 9584SOL     OW29650   5.899   6.076   6.838
 9584SOL    HW129651   5.901   6.004   6.908
 9584SOL    HW229652   5.880   6.035   6.749
 9585SOL     OW29653   6.019   0.592   2.344
 9585SOL    HW129654   6.024   0.620   2.440
 9585SOL    HW229655   6.073   0.654   2.288
 9586SOL     OW29656   5.526   3.750   3.229
 9586SOL    HW129657   5.469   3.800   3.294
 9586SOL    HW229658   5.588   3.690   3.278
 9587SOL     OW29659   5.542   0.352   1.806
 9587SOL    HW129660   5.447   0.325   1.814
 9587SOL    HW229661   5.571   0.343   1.711
 9588SOL     OW29662   0.447   1.169   1.517
 9588SOL    HW129663   0.359   1.189   1.474
 9588SOL    HW229664   0.479   1.250   1.566
 9589SOL     OW29665   2.223   6.094   6.612
 9589SOL    HW129666   2.238   6.028   6.538
 9589SOL    HW229667   2.230   6.049   6.700
 9590SOL     OW29668   0.404   3.643   2.186
 9590SOL    HW129669   0.409   3.739   2.160
 9590SOL    HW229670   0.395   3.586   2.104
 9591SOL     OW29671   2.723   6.131   0.663
 9591SOL    HW129672   2.805   6.170   0.705
 9591SOL    HW229673   2.749   6.078   0.582
 9592SOL     OW29674   4.122   5.288   2.751
 9592SOL    HW129675   4.082   5.379   2.765
 9592SOL    HW229676   4.130   5.270   2.653
 9593SOL     OW29677   5.245   2.268   4.559
 9593SOL    HW129678   5.321   2.233   4.504
 9593SOL    HW229679   5.173   2.302   4.498
 9594SOL     OW29680   6.842   6.171   3.219
 9594SOL    HW129681   6.882   6.134   3.303
 9594SOL    HW229682   6.750   6.134   3.208
 9595SOL     OW29683   2.225   5.908   5.165
 9595SOL    HW129684   2.202   5.857   5.248
 9595SOL    HW229685   2.194   6.002   5.174
 9596SOL     OW29686   0.221   4.873   5.740
 9596SOL    HW129687   0.209   4.855   5.838
 9596SOL    HW229688   0.300   4.822   5.707
 9597SOL     OW29689   0.428   3.973   1.907
 9597SOL    HW129690   0.395   4.067   1.914
 9597SOL    HW229691   0.465   3.957   1.816
 9598SOL     OW29692   0.527   3.967   5.716
 9598SOL    HW129693   0.483   3.923   5.794
 9598SOL    HW229694   0.585   4.042   5.747
 9599SOL     OW29695   3.685   0.346   5.287
 9599SOL    HW129696   3.747   0.422   5.304
 9599SOL    HW229697   3.656   0.347   5.191
 9600SOL     OW29698   1.731   0.258   5.755
 9600SOL    HW129699   1.739   0.357   5.759
 9600SOL    HW229700   1.680   0.232   5.673
 9601SOL     OW29701   6.449   4.083   6.293
 9601SOL    HW129702   6.499   4.056   6.211
 9601SOL    HW229703   6.352   4.094   6.272
 9602SOL     OW29704   6.704   5.230   5.927
 9602SOL    HW129705   6.797   5.261   5.906
 9602SOL    HW229706   6.650   5.307   5.959
 9603SOL     OW29707   2.216   0.154   4.840
 9603SOL    HW129708   2.185   0.064   4.812
 9603SOL    HW229709   2.236   0.210   4.760
 9604SOL     OW29710   4.966   1.066   0.719
 9604SOL    HW129711   4.880   1.029   0.686
 9604SOL    HW229712   4.960   1.166   0.723
 9605SOL     OW29713   1.273   4.716   5.747
 9605SOL    HW129714   1.314   4.774   5.676
 9605SOL    HW229715   1.213   4.649   5.704
 9606SOL     OW29716   1.038   6.946   3.431
 9606SOL    HW129717   1.114   6.954   3.367
 9606SOL    HW229718   0.970   6.882   3.394
 9607SOL     OW29719   0.877   0.993   1.579
 9607SOL    HW129720   0.921   1.050   1.509
 9607SOL    HW229721   0.782   1.023   1.591
 9608SOL     OW29722   0.067   6.836   2.124
 9608SOL    HW129723   0.046   6.920   2.174
 9608SOL    HW229724   0.106   6.769   2.187
 9609SOL     OW29725   1.373   4.140   4.828
 9609SOL    HW129726   1.407   4.072   4.764
 9609SOL    HW229727   1.351   4.224   4.779
 9610SOL     OW29728   1.653   2.538   5.998
 9610SOL    HW129729   1.619   2.447   6.022
 9610SOL    HW229730   1.592   2.579   5.930
 9611SOL     OW29731   6.737   0.240   1.479
 9611SOL    HW129732   6.638   0.243   1.467
 9611SOL    HW229733   6.771   0.148   1.460
 9612SOL     OW29734   6.571   3.008   0.820
 9612SOL    HW129735   6.586   2.955   0.904
 9612SOL    HW229736   6.659   3.033   0.781
 9613SOL     OW29737   5.635   0.122   4.244
 9613SOL    HW129738   5.607   0.207   4.199
 9613SOL    HW229739   5.723   0.136   4.290
 9614SOL     OW29740   4.132   3.659   2.123
 9614SOL    HW129741   4.216   3.637   2.172
 9614SOL    HW229742   4.154   3.706   2.037
 9615SOL     OW29743   2.829   5.033   3.276
 9615SOL    HW129744   2.730   5.027   3.262
 9615SOL    HW229745   2.848   5.053   3.372
 9616SOL     OW29746   4.113   3.055   1.303
 9616SOL    HW129747   4.142   2.995   1.229
 9616SOL    HW229748   4.013   3.060   1.305
 9617SOL     OW29749   1.324   3.573   3.666
 9617SOL    HW129750   1.232   3.556   3.632
 9617SOL    HW229751   1.336   3.530   3.756
 9618SOL     OW29752   3.602   6.970   6.057
 9618SOL    HW129753   3.512   7.013   6.068
 9618SOL    HW229754   3.672   0.020   6.044
 9619SOL     OW29755   1.334   6.309   0.604
 9619SOL    HW129756   1.376   6.362   0.677
 9619SOL    HW229757   1.249   6.268   0.636
 9620SOL     OW29758   4.043   0.602   6.626
 9620SOL    HW129759   3.961   0.627   6.575
 9620SOL    HW229760   4.093   0.685   6.652
 9621SOL     OW29761   1.145   0.402   1.895
 9621SOL    HW129762   1.185   0.348   1.970
 9621SOL    HW229763   1.084   0.471   1.934
 9622SOL     OW29764   6.719   1.114   6.823
 9622SOL    HW129765   6.766   1.192   6.862
 9622SOL    HW229766   6.655   1.076   6.890
 9623SOL     OW29767   4.863   5.671   6.484
 9623SOL    HW129768   4.915   5.756   6.474
 9623SOL    HW229769   4.869   5.619   6.399
 9624SOL     OW29770   5.551   5.175   5.193
 9624SOL    HW129771   5.583   5.082   5.212
 9624SOL    HW229772   5.471   5.172   5.133
 9625SOL     OW29773   4.884   4.356   6.729
 9625SOL    HW129774   4.798   4.390   6.767
 9625SOL    HW229775   4.904   4.404   6.644
 9626SOL     OW29776   1.717   4.478   4.703
 9626SOL    HW129777   1.689   4.387   4.673
 9626SOL    HW229778   1.816   4.483   4.707
 9627SOL     OW29779   1.671   4.148   5.386
 9627SOL    HW129780   1.650   4.073   5.324
 9627SOL    HW229781   1.616   4.138   5.469
 9628SOL     OW29782   5.900   4.224   6.659
 9628SOL    HW129783   5.867   4.249   6.750
 9628SOL    HW229784   5.835   4.160   6.617
 9629SOL     OW29785   6.632   6.367   3.409
 9629SOL    HW129786   6.558   6.430   3.383
 9629SOL    HW229787   6.718   6.397   3.368
 9630SOL     OW29788   6.061   6.192   5.619
 9630SOL    HW129789   5.997   6.228   5.551
 9630SOL    HW229790   6.094   6.268   5.676
 9631SOL     OW29791   4.912   1.228   1.566
 9631SOL    HW129792   4.865   1.196   1.484
 9631SOL    HW229793   4.848   1.230   1.643
 9632SOL     OW29794   1.896   5.447   1.841
 9632SOL    HW129795   1.881   5.535   1.886
 9632SOL    HW229796   1.888   5.373   1.908
 9633SOL     OW29797   3.763   3.080   2.175
 9633SOL    HW129798   3.825   3.112   2.103
 9633SOL    HW229799   3.739   2.984   2.158
 9634SOL     OW29800   5.972   4.242   2.888
 9634SOL    HW129801   5.992   4.186   2.968
 9634SOL    HW229802   6.022   4.206   2.809
 9635SOL     OW29803   0.087   4.248   4.495
 9635SOL    HW129804   0.168   4.193   4.475
 9635SOL    HW229805   0.011   4.187   4.518
 9636SOL     OW29806   4.415   1.283   5.446
 9636SOL    HW129807   4.499   1.336   5.453
 9636SOL    HW229808   4.363   1.314   5.366
 9637SOL     OW29809   2.464   3.585   1.413
 9637SOL    HW129810   2.555   3.600   1.374
 9637SOL    HW229811   2.458   3.630   1.502
 9638SOL     OW29812   6.827   4.563   6.253
 9638SOL    HW129813   6.862   4.469   6.258
 9638SOL    HW229814   6.791   4.589   6.343
 9639SOL     OW29815   4.452   2.565   1.772
 9639SOL    HW129816   4.359   2.531   1.755
 9639SOL    HW229817   4.456   2.662   1.752
 9640SOL     OW29818   4.391   1.138   2.115
 9640SOL    HW129819   4.304   1.131   2.163
 9640SOL    HW229820   4.413   1.235   2.101
 9641SOL     OW29821   5.618   5.467   3.183
 9641SOL    HW129822   5.631   5.478   3.281
 9641SOL    HW229823   5.526   5.434   3.164
 9642SOL     OW29824   1.108   0.258   4.319
 9642SOL    HW129825   1.130   0.353   4.343
 9642SOL    HW229826   1.191   0.212   4.288
 9643SOL     OW29827   4.727   4.329   3.863
 9643SOL    HW129828   4.752   4.280   3.780
 9643SOL    HW229829   4.738   4.269   3.942
 9644SOL     OW29830   1.861   6.090   5.069
 9644SOL    HW129831   1.842   6.077   5.166
 9644SOL    HW229832   1.909   6.009   5.033
 9645SOL     OW29833   1.197   4.031   4.995
 9645SOL    HW129834   1.257   4.063   4.922
 9645SOL    HW229835   1.111   3.999   4.956
 9646SOL     OW29836   2.710   6.697   3.643
 9646SOL    HW129837   2.630   6.757   3.639
 9646SOL    HW229838   2.785   6.745   3.687
 9647SOL     OW29839   6.533   6.350   2.859
 9647SOL    HW129840   6.551   6.362   2.761
 9647SOL    HW229841   6.609   6.299   2.901
 9648SOL     OW29842   5.449   3.073   1.326
 9648SOL    HW129843   5.459   2.974   1.312
 9648SOL    HW229844   5.487   3.098   1.415
 9649SOL     OW29845   2.232   3.597   6.550
 9649SOL    HW129846   2.220   3.647   6.636
 9649SOL    HW229847   2.142   3.570   6.515
 9650SOL     OW29848   6.260   4.890   3.387
 9650SOL    HW129849   6.293   4.911   3.295
 9650SOL    HW229850   6.331   4.912   3.453
 9651SOL     OW29851   3.713   1.121   0.509
 9651SOL    HW129852   3.653   1.046   0.485
 9651SOL    HW229853   3.706   1.140   0.607
 9652SOL     OW29854   0.568   4.412   1.381
 9652SOL    HW129855   0.515   4.343   1.332
 9652SOL    HW229856   0.537   4.417   1.476
 9653SOL     OW29857   4.216   4.441   5.556
 9653SOL    HW129858   4.251   4.500   5.628
 9653SOL    HW229859   4.134   4.393   5.590
 9654SOL     OW29860   3.386   2.886   2.633
 9654SOL    HW129861   3.350   2.980   2.636
 9654SOL    HW229862   3.343   2.836   2.559
 9655SOL     OW29863   0.109   1.397   0.686
 9655SOL    HW129864   0.053   1.328   0.733
 9655SOL    HW229865   0.110   1.481   0.740
 9656SOL     OW29866   4.229   2.038   0.358
 9656SOL    HW129867   4.317   2.060   0.315
 9656SOL    HW229868   4.238   1.955   0.413
 9657SOL     OW29869   5.007   4.253   3.574
 9657SOL    HW129870   4.929   4.225   3.631
 9657SOL    HW229871   5.060   4.173   3.548
 9658SOL     OW29872   5.485   2.039   2.279
 9658SOL    HW129873   5.386   2.032   2.292
 9658SOL    HW229874   5.528   1.951   2.300
 9659SOL     OW29875   2.660   2.184   6.916
 9659SOL    HW129876   2.705   2.272   6.903
 9659SOL    HW229877   2.561   2.197   6.912
 9660SOL     OW29878   0.857   0.096   1.252
 9660SOL    HW129879   0.856   0.106   1.351
 9660SOL    HW229880   0.794   0.162   1.210
 9661SOL     OW29881   4.447   5.346   1.265
 9661SOL    HW129882   4.513   5.276   1.294
 9661SOL    HW229883   4.363   5.302   1.234
 9662SOL     OW29884   5.200   4.172   0.029
 9662SOL    HW129885   5.121   4.169   6.989
 9662SOL    HW229886   5.261   4.096   0.008
 9663SOL     OW29887   1.008   4.506   2.448
 9663SOL    HW129888   1.098   4.480   2.483
 9663SOL    HW229889   1.000   4.480   2.352
 9664SOL     OW29890   5.486   4.198   4.083
 9664SOL    HW129891   5.488   4.295   4.056
 9664SOL    HW229892   5.577   4.170   4.113
 9665SOL     OW29893   6.812   6.013   5.658
 9665SOL    HW129894   6.744   5.955   5.704
 9665SOL    HW229895   6.871   6.055   5.727
 9666SOL     OW29896   6.813   4.600   1.484
 9666SOL    HW129897   6.869   4.536   1.536
 9666SOL    HW229898   6.871   4.655   1.424
 9667SOL     OW29899   4.742   4.222   1.047
 9667SOL    HW129900   4.823   4.198   0.993
 9667SOL    HW229901   4.682   4.142   1.054
 9668SOL     OW29902   1.501   0.928   6.275
 9668SOL    HW129903   1.451   0.923   6.188
 9668SOL    HW229904   1.554   0.845   6.287
 9669SOL     OW29905   2.657   0.153   0.485
 9669SOL    HW129906   2.690   0.062   0.507
 9669SOL    HW229907   2.734   0.215   0.471
 9670SOL     OW29908   0.207   6.002   5.381
 9670SOL    HW129909   0.122   6.044   5.413
 9670SOL    HW229910   0.285   6.052   5.417
 9671SOL     OW29911   0.681   5.179   0.251
 9671SOL    HW129912   0.705   5.183   0.348
 9671SOL    HW229913   0.596   5.230   0.236
 9672SOL     OW29914   2.122   5.039   2.847
 9672SOL    HW129915   2.039   5.089   2.823
 9672SOL    HW229916   2.175   5.094   2.912
 9673SOL     OW29917   3.764   3.973   0.944
 9673SOL    HW129918   3.715   4.022   0.872
 9673SOL    HW229919   3.768   3.875   0.921
 9674SOL     OW29920   3.645   6.394   2.640
 9674SOL    HW129921   3.724   6.443   2.604
 9674SOL    HW229922   3.672   6.344   2.722
 9675SOL     OW29923   5.206   3.567   0.003
 9675SOL    HW129924   5.130   3.583   6.962
 9675SOL    HW229925   5.255   3.652   0.021
 9676SOL     OW29926   1.321   3.603   6.033
 9676SOL    HW129927   1.303   3.701   6.028
 9676SOL    HW229928   1.372   3.574   5.952
 9677SOL     OW29929   6.579   5.269   6.581
 9677SOL    HW129930   6.534   5.314   6.658
 9677SOL    HW229931   6.655   5.214   6.616
 9678SOL     OW29932   3.266   3.784   4.391
 9678SOL    HW129933   3.242   3.738   4.305
 9678SOL    HW229934   3.209   3.865   4.402
 9679SOL     OW29935   2.745   1.428   4.465
 9679SOL    HW129936   2.838   1.464   4.464
 9679SOL    HW229937   2.686   1.490   4.518
 9680SOL     OW29938   4.720   6.637   5.501
 9680SOL    HW129939   4.641   6.610   5.555
 9680SOL    HW229940   4.743   6.564   5.437
 9681SOL     OW29941   3.067   2.095   1.507
 9681SOL    HW129942   3.044   2.155   1.584
 9681SOL    HW229943   3.164   2.071   1.510
 9682SOL     OW29944   4.761   4.591   3.606
 9682SOL    HW129945   4.676   4.599   3.553
 9682SOL    HW229946   4.813   4.512   3.573
 9683SOL     OW29947   2.849   5.842   0.218
 9683SOL    HW129948   2.806   5.806   0.301
 9683SOL    HW229949   2.785   5.834   0.141
 9684SOL     OW29950   0.308   4.019   5.262
 9684SOL    HW129951   0.334   4.016   5.358
 9684SOL    HW229952   0.386   4.049   5.207
 9685SOL     OW29953   4.667   3.531   0.417
 9685SOL    HW129954   4.730   3.558   0.490
 9685SOL    HW229955   4.711   3.545   0.328
 9686SOL     OW29956   0.482   3.036   0.446
 9686SOL    HW129957   0.530   2.954   0.415
 9686SOL    HW229958   0.547   3.102   0.482
 9687SOL     OW29959   6.379   0.446   2.008
 9687SOL    HW129960   6.304   0.385   2.033
 9687SOL    HW229961   6.466   0.400   2.027
 9688SOL     OW29962   0.783   3.826   0.854
 9688SOL    HW129963   0.688   3.817   0.826
 9688SOL    HW229964   0.822   3.909   0.815
 9689SOL     OW29965   0.941   4.390   6.399
 9689SOL    HW129966   0.956   4.380   6.300
 9689SOL    HW229967   0.846   4.370   6.421
 9690SOL     OW29968   4.522   5.125   5.416
 9690SOL    HW129969   4.543   5.166   5.505
 9690SOL    HW229970   4.576   5.171   5.345
 9691SOL     OW29971   3.077   3.926   2.193
 9691SOL    HW129972   3.073   3.891   2.099
 9691SOL    HW229973   2.985   3.925   2.232
 9692SOL     OW29974   4.910   5.349   0.842
 9692SOL    HW129975   4.947   5.434   0.879
 9692SOL    HW229976   4.858   5.302   0.912
 9693SOL     OW29977   5.566   4.406   3.348
 9693SOL    HW129978   5.491   4.429   3.286
 9693SOL    HW229979   5.645   4.464   3.327
 9694SOL     OW29980   4.027   1.033   1.654
 9694SOL    HW129981   4.075   1.116   1.684
 9694SOL    HW229982   3.930   1.041   1.677
 9695SOL     OW29983   0.275   3.046   3.458
 9695SOL    HW129984   0.206   3.054   3.387
 9695SOL    HW229985   0.342   2.976   3.433
 9696SOL     OW29986   5.763   1.765   2.227
 9696SOL    HW129987   5.815   1.680   2.221
 9696SOL    HW229988   5.823   1.842   2.203
 9697SOL     OW29989   0.422   6.205   0.796
 9697SOL    HW129990   0.384   6.227   0.706
 9697SOL    HW229991   0.517   6.174   0.785
 9698SOL     OW29992   5.626   3.011   6.380
 9698SOL    HW129993   5.637   3.009   6.479
 9698SOL    HW229994   5.697   3.068   6.339
 9699SOL     OW29995   0.665   5.543   0.117
 9699SOL    HW129996   0.644   5.451   0.152
 9699SOL    HW229997   0.703   5.598   0.192
 9700SOL     OW29998   6.661   5.461   4.467
 9700SOL    HW129999   6.753   5.443   4.432
 9700SOL    HW230000   6.625   5.378   4.510
 9701SOL     OW30001   4.213   3.915   5.921
 9701SOL    HW130002   4.244   3.861   5.843
 9701SOL    HW230003   4.149   3.860   5.975
 9702SOL     OW30004   3.638   2.462   0.067
 9702SOL    HW130005   3.657   2.395   7.017
 9702SOL    HW230006   3.599   2.545   0.026
 9703SOL     OW30007   5.247   3.829   4.293
 9703SOL    HW130008   5.218   3.736   4.273
 9703SOL    HW230009   5.231   3.887   4.213
 9704SOL     OW30010   3.151   5.573   2.459
 9704SOL    HW130011   3.083   5.620   2.516
 9704SOL    HW230012   3.204   5.510   2.515
 9705SOL     OW30013   5.974   4.236   5.741
 9705SOL    HW130014   5.955   4.142   5.770
 9705SOL    HW230015   5.960   4.297   5.818
 9706SOL     OW30016   2.521   2.246   1.552
 9706SOL    HW130017   2.609   2.199   1.558
 9706SOL    HW230018   2.534   2.343   1.569
 9707SOL     OW30019   5.634   4.804   2.613
 9707SOL    HW130020   5.565   4.793   2.541
 9707SOL    HW230021   5.700   4.729   2.607
 9708SOL     OW30022   1.183   1.543   2.840
 9708SOL    HW130023   1.098   1.592   2.820
 9708SOL    HW230024   1.230   1.588   2.915
 9709SOL     OW30025   5.302   4.547   2.006
 9709SOL    HW130026   5.318   4.543   2.104
 9709SOL    HW230027   5.378   4.503   1.958
 9710SOL     OW30028   6.401   0.449   0.767
 9710SOL    HW130029   6.448   0.475   0.851
 9710SOL    HW230030   6.468   0.423   0.697
 9711SOL     OW30031   3.852   5.706   6.498
 9711SOL    HW130032   3.845   5.768   6.420
 9711SOL    HW230033   3.784   5.633   6.489
 9712SOL     OW30034   6.225   3.109   0.327
 9712SOL    HW130035   6.284   3.178   0.285
 9712SOL    HW230036   6.186   3.146   0.411
 9713SOL     OW30037   2.908   5.677   3.499
 9713SOL    HW130038   2.854   5.647   3.578
 9713SOL    HW230039   2.999   5.706   3.529
 9714SOL     OW30040   4.039   6.330   5.634
 9714SOL    HW130041   4.122   6.281   5.607
 9714SOL    HW230042   3.990   6.277   5.703
 9715SOL     OW30043   5.720   5.025   6.644
 9715SOL    HW130044   5.677   4.940   6.612
 9715SOL    HW230045   5.817   5.007   6.662
 9716SOL     OW30046   3.637   4.459   6.764
 9716SOL    HW130047   3.689   4.430   6.844
 9716SOL    HW230048   3.631   4.559   6.764
 9717SOL     OW30049   4.792   6.374   6.760
 9717SOL    HW130050   4.811   6.373   6.858
 9717SOL    HW230051   4.737   6.454   6.737
 9718SOL     OW30052   4.454   3.036   1.052
 9718SOL    HW130053   4.389   3.094   1.101
 9718SOL    HW230054   4.453   2.944   1.091
 9719SOL     OW30055   5.273   6.698   5.744
 9719SOL    HW130056   5.222   6.680   5.828
 9719SOL    HW230057   5.332   6.778   5.757
 9720SOL     OW30058   0.783   3.377   2.727
 9720SOL    HW130059   0.803   3.359   2.630
 9720SOL    HW230060   0.738   3.298   2.767
 9721SOL     OW30061   0.364   1.137   6.516
 9721SOL    HW130062   0.322   1.228   6.521
 9721SOL    HW230063   0.317   1.083   6.447
 9722SOL     OW30064   3.438   0.999   5.234
 9722SOL    HW130065   3.513   0.974   5.173
 9722SOL    HW230066   3.407   0.918   5.284
 9723SOL     OW30067   5.250   5.966   3.983
 9723SOL    HW130068   5.201   5.880   3.976
 9723SOL    HW230069   5.189   6.042   3.961
 9724SOL     OW30070   2.049   4.390   6.884
 9724SOL    HW130071   2.071   4.483   6.913
 9724SOL    HW230072   2.013   4.392   6.791
 9725SOL     OW30073   4.046   6.123   6.315
 9725SOL    HW130074   4.066   6.088   6.407
 9725SOL    HW230075   3.951   6.155   6.312
 9726SOL     OW30076   4.475   1.983   4.763
 9726SOL    HW130077   4.401   1.918   4.781
 9726SOL    HW230078   4.437   2.075   4.757
 9727SOL     OW30079   0.987   2.491   0.059
 9727SOL    HW130080   1.081   2.522   0.075
 9727SOL    HW230081   0.944   2.550   7.012
 9728SOL     OW30082   0.465   1.919   5.453
 9728SOL    HW130083   0.549   1.972   5.446
 9728SOL    HW230084   0.400   1.967   5.512
 9729SOL     OW30085   1.127   4.318   3.840
 9729SOL    HW130086   1.192   4.261   3.891
 9729SOL    HW230087   1.060   4.259   3.795
 9730SOL     OW30088   0.994   4.137   3.065
 9730SOL    HW130089   0.924   4.162   3.132
 9730SOL    HW230090   1.048   4.218   3.042
 9731SOL     OW30091   4.707   5.353   1.534
 9731SOL    HW130092   4.797   5.358   1.578
 9731SOL    HW230093   4.639   5.324   1.601
 9732SOL     OW30094   0.526   3.114   2.255
 9732SOL    HW130095   0.567   3.177   2.189
 9732SOL    HW230096   0.486   3.036   2.206
 9733SOL     OW30097   5.917   5.774   1.119
 9733SOL    HW130098   6.007   5.795   1.157
 9733SOL    HW230099   5.873   5.858   1.088
 9734SOL     OW30100   6.637   0.071   0.307
 9734SOL    HW130101   6.584   0.041   0.387
 9734SOL    HW230102   6.597   0.031   0.224
 9735SOL     OW30103   1.464   3.154   3.255
 9735SOL    HW130104   1.473   3.168   3.354
 9735SOL    HW230105   1.376   3.112   3.235
 9736SOL     OW30106   5.557   1.456   6.284
 9736SOL    HW130107   5.572   1.500   6.195
 9736SOL    HW230108   5.644   1.432   6.325
 9737SOL     OW30109   5.394   2.201   2.714
 9737SOL    HW130110   5.364   2.280   2.767
 9737SOL    HW230111   5.318   2.168   2.657
 9738SOL     OW30112   1.776   0.001   0.933
 9738SOL    HW130113   1.793   0.025   0.838
 9738SOL    HW230114   1.685   0.033   0.960
 9739SOL     OW30115   5.241   6.081   0.144
 9739SOL    HW130116   5.257   6.171   0.185
 9739SOL    HW230117   5.159   6.040   0.184
 9740SOL     OW30118   6.534   1.123   2.913
 9740SOL    HW130119   6.517   1.085   3.004
 9740SOL    HW230120   6.563   1.218   2.922
 9741SOL     OW30121   2.755   0.494   3.582
 9741SOL    HW130122   2.820   0.487   3.507
 9741SOL    HW230123   2.782   0.568   3.643
 9742SOL     OW30124   4.139   0.934   0.144
 9742SOL    HW130125   4.090   0.918   0.058
 9742SOL    HW230126   4.158   1.031   0.155
 9743SOL     OW30127   0.254   4.217   2.941
 9743SOL    HW130128   0.215   4.152   3.006
 9743SOL    HW230129   0.342   4.250   2.975
 9744SOL     OW30130   2.398   0.200   2.469
 9744SOL    HW130131   2.445   0.147   2.398
 9744SOL    HW230132   2.324   0.253   2.428
 9745SOL     OW30133   4.944   2.793   5.962
 9745SOL    HW130134   5.036   2.755   5.965
 9745SOL    HW230135   4.901   2.771   5.874
 9746SOL     OW30136   5.282   6.363   5.692
 9746SOL    HW130137   5.190   6.384   5.723
 9746SOL    HW230138   5.299   6.264   5.701
 9747SOL     OW30139   3.041   2.130   1.914
 9747SOL    HW130140   3.096   2.184   1.850
 9747SOL    HW230141   2.968   2.188   1.952
 9748SOL     OW30142   7.019   6.622   3.043
 9748SOL    HW130143   0.012   6.717   3.016
 9748SOL    HW230144   0.086   6.579   3.063
 9749SOL     OW30145   0.461   0.843   3.060
 9749SOL    HW130146   0.558   0.865   3.052
 9749SOL    HW230147   0.420   0.839   2.969
 9750SOL     OW30148   6.100   5.712   3.770
 9750SOL    HW130149   6.100   5.656   3.853
 9750SOL    HW230150   6.110   5.809   3.795
 9751SOL     OW30151   2.085   0.169   0.581
 9751SOL    HW130152   2.061   0.071   0.582
 9751SOL    HW230153   2.060   0.210   0.668
 9752SOL     OW30154   4.191   1.644   5.274
 9752SOL    HW130155   4.174   1.711   5.201
 9752SOL    HW230156   4.265   1.678   5.333
 9753SOL     OW30157   1.111   5.875   6.149
 9753SOL    HW130158   1.118   5.791   6.094
 9753SOL    HW230159   1.157   5.950   6.101
 9754SOL     OW30160   2.911   0.475   0.744
 9754SOL    HW130161   2.976   0.545   0.773
 9754SOL    HW230162   2.819   0.514   0.741
 9755SOL     OW30163   3.592   4.132   4.720
 9755SOL    HW130164   3.573   4.050   4.774
 9755SOL    HW230165   3.678   4.120   4.670
 9756SOL     OW30166   6.341   2.393   6.307
 9756SOL    HW130167   6.264   2.330   6.314
 9756SOL    HW230168   6.420   2.355   6.355
 9757SOL     OW30169   5.504   4.240   4.705
 9757SOL    HW130170   5.537   4.153   4.742
 9757SOL    HW230171   5.509   4.311   4.776
 9758SOL     OW30172   1.721   0.959   0.291
 9758SOL    HW130173   1.731   1.058   0.283
 9758SOL    HW230174   1.690   0.936   0.384
 9759SOL     OW30175   0.834   1.039   0.275
 9759SOL    HW130176   0.893   0.960   0.263
 9759SOL    HW230177   0.757   1.033   0.212
 9760SOL     OW30178   4.828   3.359   5.909
 9760SOL    HW130179   4.779   3.403   5.833
 9760SOL    HW230180   4.926   3.358   5.889
 9761SOL     OW30181   0.956   2.284   2.406
 9761SOL    HW130182   0.917   2.372   2.378
 9761SOL    HW230183   1.048   2.274   2.367
 9762SOL     OW30184   3.342   1.482   4.580
 9762SOL    HW130185   3.329   1.578   4.555
 9762SOL    HW230186   3.262   1.430   4.551
 9763SOL     OW30187   5.758   1.114   3.365
 9763SOL    HW130188   5.694   1.087   3.437
 9763SOL    HW230189   5.708   1.163   3.293
 9764SOL     OW30190   6.344   2.542   1.919
 9764SOL    HW130191   6.375   2.485   1.843
 9764SOL    HW230192   6.260   2.504   1.957
 9765SOL     OW30193   6.614   6.590   2.656
 9765SOL    HW130194   6.691   6.552   2.708
 9765SOL    HW230195   6.622   6.690   2.654
 9766SOL     OW30196   2.204   6.508   2.903
 9766SOL    HW130197   2.214   6.408   2.899
 9766SOL    HW230198   2.289   6.551   2.875
 9767SOL     OW30199   2.599   2.485   5.946
 9767SOL    HW130200   2.617   2.425   5.868
 9767SOL    HW230201   2.506   2.522   5.940
 9768SOL     OW30202   4.383   1.709   1.598
 9768SOL    HW130203   4.439   1.716   1.680
 9768SOL    HW230204   4.433   1.658   1.528
 9769SOL     OW30205   3.487   1.296   4.416
 9769SOL    HW130206   3.587   1.292   4.421
 9769SOL    HW230207   3.454   1.360   4.486
 9770SOL     OW30208   3.693   1.581   5.144
 9770SOL    HW130209   3.716   1.502   5.201
 9770SOL    HW230210   3.595   1.598   5.148
 9771SOL     OW30211   2.425   5.272   1.042
 9771SOL    HW130212   2.512   5.267   0.993
 9771SOL    HW230213   2.443   5.276   1.140
 9772SOL     OW30214   2.013   6.483   1.670
 9772SOL    HW130215   2.029   6.501   1.573
 9772SOL    HW230216   1.938   6.417   1.680
 9773SOL     OW30217   4.980   5.538   3.617
 9773SOL    HW130218   5.018   5.447   3.605
 9773SOL    HW230219   4.945   5.571   3.529
 9774SOL     OW30220   0.446   5.686   2.894
 9774SOL    HW130221   0.537   5.648   2.910
 9774SOL    HW230222   0.377   5.623   2.929
 9775SOL     OW30223   3.114   0.045   3.722
 9775SOL    HW130224   3.027   0.087   3.747
 9775SOL    HW230225   3.188   0.092   3.770
 9776SOL     OW30226   1.053   4.278   5.800
 9776SOL    HW130227   0.956   4.271   5.821
 9776SOL    HW230228   1.071   4.241   5.709
 9777SOL     OW30229   5.539   5.482   0.594
 9777SOL    HW130230   5.548   5.432   0.680
 9777SOL    HW230231   5.494   5.570   0.612
 9778SOL     OW30232   6.878   1.505   5.101
 9778SOL    HW130233   6.790   1.552   5.095
 9778SOL    HW230234   6.933   1.529   5.021
 9779SOL     OW30235   0.532   2.136   3.910
 9779SOL    HW130236   0.487   2.122   3.822
 9779SOL    HW230237   0.490   2.213   3.957
 9780SOL     OW30238   2.243   1.915   0.863
 9780SOL    HW130239   2.229   2.010   0.887
 9780SOL    HW230240   2.319   1.907   0.798
 9781SOL     OW30241   1.797   3.459   4.352
 9781SOL    HW130242   1.775   3.415   4.265
 9781SOL    HW230243   1.895   3.450   4.371
 9782SOL     OW30244   0.492   2.034   6.945
 9782SOL    HW130245   0.487   1.981   0.009
 9782SOL    HW230246   0.574   2.006   6.894
 9783SOL     OW30247   4.429   2.410   3.377
 9783SOL    HW130248   4.507   2.360   3.339
 9783SOL    HW230249   4.359   2.421   3.306
 9784SOL     OW30250   3.423   0.634   5.990
 9784SOL    HW130251   3.476   0.664   6.069
 9784SOL    HW230252   3.445   0.539   5.968
 9785SOL     OW30253   6.880   1.951   5.493
 9785SOL    HW130254   6.884   1.851   5.499
 9785SOL    HW230255   6.838   1.987   5.575
 9786SOL     OW30256   2.644   3.130   0.584
 9786SOL    HW130257   2.608   3.223   0.578
 9786SOL    HW230258   2.729   3.124   0.533
 9787SOL     OW30259   2.942   3.666   2.651
 9787SOL    HW130260   3.038   3.665   2.677
 9787SOL    HW230261   2.929   3.613   2.567
 9788SOL     OW30262   0.845   7.013   1.722
 9788SOL    HW130263   0.767   6.955   1.701
 9788SOL    HW230264   0.888   6.982   1.807
 9789SOL     OW30265   1.794   6.181   0.519
 9789SOL    HW130266   1.769   6.269   0.478
 9789SOL    HW230267   1.801   6.112   0.447
 9790SOL     OW30268   6.587   4.377   6.127
 9790SOL    HW130269   6.543   4.295   6.092
 9790SOL    HW230270   6.645   4.416   6.055
 9791SOL     OW30271   0.027   0.532   6.862
 9791SOL    HW130272   7.000   0.484   6.789
 9791SOL    HW230273   7.020   0.494   6.950
 9792SOL     OW30274   3.519   5.109   0.979
 9792SOL    HW130275   3.503   5.120   0.881
 9792SOL    HW230276   3.439   5.141   1.030
 9793SOL     OW30277   4.416   0.170   2.423
 9793SOL    HW130278   4.430   0.075   2.452
 9793SOL    HW230279   4.441   0.179   2.327
 9794SOL     OW30280   6.322   4.489   5.779
 9794SOL    HW130281   6.396   4.551   5.806
 9794SOL    HW230282   6.255   4.540   5.725
 9795SOL     OW30283   0.961   2.981   4.698
 9795SOL    HW130284   0.928   2.981   4.604
 9795SOL    HW230285   1.059   2.961   4.699
 9796SOL     OW30286   4.069   3.768   2.817
 9796SOL    HW130287   4.005   3.831   2.773
 9796SOL    HW230288   4.162   3.807   2.813
 9797SOL     OW30289   1.991   5.339   0.022
 9797SOL    HW130290   2.011   5.336   6.945
 9797SOL    HW230291   1.909   5.394   0.037
 9798SOL     OW30292   2.660   0.955   2.019
 9798SOL    HW130293   2.565   0.930   1.999
 9798SOL    HW230294   2.683   1.039   1.971
 9799SOL     OW30295   2.798   4.188   5.853
 9799SOL    HW130296   2.860   4.141   5.790
 9799SOL    HW230297   2.804   4.144   5.943
 9800SOL     OW30298   4.965   4.506   4.435
 9800SOL    HW130299   4.949   4.547   4.346
 9800SOL    HW230300   5.003   4.414   4.423
 9801SOL     OW30301   4.648   4.439   6.854
 9801SOL    HW130302   4.586   4.517   6.847
 9801SOL    HW230303   4.669   4.422   6.951
 9802SOL     OW30304   5.615   5.066   0.634
 9802SOL    HW130305   5.522   5.097   0.655
 9802SOL    HW230306   5.611   4.989   0.571
 9803SOL     OW30307   1.595   2.876   6.389
 9803SOL    HW130308   1.609   2.810   6.316
 9803SOL    HW230309   1.504   2.916   6.382
 9804SOL     OW30310   0.580   6.443   3.060
 9804SOL    HW130311   0.553   6.515   3.123
 9804SOL    HW230312   0.680   6.437   3.057
 9805SOL     OW30313   0.749   6.847   2.916
 9805SOL    HW130314   0.779   6.788   2.991
 9805SOL    HW230315   0.660   6.886   2.938
 9806SOL     OW30316   1.382   1.538   6.784
 9806SOL    HW130317   1.385   1.483   6.701
 9806SOL    HW230318   1.378   1.478   6.864
 9807SOL     OW30319   3.350   4.035   0.932
 9807SOL    HW130320   3.297   3.974   0.873
 9807SOL    HW230321   3.318   4.129   0.919
 9808SOL     OW30322   3.963   5.992   5.085
 9808SOL    HW130323   3.909   5.918   5.125
 9808SOL    HW230324   4.007   5.959   5.001
 9809SOL     OW30325   0.645   3.716   0.122
 9809SOL    HW130326   0.545   3.723   0.119
 9809SOL    HW230327   0.673   3.630   0.080
 9810SOL     OW30328   3.366   2.063   4.530
 9810SOL    HW130329   3.354   2.090   4.626
 9810SOL    HW230330   3.308   1.984   4.510
 9811SOL     OW30331   5.905   4.743   3.481
 9811SOL    HW130332   5.815   4.746   3.524
 9811SOL    HW230333   5.931   4.834   3.449
 9812SOL     OW30334   3.251   1.415   5.626
 9812SOL    HW130335   3.249   1.491   5.560
 9812SOL    HW230336   3.345   1.382   5.635
 9813SOL     OW30337   4.977   2.025   0.883
 9813SOL    HW130338   5.054   2.005   0.944
 9813SOL    HW230339   4.891   2.020   0.935
 9814SOL     OW30340   6.424   0.665   6.989
 9814SOL    HW130341   6.451   0.761   7.003
 9814SOL    HW230342   6.345   0.662   6.928
 9815SOL     OW30343   4.856   3.187   4.477
 9815SOL    HW130344   4.807   3.121   4.421
 9815SOL    HW230345   4.856   3.157   4.572
 9816SOL     OW30346   0.184   1.156   5.770
 9816SOL    HW130347   0.196   1.251   5.799
 9816SOL    HW230348   0.110   1.114   5.822
 9817SOL     OW30349   1.222   6.880   3.230
 9817SOL    HW130350   1.146   6.900   3.168
 9817SOL    HW230351   1.307   6.871   3.177
 9818SOL     OW30352   6.547   1.357   4.011
 9818SOL    HW130353   6.482   1.310   3.951
 9818SOL    HW230354   6.498   1.396   4.089
 9819SOL     OW30355   5.326   3.072   3.483
 9819SOL    HW130356   5.228   3.090   3.491
 9819SOL    HW230357   5.353   3.007   3.554
 9820SOL     OW30358   3.418   3.303   6.574
 9820SOL    HW130359   3.490   3.372   6.561
 9820SOL    HW230360   3.374   3.318   6.663
 9821SOL     OW30361   5.649   1.254   6.455
 9821SOL    HW130362   5.580   1.185   6.431
 9821SOL    HW230363   5.606   1.325   6.511
 9822SOL     OW30364   1.595   6.854   3.390
 9822SOL    HW130365   1.643   6.794   3.327
 9822SOL    HW230366   1.659   6.922   3.427
 9823SOL     OW30367   3.411   6.895   0.655
 9823SOL    HW130368   3.425   6.993   0.649
 9823SOL    HW230369   3.313   6.874   0.647
 9824SOL     OW30370   2.230   4.640   4.890
 9824SOL    HW130371   2.269   4.716   4.942
 9824SOL    HW230372   2.297   4.566   4.883
 9825SOL     OW30373   3.815   5.191   5.934
 9825SOL    HW130374   3.836   5.245   5.853
 9825SOL    HW230375   3.785   5.100   5.907
 9826SOL     OW30376   5.135   5.268   6.139
 9826SOL    HW130377   5.062   5.230   6.196
 9826SOL    HW230378   5.095   5.305   6.055
 9827SOL     OW30379   1.891   3.681   3.744
 9827SOL    HW130380   1.960   3.743   3.781
 9827SOL    HW230381   1.805   3.731   3.733
 9828SOL     OW30382   2.196   3.089   6.265
 9828SOL    HW130383   2.238   3.144   6.338
 9828SOL    HW230384   2.112   3.047   6.299
 9829SOL     OW30385   3.139   5.827   6.810
 9829SOL    HW130386   3.095   5.906   6.767
 9829SOL    HW230387   3.069   5.773   6.858
 9830SOL     OW30388   5.856   2.932   2.174
 9830SOL    HW130389   5.944   2.890   2.196
 9830SOL    HW230390   5.868   3.031   2.165
 9831SOL     OW30391   2.000   5.469   0.946
 9831SOL    HW130392   2.064   5.392   0.957
 9831SOL    HW230393   2.005   5.503   0.853
 9832SOL     OW30394   5.014   5.889   2.613
 9832SOL    HW130395   5.085   5.819   2.611
 9832SOL    HW230396   5.050   5.975   2.577
 9833SOL     OW30397   3.870   2.900   5.247
 9833SOL    HW130398   3.791   2.877   5.190
 9833SOL    HW230399   3.921   2.816   5.269
 9834SOL     OW30400   3.260   4.285   5.376
 9834SOL    HW130401   3.167   4.273   5.341
 9834SOL    HW230402   3.325   4.274   5.301
 9835SOL     OW30403   3.146   2.741   5.635
 9835SOL    HW130404   3.156   2.828   5.587
 9835SOL    HW230405   3.080   2.683   5.587
 9836SOL     OW30406   5.980   4.646   4.015
 9836SOL    HW130407   6.053   4.667   3.950
 9836SOL    HW230408   5.902   4.607   3.967
 9837SOL     OW30409   2.827   0.623   2.812
 9837SOL    HW130410   2.737   0.655   2.839
 9837SOL    HW230411   2.897   0.684   2.849
 9838SOL     OW30412   0.994   6.486   6.239
 9838SOL    HW130413   1.048   6.405   6.215
 9838SOL    HW230414   0.992   6.549   6.162
 9839SOL     OW30415   6.145   1.608   3.557
 9839SOL    HW130416   6.122   1.521   3.601
 9839SOL    HW230417   6.066   1.642   3.508
 9840SOL     OW30418   0.468   1.887   1.294
 9840SOL    HW130419   0.526   1.892   1.375
 9840SOL    HW230420   0.507   1.821   1.229
 9841SOL     OW30421   1.865   4.209   4.901
 9841SOL    HW130422   1.957   4.190   4.868
 9841SOL    HW230423   1.869   4.238   4.997
 9842SOL     OW30424   3.943   3.570   2.684
 9842SOL    HW130425   3.993   3.640   2.736
 9842SOL    HW230426   3.963   3.480   2.722
 9843SOL     OW30427   5.642   0.674   0.968
 9843SOL    HW130428   5.592   0.623   1.038
 9843SOL    HW230429   5.721   0.719   1.010
 9844SOL     OW30430   6.029   1.399   1.975
 9844SOL    HW130431   6.039   1.301   1.956
 9844SOL    HW230432   6.098   1.450   1.923
 9845SOL     OW30433   3.208   1.822   3.425
 9845SOL    HW130434   3.131   1.877   3.393
 9845SOL    HW230435   3.211   1.823   3.525
 9846SOL     OW30436   3.763   3.355   1.876
 9846SOL    HW130437   3.807   3.266   1.866
 9846SOL    HW230438   3.698   3.369   1.801
 9847SOL     OW30439   3.503   2.961   4.650
 9847SOL    HW130440   3.469   2.913   4.570
 9847SOL    HW230441   3.560   3.038   4.622
 9848SOL     OW30442   3.265   2.981   6.312
 9848SOL    HW130443   3.290   3.039   6.234
 9848SOL    HW230444   3.313   2.894   6.306
 9849SOL     OW30445   0.082   0.431   0.096
 9849SOL    HW130446   0.168   0.430   0.045
 9849SOL    HW230447   0.094   0.481   0.182
 9850SOL     OW30448   5.923   0.162   3.932
 9850SOL    HW130449   5.832   0.167   3.890
 9850SOL    HW230450   5.915   0.126   4.025
 9851SOL     OW30451   4.778   1.434   5.136
 9851SOL    HW130452   4.761   1.361   5.202
 9851SOL    HW230453   4.696   1.490   5.125
 9852SOL     OW30454   4.283   2.317   2.680
 9852SOL    HW130455   4.328   2.398   2.718
 9852SOL    HW230456   4.263   2.332   2.583
 9853SOL     OW30457   5.635   4.611   4.351
 9853SOL    HW130458   5.555   4.669   4.366
 9853SOL    HW230459   5.609   4.515   4.364
 9854SOL     OW30460   0.523   5.683   4.949
 9854SOL    HW130461   0.576   5.759   4.910
 9854SOL    HW230462   0.582   5.603   4.960
 9855SOL     OW30463   2.579   2.861   0.750
 9855SOL    HW130464   2.604   2.957   0.766
 9855SOL    HW230465   2.480   2.851   0.759
 9856SOL     OW30466   4.626   3.851   5.899
 9856SOL    HW130467   4.594   3.878   5.808
 9856SOL    HW230468   4.564   3.783   5.937
 9857SOL     OW30469   4.353   2.352   3.638
 9857SOL    HW130470   4.353   2.379   3.542
 9857SOL    HW230471   4.263   2.316   3.663
 9858SOL     OW30472   0.069   1.059   0.641
 9858SOL    HW130473   0.156   1.037   0.686
 9858SOL    HW230474   0.010   0.979   0.642
 9859SOL     OW30475   6.112   6.940   2.059
 9859SOL    HW130476   6.069   6.852   2.079
 9859SOL    HW230477   6.041   7.007   2.038
 9860SOL     OW30478   0.416   1.322   3.527
 9860SOL    HW130479   0.401   1.414   3.563
 9860SOL    HW230480   0.454   1.264   3.599
 9861SOL     OW30481   3.349   0.146   3.081
 9861SOL    HW130482   3.356   0.188   2.990
 9861SOL    HW230483   3.438   0.148   3.126
 9862SOL     OW30484   3.762   4.145   0.206
 9862SOL    HW130485   3.826   4.219   0.183
 9862SOL    HW230486   3.784   4.064   0.152
 9863SOL     OW30487   3.786   6.966   2.870
 9863SOL    HW130488   3.697   6.992   2.832
 9863SOL    HW230489   3.778   6.876   2.914
 9864SOL     OW30490   3.727   6.339   4.308
 9864SOL    HW130491   3.686   6.381   4.228
 9864SOL    HW230492   3.666   6.269   4.345
 9865SOL     OW30493   1.408   0.932   4.057
 9865SOL    HW130494   1.439   0.883   3.976
 9865SOL    HW230495   1.445   0.887   4.139
 9866SOL     OW30496   4.636   4.780   5.866
 9866SOL    HW130497   4.662   4.767   5.961
 9866SOL    HW230498   4.612   4.691   5.826
 9867SOL     OW30499   5.896   0.973   0.702
 9867SOL    HW130500   5.808   1.018   0.686
 9867SOL    HW230501   5.902   0.947   0.799
 9868SOL     OW30502   0.783   4.047   5.824
 9868SOL    HW130503   0.767   3.963   5.875
 9868SOL    HW230504   0.855   4.031   5.756
 9869SOL     OW30505   1.536   3.264   2.503
 9869SOL    HW130506   1.440   3.256   2.529
 9869SOL    HW230507   1.588   3.309   2.576
 9870SOL     OW30508   3.660   5.679   2.907
 9870SOL    HW130509   3.568   5.648   2.929
 9870SOL    HW230510   3.716   5.679   2.991
 9871SOL     OW30511   0.315   5.994   6.359
 9871SOL    HW130512   0.252   6.058   6.402
 9871SOL    HW230513   0.404   6.038   6.344
 9872SOL     OW30514   2.272   4.617   4.128
 9872SOL    HW130515   2.221   4.619   4.214
 9872SOL    HW230516   2.214   4.652   4.054
 9873SOL     OW30517   2.509   2.372   0.088
 9873SOL    HW130518   2.449   2.416   0.021
 9873SOL    HW230519   2.582   2.435   0.114
 9874SOL     OW30520   7.003   3.033   4.748
 9874SOL    HW130521   7.002   2.993   4.840
 9874SOL    HW230522   7.002   3.133   4.755
 9875SOL     OW30523   6.315   6.818   1.674
 9875SOL    HW130524   6.340   6.864   1.759
 9875SOL    HW230525   6.381   6.842   1.603
 9876SOL     OW30526   6.448   0.255   3.190
 9876SOL    HW130527   6.497   0.278   3.274
 9876SOL    HW230528   6.350   0.247   3.210
 9877SOL     OW30529   0.197   6.209   3.982
 9877SOL    HW130530   0.277   6.260   3.949
 9877SOL    HW230531   0.221   6.160   4.065
 9878SOL     OW30532   2.577   4.967   5.100
 9878SOL    HW130533   2.606   5.029   5.027
 9878SOL    HW230534   2.522   5.018   5.166
 9879SOL     OW30535   5.385   5.087   4.936
 9879SOL    HW130536   5.464   5.148   4.923
 9879SOL    HW230537   5.302   5.141   4.949
 9880SOL     OW30538   3.028   1.006   5.931
 9880SOL    HW130539   2.995   0.913   5.918
 9880SOL    HW230540   2.996   1.042   6.019
 9881SOL     OW30541   0.946   1.000   4.869
 9881SOL    HW130542   0.957   1.088   4.822
 9881SOL    HW230543   1.013   0.935   4.833
 9882SOL     OW30544   1.124   3.589   3.991
 9882SOL    HW130545   1.198   3.634   4.041
 9882SOL    HW230546   1.038   3.638   4.005
 9883SOL     OW30547   1.283   6.240   0.265
 9883SOL    HW130548   1.282   6.302   0.344
 9883SOL    HW230549   1.310   6.290   0.183
 9884SOL     OW30550   4.881   2.140   2.014
 9884SOL    HW130551   4.801   2.192   1.981
 9884SOL    HW230552   4.959   2.202   2.024
 9885SOL     OW30553   0.019   2.289   5.007
 9885SOL    HW130554   0.070   2.205   5.025
 9885SOL    HW230555   6.955   2.288   5.059
 9886SOL     OW30556   1.325   4.498   2.322
 9886SOL    HW130557   1.353   4.590   2.349
 9886SOL    HW230558   1.365   4.431   2.385
 9887SOL     OW30559   3.526   0.416   5.852
 9887SOL    HW130560   3.563   0.425   5.760
 9887SOL    HW230561   3.446   0.356   5.850
 9888SOL     OW30562   5.541   4.722   2.864
 9888SOL    HW130563   5.563   4.758   2.773
 9888SOL    HW230564   5.625   4.713   2.917
 9889SOL     OW30565   6.854   5.008   1.825
 9889SOL    HW130566   6.889   4.940   1.761
 9889SOL    HW230567   6.930   5.061   1.863
 9890SOL     OW30568   1.938   2.407   0.989
 9890SOL    HW130569   2.007   2.462   0.942
 9890SOL    HW230570   1.922   2.444   1.081
 9891SOL     OW30571   5.042   3.919   1.985
 9891SOL    HW130572   5.139   3.939   1.997
 9891SOL    HW230573   5.027   3.820   1.994
 9892SOL     OW30574   0.012   4.751   1.350
 9892SOL    HW130575   0.061   4.679   1.302
 9892SOL    HW230576   0.015   4.835   1.295
 9893SOL     OW30577   0.919   0.559   0.903
 9893SOL    HW130578   0.976   0.583   0.981
 9893SOL    HW230579   0.877   0.642   0.866
 9894SOL     OW30580   2.944   2.506   1.111
 9894SOL    HW130581   3.001   2.506   1.028
 9894SOL    HW230582   2.889   2.423   1.113
 9895SOL     OW30583   6.300   5.200   4.335
 9895SOL    HW130584   6.356   5.161   4.263
 9895SOL    HW230585   6.206   5.211   4.302
 9896SOL     OW30586   6.902   0.956   6.446
 9896SOL    HW130587   6.868   1.009   6.524
 9896SOL    HW230588   6.974   0.894   6.477
 9897SOL     OW30589   5.390   6.243   2.646
 9897SOL    HW130590   5.410   6.302   2.724
 9897SOL    HW230591   5.445   6.159   2.653
 9898SOL     OW30592   1.842   6.440   4.799
 9898SOL    HW130593   1.896   6.371   4.846
 9898SOL    HW230594   1.749   6.442   4.837
 9899SOL     OW30595   1.564   5.978   0.666
 9899SOL    HW130596   1.469   6.004   0.684
 9899SOL    HW230597   1.625   6.050   0.698
 9900SOL     OW30598   1.801   2.892   3.081
 9900SOL    HW130599   1.762   2.827   3.146
 9900SOL    HW230600   1.891   2.922   3.113
 9901SOL     OW30601   2.699   0.222   7.002
 9901SOL    HW130602   2.690   0.163   0.061
 9901SOL    HW230603   2.608   0.242   6.966
 9902SOL     OW30604   3.295   4.988   1.353
 9902SOL    HW130605   3.302   5.087   1.360
 9902SOL    HW230606   3.367   4.954   1.293
 9903SOL     OW30607   5.616   2.372   1.326
 9903SOL    HW130608   5.667   2.287   1.342
 9903SOL    HW230609   5.573   2.401   1.411
 9904SOL     OW30610   0.571   3.798   6.614
 9904SOL    HW130611   0.669   3.782   6.630
 9904SOL    HW230612   0.560   3.866   6.541
 9905SOL     OW30613   1.978   0.240   6.309
 9905SOL    HW130614   2.026   0.324   6.334
 9905SOL    HW230615   1.906   0.261   6.243
 9906SOL     OW30616   1.914   3.430   1.449
 9906SOL    HW130617   1.917   3.398   1.354
 9906SOL    HW230618   2.001   3.474   1.471
 9907SOL     OW30619   0.664   0.203   1.653
 9907SOL    HW130620   0.718   0.147   1.716
 9907SOL    HW230621   0.633   0.285   1.701
 9908SOL     OW30622   6.440   1.420   5.141
 9908SOL    HW130623   6.422   1.336   5.089
 9908SOL    HW230624   6.462   1.397   5.236
 9909SOL     OW30625   4.525   1.791   3.018
 9909SOL    HW130626   4.504   1.800   2.921
 9909SOL    HW230627   4.596   1.722   3.031
 9910SOL     OW30628   1.232   5.211   1.597
 9910SOL    HW130629   1.166   5.198   1.523
 9910SOL    HW230630   1.183   5.223   1.683
 9911SOL     OW30631   2.794   6.076   2.325
 9911SOL    HW130632   2.832   6.129   2.249
 9911SOL    HW230633   2.833   5.984   2.325
 9912SOL     OW30634   3.918   0.134   1.364
 9912SOL    HW130635   4.013   0.106   1.380
 9912SOL    HW230636   3.862   0.053   1.343
 9913SOL     OW30637   6.242   4.176   0.248
 9913SOL    HW130638   6.201   4.243   0.186
 9913SOL    HW230639   6.210   4.193   0.341
 9914SOL     OW30640   6.129   1.342   4.764
 9914SOL    HW130641   6.177   1.254   4.769
 9914SOL    HW230642   6.062   1.339   4.690
 9915SOL     OW30643   6.167   1.427   3.889
 9915SOL    HW130644   6.114   1.434   3.804
 9915SOL    HW230645   6.120   1.476   3.962
 9916SOL     OW30646   2.145   2.426   2.634
 9916SOL    HW130647   2.194   2.366   2.572
 9916SOL    HW230648   2.084   2.486   2.581
 9917SOL     OW30649   4.912   4.266   6.343
 9917SOL    HW130650   4.837   4.288   6.404
 9917SOL    HW230651   4.877   4.254   6.250
 9918SOL     OW30652   2.711   1.878   3.349
 9918SOL    HW130653   2.758   1.842   3.269
 9918SOL    HW230654   2.638   1.940   3.321
 9919SOL     OW30655   0.770   5.023   0.786
 9919SOL    HW130656   0.856   5.063   0.754
 9919SOL    HW230657   0.714   5.093   0.829
 9920SOL     OW30658   4.927   1.329   2.431
 9920SOL    HW130659   4.888   1.291   2.347
 9920SOL    HW230660   4.987   1.406   2.408
 9921SOL     OW30661   4.074   6.198   4.565
 9921SOL    HW130662   4.059   6.248   4.480
 9921SOL    HW230663   3.988   6.192   4.616
 9922SOL     OW30664   2.389   3.682   0.573
 9922SOL    HW130665   2.346   3.772   0.579
 9922SOL    HW230666   2.321   3.612   0.595
 9923SOL     OW30667   5.734   4.612   6.822
 9923SOL    HW130668   5.656   4.648   6.873
 9923SOL    HW230669   5.702   4.550   6.751
 9924SOL     OW30670   6.382   1.666   3.301
 9924SOL    HW130671   6.464   1.610   3.305
 9924SOL    HW230672   6.304   1.609   3.275
 9925SOL     OW30673   0.233   4.279   4.250
 9925SOL    HW130674   0.319   4.327   4.269
 9925SOL    HW230675   0.165   4.304   4.319
 9926SOL     OW30676   4.452   2.982   1.382
 9926SOL    HW130677   4.365   2.934   1.389
 9926SOL    HW230678   4.436   3.081   1.383
 9927SOL     OW30679   1.523   0.330   0.642
 9927SOL    HW130680   1.452   0.269   0.607
 9927SOL    HW230681   1.515   0.338   0.741
 9928SOL     OW30682   5.229   4.848   3.062
 9928SOL    HW130683   5.132   4.867   3.050
 9928SOL    HW230684   5.267   4.910   3.130
 9929SOL     OW30685   3.196   4.047   5.188
 9929SOL    HW130686   3.168   3.983   5.260
 9929SOL    HW230687   3.131   4.123   5.183
 9930SOL     OW30688   6.131   6.331   5.102
 9930SOL    HW130689   6.216   6.311   5.054
 9930SOL    HW230690   6.151   6.362   5.195
 9931SOL     OW30691   0.587   5.384   4.530
 9931SOL    HW130692   0.512   5.436   4.490
 9931SOL    HW230693   0.579   5.288   4.502
 9932SOL     OW30694   2.839   3.226   6.081
 9932SOL    HW130695   2.927   3.243   6.126
 9932SOL    HW230696   2.854   3.190   5.989
 9933SOL     OW30697   0.800   6.314   4.015
 9933SOL    HW130698   0.893   6.292   4.045
 9933SOL    HW230699   0.789   6.286   3.919
 9934SOL     OW30700   6.546   2.119   5.660
 9934SOL    HW130701   6.566   2.214   5.637
 9934SOL    HW230702   6.538   2.065   5.576
 9935SOL     OW30703   3.379   6.562   0.442
 9935SOL    HW130704   3.471   6.546   0.478
 9935SOL    HW230705   3.379   6.646   0.387
 9936SOL     OW30706   6.747   4.424   0.074
 9936SOL    HW130707   6.669   4.423   0.137
 9936SOL    HW230708   6.718   4.395   7.004
 9937SOL     OW30709   0.267   1.834   1.848
 9937SOL    HW130710   0.233   1.881   1.929
 9937SOL    HW230711   0.279   1.736   1.868
 9938SOL     OW30712   6.536   5.125   3.310
 9938SOL    HW130713   6.532   5.175   3.397
 9938SOL    HW230714   6.619   5.070   3.307
 9939SOL     OW30715   4.227   2.568   1.445
 9939SOL    HW130716   4.322   2.598   1.443
 9939SOL    HW230717   4.223   2.468   1.453
 9940SOL     OW30718   1.041   0.563   1.175
 9940SOL    HW130719   0.986   0.593   1.253
 9940SOL    HW230720   1.136   0.550   1.204
 9941SOL     OW30721   3.141   2.984   4.597
 9941SOL    HW130722   3.121   2.889   4.571
 9941SOL    HW230723   3.202   3.025   4.530
 9942SOL     OW30724   2.604   5.311   3.012
 9942SOL    HW130725   2.538   5.366   3.063
 9942SOL    HW230726   2.685   5.296   3.068
 9943SOL     OW30727   0.616   4.587   5.853
 9943SOL    HW130728   0.689   4.624   5.911
 9943SOL    HW230729   0.528   4.607   5.895
 9944SOL     OW30730   0.981   4.237   6.667
 9944SOL    HW130731   0.972   4.277   6.576
 9944SOL    HW230732   1.039   4.296   6.724
 9945SOL     OW30733   4.552   5.492   6.410
 9945SOL    HW130734   4.554   5.493   6.310
 9945SOL    HW230735   4.642   5.517   6.446
 9946SOL     OW30736   6.013   0.521   3.479
 9946SOL    HW130737   6.062   0.443   3.442
 9946SOL    HW230738   5.985   0.501   3.573
 9947SOL     OW30739   2.425   2.384   4.680
 9947SOL    HW130740   2.328   2.387   4.657
 9947SOL    HW230741   2.454   2.288   4.689
 9948SOL     OW30742   6.080   4.613   6.066
 9948SOL    HW130743   6.009   4.605   6.136
 9948SOL    HW230744   6.073   4.537   6.002
 9949SOL     OW30745   6.824   5.178   4.042
 9949SOL    HW130746   6.741   5.225   4.071
 9949SOL    HW230747   6.899   5.243   4.036
 9950SOL     OW30748   5.686   6.479   5.414
 9950SOL    HW130749   5.632   6.482   5.330
 9950SOL    HW230750   5.625   6.483   5.493
 9951SOL     OW30751   0.383   1.583   3.615
 9951SOL    HW130752   0.467   1.637   3.623
 9951SOL    HW230753   0.315   1.619   3.678
 9952SOL     OW30754   1.028   4.770   0.325
 9952SOL    HW130755   0.947   4.824   0.350
 9952SOL    HW230756   1.106   4.801   0.380
 9953SOL     OW30757   5.771   2.354   4.749
 9953SOL    HW130758   5.778   2.278   4.813
 9953SOL    HW230759   5.792   2.440   4.797
 9954SOL     OW30760   0.377   0.492   6.277
 9954SOL    HW130761   0.345   0.562   6.341
 9954SOL    HW230762   0.445   0.434   6.323
 9955SOL     OW30763   6.006   3.382   5.963
 9955SOL    HW130764   6.082   3.440   5.934
 9955SOL    HW230765   5.928   3.396   5.903
 9956SOL     OW30766   1.096   5.607   2.240
 9956SOL    HW130767   1.143   5.540   2.297
 9956SOL    HW230768   0.998   5.587   2.240
 9957SOL     OW30769   5.454   6.252   2.018
 9957SOL    HW130770   5.474   6.160   1.985
 9957SOL    HW230771   5.526   6.280   2.083
 9958SOL     OW30772   2.635   5.097   0.066
 9958SOL    HW130773   2.698   5.137   7.020
 9958SOL    HW230774   2.592   5.016   0.027
 9959SOL     OW30775   4.025   3.636   4.470
 9959SOL    HW130776   4.036   3.632   4.371
 9959SOL    HW230777   4.034   3.544   4.508
 9960SOL     OW30778   7.017   0.486   2.070
 9960SOL    HW130779   7.020   0.411   2.004
 9960SOL    HW230780   0.086   0.529   2.076
 9961SOL     OW30781   1.876   5.741   4.408
 9961SOL    HW130782   1.973   5.766   4.408
 9961SOL    HW230783   1.848   5.716   4.500
 9962SOL     OW30784   5.461   6.041   1.393
 9962SOL    HW130785   5.445   6.134   1.425
 9962SOL    HW230786   5.502   6.043   1.302
 9963SOL     OW30787   2.691   3.298   6.845
 9963SOL    HW130788   2.714   3.388   6.808
 9963SOL    HW230789   2.617   3.307   6.911
 9964SOL     OW30790   5.066   3.861   6.333
 9964SOL    HW130791   5.130   3.836   6.261
 9964SOL    HW230792   4.974   3.833   6.306
 9965SOL     OW30793   4.105   5.654   6.368
 9965SOL    HW130794   4.167   5.723   6.405
 9965SOL    HW230795   4.045   5.620   6.441
 9966SOL     OW30796   2.340   5.907   2.710
 9966SOL    HW130797   2.377   5.951   2.628
 9966SOL    HW230798   2.342   5.807   2.697
 9967SOL     OW30799   5.496   6.760   2.142
 9967SOL    HW130800   5.514   6.838   2.082
 9967SOL    HW230801   5.462   6.792   2.230
 9968SOL     OW30802   3.004   3.522   6.468
 9968SOL    HW130803   2.950   3.575   6.403
 9968SOL    HW230804   3.093   3.565   6.480
 9969SOL     OW30805   2.221   3.089   3.581
 9969SOL    HW130806   2.159   3.034   3.526
 9969SOL    HW230807   2.232   3.047   3.671
 9970SOL     OW30808   5.228   4.304   2.818
 9970SOL    HW130809   5.261   4.392   2.852
 9970SOL    HW230810   5.291   4.232   2.847
 9971SOL     OW30811   2.605   5.085   0.547
 9971SOL    HW130812   2.663   5.056   0.471
 9971SOL    HW230813   2.538   5.013   0.568
 9972SOL     OW30814   4.029   4.890   1.146
 9972SOL    HW130815   4.032   4.959   1.219
 9972SOL    HW230816   3.993   4.804   1.183
 9973SOL     OW30817   4.380   2.322   4.595
 9973SOL    HW130818   4.340   2.376   4.521
 9973SOL    HW230819   4.457   2.269   4.560
 9974SOL     OW30820   6.607   3.513   3.761
 9974SOL    HW130821   6.704   3.535   3.750
 9974SOL    HW230822   6.573   3.556   3.845
 9975SOL     OW30823   6.941   5.035   6.880
 9975SOL    HW130824   6.995   4.962   6.838
 9975SOL    HW230825   6.881   4.996   6.950
 9976SOL     OW30826   0.890   6.112   5.673
 9976SOL    HW130827   0.982   6.073   5.665
 9976SOL    HW230828   0.864   6.115   5.769
 9977SOL     OW30829   0.038   5.495   5.366
 9977SOL    HW130830   0.110   5.460   5.426
 9977SOL    HW230831   0.078   5.555   5.297
 9978SOL     OW30832   6.076   3.031   3.267
 9978SOL    HW130833   6.090   2.954   3.329
 9978SOL    HW230834   6.135   3.020   3.187
 9979SOL     OW30835   6.523   4.605   5.434
 9979SOL    HW130836   6.578   4.558   5.503
 9979SOL    HW230837   6.561   4.695   5.417
 9980SOL     OW30838   1.772   1.626   6.046
 9980SOL    HW130839   1.821   1.666   5.968
 9980SOL    HW230840   1.818   1.541   6.073
 9981SOL     OW30841   2.580   2.006   1.818
 9981SOL    HW130842   2.483   1.983   1.814
 9981SOL    HW230843   2.594   2.080   1.884
 9982SOL     OW30844   0.127   0.264   3.476
 9982SOL    HW130845   0.136   0.350   3.426
 9982SOL    HW230846   0.132   0.282   3.575
 9983SOL     OW30847   0.900   2.738   3.758
 9983SOL    HW130848   0.908   2.675   3.681
 9983SOL    HW230849   0.885   2.831   3.725
 9984SOL     OW30850   2.010   0.680   0.199
 9984SOL    HW130851   2.063   0.652   0.280
 9984SOL    HW230852   1.928   0.623   0.192
 9985SOL     OW30853   1.982   1.166   1.591
 9985SOL    HW130854   1.913   1.117   1.644
 9985SOL    HW230855   2.034   1.100   1.535
 9986SOL     OW30856   4.725   4.530   6.120
 9986SOL    HW130857   4.769   4.562   6.037
 9986SOL    HW230858   4.740   4.431   6.130
 9987SOL     OW30859   0.132   2.649   3.773
 9987SOL    HW130860   0.041   2.665   3.734
 9987SOL    HW230861   0.123   2.608   3.864
 9988SOL     OW30862   0.282   5.459   5.503
 9988SOL    HW130863   0.309   5.507   5.586
 9988SOL    HW230864   0.284   5.360   5.520
 9989SOL     OW30865   6.376   4.237   3.371
 9989SOL    HW130866   6.329   4.164   3.321
 9989SOL    HW230867   6.364   4.324   3.322
 9990SOL     OW30868   2.602   6.181   1.775
 9990SOL    HW130869   2.608   6.261   1.835
 9990SOL    HW230870   2.572   6.210   1.684
 9991SOL     OW30871   1.978   2.875   3.905
 9991SOL    HW130872   1.893   2.918   3.875
 9991SOL    HW230873   1.980   2.868   4.004
 9992SOL     OW30874   5.088   4.526   0.244
 9992SOL    HW130875   5.010   4.566   0.196
 9992SOL    HW230876   5.084   4.426   0.236
 9993SOL     OW30877   3.830   0.597   1.481
 9993SOL    HW130878   3.816   0.498   1.489
 9993SOL    HW230879   3.754   0.637   1.430
 9994SOL     OW30880   0.170   4.826   3.289
 9994SOL    HW130881   0.096   4.775   3.245
 9994SOL    HW230882   0.208   4.770   3.363
 9995SOL     OW30883   4.365   1.270   2.881
 9995SOL    HW130884   4.277   1.318   2.874
 9995SOL    HW230885   4.399   1.277   2.975
 9996SOL     OW30886   2.430   3.025   1.677
 9996SOL    HW130887   2.365   3.091   1.715
 9996SOL    HW230888   2.456   3.053   1.585
 9997SOL     OW30889   3.516   1.948   0.702
 9997SOL    HW130890   3.450   1.890   0.749
 9997SOL    HW230891   3.604   1.945   0.749
 9998SOL     OW30892   5.745   4.248   0.318
 9998SOL    HW130893   5.669   4.193   0.284
 9998SOL    HW230894   5.773   4.214   0.408
 9999SOL     OW30895   0.055   2.681   5.394
 9999SOL    HW130896   6.993   2.626   5.400
 9999SOL    HW230897   0.109   2.669   5.478
10000SOL     OW30898   6.669   3.396   0.098
10000SOL    HW130899   6.584   3.350   0.070
10000SOL    HW230900   6.657   3.495   0.089
10001SOL     OW30901   4.656   0.307   2.190
10001SOL    HW130902   4.556   0.314   2.191
10001SOL    HW230903   4.689   0.295   2.283
10002SOL     OW30904   1.774   0.488   2.137
10002SOL    HW130905   1.710   0.435   2.192
10002SOL    HW230906   1.858   0.504   2.189
10003SOL     OW30907   3.855   1.491   3.348
10003SOL    HW130908   3.943   1.523   3.314
10003SOL    HW230909   3.781   1.530   3.294
10004SOL     OW30910   5.539   2.455   3.822
10004SOL    HW130911   5.527   2.508   3.738
10004SOL    HW230912   5.506   2.508   3.900
10005SOL     OW30913   5.118   0.947   4.284
10005SOL    HW130914   5.170   0.979   4.363
10005SOL    HW230915   5.136   0.850   4.268
10006SOL     OW30916   5.420   6.911   4.628
10006SOL    HW130917   5.426   6.817   4.597
10006SOL    HW230918   5.495   6.930   4.692
10007SOL     OW30919   0.732   5.203   5.612
10007SOL    HW130920   0.802   5.170   5.676
10007SOL    HW230921   0.741   5.154   5.526
10008SOL     OW30922   4.406   1.186   4.654
10008SOL    HW130923   4.447   1.116   4.712
10008SOL    HW230924   4.439   1.276   4.681
10009SOL     OW30925   2.047   4.225   1.882
10009SOL    HW130926   2.099   4.147   1.848
10009SOL    HW230927   2.074   4.245   1.976
10010SOL     OW30928   1.762   0.531   5.721
10010SOL    HW130929   1.724   0.570   5.804
10010SOL    HW230930   1.823   0.599   5.678
10011SOL     OW30931   5.631   1.759   5.182
10011SOL    HW130932   5.653   1.776   5.086
10011SOL    HW230933   5.560   1.689   5.188
10012SOL     OW30934   5.387   0.874   3.200
10012SOL    HW130935   5.454   0.853   3.129
10012SOL    HW230936   5.310   0.923   3.160
10013SOL     OW30937   0.662   1.206   3.931
10013SOL    HW130938   0.649   1.172   3.839
10013SOL    HW230939   0.732   1.279   3.930
10014SOL     OW30940   6.740   4.187   0.605
10014SOL    HW130941   6.816   4.126   0.628
10014SOL    HW230942   6.756   4.227   0.515
10015SOL     OW30943   1.693   3.791   0.410
10015SOL    HW130944   1.702   3.889   0.425
10015SOL    HW230945   1.731   3.741   0.488
10016SOL     OW30946   1.501   1.010   6.530
10016SOL    HW130947   1.572   0.947   6.561
10016SOL    HW230948   1.475   0.988   6.436
10017SOL     OW30949   3.020   1.604   3.059
10017SOL    HW130950   2.966   1.566   3.134
10017SOL    HW230951   2.970   1.594   2.973
10018SOL     OW30952   4.455   0.153   5.510
10018SOL    HW130953   4.457   0.177   5.607
10018SOL    HW230954   4.437   0.236   5.456
10019SOL     OW30955   6.944   2.279   2.795
10019SOL    HW130956   6.937   2.188   2.837
10019SOL    HW230957   6.860   2.299   2.745
10020SOL     OW30958   1.439   2.358   2.078
10020SOL    HW130959   1.508   2.337   2.007
10020SOL    HW230960   1.434   2.281   2.142
10021SOL     OW30961   0.102   2.788   1.349
10021SOL    HW130962   0.127   2.719   1.280
10021SOL    HW230963   0.004   2.805   1.345
10022SOL     OW30964   2.617   0.705   6.111
10022SOL    HW130965   2.628   0.617   6.158
10022SOL    HW230966   2.646   0.697   6.016
10023SOL     OW30967   1.146   5.517   6.951
10023SOL    HW130968   1.129   5.598   6.895
10023SOL    HW230969   1.163   5.544   0.024
10024SOL     OW30970   2.065   6.247   2.254
10024SOL    HW130971   2.055   6.323   2.318
10024SOL    HW230972   2.099   6.282   2.167
10025SOL     OW30973   1.533   1.714   1.269
10025SOL    HW130974   1.478   1.635   1.243
10025SOL    HW230975   1.608   1.684   1.328
10026SOL     OW30976   5.765   6.589   3.883
10026SOL    HW130977   5.755   6.535   3.799
10026SOL    HW230978   5.716   6.544   3.958
10027SOL     OW30979   6.576   3.939   5.287
10027SOL    HW130980   6.658   3.950   5.344
10027SOL    HW230981   6.584   3.998   5.206
10028SOL     OW30982   1.628   1.310   1.850
10028SOL    HW130983   1.638   1.406   1.823
10028SOL    HW230984   1.564   1.265   1.788
10029SOL     OW30985   4.849   1.630   4.409
10029SOL    HW130986   4.844   1.537   4.447
10029SOL    HW230987   4.778   1.686   4.450
10030SOL     OW30988   2.516   6.791   3.250
10030SOL    HW130989   2.586   6.823   3.313
10030SOL    HW230990   2.519   6.691   3.244
10031SOL     OW30991   5.791   5.140   4.790
10031SOL    HW130992   5.713   5.197   4.816
10031SOL    HW230993   5.872   5.170   4.840
10032SOL     OW30994   2.054   1.462   5.172
10032SOL    HW130995   2.133   1.406   5.199
10032SOL    HW230996   2.086   1.549   5.134
10033SOL     OW30997   6.043   2.750   4.273
10033SOL    HW130998   6.062   2.784   4.180
10033SOL    HW230999   6.127   2.755   4.328
10034SOL     OW31000   3.546   0.315   3.901
10034SOL    HW131001   3.638   0.289   3.930
10034SOL    HW231002   3.524   0.406   3.938
10035SOL     OW31003   6.220   4.512   1.486
10035SOL    HW131004   6.214   4.609   1.509
10035SOL    HW231005   6.129   4.478   1.463
10036SOL     OW31006   6.200   2.228   1.386
10036SOL    HW131007   6.298   2.208   1.389
10036SOL    HW231008   6.151   2.149   1.350
10037SOL     OW31009   0.189   1.535   0.099
10037SOL    HW131010   0.267   1.553   0.039
10037SOL    HW231011   0.207   1.451   0.152
10038SOL     OW31012   5.616   0.389   0.208
10038SOL    HW131013   5.603   0.402   0.110
10038SOL    HW231014   5.561   0.455   0.259
10039SOL     OW31015   3.352   0.556   3.533
10039SOL    HW131016   3.363   0.565   3.632
10039SOL    HW231017   3.422   0.610   3.487
10040SOL     OW31018   5.406   5.055   6.499
10040SOL    HW131019   5.348   5.131   6.530
10040SOL    HW231020   5.481   5.090   6.444
10041SOL     OW31021   4.112   5.666   0.044
10041SOL    HW131022   4.130   5.764   0.040
10041SOL    HW231023   4.018   5.649   0.014
10042SOL     OW31024   0.861   1.779   4.323
10042SOL    HW131025   0.810   1.859   4.292
10042SOL    HW231026   0.828   1.697   4.276
10043SOL     OW31027   6.831   1.156   4.595
10043SOL    HW131028   6.778   1.136   4.513
10043SOL    HW231029   6.783   1.119   4.675
10044SOL     OW31030   2.494   2.606   4.829
10044SOL    HW131031   2.468   2.524   4.778
10044SOL    HW231032   2.587   2.633   4.804
10045SOL     OW31033   3.945   0.621   1.890
10045SOL    HW131034   3.872   0.568   1.849
10045SOL    HW231035   3.994   0.671   1.819
10046SOL     OW31036   1.699   3.794   1.019
10046SOL    HW131037   1.755   3.715   1.044
10046SOL    HW231038   1.754   3.877   1.027
10047SOL     OW31039   0.761   3.422   4.881
10047SOL    HW131040   0.790   3.462   4.968
10047SOL    HW231041   0.782   3.324   4.882
10048SOL     OW31042   0.366   6.621   2.512
10048SOL    HW131043   0.340   6.698   2.570
10048SOL    HW231044   0.431   6.563   2.561
10049SOL     OW31045   1.699   1.187   5.562
10049SOL    HW131046   1.715   1.274   5.609
10049SOL    HW231047   1.763   1.179   5.485
10050SOL     OW31048   5.564   3.611   5.162
10050SOL    HW131049   5.540   3.514   5.160
10050SOL    HW231050   5.523   3.654   5.242
10051SOL     OW31051   0.376   4.296   4.999
10051SOL    HW131052   0.282   4.303   4.963
10051SOL    HW231053   0.385   4.356   5.078
10052SOL     OW31054   2.161   1.296   3.297
10052SOL    HW131055   2.142   1.342   3.211
10052SOL    HW231056   2.205   1.361   3.360
10053SOL     OW31057   4.299   5.909   4.464
10053SOL    HW131058   4.247   5.837   4.511
10053SOL    HW231059   4.243   5.948   4.391
10054SOL     OW31060   5.931   4.460   4.994
10054SOL    HW131061   5.920   4.559   4.982
10054SOL    HW231062   5.914   4.436   5.089
10055SOL     OW31063   6.413   2.459   5.488
10055SOL    HW131064   6.476   2.468   5.566
10055SOL    HW231065   6.438   2.526   5.418
10056SOL     OW31066   5.196   4.657   3.607
10056SOL    HW131067   5.160   4.591   3.541
10056SOL    HW231068   5.291   4.678   3.584
10057SOL     OW31069   5.399   4.027   5.432
10057SOL    HW131070   5.395   3.931   5.405
10057SOL    HW231071   5.438   4.034   5.524
10058SOL     OW31072   6.491   3.696   5.110
10058SOL    HW131073   6.460   3.643   5.189
10058SOL    HW231074   6.516   3.788   5.139
10059SOL     OW31075   0.039   2.253   0.257
10059SOL    HW131076   0.097   2.220   0.183
10059SOL    HW231077   0.082   2.232   0.345
10060SOL     OW31078   2.384   2.269   2.626
10060SOL    HW131079   2.440   2.283   2.708
10060SOL    HW231080   2.334   2.182   2.636
10061SOL     OW31081   4.513   1.162   3.777
10061SOL    HW131082   4.563   1.160   3.690
10061SOL    HW231083   4.415   1.167   3.758
10062SOL     OW31084   6.241   6.787   4.519
10062SOL    HW131085   6.241   6.876   4.565
10062SOL    HW231086   6.254   6.715   4.587
10063SOL     OW31087   2.976   1.757   4.328
10063SOL    HW131088   2.994   1.691   4.255
10063SOL    HW231089   2.960   1.847   4.287
10064SOL     OW31090   4.150   5.591   6.677
10064SOL    HW131091   4.127   5.501   6.641
10064SOL    HW231092   4.230   5.627   6.628
10065SOL     OW31093   1.711   0.991   1.403
10065SOL    HW131094   1.797   1.038   1.417
10065SOL    HW231095   1.636   1.057   1.404
10066SOL     OW31096   0.275   2.743   4.846
10066SOL    HW131097   0.231   2.689   4.774
10066SOL    HW231098   0.292   2.685   4.926
10067SOL     OW31099   0.340   3.095   6.445
10067SOL    HW131100   0.320   3.137   6.534
10067SOL    HW231101   0.397   3.157   6.391
10068SOL     OW31102   1.055   3.951   3.616
10068SOL    HW131103   0.995   3.882   3.575
10068SOL    HW231104   1.150   3.920   3.611
10069SOL     OW31105   3.074   5.132   1.730
10069SOL    HW131106   3.003   5.120   1.660
10069SOL    HW231107   3.138   5.056   1.725
10070SOL     OW31108   0.579   5.053   5.198
10070SOL    HW131109   0.510   5.124   5.211
10070SOL    HW231110   0.552   4.994   5.122
10071SOL     OW31111   1.361   0.317   4.120
10071SOL    HW131112   1.305   0.321   4.037
10071SOL    HW231113   1.323   0.249   4.183
10072SOL     OW31114   0.586   1.230   2.839
10072SOL    HW131115   0.604   1.135   2.816
10072SOL    HW231116   0.616   1.289   2.763
10073SOL     OW31117   6.466   3.988   3.777
10073SOL    HW131118   6.478   4.077   3.733
10073SOL    HW231119   6.401   3.998   3.853
10074SOL     OW31120   1.879   5.887   0.671
10074SOL    HW131121   1.869   5.789   0.653
10074SOL    HW231122   1.861   5.938   0.587
10075SOL     OW31123   2.072   0.573   2.556
10075SOL    HW131124   1.975   0.549   2.553
10075SOL    HW231125   2.116   0.529   2.634
10076SOL     OW31126   4.932   5.650   2.973
10076SOL    HW131127   5.005   5.718   2.977
10076SOL    HW231128   4.957   5.578   2.908
10077SOL     OW31129   5.166   2.394   0.197
10077SOL    HW131130   5.153   2.448   0.280
10077SOL    HW231131   5.094   2.325   0.189
10078SOL     OW31132   0.995   6.663   5.119
10078SOL    HW131133   0.919   6.687   5.180
10078SOL    HW231134   0.966   6.671   5.024
10079SOL     OW31135   5.340   2.273   3.305
10079SOL    HW131136   5.391   2.261   3.220
10079SOL    HW231137   5.316   2.370   3.315
10080SOL     OW31138   5.431   1.075   6.313
10080SOL    HW131139   5.513   1.050   6.261
10080SOL    HW231140   5.369   0.997   6.315
10081SOL     OW31141   0.755   1.851   0.123
10081SOL    HW131142   0.808   1.773   0.091
10081SOL    HW231143   0.658   1.835   0.103
10082SOL     OW31144   1.436   5.416   3.790
10082SOL    HW131145   1.401   5.325   3.814
10082SOL    HW231146   1.482   5.456   3.869
10083SOL     OW31147   3.434   6.714   3.502
10083SOL    HW131148   3.453   6.812   3.498
10083SOL    HW231149   3.429   6.685   3.597
10084SOL     OW31150   6.933   6.740   5.174
10084SOL    HW131151   6.977   6.717   5.088
10084SOL    HW231152   6.887   6.828   5.166
10085SOL     OW31153   4.552   6.736   0.438
10085SOL    HW131154   4.488   6.780   0.501
10085SOL    HW231155   4.503   6.707   0.356
10086SOL     OW31156   5.881   6.200   2.592
10086SOL    HW131157   5.836   6.219   2.679
10086SOL    HW231158   5.963   6.256   2.584
10087SOL     OW31159   0.463   6.715   4.261
10087SOL    HW131160   0.403   6.735   4.183
10087SOL    HW231161   0.556   6.743   4.239
10088SOL     OW31162   6.684   0.875   0.205
10088SOL    HW131163   6.756   0.924   0.255
10088SOL    HW231164   6.617   0.840   0.270
10089SOL     OW31165   3.025   1.148   3.025
10089SOL    HW131166   3.106   1.206   3.039
10089SOL    HW231167   3.054   1.059   2.988
10090SOL     OW31168   1.032   4.806   2.229
10090SOL    HW131169   1.087   4.774   2.306
10090SOL    HW231170   0.936   4.790   2.248
10091SOL     OW31171   6.604   5.947   6.815
10091SOL    HW131172   6.585   5.851   6.836
10091SOL    HW231173   6.593   6.002   6.898
10092SOL     OW31174   1.646   3.046   5.337
10092SOL    HW131175   1.692   2.974   5.389
10092SOL    HW231176   1.711   3.121   5.319
10093SOL     OW31177   4.972   3.400   4.875
10093SOL    HW131178   4.948   3.305   4.894
10093SOL    HW231179   4.910   3.461   4.925
10094SOL     OW31180   2.426   6.751   0.971
10094SOL    HW131181   2.379   6.723   0.887
10094SOL    HW231182   2.498   6.817   0.948
10095SOL     OW31183   5.401   1.880   4.860
10095SOL    HW131184   5.355   1.965   4.834
10095SOL    HW231185   5.473   1.900   4.925
10096SOL     OW31186   4.893   0.937   2.473
10096SOL    HW131187   4.838   1.019   2.462
10096SOL    HW231188   4.968   0.937   2.407
10097SOL     OW31189   2.207   2.477   6.620
10097SOL    HW131190   2.179   2.388   6.584
10097SOL    HW231191   2.262   2.463   6.703
10098SOL     OW31192   2.979   6.010   4.439
10098SOL    HW131193   3.046   5.972   4.376
10098SOL    HW231194   2.954   5.942   4.508
10099SOL     OW31195   6.682   4.499   1.705
10099SOL    HW131196   6.739   4.527   1.627
10099SOL    HW231197   6.594   4.467   1.671
10100SOL     OW31198   5.702   4.931   5.221
10100SOL    HW131199   5.711   4.943   5.320
10100SOL    HW231200   5.722   4.836   5.197
10101SOL     OW31201   6.725   3.056   1.801
10101SOL    HW131202   6.786   3.125   1.760
10101SOL    HW231203   6.771   3.014   1.879
10102SOL     OW31204   5.940   0.421   0.593
10102SOL    HW131205   5.861   0.433   0.653
10102SOL    HW231206   6.018   0.474   0.628
10103SOL     OW31207   1.074   0.330   5.651
10103SOL    HW131208   1.085   0.250   5.594
10103SOL    HW231209   1.031   0.304   5.738
10104SOL     OW31210   2.339   0.759   6.155
10104SOL    HW131211   2.433   0.726   6.144
10104SOL    HW231212   2.289   0.747   6.069
10105SOL     OW31213   2.528   1.088   5.999
10105SOL    HW131214   2.543   1.057   6.093
10105SOL    HW231215   2.578   1.029   5.936
10106SOL     OW31216   4.599   5.830   1.366
10106SOL    HW131217   4.561   5.743   1.396
10106SOL    HW231218   4.588   5.898   1.440
10107SOL     OW31219   5.016   3.638   6.830
10107SOL    HW131220   5.065   3.711   6.783
10107SOL    HW231221   4.948   3.598   6.768
10108SOL     OW31222   1.319   2.628   0.684
10108SOL    HW131223   1.266   2.707   0.715
10108SOL    HW231224   1.383   2.602   0.756
10109SOL     OW31225   0.662   0.995   0.081
10109SOL    HW131226   0.640   1.086   0.045
10109SOL    HW231227   0.668   0.930   0.005
10110SOL     OW31228   4.527   5.181   2.753
10110SOL    HW131229   4.511   5.279   2.751
10110SOL    HW231230   4.482   5.138   2.674
10111SOL     OW31231   0.956   3.039   2.117
10111SOL    HW131232   1.037   3.006   2.069
10111SOL    HW231233   0.919   3.119   2.069
10112SOL     OW31234   6.696   3.572   3.048
10112SOL    HW131235   6.757   3.639   3.006
10112SOL    HW231236   6.601   3.591   3.021
10113SOL     OW31237   4.696   1.139   6.617
10113SOL    HW131238   4.604   1.125   6.654
10113SOL    HW231239   4.763   1.100   6.680
10114SOL     OW31240   4.019   2.161   3.120
10114SOL    HW131241   4.061   2.193   3.205
10114SOL    HW231242   4.064   2.206   3.042
10115SOL     OW31243   3.911   1.650   4.200
10115SOL    HW131244   3.988   1.590   4.179
10115SOL    HW231245   3.879   1.632   4.293
10116SOL     OW31246   5.419   0.349   5.512
10116SOL    HW131247   5.402   0.270   5.571
10116SOL    HW231248   5.481   0.322   5.438
10117SOL     OW31249   6.593   5.499   5.468
10117SOL    HW131250   6.595   5.485   5.567
10117SOL    HW231251   6.582   5.597   5.449
10118SOL     OW31252   2.780   5.094   4.380
10118SOL    HW131253   2.799   5.118   4.476
10118SOL    HW231254   2.821   5.006   4.359
10119SOL     OW31255   6.924   5.260   3.645
10119SOL    HW131256   6.940   5.186   3.579
10119SOL    HW231257   7.005   5.269   3.703
10120SOL     OW31258   1.750   3.181   2.798
10120SOL    HW131259   1.839   3.139   2.820
10120SOL    HW231260   1.682   3.150   2.864
10121SOL     OW31261   5.592   4.859   0.473
10121SOL    HW131262   5.605   4.803   0.554
10121SOL    HW231263   5.598   4.802   0.391
10122SOL     OW31264   6.131   2.011   3.273
10122SOL    HW131265   6.147   1.949   3.197
10122SOL    HW231266   6.167   1.972   3.358
10123SOL     OW31267   6.084   6.463   0.888
10123SOL    HW131268   6.163   6.408   0.911
10123SOL    HW231269   6.082   6.479   0.789
10124SOL     OW31270   1.281   5.160   2.724
10124SOL    HW131271   1.207   5.226   2.708
10124SOL    HW231272   1.250   5.068   2.701
10125SOL     OW31273   1.794   1.080   1.765
10125SOL    HW131274   1.758   1.172   1.780
10125SOL    HW231275   1.725   1.024   1.718
10126SOL     OW31276   6.215   7.007   6.083
10126SOL    HW131277   6.115   7.014   6.081
10126SOL    HW231278   6.243   6.954   6.163
10127SOL     OW31279   1.239   4.372   6.433
10127SOL    HW131280   1.290   4.448   6.393
10127SOL    HW231281   1.141   4.392   6.430
10128SOL     OW31282   2.943   0.780   0.005
10128SOL    HW131283   2.956   0.828   6.939
10128SOL    HW231284   2.906   0.689   7.008
10129SOL     OW31285   6.783   1.950   2.509
10129SOL    HW131286   6.844   2.026   2.483
10129SOL    HW231287   6.814   1.911   2.596
10130SOL     OW31288   1.102   2.264   2.093
10130SOL    HW131289   1.132   2.322   2.017
10130SOL    HW231290   1.164   2.275   2.170
10131SOL     OW31291   2.199   0.911   4.186
10131SOL    HW131292   2.167   1.005   4.176
10131SOL    HW231293   2.211   0.870   4.096
10132SOL     OW31294   0.042   6.565   2.348
10132SOL    HW131295   0.076   6.472   2.336
10132SOL    HW231296   0.103   6.615   2.410
10133SOL     OW31297   4.525   5.559   1.439
10133SOL    HW131298   4.611   5.513   1.462
10133SOL    HW231299   4.479   5.508   1.366
10134SOL     OW31300   6.594   1.010   2.662
10134SOL    HW131301   6.563   1.062   2.742
10134SOL    HW231302   6.549   1.045   2.580
10135SOL     OW31303   5.894   1.073   3.818
10135SOL    HW131304   5.869   0.993   3.873
10135SOL    HW231305   5.813   1.130   3.805
10136SOL     OW31306   4.945   2.810   2.776
10136SOL    HW131307   5.037   2.783   2.749
10136SOL    HW231308   4.906   2.742   2.838
10137SOL     OW31309   0.495   5.163   5.775
10137SOL    HW131310   0.574   5.188   5.719
10137SOL    HW231311   0.414   5.211   5.742
10138SOL     OW31312   5.916   1.717   6.828
10138SOL    HW131313   5.875   1.796   6.783
10138SOL    HW231314   5.968   1.746   6.908
10139SOL     OW31315   3.568   3.357   5.271
10139SOL    HW131316   3.517   3.441   5.289
10139SOL    HW231317   3.505   3.287   5.237
10140SOL     OW31318   6.564   6.305   5.837
10140SOL    HW131319   6.527   6.215   5.814
10140SOL    HW231320   6.659   6.295   5.869
10141SOL     OW31321   3.733   1.222   3.734
10141SOL    HW131322   3.698   1.150   3.674
10141SOL    HW231323   3.663   1.248   3.800
10142SOL     OW31324   5.974   6.205   4.881
10142SOL    HW131325   6.030   6.203   4.798
10142SOL    HW231326   6.015   6.267   4.948
10143SOL     OW31327   5.492   2.996   0.198
10143SOL    HW131328   5.548   2.956   0.126
10143SOL    HW231329   5.506   2.944   0.283
10144SOL     OW31330   4.057   6.704   4.953
10144SOL    HW131331   4.037   6.705   4.855
10144SOL    HW231332   4.127   6.773   4.972
10145SOL     OW31333   4.549   6.232   1.788
10145SOL    HW131334   4.455   6.246   1.821
10145SOL    HW231335   4.580   6.315   1.742
10146SOL     OW31336   0.013   3.946   4.278
10146SOL    HW131337   0.084   3.919   4.213
10146SOL    HW231338   0.055   3.962   4.368
10147SOL     OW31339   4.332   5.077   6.895
10147SOL    HW131340   4.245   5.098   6.941
10147SOL    HW231341   4.406   5.128   6.939
10148SOL     OW31342   0.367   4.748   0.778
10148SOL    HW131343   0.307   4.827   0.768
10148SOL    HW231344   0.401   4.720   0.688
10149SOL     OW31345   4.705   4.864   1.785
10149SOL    HW131346   4.799   4.853   1.754
10149SOL    HW231347   4.672   4.778   1.825
10150SOL     OW31348   5.039   3.394   1.375
10150SOL    HW131349   5.104   3.337   1.425
10150SOL    HW231350   5.031   3.483   1.421
10151SOL     OW31351   0.132   0.072   5.879
10151SOL    HW131352   0.194   0.031   5.945
10151SOL    HW231353   0.113   0.167   5.905
10152SOL     OW31354   6.000   6.011   2.964
10152SOL    HW131355   6.090   5.981   2.933
10152SOL    HW231356   5.932   5.941   2.940
10153SOL     OW31357   4.489   6.053   4.160
10153SOL    HW131358   4.479   6.111   4.240
10153SOL    HW231359   4.496   6.110   4.078
10154SOL     OW31360   4.264   4.909   5.593
10154SOL    HW131361   4.171   4.882   5.567
10154SOL    HW231362   4.330   4.861   5.536
10155SOL     OW31363   4.698   2.114   5.693
10155SOL    HW131364   4.633   2.164   5.750
10155SOL    HW231365   4.791   2.139   5.720
10156SOL     OW31366   4.632   0.512   1.431
10156SOL    HW131367   4.575   0.437   1.464
10156SOL    HW231368   4.660   0.493   1.337
10157SOL     OW31369   0.463   2.733   0.234
10157SOL    HW131370   0.380   2.677   0.241
10157SOL    HW231371   0.540   2.675   0.205
10158SOL     OW31372   5.359   6.575   2.666
10158SOL    HW131373   5.286   6.508   2.680
10158SOL    HW231374   5.362   6.603   2.570
10159SOL     OW31375   3.474   3.145   2.980
10159SOL    HW131376   3.417   3.090   3.042
10159SOL    HW231377   3.494   3.233   3.023
10160SOL     OW31378   1.980   4.183   2.704
10160SOL    HW131379   1.903   4.158   2.761
10160SOL    HW231380   2.061   4.130   2.731
10161SOL     OW31381   3.503   4.904   5.999
10161SOL    HW131382   3.459   4.818   6.023
10161SOL    HW231383   3.438   4.979   6.009
10162SOL     OW31384   1.600   4.598   1.374
10162SOL    HW131385   1.673   4.654   1.414
10162SOL    HW231386   1.633   4.556   1.290
10163SOL     OW31387   1.500   5.929   5.534
10163SOL    HW131388   1.517   5.966   5.625
10163SOL    HW231389   1.460   6.000   5.476
10164SOL     OW31390   6.364   3.616   3.617
10164SOL    HW131391   6.444   3.583   3.666
10164SOL    HW231392   6.307   3.670   3.679
10165SOL     OW31393   5.826   2.774   3.926
10165SOL    HW131394   5.796   2.805   4.017
10165SOL    HW231395   5.786   2.835   3.857
10166SOL     OW31396   1.294   2.580   1.408
10166SOL    HW131397   1.211   2.554   1.358
10166SOL    HW231398   1.348   2.643   1.352
10167SOL     OW31399   0.408   4.996   6.656
10167SOL    HW131400   0.391   5.070   6.722
10167SOL    HW231401   0.426   4.911   6.705
10168SOL     OW31402   5.936   1.577   6.550
10168SOL    HW131403   5.970   1.663   6.589
10168SOL    HW231404   5.881   1.529   6.618
10169SOL     OW31405   0.038   3.524   3.030
10169SOL    HW131406   6.993   3.454   3.056
10169SOL    HW231407   0.047   3.591   3.104
10170SOL     OW31408   6.305   5.881   0.199
10170SOL    HW131409   6.280   5.788   0.227
10170SOL    HW231410   6.404   5.890   0.195
10171SOL     OW31411   1.450   2.773   5.850
10171SOL    HW131412   1.398   2.693   5.819
10171SOL    HW231413   1.409   2.855   5.811
10172SOL     OW31414   6.872   6.723   3.397
10172SOL    HW131415   6.915   6.809   3.372
10172SOL    HW231416   6.832   6.680   3.316
10173SOL     OW31417   3.774   4.769   0.356
10173SOL    HW131418   3.676   4.757   0.370
10173SOL    HW231419   3.808   4.842   0.415
10174SOL     OW31420   5.246   7.001   3.343
10174SOL    HW131421   5.207   6.997   3.251
10174SOL    HW231422   5.264   6.909   3.376
10175SOL     OW31423   6.997   1.962   3.190
10175SOL    HW131424   6.932   2.037   3.203
10175SOL    HW231425   0.068   1.993   3.213
10176SOL     OW31426   6.126   2.955   5.781
10176SOL    HW131427   6.060   2.987   5.713
10176SOL    HW231428   6.128   2.855   5.782
10177SOL     OW31429   2.486   0.366   1.423
10177SOL    HW131430   2.583   0.386   1.410
10177SOL    HW231431   2.440   0.365   1.334
10178SOL     OW31432   1.815   1.213   0.774
10178SOL    HW131433   1.758   1.154   0.832
10178SOL    HW231434   1.906   1.172   0.766
10179SOL     OW31435   0.082   4.391   0.358
10179SOL    HW131436   0.104   4.305   0.311
10179SOL    HW231437   0.166   4.445   0.368
10180SOL     OW31438   4.677   0.146   6.887
10180SOL    HW131439   4.744   0.195   6.831
10180SOL    HW231440   4.725   0.093   6.957
10181SOL     OW31441   6.308   3.564   1.482
10181SOL    HW131442   6.326   3.490   1.546
10181SOL    HW231443   6.362   3.551   1.398
10182SOL     OW31444   5.585   1.415   0.469
10182SOL    HW131445   5.495   1.401   0.511
10182SOL    HW231446   5.577   1.480   0.394
10183SOL     OW31447   6.225   2.843   6.425
10183SOL    HW131448   6.133   2.809   6.408
10183SOL    HW231449   6.255   2.816   6.516
10184SOL     OW31450   5.567   2.414   6.620
10184SOL    HW131451   5.482   2.453   6.585
10184SOL    HW231452   5.633   2.487   6.639
10185SOL     OW31453   4.305   6.147   2.518
10185SOL    HW131454   4.309   6.096   2.432
10185SOL    HW231455   4.258   6.092   2.588
10186SOL     OW31456   4.557   3.325   6.040
10186SOL    HW131457   4.643   3.316   5.990
10186SOL    HW231458   4.484   3.354   5.978
10187SOL     OW31459   2.227   4.214   5.835
10187SOL    HW131460   2.318   4.191   5.801
10187SOL    HW231461   2.172   4.131   5.839
10188SOL     OW31462   2.388   6.629   0.251
10188SOL    HW131463   2.293   6.615   0.277
10188SOL    HW231464   2.444   6.555   0.290
10189SOL     OW31465   1.303   1.348   6.977
10189SOL    HW131466   1.310   1.294   0.040
10189SOL    HW231467   1.212   1.335   6.938
10190SOL     OW31468   3.169   4.191   1.459
10190SOL    HW131469   3.141   4.215   1.552
10190SOL    HW231470   3.241   4.121   1.464
10191SOL     OW31471   6.066   5.345   1.168
10191SOL    HW131472   6.006   5.387   1.100
10191SOL    HW231473   6.050   5.246   1.170
10192SOL     OW31474   2.137   1.688   4.900
10192SOL    HW131475   2.208   1.699   4.830
10192SOL    HW231476   2.178   1.705   4.990
10193SOL     OW31477   3.574   3.466   2.109
10193SOL    HW131478   3.605   3.539   2.170
10193SOL    HW231479   3.651   3.433   2.054
10194SOL     OW31480   3.533   0.195   4.423
10194SOL    HW131481   3.467   0.245   4.479
10194SOL    HW231482   3.485   0.138   4.357
10195SOL     OW31483   5.586   7.017   1.978
10195SOL    HW131484   5.497   0.034   1.954
10195SOL    HW231485   5.639   0.065   2.028
10196SOL     OW31486   5.491   2.347   3.539
10196SOL    HW131487   5.449   2.324   3.451
10196SOL    HW231488   5.442   2.301   3.613
10197SOL     OW31489   5.587   0.022   3.085
10197SOL    HW131490   5.674   6.993   3.080
10197SOL    HW231491   5.567   0.044   3.180
10198SOL     OW31492   3.768   6.148   1.092
10198SOL    HW131493   3.792   6.061   1.136
10198SOL    HW231494   3.834   6.168   1.019
10199SOL     OW31495   0.888   1.634   0.052
10199SOL    HW131496   0.850   1.555   0.099
10199SOL    HW231497   0.920   1.606   6.982
10200SOL     OW31498   5.148   3.138   5.836
10200SOL    HW131499   5.193   3.065   5.784
10200SOL    HW231500   5.109   3.100   5.920
10201SOL     OW31501   0.361   5.828   1.782
10201SOL    HW131502   0.268   5.854   1.756
10201SOL    HW231503   0.365   5.729   1.797
10202SOL     OW31504   0.638   3.702   1.313
10202SOL    HW131505   0.694   3.723   1.393
10202SOL    HW231506   0.697   3.685   1.235
10203SOL     OW31507   1.904   2.578   2.832
10203SOL    HW131508   1.971   2.584   2.758
10203SOL    HW231509   1.952   2.567   2.919
10204SOL     OW31510   3.027   4.528   6.131
10204SOL    HW131511   3.050   4.611   6.182
10204SOL    HW231512   2.947   4.544   6.074
10205SOL     OW31513   4.428   1.327   3.136
10205SOL    HW131514   4.409   1.238   3.176
10205SOL    HW231515   4.445   1.393   3.209
10206SOL     OW31516   5.271   5.887   5.838
10206SOL    HW131517   5.353   5.943   5.850
10206SOL    HW231518   5.198   5.922   5.898
10207SOL     OW31519   2.065   0.291   1.265
10207SOL    HW131520   2.009   0.370   1.288
10207SOL    HW231521   2.015   0.207   1.286
10208SOL     OW31522   5.979   5.730   5.624
10208SOL    HW131523   5.961   5.827   5.641
10208SOL    HW231524   6.050   5.722   5.554
10209SOL     OW31525   6.811   0.917   6.032
10209SOL    HW131526   6.774   1.010   6.036
10209SOL    HW231527   6.743   0.856   5.990
10210SOL     OW31528   5.235   6.975   1.805
10210SOL    HW131529   5.206   0.018   1.733
10210SOL    HW231530   5.295   6.906   1.766
10211SOL     OW31531   3.857   6.545   5.574
10211SOL    HW131532   3.896   6.603   5.502
10211SOL    HW231533   3.930   6.490   5.615
10212SOL     OW31534   0.838   1.513   4.230
10212SOL    HW131535   0.800   1.531   4.321
10212SOL    HW231536   0.882   1.423   4.230
10213SOL     OW31537   5.506   1.581   2.583
10213SOL    HW131538   5.421   1.580   2.636
10213SOL    HW231539   5.552   1.669   2.596
10214SOL     OW31540   0.196   0.827   2.544
10214SOL    HW131541   0.106   0.869   2.561
10214SOL    HW231542   0.220   0.769   2.622
10215SOL     OW31543   3.174   2.991   5.488
10215SOL    HW131544   3.113   2.934   5.433
10215SOL    HW231545   3.124   3.069   5.526
10216SOL     OW31546   6.867   0.192   1.110
10216SOL    HW131547   6.878   0.292   1.115
10216SOL    HW231548   6.953   0.150   1.082
10217SOL     OW31549   2.479   1.043   4.400
10217SOL    HW131550   2.530   1.126   4.380
10217SOL    HW231551   2.448   1.046   4.495
10218SOL     OW31552   1.006   1.177   1.400
10218SOL    HW131553   1.093   1.144   1.365
10218SOL    HW231554   0.939   1.182   1.325
10219SOL     OW31555   0.310   2.491   2.674
10219SOL    HW131556   0.277   2.404   2.711
10219SOL    HW231557   0.261   2.511   2.589
10220SOL     OW31558   4.092   1.926   1.696
10220SOL    HW131559   4.143   1.909   1.612
10220SOL    HW231560   3.999   1.956   1.674
10221SOL     OW31561   1.468   2.115   4.075
10221SOL    HW131562   1.388   2.172   4.057
10221SOL    HW231563   1.550   2.161   4.041
10222SOL     OW31564   1.450   3.704   5.547
10222SOL    HW131565   1.434   3.778   5.482
10222SOL    HW231566   1.512   3.637   5.507
10223SOL     OW31567   2.079   5.409   6.360
10223SOL    HW131568   2.111   5.317   6.337
10223SOL    HW231569   2.018   5.405   6.440
10224SOL     OW31570   0.940   0.971   4.509
10224SOL    HW131571   1.004   0.914   4.561
10224SOL    HW231572   0.915   0.923   4.424
10225SOL     OW31573   1.236   6.147   5.400
10225SOL    HW131574   1.219   6.245   5.390
10225SOL    HW231575   1.155   6.096   5.371
10226SOL     OW31576   3.116   0.690   6.699
10226SOL    HW131577   3.077   0.771   6.743
10226SOL    HW231578   3.045   0.644   6.646
10227SOL     OW31579   4.777   4.784   0.980
10227SOL    HW131580   4.842   4.801   1.055
10227SOL    HW231581   4.760   4.686   0.972
10228SOL     OW31582   0.709   5.090   2.166
10228SOL    HW131583   0.632   5.026   2.158
10228SOL    HW231584   0.776   5.069   2.095
10229SOL     OW31585   1.015   1.298   3.877
10229SOL    HW131586   1.019   1.289   3.976
10229SOL    HW231587   1.107   1.295   3.839
10230SOL     OW31588   6.887   0.442   3.395
10230SOL    HW131589   6.980   0.475   3.377
10230SOL    HW231590   6.837   0.511   3.447
10231SOL     OW31591   6.647   6.702   5.608
10231SOL    HW131592   6.556   6.706   5.568
10231SOL    HW231593   6.679   6.607   5.609
10232SOL     OW31594   3.955   1.028   4.159
10232SOL    HW131595   3.941   0.935   4.125
10232SOL    HW231596   3.895   1.045   4.237
10233SOL     OW31597   4.907   2.818   5.354
10233SOL    HW131598   4.986   2.761   5.377
10233SOL    HW231599   4.933   2.914   5.357
10234SOL     OW31600   5.174   0.303   0.754
10234SOL    HW131601   5.145   0.207   0.751
10234SOL    HW231602   5.102   0.360   0.715
10235SOL     OW31603   4.470   1.118   0.292
10235SOL    HW131604   4.453   1.025   0.258
10235SOL    HW231605   4.489   1.114   0.390
10236SOL     OW31606   1.819   6.298   1.680
10236SOL    HW131607   1.860   6.209   1.699
10236SOL    HW231608   1.738   6.311   1.737
10237SOL     OW31609   6.239   4.210   0.921
10237SOL    HW131610   6.140   4.193   0.920
10237SOL    HW231611   6.287   4.122   0.921
10238SOL     OW31612   3.527   3.602   4.859
10238SOL    HW131613   3.546   3.643   4.770
10238SOL    HW231614   3.594   3.530   4.878
10239SOL     OW31615   1.174   4.531   5.289
10239SOL    HW131616   1.248   4.465   5.306
10239SOL    HW231617   1.199   4.620   5.327
10240SOL     OW31618   1.398   4.763   2.379
10240SOL    HW131619   1.314   4.812   2.400
10240SOL    HW231620   1.444   4.737   2.465
10241SOL     OW31621   0.030   0.818   1.476
10241SOL    HW131622   6.973   0.756   1.464
10241SOL    HW231623   0.087   0.816   1.394
10242SOL     OW31624   0.209   2.389   6.419
10242SOL    HW131625   0.251   2.467   6.467
10242SOL    HW231626   0.110   2.394   6.427
10243SOL     OW31627   0.032   5.550   1.282
10243SOL    HW131628   0.018   5.452   1.299
10243SOL    HW231629   0.057   5.563   1.186
10244SOL     OW31630   1.799   4.356   0.147
10244SOL    HW131631   1.756   4.438   0.110
10244SOL    HW231632   1.845   4.378   0.233
10245SOL     OW31633   2.175   3.783   0.193
10245SOL    HW131634   2.128   3.699   0.218
10245SOL    HW231635   2.135   3.860   0.243
10246SOL     OW31636   2.923   3.675   4.438
10246SOL    HW131637   2.949   3.768   4.464
10246SOL    HW231638   2.935   3.614   4.516
10247SOL     OW31639   0.796   5.088   5.367
10247SOL    HW131640   0.731   5.102   5.293
10247SOL    HW231641   0.888   5.077   5.329
10248SOL     OW31642   3.073   0.420   1.989
10248SOL    HW131643   3.095   0.507   1.944
10248SOL    HW231644   3.056   0.350   1.920
10249SOL     OW31645   2.427   1.008   6.261
10249SOL    HW131646   2.407   0.913   6.239
10249SOL    HW231647   2.341   1.059   6.273
10250SOL     OW31648   0.207   2.195   0.740
10250SOL    HW131649   0.164   2.126   0.799
10250SOL    HW231650   0.136   2.242   0.688
10251SOL     OW31651   1.712   2.879   5.780
10251SOL    HW131652   1.620   2.849   5.809
10251SOL    HW231653   1.727   2.851   5.685
10252SOL     OW31654   6.763   6.324   0.616
10252SOL    HW131655   6.675   6.276   0.621
10252SOL    HW231656   6.758   6.397   0.549
10253SOL     OW31657   4.725   5.329   6.891
10253SOL    HW131658   4.736   5.380   6.976
10253SOL    HW231659   4.779   5.373   6.819
10254SOL     OW31660   3.524   2.071   4.826
10254SOL    HW131661   3.424   2.059   4.824
10254SOL    HW231662   3.558   2.049   4.918
10255SOL     OW31663   2.079   5.607   1.340
10255SOL    HW131664   2.178   5.613   1.324
10255SOL    HW231665   2.056   5.513   1.367
10256SOL     OW31666   5.812   6.959   1.326
10256SOL    HW131667   5.737   6.936   1.387
10256SOL    HW231668   5.785   0.013   1.266
10257SOL     OW31669   0.989   4.578   5.081
10257SOL    HW131670   0.959   4.671   5.098
10257SOL    HW231671   1.054   4.549   5.152
10258SOL     OW31672   4.986   0.161   3.631
10258SOL    HW131673   5.023   0.200   3.546
10258SOL    HW231674   5.060   0.121   3.684
10259SOL     OW31675   0.838   5.254   3.469
10259SOL    HW131676   0.875   5.345   3.491
10259SOL    HW231677   0.827   5.245   3.370
10260SOL     OW31678   6.911   0.030   3.134
10260SOL    HW131679   6.919   6.968   3.188
10260SOL    HW231680   6.936   0.109   3.190
10261SOL     OW31681   7.015   6.150   1.948
10261SOL    HW131682   0.063   6.203   1.996
10261SOL    HW231683   0.024   6.054   1.942
10262SOL     OW31684   2.684   5.792   4.645
10262SOL    HW131685   2.632   5.793   4.559
10262SOL    HW231686   2.782   5.800   4.625
10263SOL     OW31687   4.902   1.202   5.915
10263SOL    HW131688   4.965   1.256   5.970
10263SOL    HW231689   4.842   1.149   5.975
10264SOL     OW31690   6.273   1.493   6.633
10264SOL    HW131691   6.177   1.479   6.656
10264SOL    HW231692   6.299   1.587   6.653
10265SOL     OW31693   3.569   2.080   2.899
10265SOL    HW131694   3.580   1.984   2.875
10265SOL    HW231695   3.605   2.137   2.825
10266SOL     OW31696   3.458   2.960   5.367
10266SOL    HW131697   3.387   2.981   5.434
10266SOL    HW231698   3.521   3.037   5.360
10267SOL     OW31699   6.340   1.770   6.705
10267SOL    HW131700   6.361   1.787   6.802
10267SOL    HW231701   6.383   1.841   6.649
10268SOL     OW31702   4.667   6.489   1.674
10268SOL    HW131703   4.678   6.538   1.761
10268SOL    HW231704   4.757   6.476   1.632
10269SOL     OW31705   1.830   1.498   5.323
10269SOL    HW131706   1.910   1.464   5.273
10269SOL    HW231707   1.777   1.559   5.264
10270SOL     OW31708   2.044   5.772   2.217
10270SOL    HW131709   2.108   5.842   2.187
10270SOL    HW231710   1.973   5.814   2.274
10271SOL     OW31711   3.273   3.464   0.402
10271SOL    HW131712   3.298   3.486   0.496
10271SOL    HW231713   3.340   3.504   0.340
10272SOL     OW31714   1.174   0.893   4.712
10272SOL    HW131715   1.219   0.834   4.778
10272SOL    HW231716   1.225   0.978   4.703
10273SOL     OW31717   4.285   5.938   3.742
10273SOL    HW131718   4.364   5.890   3.705
10273SOL    HW231719   4.204   5.915   3.688
10274SOL     OW31720   1.387   4.558   5.948
10274SOL    HW131721   1.352   4.630   5.888
10274SOL    HW231722   1.477   4.528   5.916
10275SOL     OW31723   1.372   0.163   2.084
10275SOL    HW131724   1.367   0.262   2.101
10275SOL    HW231725   1.465   0.131   2.100
10276SOL     OW31726   6.745   5.536   6.281
10276SOL    HW131727   6.649   5.519   6.301
10276SOL    HW231728   6.789   5.451   6.252
10277SOL     OW31729   2.546   6.661   3.954
10277SOL    HW131730   2.512   6.594   3.888
10277SOL    HW231731   2.491   6.657   4.037
10278SOL     OW31732   5.920   0.792   5.264
10278SOL    HW131733   6.006   0.753   5.296
10278SOL    HW231734   5.844   0.735   5.297
10279SOL     OW31735   3.177   0.394   3.943
10279SOL    HW131736   3.146   0.426   3.853
10279SOL    HW231737   3.157   0.463   4.012
10280SOL     OW31738   2.417   4.410   0.946
10280SOL    HW131739   2.418   4.377   1.040
10280SOL    HW231740   2.465   4.497   0.940
10281SOL     OW31741   5.573   2.542   2.769
10281SOL    HW131742   5.660   2.530   2.815
10281SOL    HW231743   5.554   2.640   2.758
10282SOL     OW31744   6.554   3.704   4.233
10282SOL    HW131745   6.616   3.626   4.240
10282SOL    HW231746   6.607   3.788   4.231
10283SOL     OW31747   1.037   2.750   1.090
10283SOL    HW131748   1.021   2.750   1.189
10283SOL    HW231749   0.950   2.741   1.043
10284SOL     OW31750   4.947   4.557   5.960
10284SOL    HW131751   4.946   4.467   5.918
10284SOL    HW231752   5.003   4.555   6.043
10285SOL     OW31753   4.898   0.062   1.464
10285SOL    HW131754   4.904   0.066   1.364
10285SOL    HW231755   4.838   0.135   1.497
10286SOL     OW31756   3.282   1.818   3.700
10286SOL    HW131757   3.189   1.784   3.713
10286SOL    HW231758   3.347   1.752   3.737
10287SOL     OW31759   1.714   6.870   2.240
10287SOL    HW131760   1.685   6.946   2.182
10287SOL    HW231761   1.810   6.882   2.265
10288SOL     OW31762   4.792   6.020   2.242
10288SOL    HW131763   4.867   6.054   2.185
10288SOL    HW231764   4.720   5.982   2.183
10289SOL     OW31765   3.552   0.795   1.400
10289SOL    HW131766   3.508   0.885   1.405
10289SOL    HW231767   3.622   0.796   1.329
10290SOL     OW31768   3.694   4.042   2.788
10290SOL    HW131769   3.697   4.055   2.887
10290SOL    HW231770   3.619   3.980   2.765
10291SOL     OW31771   4.040   0.234   3.763
10291SOL    HW131772   4.076   0.245   3.670
10291SOL    HW231773   4.037   0.137   3.787
10292SOL     OW31774   1.110   1.842   4.618
10292SOL    HW131775   1.034   1.791   4.656
10292SOL    HW231776   1.153   1.788   4.545
10293SOL     OW31777   1.789   5.919   2.702
10293SOL    HW131778   1.796   5.912   2.802
10293SOL    HW231779   1.871   5.879   2.660
10294SOL     OW31780   5.009   3.163   3.465
10294SOL    HW131781   4.969   3.233   3.525
10294SOL    HW231782   4.939   3.096   3.442
10295SOL     OW31783   6.139   4.661   5.640
10295SOL    HW131784   6.066   4.668   5.708
10295SOL    HW231785   6.174   4.752   5.619
10296SOL     OW31786   5.172   4.366   6.490
10296SOL    HW131787   5.200   4.297   6.557
10296SOL    HW231788   5.097   4.329   6.434
10297SOL     OW31789   2.580   6.526   4.655
10297SOL    HW131790   2.574   6.498   4.751
10297SOL    HW231791   2.539   6.456   4.597
10298SOL     OW31792   4.468   4.685   3.468
10298SOL    HW131793   4.503   4.778   3.478
10298SOL    HW231794   4.382   4.688   3.416
10299SOL     OW31795   4.222   4.753   3.283
10299SOL    HW131796   4.173   4.839   3.289
10299SOL    HW231797   4.227   4.722   3.188
10300SOL     OW31798   1.547   4.366   2.147
10300SOL    HW131799   1.573   4.460   2.169
10300SOL    HW231800   1.494   4.328   2.223
10301SOL     OW31801   5.631   2.440   2.514
10301SOL    HW131802   5.604   2.441   2.610
10301SOL    HW231803   5.578   2.509   2.464
10302SOL     OW31804   1.427   5.945   3.199
10302SOL    HW131805   1.422   5.999   3.282
10302SOL    HW231806   1.503   5.880   3.206
10303SOL     OW31807   3.813   4.569   0.928
10303SOL    HW131808   3.756   4.614   0.997
10303SOL    HW231809   3.802   4.469   0.936
10304SOL     OW31810   5.826   0.733   3.552
10304SOL    HW131811   5.836   0.638   3.522
10304SOL    HW231812   5.731   0.749   3.578
10305SOL     OW31813   1.221   6.090   6.727
10305SOL    HW131814   1.201   6.081   6.825
10305SOL    HW231815   1.270   6.008   6.695
10306SOL     OW31816   4.541   5.787   6.507
10306SOL    HW131817   4.600   5.827   6.437
10306SOL    HW231818   4.544   5.687   6.499
10307SOL     OW31819   1.997   1.848   5.320
10307SOL    HW131820   1.934   1.790   5.268
10307SOL    HW231821   2.053   1.901   5.257
10308SOL     OW31822   3.335   4.971   4.365
10308SOL    HW131823   3.342   5.063   4.402
10308SOL    HW231824   3.263   4.921   4.413
10309SOL     OW31825   6.556   0.254   3.670
10309SOL    HW131826   6.613   0.297   3.740
10309SOL    HW231827   6.586   0.159   3.656
10310SOL     OW31828   3.227   3.929   1.246
10310SOL    HW131829   3.304   3.977   1.205
10310SOL    HW231830   3.143   3.952   1.196
10311SOL     OW31831   0.493   5.629   1.284
10311SOL    HW131832   0.473   5.664   1.192
10311SOL    HW231833   0.495   5.529   1.281
10312SOL     OW31834   3.691   5.397   1.217
10312SOL    HW131835   3.764   5.453   1.257
10312SOL    HW231836   3.725   5.351   1.135
10313SOL     OW31837   3.885   6.739   2.071
10313SOL    HW131838   3.895   6.795   2.153
10313SOL    HW231839   3.848   6.795   1.996
10314SOL     OW31840   6.220   1.066   1.318
10314SOL    HW131841   6.137   1.085   1.265
10314SOL    HW231842   6.232   0.968   1.326
10315SOL     OW31843   6.850   6.415   4.940
10315SOL    HW131844   6.912   6.377   4.872
10315SOL    HW231845   6.816   6.504   4.908
10316SOL     OW31846   6.864   2.964   4.328
10316SOL    HW131847   6.882   2.966   4.230
10316SOL    HW231848   6.854   3.058   4.362
10317SOL     OW31849   3.831   4.622   6.319
10317SOL    HW131850   3.743   4.665   6.341
10317SOL    HW231851   3.827   4.582   6.228
10318SOL     OW31852   6.211   5.634   1.694
10318SOL    HW131853   6.293   5.582   1.720
10318SOL    HW231854   6.207   5.641   1.594
10319SOL     OW31855   0.582   4.640   4.754
10319SOL    HW131856   0.514   4.596   4.813
10319SOL    HW231857   0.605   4.579   4.678
10320SOL     OW31858   0.831   0.809   0.803
10320SOL    HW131859   0.857   0.895   0.845
10320SOL    HW231860   0.732   0.796   0.813
10321SOL     OW31861   4.169   6.613   4.332
10321SOL    HW131862   4.165   6.580   4.238
10321SOL    HW231863   4.090   6.579   4.383
10322SOL     OW31864   6.597   5.854   0.204
10322SOL    HW131865   6.647   5.843   0.119
10322SOL    HW231866   6.635   5.931   0.255
10323SOL     OW31867   6.605   3.042   6.552
10323SOL    HW131868   6.563   2.963   6.595
10323SOL    HW231869   6.540   3.118   6.549
10324SOL     OW31870   3.087   3.117   3.618
10324SOL    HW131871   3.105   3.086   3.525
10324SOL    HW231872   2.989   3.111   3.637
10325SOL     OW31873   6.590   4.449   4.146
10325SOL    HW131874   6.679   4.455   4.193
10325SOL    HW231875   6.526   4.513   4.189
10326SOL     OW31876   4.856   2.762   6.785
10326SOL    HW131877   4.935   2.710   6.817
10326SOL    HW231878   4.820   2.819   6.859
10327SOL     OW31879   2.189   1.371   3.046
10327SOL    HW131880   2.160   1.467   3.051
10327SOL    HW231881   2.136   1.324   2.976
10328SOL     OW31882   5.684   3.891   1.910
10328SOL    HW131883   5.757   3.955   1.936
10328SOL    HW231884   5.618   3.884   1.984
10329SOL     OW31885   2.524   0.460   4.057
10329SOL    HW131886   2.516   0.527   3.983
10329SOL    HW231887   2.602   0.401   4.040
10330SOL     OW31888   3.291   4.955   3.356
10330SOL    HW131889   3.213   5.006   3.320
10330SOL    HW231890   3.373   5.011   3.350
10331SOL     OW31891   5.920   1.096   2.809
10331SOL    HW131892   6.016   1.068   2.804
10331SOL    HW231893   5.866   1.040   2.746
10332SOL     OW31894   7.018   2.255   0.541
10332SOL    HW131895   7.014   2.157   0.562
10332SOL    HW231896   6.934   2.283   0.495
10333SOL     OW31897   5.860   4.447   4.160
10333SOL    HW131898   5.934   4.488   4.107
10333SOL    HW231899   5.878   4.458   4.258
10334SOL     OW31900   2.380   5.528   3.788
10334SOL    HW131901   2.331   5.607   3.753
10334SOL    HW231902   2.372   5.452   3.723
10335SOL     OW31903   1.977   4.655   6.689
10335SOL    HW131904   2.025   4.653   6.777
10335SOL    HW231905   1.903   4.722   6.693
10336SOL     OW31906   4.754   6.457   2.767
10336SOL    HW131907   4.806   6.439   2.683
10336SOL    HW231908   4.816   6.486   2.839
10337SOL     OW31909   6.887   5.103   5.211
10337SOL    HW131910   6.937   5.154   5.141
10337SOL    HW231911   6.816   5.162   5.250
10338SOL     OW31912   3.239   6.642   0.923
10338SOL    HW131913   3.318   6.644   0.861
10338SOL    HW231914   3.269   6.620   1.015
10339SOL     OW31915   4.080   5.142   0.698
10339SOL    HW131916   4.163   5.093   0.674
10339SOL    HW231917   4.032   5.094   0.771
10340SOL     OW31918   1.627   5.870   6.669
10340SOL    HW131919   1.558   5.915   6.726
10340SOL    HW231920   1.589   5.855   6.578
10341SOL     OW31921   2.263   2.822   1.950
10341SOL    HW131922   2.334   2.764   1.989
10341SOL    HW231923   2.210   2.769   1.884
10342SOL     OW31924   1.964   6.286   6.275
10342SOL    HW131925   1.913   6.266   6.359
10342SOL    HW231926   2.049   6.234   6.275
10343SOL     OW31927   1.902   3.989   0.036
10343SOL    HW131928   1.958   3.954   6.982
10343SOL    HW231929   1.842   4.061   0.003
10344SOL     OW31930   4.114   3.532   3.898
10344SOL    HW131931   4.135   3.439   3.867
10344SOL    HW231932   4.061   3.579   3.828
10345SOL     OW31933   2.125   1.679   6.745
10345SOL    HW131934   2.030   1.653   6.728
10345SOL    HW231935   2.181   1.597   6.753
10346SOL     OW31936   5.989   0.207   1.029
10346SOL    HW131937   5.990   0.297   0.986
10346SOL    HW231938   6.039   0.210   1.115
10347SOL     OW31939   4.842   1.636   0.743
10347SOL    HW131940   4.800   1.689   0.816
10347SOL    HW231941   4.790   1.552   0.728
10348SOL     OW31942   6.472   0.325   6.200
10348SOL    HW131943   6.559   0.286   6.170
10348SOL    HW231944   6.486   0.378   6.284
10349SOL     OW31945   6.001   0.519   1.222
10349SOL    HW131946   6.033   0.493   1.130
10349SOL    HW231947   6.076   0.564   1.271
10350SOL     OW31948   3.487   6.006   4.835
10350SOL    HW131949   3.575   5.959   4.829
10350SOL    HW231950   3.496   6.098   4.798
10351SOL     OW31951   6.327   4.577   5.252
10351SOL    HW131952   6.326   4.574   5.152
10351SOL    HW231953   6.417   4.608   5.283
10352SOL     OW31954   5.291   2.450   6.536
10352SOL    HW131955   5.221   2.384   6.561
10352SOL    HW231956   5.285   2.470   6.438
10353SOL     OW31957   0.381   2.724   3.667
10353SOL    HW131958   0.452   2.671   3.714
10353SOL    HW231959   0.291   2.688   3.692
10354SOL     OW31960   0.894   4.493   1.021
10354SOL    HW131961   0.804   4.525   0.991
10354SOL    HW231962   0.893   4.476   1.119
10355SOL     OW31963   1.217   1.355   1.517
10355SOL    HW131964   1.154   1.279   1.502
10355SOL    HW231965   1.198   1.398   1.605
10356SOL     OW31966   0.285   3.215   0.029
10356SOL    HW131967   0.263   3.202   0.125
10356SOL    HW231968   0.217   3.170   6.993
10357SOL     OW31969   1.876   2.195   6.406
10357SOL    HW131970   1.789   2.203   6.455
10357SOL    HW231971   1.896   2.281   6.359
10358SOL     OW31972   1.901   2.953   2.545
10358SOL    HW131973   1.843   2.915   2.618
10358SOL    HW231974   1.985   2.990   2.585
10359SOL     OW31975   4.903   2.583   1.965
10359SOL    HW131976   4.826   2.528   1.932
10359SOL    HW231977   4.869   2.673   1.993
10360SOL     OW31978   5.405   4.977   2.823
10360SOL    HW131979   5.376   4.958   2.729
10360SOL    HW231980   5.381   4.900   2.882
10361SOL     OW31981   2.424   0.937   1.835
10361SOL    HW131982   2.396   1.021   1.882
10361SOL    HW231983   2.394   0.857   1.888
10362SOL     OW31984   0.282   4.705   2.426
10362SOL    HW131985   0.318   4.794   2.451
10362SOL    HW231986   0.200   4.717   2.369
10363SOL     OW31987   4.225   2.779   0.223
10363SOL    HW131988   4.249   2.718   0.299
10363SOL    HW231989   4.146   2.742   0.174
10364SOL     OW31990   5.521   5.364   0.898
10364SOL    HW131991   5.458   5.428   0.942
10364SOL    HW231992   5.481   5.272   0.898
10365SOL     OW31993   5.994   5.056   0.025
10365SOL    HW131994   5.955   5.029   0.114
10365SOL    HW231995   5.991   4.977   6.985
10366SOL     OW31996   4.420   0.039   3.843
10366SOL    HW131997   4.384   6.969   3.861
10366SOL    HW231998   4.506   0.031   3.791
10367SOL     OW31999   6.704   1.859   2.248
10367SOL    HW132000   6.727   1.896   2.339
10367SOL    HW232001   6.605   1.853   2.240
10368SOL     OW32002   2.681   0.944   2.279
10368SOL    HW132003   2.674   0.938   2.180
10368SOL    HW232004   2.721   1.032   2.305
10369SOL     OW32005   2.645   6.552   5.815
10369SOL    HW132006   2.565   6.601   5.780
10369SOL    HW232007   2.623   6.454   5.822
10370SOL     OW32008   6.348   1.508   4.474
10370SOL    HW132009   6.386   1.521   4.382
10370SOL    HW232010   6.315   1.596   4.509
10371SOL     OW32011   3.204   6.676   3.328
10371SOL    HW132012   3.284   6.689   3.388
10371SOL    HW232013   3.233   6.680   3.233
10372SOL     OW32014   2.714   0.983   1.444
10372SOL    HW132015   2.633   1.009   1.392
10372SOL    HW232016   2.747   1.062   1.496
10373SOL     OW32017   0.506   6.874   4.571
10373SOL    HW132018   0.422   6.844   4.527
10373SOL    HW232019   0.486   6.908   4.663
10374SOL     OW32020   2.369   6.969   4.673
10374SOL    HW132021   2.402   6.933   4.760
10374SOL    HW232022   2.284   6.922   4.648
10375SOL     OW32023   2.896   1.584   6.466
10375SOL    HW132024   2.878   1.682   6.466
10375SOL    HW232025   2.810   1.535   6.482
10376SOL     OW32026   1.755   6.512   3.469
10376SOL    HW132027   1.664   6.508   3.510
10376SOL    HW232028   1.814   6.572   3.523
10377SOL     OW32029   0.571   2.061   1.830
10377SOL    HW132030   0.657   2.098   1.794
10377SOL    HW232031   0.497   2.079   1.764
10378SOL     OW32032   6.954   5.381   5.923
10378SOL    HW132033   6.969   5.383   5.825
10378SOL    HW232034   6.921   5.471   5.954
10379SOL     OW32035   2.879   5.965   4.065
10379SOL    HW132036   2.948   5.947   4.134
10379SOL    HW232037   2.875   5.889   4.000
10380SOL     OW32038   1.519   1.851   4.907
10380SOL    HW132039   1.497   1.934   4.854
10380SOL    HW232040   1.575   1.791   4.851
10381SOL     OW32041   3.905   4.206   0.523
10381SOL    HW132042   3.954   4.278   0.475
10381SOL    HW232043   3.809   4.206   0.496
10382SOL     OW32044   3.287   6.102   1.852
10382SOL    HW132045   3.366   6.054   1.889
10382SOL    HW232046   3.210   6.094   1.915
10383SOL     OW32047   2.014   3.826   0.719
10383SOL    HW132048   2.042   3.874   0.636
10383SOL    HW232049   1.942   3.760   0.697
10384SOL     OW32050   6.371   6.276   1.072
10384SOL    HW132051   6.365   6.370   1.105
10384SOL    HW232052   6.455   6.234   1.105
10385SOL     OW32053   3.865   5.676   5.728
10385SOL    HW132054   3.863   5.707   5.633
10385SOL    HW232055   3.794   5.608   5.743
10386SOL     OW32056   0.461   0.698   5.659
10386SOL    HW132057   0.464   0.616   5.603
10386SOL    HW232058   0.376   0.748   5.641
10387SOL     OW32059   5.400   2.806   3.272
10387SOL    HW132060   5.424   2.802   3.175
10387SOL    HW232061   5.484   2.809   3.327
10388SOL     OW32062   2.897   6.981   0.805
10388SOL    HW132063   2.897   6.987   0.705
10388SOL    HW232064   2.935   6.892   0.832
10389SOL     OW32065   5.547   3.621   0.062
10389SOL    HW132066   5.467   3.655   0.111
10389SOL    HW232067   5.538   3.641   6.986
10390SOL     OW32068   1.526   2.538   0.508
10390SOL    HW132069   1.511   2.453   0.459
10390SOL    HW232070   1.441   2.564   0.555
10391SOL     OW32071   1.806   6.274   4.009
10391SOL    HW132072   1.810   6.178   3.980
10391SOL    HW232073   1.888   6.321   3.977
10392SOL     OW32074   6.001   4.865   5.422
10392SOL    HW132075   5.906   4.887   5.442
10392SOL    HW232076   6.056   4.875   5.505
10393SOL     OW32077   1.651   3.795   3.732
10393SOL    HW132078   1.571   3.805   3.792
10393SOL    HW232079   1.655   3.873   3.670
10394SOL     OW32080   2.391   5.971   4.318
10394SOL    HW132081   2.325   6.040   4.347
10394SOL    HW232082   2.436   6.001   4.234
10395SOL     OW32083   0.377   6.365   1.496
10395SOL    HW132084   0.302   6.423   1.529
10395SOL    HW232085   0.448   6.421   1.454
10396SOL     OW32086   4.021   1.823   3.670
10396SOL    HW132087   3.923   1.805   3.676
10396SOL    HW232088   4.063   1.760   3.605
10397SOL     OW32089   3.455   1.553   3.737
10397SOL    HW132090   3.531   1.495   3.708
10397SOL    HW232091   3.465   1.575   3.834
10398SOL     OW32092   5.738   2.229   0.924
10398SOL    HW132093   5.824   2.264   0.962
10398SOL    HW232094   5.721   2.137   0.959
10399SOL     OW32095   5.111   2.167   3.495
10399SOL    HW132096   5.023   2.207   3.467
10399SOL    HW232097   5.183   2.201   3.435
10400SOL     OW32098   4.635   6.224   7.009
10400SOL    HW132099   4.678   6.312   0.006
10400SOL    HW232100   4.576   6.200   0.066
10401SOL     OW32101   6.329   6.632   2.685
10401SOL    HW132102   6.423   6.599   2.671
10401SOL    HW232103   6.295   6.673   2.601
10402SOL     OW32104   6.611   2.349   5.188
10402SOL    HW132105   6.564   2.318   5.105
10402SOL    HW232106   6.546   2.397   5.246
10403SOL     OW32107   4.987   1.339   3.464
10403SOL    HW132108   4.997   1.390   3.549
10403SOL    HW232109   4.890   1.327   3.443
10404SOL     OW32110   6.127   6.351   4.713
10404SOL    HW132111   6.067   6.431   4.716
10404SOL    HW232112   6.213   6.377   4.668
10405SOL     OW32113   1.023   0.358   5.245
10405SOL    HW132114   0.930   0.396   5.238
10405SOL    HW232115   1.062   0.348   5.153
10406SOL     OW32116   2.347   4.709   3.280
10406SOL    HW132117   2.397   4.750   3.203
10406SOL    HW232118   2.401   4.721   3.364
10407SOL     OW32119   2.563   6.649   6.258
10407SOL    HW132120   2.527   6.590   6.187
10407SOL    HW232121   2.545   6.609   6.348
10408SOL     OW32122   4.467   0.403   1.801
10408SOL    HW132123   4.436   0.428   1.892
10408SOL    HW232124   4.530   0.325   1.807
10409SOL     OW32125   0.620   4.438   1.036
10409SOL    HW132126   0.600   4.384   1.118
10409SOL    HW232127   0.629   4.377   0.957
10410SOL     OW32128   5.298   2.126   1.499
10410SOL    HW132129   5.300   2.045   1.557
10410SOL    HW232130   5.378   2.182   1.517
10411SOL     OW32131   3.547   6.322   3.194
10411SOL    HW132132   3.623   6.265   3.227
10411SOL    HW232133   3.499   6.361   3.272
10412SOL     OW32134   0.338   0.728   0.028
10412SOL    HW132135   0.353   0.795   6.976
10412SOL    HW232136   0.374   0.639   7.020
10413SOL     OW32137   0.072   3.025   0.679
10413SOL    HW132138   7.002   3.066   0.673
10413SOL    HW232139   0.091   3.001   0.774
10414SOL     OW32140   3.814   4.562   5.728
10414SOL    HW132141   3.865   4.624   5.787
10414SOL    HW232142   3.744   4.515   5.782
10415SOL     OW32143   1.616   3.555   4.569
10415SOL    HW132144   1.668   3.502   4.502
10415SOL    HW232145   1.674   3.572   4.649
10416SOL     OW32146   6.423   0.415   5.003
10416SOL    HW132147   6.489   0.349   4.966
10416SOL    HW232148   6.342   0.416   4.944
10417SOL     OW32149   3.057   5.452   4.610
10417SOL    HW132150   3.060   5.421   4.706
10417SOL    HW232151   3.141   5.500   4.588
10418SOL     OW32152   0.159   4.099   6.800
10418SOL    HW132153   0.234   4.120   6.863
10418SOL    HW232154   0.112   4.184   6.776
10419SOL     OW32155   2.192   7.010   6.119
10419SOL    HW132156   2.277   6.966   6.147
10419SOL    HW232157   2.212   0.081   6.085
10420SOL     OW32158   0.362   3.799   3.686
10420SOL    HW132159   0.434   3.857   3.651
10420SOL    HW232160   0.314   3.755   3.610
10421SOL     OW32161   0.443   1.974   3.681
10421SOL    HW132162   0.494   1.888   3.674
10421SOL    HW232163   0.372   1.965   3.751
10422SOL     OW32164   6.807   3.249   5.228
10422SOL    HW132165   6.784   3.151   5.224
10422SOL    HW232166   6.810   3.285   5.135
10423SOL     OW32167   6.403   5.896   5.057
10423SOL    HW132168   6.414   5.798   5.072
10423SOL    HW232169   6.444   5.921   4.969
10424SOL     OW32170   4.914   3.223   0.401
10424SOL    HW132171   4.865   3.137   0.415
10424SOL    HW232172   4.988   3.210   0.337
10425SOL     OW32173   0.828   0.476   1.757
10425SOL    HW132174   0.858   0.545   1.822
10425SOL    HW232175   0.729   0.484   1.742
10426SOL     OW32176   6.202   4.700   0.608
10426SOL    HW132177   6.286   4.648   0.619
10426SOL    HW232178   6.178   4.744   0.695
10427SOL     OW32179   3.818   0.674   6.445
10427SOL    HW132180   3.826   0.616   6.364
10427SOL    HW232181   3.732   0.653   6.492
10428SOL     OW32182   3.577   0.981   3.616
10428SOL    HW132183   3.610   0.888   3.600
10428SOL    HW232184   3.492   0.978   3.668
10429SOL     OW32185   6.860   4.905   0.923
10429SOL    HW132186   6.789   4.933   0.987
10429SOL    HW232187   6.939   4.965   0.932
10430SOL     OW32188   5.159   0.088   4.494
10430SOL    HW132189   5.121   0.151   4.562
10430SOL    HW232190   5.242   0.045   4.532
10431SOL     OW32191   3.296   6.222   4.073
10431SOL    HW132192   3.266   6.210   3.978
10431SOL    HW232193   3.317   6.132   4.112
10432SOL     OW32194   5.505   6.879   5.033
10432SOL    HW132195   5.538   6.957   5.087
10432SOL    HW232196   5.563   6.867   4.952
10433SOL     OW32197   1.412   6.337   1.606
10433SOL    HW132198   1.336   6.377   1.555
10433SOL    HW232199   1.466   6.410   1.648
10434SOL     OW32200   4.116   6.688   3.279
10434SOL    HW132201   4.201   6.714   3.233
10434SOL    HW232202   4.129   6.690   3.378
10435SOL     OW32203   6.837   0.287   4.898
10435SOL    HW132204   6.890   0.202   4.891
10435SOL    HW232205   6.898   0.362   4.924
10436SOL     OW32206   0.932   5.085   5.801
10436SOL    HW132207   0.982   5.069   5.887
10436SOL    HW232208   0.981   5.043   5.725
10437SOL     OW32209   5.393   4.912   5.747
10437SOL    HW132210   5.337   4.981   5.703
10437SOL    HW232211   5.423   4.844   5.680
10438SOL     OW32212   6.407   6.671   0.505
10438SOL    HW132213   6.320   6.702   0.543
10438SOL    HW232214   6.428   6.722   0.422
10439SOL     OW32215   4.706   1.053   6.083
10439SOL    HW132216   4.670   0.980   6.142
10439SOL    HW232217   4.632   1.113   6.056
10440SOL     OW32218   1.091   6.908   0.632
10440SOL    HW132219   1.170   6.919   0.571
10440SOL    HW232220   1.025   6.980   0.614
10441SOL     OW32221   3.804   0.523   1.049
10441SOL    HW132222   3.877   0.491   1.109
10441SOL    HW232223   3.725   0.462   1.056
10442SOL     OW32224   3.007   6.318   5.831
10442SOL    HW132225   2.995   6.408   5.873
10442SOL    HW232226   3.103   6.291   5.837
10443SOL     OW32227   5.074   3.938   4.601
10443SOL    HW132228   5.033   3.870   4.539
10443SOL    HW232229   5.153   3.979   4.556
10444SOL     OW32230   3.730   5.879   4.813
10444SOL    HW132231   3.782   5.959   4.842
10444SOL    HW232232   3.756   5.855   4.719
10445SOL     OW32233   0.531   5.399   4.795
10445SOL    HW132234   0.437   5.375   4.816
10445SOL    HW232235   0.545   5.396   4.696
10446SOL     OW32236   1.397   3.044   5.083
10446SOL    HW132237   1.348   3.004   5.006
10446SOL    HW232238   1.419   3.140   5.061
10447SOL     OW32239   6.920   1.095   1.975
10447SOL    HW132240   6.968   1.179   1.950
10447SOL    HW232241   6.986   1.029   2.011
10448SOL     OW32242   3.721   1.246   1.978
10448SOL    HW132243   3.670   1.282   2.056
10448SOL    HW232244   3.670   1.263   1.894
10449SOL     OW32245   2.196   5.506   4.785
10449SOL    HW132246   2.125   5.452   4.740
10449SOL    HW232247   2.161   5.542   4.871
10450SOL     OW32248   0.805   2.052   0.374
10450SOL    HW132249   0.832   2.127   0.315
10450SOL    HW232250   0.710   2.026   0.354
10451SOL     OW32251   1.825   5.400   2.662
10451SOL    HW132252   1.828   5.401   2.562
10451SOL    HW232253   1.738   5.438   2.693
10452SOL     OW32254   6.362   4.168   2.741
10452SOL    HW132255   6.377   4.123   2.829
10452SOL    HW232256   6.271   4.144   2.707
10453SOL     OW32257   4.156   5.429   1.571
10453SOL    HW132258   4.240   5.459   1.616
10453SOL    HW232259   4.088   5.502   1.576
10454SOL     OW32260   4.463   3.277   0.613
10454SOL    HW132261   4.522   3.231   0.680
10454SOL    HW232262   4.442   3.369   0.645
10455SOL     OW32263   6.840   5.237   3.030
10455SOL    HW132264   6.777   5.195   2.964
10455SOL    HW232265   6.830   5.336   3.027
10456SOL     OW32266   3.148   5.960   0.995
10456SOL    HW132267   3.237   6.005   0.992
10456SOL    HW232268   3.106   5.974   1.085
10457SOL     OW32269   3.394   3.805   1.807
10457SOL    HW132270   3.483   3.823   1.849
10457SOL    HW232271   3.345   3.736   1.860
10458SOL     OW32272   0.243   0.848   5.604
10458SOL    HW132273   0.156   0.876   5.644
10458SOL    HW232274   0.285   0.926   5.557
10459SOL     OW32275   4.590   5.590   2.308
10459SOL    HW132276   4.589   5.607   2.209
10459SOL    HW232277   4.558   5.497   2.326
10460SOL     OW32278   1.416   5.025   1.279
10460SOL    HW132279   1.466   5.109   1.301
10460SOL    HW232280   1.414   4.965   1.359
10461SOL     OW32281   1.596   5.239   5.519
10461SOL    HW132282   1.620   5.336   5.514
10461SOL    HW232283   1.496   5.230   5.519
10462SOL     OW32284   6.101   1.613   3.214
10462SOL    HW132285   6.068   1.524   3.182
10462SOL    HW232286   6.048   1.641   3.294
10463SOL     OW32287   3.684   3.102   5.720
10463SOL    HW132288   3.678   3.005   5.696
10463SOL    HW232289   3.762   3.143   5.673
10464SOL     OW32290   6.054   6.476   1.383
10464SOL    HW132291   6.045   6.573   1.361
10464SOL    HW232292   6.151   6.455   1.400
10465SOL     OW32293   6.506   6.212   1.644
10465SOL    HW132294   6.476   6.193   1.737
10465SOL    HW232295   6.432   6.192   1.580
10466SOL     OW32296   4.659   4.835   5.353
10466SOL    HW132297   4.612   4.923   5.348
10466SOL    HW232298   4.737   4.842   5.416
10467SOL     OW32299   1.282   2.121   5.488
10467SOL    HW132300   1.304   2.202   5.542
10467SOL    HW232301   1.365   2.084   5.447
10468SOL     OW32302   3.885   4.827   2.970
10468SOL    HW132303   3.917   4.741   2.931
10468SOL    HW232304   3.911   4.832   3.067
10469SOL     OW32305   3.824   2.529   6.332
10469SOL    HW132306   3.729   2.553   6.351
10469SOL    HW232307   3.877   2.537   6.415
10470SOL     OW32308   3.147   1.857   3.063
10470SOL    HW132309   3.122   1.896   3.151
10470SOL    HW232310   3.093   1.775   3.046
10471SOL     OW32311   2.318   2.737   1.041
10471SOL    HW132312   2.377   2.670   1.084
10471SOL    HW232313   2.230   2.695   1.018
10472SOL     OW32314   2.728   5.460   1.092
10472SOL    HW132315   2.819   5.420   1.103
10472SOL    HW232316   2.735   5.544   1.039
10473SOL     OW32317   5.665   0.847   0.269
10473SOL    HW132318   5.602   0.773   0.294
10473SOL    HW232319   5.747   0.808   0.227
10474SOL     OW32320   4.667   1.334   4.849
10474SOL    HW132321   4.705   1.426   4.856
10474SOL    HW232322   4.731   1.268   4.889
10475SOL     OW32323   4.563   6.643   2.712
10475SOL    HW132324   4.520   6.616   2.626
10475SOL    HW232325   4.638   6.580   2.733
10476SOL     OW32326   6.777   6.133   6.699
10476SOL    HW132327   6.721   6.054   6.722
10476SOL    HW232328   6.724   6.217   6.715
10477SOL     OW32329   6.349   2.029   4.432
10477SOL    HW132330   6.302   2.010   4.518
10477SOL    HW232331   6.338   2.126   4.409
10478SOL     OW32332   0.222   0.747   1.281
10478SOL    HW132333   0.175   0.667   1.243
10478SOL    HW232334   0.308   0.719   1.324
10479SOL     OW32335   0.413   2.987   1.825
10479SOL    HW132336   0.511   2.989   1.804
10479SOL    HW232337   0.399   2.937   1.911
10480SOL     OW32338   5.604   0.408   1.519
10480SOL    HW132339   5.573   0.500   1.545
10480SOL    HW232340   5.674   0.415   1.448
10481SOL     OW32341   2.495   0.475   4.516
10481SOL    HW132342   2.533   0.565   4.536
10481SOL    HW232343   2.479   0.467   4.418
10482SOL     OW32344   0.639   5.443   5.034
10482SOL    HW132345   0.738   5.426   5.037
10482SOL    HW232346   0.600   5.400   4.953
10483SOL     OW32347   0.007   5.893   0.647
10483SOL    HW132348   6.967   5.824   0.608
10483SOL    HW232349   0.024   5.965   0.579
10484SOL     OW32350   5.800   0.874   1.360
10484SOL    HW132351   5.844   0.846   1.445
10484SOL    HW232352   5.812   0.972   1.347
10485SOL     OW32353   3.496   3.141   2.259
10485SOL    HW132354   3.443   3.057   2.257
10485SOL    HW232355   3.584   3.126   2.214
10486SOL     OW32356   6.489   0.481   5.930
10486SOL    HW132357   6.485   0.437   6.020
10486SOL    HW232358   6.397   0.492   5.894
10487SOL     OW32359   4.702   2.105   1.004
10487SOL    HW132360   4.713   2.034   1.073
10487SOL    HW232361   4.637   2.174   1.037
10488SOL     OW32362   1.951   2.041   6.182
10488SOL    HW132363   1.902   2.075   6.102
10488SOL    HW232364   1.920   2.090   6.263
10489SOL     OW32365   6.307   6.316   4.283
10489SOL    HW132366   6.299   6.278   4.375
10489SOL    HW232367   6.287   6.245   4.215
10490SOL     OW32368   5.732   1.682   0.659
10490SOL    HW132369   5.639   1.697   0.626
10490SOL    HW232370   5.730   1.622   0.740
10491SOL     OW32371   2.160   2.225   6.142
10491SOL    HW132372   2.081   2.285   6.139
10491SOL    HW232373   2.131   2.130   6.130
10492SOL     OW32374   4.701   5.928   1.137
10492SOL    HW132375   4.689   6.027   1.128
10492SOL    HW232376   4.662   5.897   1.224
10493SOL     OW32377   2.996   6.230   1.472
10493SOL    HW132378   3.040   6.280   1.547
10493SOL    HW232379   2.928   6.167   1.510
10494SOL     OW32380   6.266   4.241   5.728
10494SOL    HW132381   6.301   4.328   5.761
10494SOL    HW232382   6.166   4.243   5.724
10495SOL     OW32383   6.828   0.418   0.432
10495SOL    HW132384   6.808   0.429   0.335
10495SOL    HW232385   6.772   0.482   0.485
10496SOL     OW32386   6.405   4.508   4.958
10496SOL    HW132387   6.486   4.559   4.932
10496SOL    HW232388   6.431   4.416   4.989
10497SOL     OW32389   1.181   6.747   2.263
10497SOL    HW132390   1.173   6.698   2.350
10497SOL    HW232391   1.187   6.845   2.280
10498SOL     OW32392   5.899   6.083   1.125
10498SOL    HW132393   5.869   6.145   1.198
10498SOL    HW232394   5.988   6.044   1.149
10499SOL     OW32395   4.813   6.650   1.384
10499SOL    HW132396   4.856   6.587   1.449
10499SOL    HW232397   4.810   6.742   1.422
10500SOL     OW32398   5.926   2.319   5.792
10500SOL    HW132399   5.874   2.405   5.784
10500SOL    HW232400   5.962   2.294   5.702
10501SOL     OW32401   2.087   6.036   2.787
10501SOL    HW132402   2.067   6.007   2.881
10501SOL    HW232403   2.137   5.963   2.740
10502SOL     OW32404   3.070   4.071   0.786
10502SOL    HW132405   3.060   4.147   0.721
10502SOL    HW232406   3.051   4.104   0.878
10503SOL     OW32407   5.603   4.125   0.090
10503SOL    HW132408   5.613   4.041   0.144
10503SOL    HW232409   5.542   4.188   0.138
10504SOL     OW32410   0.421   2.290   5.276
10504SOL    HW132411   0.352   2.360   5.261
10504SOL    HW232412   0.492   2.324   5.338
10505SOL     OW32413   5.498   6.658   1.578
10505SOL    HW132414   5.533   6.698   1.662
10505SOL    HW232415   5.575   6.633   1.518
10506SOL     OW32416   0.421   3.567   0.406
10506SOL    HW132417   0.499   3.629   0.410
10506SOL    HW232418   0.452   3.472   0.401
10507SOL     OW32419   2.327   5.281   6.879
10507SOL    HW132420   2.250   5.333   6.840
10507SOL    HW232421   2.413   5.327   6.856
10508SOL     OW32422   0.878   5.312   4.318
10508SOL    HW132423   0.939   5.386   4.289
10508SOL    HW232424   0.784   5.344   4.316
10509SOL     OW32425   6.284   4.505   4.664
10509SOL    HW132426   6.277   4.454   4.578
10509SOL    HW232427   6.265   4.444   4.741
10510SOL     OW32428   4.761   6.374   0.484
10510SOL    HW132429   4.700   6.420   0.549
10510SOL    HW232430   4.733   6.279   0.473
10511SOL     OW32431   3.230   1.744   1.598
10511SOL    HW132432   3.148   1.771   1.648
10511SOL    HW232433   3.212   1.660   1.547
10512SOL     OW32434   3.820   0.001   5.820
10512SOL    HW132435   3.737   7.005   5.768
10512SOL    HW232436   3.839   6.943   5.879
10513SOL     OW32437   6.447   2.863   3.202
10513SOL    HW132438   6.480   2.916   3.124
10513SOL    HW232439   6.404   2.924   3.268
10514SOL     OW32440   1.244   1.783   1.709
10514SOL    HW132441   1.211   1.877   1.698
10514SOL    HW232442   1.335   1.775   1.669
10515SOL     OW32443   2.275   3.018   4.085
10515SOL    HW132444   2.277   3.079   4.164
10515SOL    HW232445   2.200   2.953   4.095
10516SOL     OW32446   2.479   1.900   0.349
10516SOL    HW132447   2.567   1.920   0.391
10516SOL    HW232448   2.464   1.960   0.271
10517SOL     OW32449   1.318   4.359   1.228
10517SOL    HW132450   1.364   4.330   1.144
10517SOL    HW232451   1.387   4.371   1.301
10518SOL     OW32452   0.094   5.881   1.715
10518SOL    HW132453   0.063   5.814   1.648
10518SOL    HW232454   0.060   5.855   1.806
10519SOL     OW32455   2.867   4.740   0.417
10519SOL    HW132456   2.812   4.817   0.384
10519SOL    HW232457   2.892   4.681   0.340
10520SOL     OW32458   0.207   2.034   5.917
10520SOL    HW132459   0.140   2.109   5.916
10520SOL    HW232460   0.291   2.067   5.959
10521SOL     OW32461   6.442   5.072   1.451
10521SOL    HW132462   6.366   5.039   1.395
10521SOL    HW232463   6.432   5.170   1.466
10522SOL     OW32464   0.413   2.791   3.084
10522SOL    HW132465   0.341   2.739   3.129
10522SOL    HW232466   0.376   2.880   3.055
10523SOL     OW32467   0.502   4.330   3.148
10523SOL    HW132468   0.483   4.250   3.205
10523SOL    HW232469   0.542   4.403   3.204
10524SOL     OW32470   0.602   6.153   4.121
10524SOL    HW132471   0.511   6.177   4.152
10524SOL    HW232472   0.652   6.235   4.093
10525SOL     OW32473   3.902   0.014   5.252
10525SOL    HW132474   3.889   0.071   5.172
10525SOL    HW232475   3.976   6.969   5.235
10526SOL     OW32476   0.709   6.667   1.583
10526SOL    HW132477   0.628   6.704   1.538
10526SOL    HW232478   0.709   6.695   1.679
10527SOL     OW32479   0.752   0.414   6.174
10527SOL    HW132480   0.709   0.503   6.161
10527SOL    HW232481   0.851   0.424   6.176
10528SOL     OW32482   0.700   4.278   6.485
10528SOL    HW132483   0.731   4.184   6.469
10528SOL    HW232484   0.706   4.299   6.582
10529SOL     OW32485   2.120   5.634   5.020
10529SOL    HW132486   2.099   5.571   5.095
10529SOL    HW232487   2.108   5.728   5.053
10530SOL     OW32488   1.119   6.078   5.950
10530SOL    HW132489   1.021   6.058   5.948
10530SOL    HW232490   1.163   6.043   5.868
10531SOL     OW32491   2.518   2.122   4.638
10531SOL    HW132492   2.582   2.098   4.566
10531SOL    HW232493   2.431   2.075   4.623
10532SOL     OW32494   0.005   6.718   6.613
10532SOL    HW132495   6.997   6.759   6.526
10532SOL    HW232496   0.000   6.788   6.685
10533SOL     OW32497   3.088   6.373   4.149
10533SOL    HW132498   3.141   6.289   4.160
10533SOL    HW232499   2.991   6.351   4.147
10534SOL     OW32500   6.648   5.227   1.961
10534SOL    HW132501   6.675   5.319   1.933
10534SOL    HW232502   6.687   5.160   1.898
10535SOL     OW32503   1.538   1.478   2.471
10535SOL    HW132504   1.634   1.501   2.483
10535SOL    HW232505   1.494   1.468   2.560
10536SOL     OW32506   4.765   0.110   4.040
10536SOL    HW132507   4.707   0.123   4.120
10536SOL    HW232508   4.804   0.198   4.012
10537SOL     OW32509   4.865   6.645   3.990
10537SOL    HW132510   4.874   6.669   4.087
10537SOL    HW232511   4.869   6.546   3.980
10538SOL     OW32512   6.355   4.005   1.825
10538SOL    HW132513   6.402   4.054   1.751
10538SOL    HW232514   6.421   3.980   1.896
10539SOL     OW32515   6.043   5.355   1.482
10539SOL    HW132516   6.130   5.394   1.452
10539SOL    HW232517   6.052   5.322   1.576
10540SOL     OW32518   2.283   3.660   5.600
10540SOL    HW132519   2.202   3.635   5.548
10540SOL    HW232520   2.267   3.748   5.645
10541SOL     OW32521   3.943   3.013   3.700
10541SOL    HW132522   3.860   2.968   3.668
10541SOL    HW232523   4.023   2.957   3.676
10542SOL     OW32524   6.596   0.032   5.176
10542SOL    HW132525   6.680   0.003   5.130
10542SOL    HW232526   6.618   0.063   5.269
10543SOL     OW32527   1.410   1.875   4.361
10543SOL    HW132528   1.419   1.960   4.309
10543SOL    HW232529   1.403   1.798   4.298
10544SOL     OW32530   2.365   6.195   3.194
10544SOL    HW132531   2.464   6.204   3.206
10544SOL    HW232532   2.346   6.163   3.101
10545SOL     OW32533   1.131   2.022   1.636
10545SOL    HW132534   1.036   2.051   1.628
10545SOL    HW232535   1.183   2.056   1.557
10546SOL     OW32536   3.491   6.356   0.786
10546SOL    HW132537   3.533   6.310   0.708
10546SOL    HW232538   3.550   6.431   0.815
10547SOL     OW32539   4.977   1.799   3.942
10547SOL    HW132540   5.051   1.763   3.885
10547SOL    HW232541   4.993   1.774   4.038
10548SOL     OW32542   0.168   3.692   4.239
10548SOL    HW132543   0.084   3.644   4.267
10548SOL    HW232544   0.247   3.649   4.284
10549SOL     OW32545   0.534   1.606   0.553
10549SOL    HW132546   0.568   1.541   0.485
10549SOL    HW232547   0.563   1.576   0.644
10550SOL     OW32548   4.097   6.689   3.566
10550SOL    HW132549   4.169   6.733   3.620
10550SOL    HW232550   4.086   6.594   3.596
10551SOL     OW32551   2.120   2.226   6.550
10551SOL    HW132552   2.131   2.148   6.612
10551SOL    HW232553   2.055   2.203   6.478
10552SOL     OW32554   2.425   0.728   4.919
10552SOL    HW132555   2.512   0.687   4.892
10552SOL    HW232556   2.389   0.781   4.842
10553SOL     OW32557   0.208   3.978   0.884
10553SOL    HW132558   0.191   4.018   0.974
10553SOL    HW232559   0.206   3.879   0.890
10554SOL     OW32560   5.396   5.344   2.581
10554SOL    HW132561   5.433   5.299   2.500
10554SOL    HW232562   5.457   5.418   2.609
10555SOL     OW32563   2.629   2.366   0.958
10555SOL    HW132564   2.667   2.314   0.881
10555SOL    HW232565   2.648   2.463   0.944
10556SOL     OW32566   3.020   0.984   3.671
10556SOL    HW132567   3.014   0.884   3.673
10556SOL    HW232568   3.116   1.011   3.665
10557SOL     OW32569   1.600   3.351   3.807
10557SOL    HW132570   1.541   3.306   3.874
10557SOL    HW232571   1.635   3.437   3.846
10558SOL     OW32572   3.942   5.831   5.941
10558SOL    HW132573   3.998   5.768   5.994
10558SOL    HW232574   3.914   5.787   5.856
10559SOL     OW32575   4.012   0.753   1.608
10559SOL    HW132576   3.993   0.850   1.596
10559SOL    HW232577   3.948   0.700   1.551
10560SOL     OW32578   4.291   6.604   2.214
10560SOL    HW132579   4.213   6.660   2.185
10560SOL    HW232580   4.262   6.542   2.286
10561SOL     OW32581   3.703   4.509   1.668
10561SOL    HW132582   3.634   4.476   1.603
10561SOL    HW232583   3.657   4.547   1.748
10562SOL     OW32584   4.641   5.876   0.464
10562SOL    HW132585   4.698   5.848   0.387
10562SOL    HW232586   4.602   5.795   0.508
10563SOL     OW32587   0.939   0.656   1.449
10563SOL    HW132588   1.035   0.638   1.426
10563SOL    HW232589   0.903   0.579   1.502
10564SOL     OW32590   5.962   6.728   4.049
10564SOL    HW132591   5.888   6.693   3.992
10564SOL    HW232592   5.923   6.784   4.122
10565SOL     OW32593   6.938   6.302   5.508
10565SOL    HW132594   6.899   6.223   5.461
10565SOL    HW232595   6.994   6.355   5.445
10566SOL     OW32596   3.252   1.644   6.660
10566SOL    HW132597   3.216   1.625   6.569
10566SOL    HW232598   3.297   1.561   6.696
10567SOL     OW32599   2.431   2.766   6.345
10567SOL    HW132600   2.370   2.803   6.415
10567SOL    HW232601   2.456   2.672   6.369
10568SOL     OW32602   5.861   2.220   0.410
10568SOL    HW132603   5.809   2.260   0.485
10568SOL    HW232604   5.803   2.214   0.328
10569SOL     OW32605   5.468   0.760   2.124
10569SOL    HW132606   5.495   0.854   2.102
10569SOL    HW232607   5.519   0.729   2.204
10570SOL     OW32608   1.891   4.646   3.543
10570SOL    HW132609   1.823   4.699   3.593
10570SOL    HW232610   1.921   4.568   3.599
10571SOL     OW32611   0.324   4.272   5.547
10571SOL    HW132612   0.406   4.296   5.598
10571SOL    HW232613   0.313   4.336   5.470
10572SOL     OW32614   0.248   5.060   2.251
10572SOL    HW132615   0.223   5.008   2.333
10572SOL    HW232616   0.170   5.116   2.223
10573SOL     OW32617   5.076   0.284   5.012
10573SOL    HW132618   5.003   0.315   5.073
10573SOL    HW232619   5.112   0.361   4.960
10574SOL     OW32620   6.866   1.423   3.711
10574SOL    HW132621   6.807   1.467   3.779
10574SOL    HW232622   6.951   1.394   3.755
10575SOL     OW32623   6.355   1.212   3.861
10575SOL    HW132624   6.287   1.175   3.924
10575SOL    HW232625   6.322   1.299   3.824
10576SOL     OW32626   1.090   5.473   3.103
10576SOL    HW132627   1.127   5.532   3.031
10576SOL    HW232628   0.998   5.504   3.128
10577SOL     OW32629   2.148   4.633   0.346
10577SOL    HW132630   2.213   4.626   0.270
10577SOL    HW232631   2.180   4.702   0.411
10578SOL     OW32632   4.645   1.090   3.412
10578SOL    HW132633   4.699   1.010   3.388
10578SOL    HW232634   4.548   1.069   3.398
10579SOL     OW32635   3.546   3.012   1.298
10579SOL    HW132636   3.455   2.996   1.261
10579SOL    HW232637   3.560   3.111   1.310
10580SOL     OW32638   6.604   6.117   6.182
10580SOL    HW132639   6.579   6.212   6.200
10580SOL    HW232640   6.699   6.113   6.151
10581SOL     OW32641   5.611   0.168   2.629
10581SOL    HW132642   5.615   0.079   2.584
10581SOL    HW232643   5.657   0.236   2.573
10582SOL     OW32644   4.772   4.702   6.300
10582SOL    HW132645   4.869   4.713   6.320
10582SOL    HW232646   4.760   4.631   6.230
10583SOL     OW32647   4.570   0.099   4.258
10583SOL    HW132648   4.566   7.021   4.249
10583SOL    HW232649   4.586   0.124   4.353
10584SOL     OW32650   6.457   6.912   6.747
10584SOL    HW132651   6.387   6.941   6.812
10584SOL    HW232652   6.474   6.814   6.758
10585SOL     OW32653   2.027   2.048   5.743
10585SOL    HW132654   1.977   2.036   5.657
10585SOL    HW232655   1.962   2.063   5.817
10586SOL     OW32656   4.834   4.863   5.601
10586SOL    HW132657   4.918   4.888   5.650
10586SOL    HW232658   4.759   4.851   5.666
10587SOL     OW32659   6.434   5.540   0.075
10587SOL    HW132660   6.426   5.598   0.156
10587SOL    HW232661   6.352   5.548   0.019
10588SOL     OW32662   1.844   2.092   5.008
10588SOL    HW132663   1.787   2.158   4.959
10588SOL    HW232664   1.787   2.037   5.069
10589SOL     OW32665   5.181   0.232   4.215
10589SOL    HW132666   5.191   0.183   4.302
10589SOL    HW232667   5.246   0.308   4.212
10590SOL     OW32668   0.245   6.568   1.624
10590SOL    HW132669   0.230   6.666   1.611
10590SOL    HW232670   0.216   6.542   1.716
10591SOL     OW32671   2.235   1.754   1.095
10591SOL    HW132672   2.251   1.822   1.024
10591SOL    HW232673   2.239   1.662   1.056
10592SOL     OW32674   5.717   3.065   4.858
10592SOL    HW132675   5.688   3.160   4.851
10592SOL    HW232676   5.777   3.042   4.782
10593SOL     OW32677   1.831   5.943   0.354
10593SOL    HW132678   1.861   5.849   0.340
10593SOL    HW232679   1.834   5.992   0.267
10594SOL     OW32680   4.320   2.087   2.787
10594SOL    HW132681   4.244   2.035   2.827
10594SOL    HW232682   4.287   2.176   2.757
10595SOL     OW32683   6.185   0.253   6.941
10595SOL    HW132684   6.127   0.246   0.000
10595SOL    HW232685   6.281   0.249   6.968
10596SOL     OW32686   4.867   0.372   6.987
10596SOL    HW132687   4.842   0.466   6.964
10596SOL    HW232688   4.900   0.369   0.061
10597SOL     OW32689   2.066   1.028   5.624
10597SOL    HW132690   2.041   1.050   5.718
10597SOL    HW232691   2.082   1.112   5.573
10598SOL     OW32692   2.919   2.072   6.502
10598SOL    HW132693   2.930   1.973   6.494
10598SOL    HW232694   2.946   2.115   6.416
10599SOL     OW32695   6.349   3.202   6.819
10599SOL    HW132696   6.291   3.266   6.770
10599SOL    HW232697   6.304   3.113   6.823
10600SOL     OW32698   3.898   2.196   1.148
10600SOL    HW132699   3.875   2.293   1.153
10600SOL    HW232700   3.814   2.143   1.137
10601SOL     OW32701   1.434   4.855   5.566
10601SOL    HW132702   1.463   4.947   5.595
10601SOL    HW232703   1.513   4.806   5.530
10602SOL     OW32704   1.175   1.130   0.984
10602SOL    HW132705   1.176   1.212   1.042
10602SOL    HW232706   1.215   1.151   0.895
10603SOL     OW32707   4.659   0.044   3.206
10603SOL    HW132708   4.716   6.988   3.180
10603SOL    HW232709   4.647   0.045   3.305
10604SOL     OW32710   0.076   5.950   4.910
10604SOL    HW132711   0.067   5.860   4.867
10604SOL    HW232712   0.143   5.945   4.984
10605SOL     OW32713   1.375   6.939   0.165
10605SOL    HW132714   1.408   6.867   0.104
10605SOL    HW232715   1.453   6.983   0.211
10606SOL     OW32716   6.671   1.333   1.357
10606SOL    HW132717   6.611   1.254   1.343
10606SOL    HW232718   6.704   1.333   1.451
10607SOL     OW32719   3.974   4.435   0.405
10607SOL    HW132720   3.942   4.527   0.428
10607SOL    HW232721   3.987   4.428   0.306
10608SOL     OW32722   6.862   3.607   3.736
10608SOL    HW132723   6.881   3.655   3.821
10608SOL    HW232724   6.912   3.520   3.735
10609SOL     OW32725   2.788   6.962   6.902
10609SOL    HW132726   2.882   6.987   6.927
10609SOL    HW232727   2.754   6.892   6.964
10610SOL     OW32728   0.397   1.570   4.110
10610SOL    HW132729   0.459   1.624   4.054
10610SOL    HW232730   0.303   1.603   4.099
10611SOL     OW32731   2.866   5.095   6.106
10611SOL    HW132732   2.940   5.031   6.128
10611SOL    HW232733   2.822   5.125   6.191
10612SOL     OW32734   4.987   2.301   4.094
10612SOL    HW132735   4.909   2.242   4.116
10612SOL    HW232736   5.048   2.254   4.030
10613SOL     OW32737   6.506   5.911   4.764
10613SOL    HW132738   6.499   5.827   4.710
10613SOL    HW232739   6.439   5.978   4.729
10614SOL     OW32740   5.269   1.092   4.470
10614SOL    HW132741   5.195   1.158   4.457
10614SOL    HW232742   5.357   1.139   4.465
10615SOL     OW32743   3.367   0.856   5.838
10615SOL    HW132744   3.387   0.786   5.906
10615SOL    HW232745   3.357   0.814   5.748
10616SOL     OW32746   3.157   6.163   6.546
10616SOL    HW132747   3.208   6.246   6.570
10616SOL    HW232748   3.099   6.136   6.623
10617SOL     OW32749   2.814   4.622   1.440
10617SOL    HW132750   2.757   4.542   1.422
10617SOL    HW232751   2.903   4.610   1.397
10618SOL     OW32752   1.320   5.210   5.562
10618SOL    HW132753   1.240   5.263   5.533
10618SOL    HW232754   1.310   5.187   5.659
10619SOL     OW32755   0.344   2.576   3.290
10619SOL    HW132756   0.411   2.502   3.293
10619SOL    HW232757   0.261   2.544   3.244
10620SOL     OW32758   1.078   6.917   5.542
10620SOL    HW132759   1.166   6.884   5.509
10620SOL    HW232760   1.084   6.935   5.641
10621SOL     OW32761   0.298   4.223   1.929
10621SOL    HW132762   0.265   4.247   2.021
10621SOL    HW232763   0.327   4.305   1.881
10622SOL     OW32764   4.626   2.352   1.469
10622SOL    HW132765   4.569   2.433   1.476
10622SOL    HW232766   4.582   2.276   1.517
10623SOL     OW32767   6.870   5.760   5.813
10623SOL    HW132768   6.882   5.707   5.896
10623SOL    HW232769   6.878   5.701   5.733
10624SOL     OW32770   0.354   2.611   5.602
10624SOL    HW132771   0.407   2.671   5.663
10624SOL    HW232772   0.267   2.588   5.645
10625SOL     OW32773   0.519   3.945   1.357
10625SOL    HW132774   0.420   3.932   1.347
10625SOL    HW232775   0.567   3.863   1.325
10626SOL     OW32776   3.092   2.897   0.785
10626SOL    HW132777   3.132   2.924   0.698
10626SOL    HW232778   3.098   2.972   0.850
10627SOL     OW32779   6.151   0.793   6.830
10627SOL    HW132780   6.107   0.728   6.892
10627SOL    HW232781   6.081   0.842   6.778
10628SOL     OW32782   4.521   6.882   1.455
10628SOL    HW132783   4.513   6.934   1.370
10628SOL    HW232784   4.448   6.814   1.459
10629SOL     OW32785   3.025   4.978   4.712
10629SOL    HW132786   2.969   4.954   4.791
10629SOL    HW232787   3.009   5.074   4.687
10630SOL     OW32788   5.693   1.425   2.447
10630SOL    HW132789   5.734   1.483   2.376
10630SOL    HW232790   5.630   1.480   2.503
10631SOL     OW32791   3.715   4.399   5.464
10631SOL    HW132792   3.625   4.432   5.495
10631SOL    HW232793   3.787   4.453   5.509
10632SOL     OW32794   5.440   6.634   3.668
10632SOL    HW132795   5.483   6.697   3.732
10632SOL    HW232796   5.370   6.580   3.716
10633SOL     OW32797   2.417   2.788   1.477
10633SOL    HW132798   2.317   2.796   1.484
10633SOL    HW232799   2.456   2.878   1.458
10634SOL     OW32800   1.926   5.352   0.630
10634SOL    HW132801   1.910   5.448   0.651
10634SOL    HW232802   1.866   5.295   0.687
10635SOL     OW32803   2.042   3.370   6.873
10635SOL    HW132804   1.962   3.353   6.817
10635SOL    HW232805   2.014   3.388   6.967
10636SOL     OW32806   0.032   2.378   1.423
10636SOL    HW132807   6.960   2.364   1.457
10636SOL    HW232808   0.089   2.415   1.496
10637SOL     OW32809   1.480   5.229   6.122
10637SOL    HW132810   1.522   5.269   6.041
10637SOL    HW232811   1.413   5.293   6.160
10638SOL     OW32812   5.346   6.376   3.102
10638SOL    HW132813   5.432   6.387   3.151
10638SOL    HW232814   5.278   6.439   3.139
10639SOL     OW32815   1.823   3.812   2.099
10639SOL    HW132816   1.810   3.754   2.180
10639SOL    HW232817   1.752   3.792   2.033
10640SOL     OW32818   5.007   0.965   3.740
10640SOL    HW132819   4.991   0.998   3.833
10640SOL    HW232820   5.102   0.982   3.714
10641SOL     OW32821   2.286   1.597   3.418
10641SOL    HW132822   2.335   1.674   3.458
10641SOL    HW232823   2.350   1.539   3.368
10642SOL     OW32824   6.258   1.357   0.774
10642SOL    HW132825   6.207   1.280   0.734
10642SOL    HW232826   6.331   1.385   0.712
10643SOL     OW32827   2.374   6.437   5.582
10643SOL    HW132828   2.355   6.368   5.652
10643SOL    HW232829   2.459   6.414   5.535
10644SOL     OW32830   5.363   3.055   0.999
10644SOL    HW132831   5.405   3.080   1.086
10644SOL    HW232832   5.336   3.138   0.950
10645SOL     OW32833   2.003   2.921   4.161
10645SOL    HW132834   2.014   2.863   4.242
10645SOL    HW232835   1.995   3.017   4.189
10646SOL     OW32836   6.725   0.073   6.388
10646SOL    HW132837   6.730   0.044   6.292
10646SOL    HW232838   6.696   0.168   6.393
10647SOL     OW32839   3.414   5.544   4.979
10647SOL    HW132840   3.354   5.607   5.028
10647SOL    HW232841   3.386   5.450   5.000
10648SOL     OW32842   5.605   5.576   6.436
10648SOL    HW132843   5.527   5.639   6.437
10648SOL    HW232844   5.620   5.544   6.342
10649SOL     OW32845   0.479   3.504   3.110
10649SOL    HW132846   0.432   3.520   3.023
10649SOL    HW232847   0.547   3.432   3.099
10650SOL     OW32848   0.590   0.703   4.007
10650SOL    HW132849   0.587   0.608   4.038
10650SOL    HW232850   0.598   0.705   3.907
10651SOL     OW32851   6.109   5.876   5.995
10651SOL    HW132852   6.167   5.893   6.075
10651SOL    HW232853   6.141   5.931   5.918
10652SOL     OW32854   2.234   6.908   6.510
10652SOL    HW132855   2.320   6.955   6.494
10652SOL    HW232856   2.166   6.939   6.443
10653SOL     OW32857   4.103   5.924   4.805
10653SOL    HW132858   4.167   5.986   4.760
10653SOL    HW232859   4.023   5.910   4.746
10654SOL     OW32860   4.894   0.289   6.447
10654SOL    HW132861   4.808   0.340   6.446
10654SOL    HW232862   4.906   0.244   6.535
10655SOL     OW32863   1.482   5.157   0.126
10655SOL    HW132864   1.531   5.176   0.211
10655SOL    HW232865   1.524   5.208   0.051
10656SOL     OW32866   6.986   1.484   2.454
10656SOL    HW132867   7.013   1.569   2.498
10656SOL    HW232868   6.897   1.454   2.489
10657SOL     OW32869   5.742   0.923   4.682
10657SOL    HW132870   5.775   0.992   4.746
10657SOL    HW232871   5.720   0.839   4.731
10658SOL     OW32872   5.941   3.987   4.779
10658SOL    HW132873   5.962   4.024   4.688
10658SOL    HW232874   5.936   4.063   4.845
10659SOL     OW32875   1.203   5.205   0.589
10659SOL    HW132876   1.143   5.281   0.614
10659SOL    HW232877   1.211   5.200   0.490
10660SOL     OW32878   5.752   3.590   6.189
10660SOL    HW132879   5.849   3.608   6.209
10660SOL    HW232880   5.696   3.617   6.267
10661SOL     OW32881   1.560   6.375   0.827
10661SOL    HW132882   1.566   6.307   0.900
10661SOL    HW232883   1.650   6.389   0.787
10662SOL     OW32884   4.685   0.558   2.519
10662SOL    HW132885   4.750   0.486   2.497
10662SOL    HW232886   4.684   0.574   2.617
10663SOL     OW32887   0.830   1.060   2.635
10663SOL    HW132888   0.904   1.013   2.684
10663SOL    HW232889   0.747   1.006   2.642
10664SOL     OW32890   6.191   4.177   5.382
10664SOL    HW132891   6.160   4.248   5.446
10664SOL    HW232892   6.275   4.208   5.337
10665SOL     OW32893   1.400   1.770   0.292
10665SOL    HW132894   1.327   1.716   0.335
10665SOL    HW232895   1.368   1.805   0.204
10666SOL     OW32896   3.171   4.050   1.798
10666SOL    HW132897   3.235   4.008   1.733
10666SOL    HW232898   3.139   4.137   1.761
10667SOL     OW32899   4.654   2.279   3.252
10667SOL    HW132900   4.710   2.319   3.180
10667SOL    HW232901   4.678   2.182   3.262
10668SOL     OW32902   2.908   1.602   4.803
10668SOL    HW132903   2.849   1.526   4.774
10668SOL    HW232904   2.851   1.674   4.843
10669SOL     OW32905   5.554   0.748   1.329
10669SOL    HW132906   5.644   0.792   1.327
10669SOL    HW232907   5.541   0.703   1.417
10670SOL     OW32908   6.010   4.770   4.740
10670SOL    HW132909   5.962   4.691   4.702
10670SOL    HW232910   6.064   4.741   4.819
10671SOL     OW32911   1.998   1.749   4.297
10671SOL    HW132912   1.964   1.842   4.288
10671SOL    HW232913   1.963   1.693   4.222
10672SOL     OW32914   6.962   4.386   1.555
10672SOL    HW132915   0.003   4.397   1.633
10672SOL    HW232916   7.014   4.358   1.474
10673SOL     OW32917   0.370   1.261   6.946
10673SOL    HW132918   0.322   1.206   6.878
10673SOL    HW232919   0.308   1.285   7.021
10674SOL     OW32920   3.998   3.668   3.647
10674SOL    HW132921   4.042   3.741   3.595
10674SOL    HW232922   3.916   3.705   3.691
10675SOL     OW32923   1.792   0.274   6.930
10675SOL    HW132924   1.724   0.226   6.985
10675SOL    HW232925   1.794   0.233   6.838
10676SOL     OW32926   0.249   5.912   5.128
10676SOL    HW132927   0.228   5.956   5.215
10676SOL    HW232928   0.348   5.895   5.122
10677SOL     OW32929   1.556   0.261   1.695
10677SOL    HW132930   1.641   0.269   1.748
10677SOL    HW232931   1.524   0.167   1.696
10678SOL     OW32932   5.102   5.721   3.987
10678SOL    HW132933   5.120   5.670   4.071
10678SOL    HW232934   5.046   5.667   3.925
10679SOL     OW32935   3.852   5.584   6.883
10679SOL    HW132936   3.897   5.667   6.850
10679SOL    HW232937   3.756   5.586   6.859
10680SOL     OW32938   3.995   2.160   3.985
10680SOL    HW132939   3.922   2.141   3.920
10680SOL    HW232940   3.962   2.143   4.078
10681SOL     OW32941   0.360   3.641   0.860
10681SOL    HW132942   0.294   3.625   0.933
10681SOL    HW232943   0.319   3.619   0.772
10682SOL     OW32944   0.068   1.642   5.309
10682SOL    HW132945   0.129   1.577   5.262
10682SOL    HW232946   0.108   1.733   5.307
10683SOL     OW32947   4.694   1.546   3.779
10683SOL    HW132948   4.661   1.626   3.830
10683SOL    HW232949   4.698   1.467   3.839
10684SOL     OW32950   4.793   5.202   2.694
10684SOL    HW132951   4.701   5.183   2.728
10684SOL    HW232952   4.849   5.120   2.703
10685SOL     OW32953   0.765   5.873   1.758
10685SOL    HW132954   0.689   5.822   1.716
10685SOL    HW232955   0.774   5.962   1.714
10686SOL     OW32956   0.985   3.984   5.637
10686SOL    HW132957   1.046   3.922   5.687
10686SOL    HW232958   1.039   4.054   5.591
10687SOL     OW32959   5.786   5.717   4.107
10687SOL    HW132960   5.727   5.775   4.051
10687SOL    HW232961   5.827   5.645   4.050
10688SOL     OW32962   6.302   3.758   2.751
10688SOL    HW132963   6.331   3.769   2.655
10688SOL    HW232964   6.300   3.847   2.796
10689SOL     OW32965   0.041   7.003   3.444
10689SOL    HW132966   0.053   6.935   3.516
10689SOL    HW232967   0.118   0.045   3.445
10690SOL     OW32968   0.444   5.528   4.072
10690SOL    HW132969   0.492   5.448   4.107
10690SOL    HW232970   0.462   5.606   4.132
10691SOL     OW32971   1.113   1.955   2.889
10691SOL    HW132972   1.111   1.926   2.793
10691SOL    HW232973   1.193   2.012   2.905
10692SOL     OW32974   2.840   6.647   3.958
10692SOL    HW132975   2.742   6.669   3.954
10692SOL    HW232976   2.894   6.727   3.933
10693SOL     OW32977   2.014   6.267   0.977
10693SOL    HW132978   2.104   6.294   0.945
10693SOL    HW232979   2.009   6.279   1.077
10694SOL     OW32980   5.562   6.522   0.183
10694SOL    HW132981   5.464   6.540   0.191
10694SOL    HW232982   5.590   6.530   0.088
10695SOL     OW32983   0.504   2.502   3.001
10695SOL    HW132984   0.483   2.600   3.007
10695SOL    HW232985   0.601   2.488   3.022
10696SOL     OW32986   6.976   4.514   3.401
10696SOL    HW132987   6.919   4.589   3.436
10696SOL    HW232988   6.916   4.442   3.365
10697SOL     OW32989   0.293   6.303   5.479
10697SOL    HW132990   0.282   6.329   5.383
10697SOL    HW232991   0.390   6.288   5.499
10698SOL     OW32992   5.226   4.188   6.668
10698SOL    HW132993   5.161   4.186   6.744
10698SOL    HW232994   5.317   4.213   6.703
10699SOL     OW32995   3.936   4.261   1.711
10699SOL    HW132996   3.959   4.216   1.624
10699SOL    HW232997   3.855   4.318   1.698
10700SOL     OW32998   5.742   6.767   0.869
10700SOL    HW132999   5.795   6.845   0.901
10700SOL    HW233000   5.771   6.744   0.776
10701SOL     OW33001   2.469   6.277   6.590
10701SOL    HW133002   2.380   6.231   6.584
10701SOL    HW233003   2.484   6.309   6.683
10702SOL     OW33004   4.973   2.727   1.315
10702SOL    HW133005   5.028   2.644   1.319
10702SOL    HW233006   5.033   2.807   1.306
10703SOL     OW33007   2.692   3.177   5.324
10703SOL    HW133008   2.624   3.120   5.278
10703SOL    HW233009   2.784   3.145   5.299
10704SOL     OW33010   5.917   5.723   1.891
10704SOL    HW133011   5.910   5.822   1.883
10704SOL    HW233012   5.926   5.698   1.987
10705SOL     OW33013   5.922   4.753   1.822
10705SOL    HW133014   5.866   4.696   1.762
10705SOL    HW233015   5.872   4.772   1.907
10706SOL     OW33016   4.974   0.513   2.579
10706SOL    HW133017   4.981   0.604   2.621
10706SOL    HW233018   5.020   0.515   2.490
10707SOL     OW33019   0.156   6.975   4.323
10707SOL    HW133020   0.198   0.022   4.263
10707SOL    HW233021   0.110   6.905   4.268
10708SOL     OW33022   4.404   1.263   1.833
10708SOL    HW133023   4.444   1.239   1.922
10708SOL    HW233024   4.305   1.252   1.837
10709SOL     OW33025   5.687   5.203   5.600
10709SOL    HW133026   5.609   5.262   5.580
10709SOL    HW233027   5.671   5.154   5.686
10710SOL     OW33028   0.063   0.360   4.239
10710SOL    HW133029   0.081   0.328   4.332
10710SOL    HW233030   0.002   0.296   4.193
10711SOL     OW33031   1.612   0.138   4.584
10711SOL    HW133032   1.567   0.052   4.561
10711SOL    HW233033   1.566   0.180   4.662
10712SOL     OW33034   3.022   1.029   1.612
10712SOL    HW133035   2.959   0.953   1.631
10712SOL    HW233036   2.973   1.116   1.620
10713SOL     OW33037   0.455   3.539   2.483
10713SOL    HW133038   0.445   3.440   2.489
10713SOL    HW233039   0.428   3.569   2.391
10714SOL     OW33040   5.588   3.698   4.892
10714SOL    HW133041   5.575   3.631   4.965
10714SOL    HW233042   5.615   3.652   4.808
10715SOL     OW33043   5.305   0.928   2.885
10715SOL    HW133044   5.343   0.852   2.833
10715SOL    HW233045   5.227   0.897   2.938
10716SOL     OW33046   6.237   2.074   3.631
10716SOL    HW133047   6.259   2.001   3.565
10716SOL    HW233048   6.169   2.136   3.591
10717SOL     OW33049   1.211   2.126   1.401
10717SOL    HW133050   1.259   2.065   1.339
10717SOL    HW233051   1.266   2.209   1.416
10718SOL     OW33052   1.211   3.328   6.750
10718SOL    HW133053   1.299   3.291   6.720
10718SOL    HW233054   1.143   3.255   6.753
10719SOL     OW33055   6.747   5.850   2.777
10719SOL    HW133056   6.754   5.925   2.712
10719SOL    HW233057   6.664   5.861   2.832
10720SOL     OW33058   0.386   4.327   4.717
10720SOL    HW133059   0.412   4.294   4.807
10720SOL    HW233060   0.294   4.364   4.719
10721SOL     OW33061   5.494   4.012   5.156
10721SOL    HW133062   5.588   4.034   5.131
10721SOL    HW233063   5.493   3.931   5.215
10722SOL     OW33064   0.918   5.088   0.153
10722SOL    HW133065   0.819   5.102   0.157
10722SOL    HW233066   0.953   5.072   0.246
10723SOL     OW33067   0.166   3.628   6.145
10723SOL    HW133068   0.121   3.704   6.097
10723SOL    HW233069   0.242   3.595   6.089
10724SOL     OW33070   5.764   1.148   6.724
10724SOL    HW133071   5.726   1.209   6.655
10724SOL    HW233072   5.731   1.174   6.814
10725SOL     OW33073   1.017   5.711   4.492
10725SOL    HW133074   1.047   5.680   4.402
10725SOL    HW233075   0.929   5.668   4.515
10726SOL     OW33076   5.263   6.818   5.363
10726SOL    HW133077   5.358   6.816   5.395
10726SOL    HW233078   5.261   6.843   5.266
10727SOL     OW33079   0.250   4.899   5.278
10727SOL    HW133080   0.285   4.867   5.366
10727SOL    HW233081   0.291   4.846   5.204
10728SOL     OW33082   0.184   6.043   6.904
10728SOL    HW133083   0.268   6.045   6.850
10728SOL    HW233084   0.177   5.956   6.952
10729SOL     OW33085   5.333   1.319   1.292
10729SOL    HW133086   5.249   1.268   1.278
10729SOL    HW233087   5.385   1.323   1.207
10730SOL     OW33088   2.147   0.684   1.458
10730SOL    HW133089   2.093   0.737   1.523
10730SOL    HW233090   2.177   0.599   1.502
10731SOL     OW33091   3.222   5.792   0.789
10731SOL    HW133092   3.179   5.847   0.861
10731SOL    HW233093   3.242   5.851   0.711
10732SOL     OW33094   5.916   5.510   3.963
10732SOL    HW133095   5.989   5.445   3.983
10732SOL    HW233096   5.874   5.487   3.875
10733SOL     OW33097   6.396   1.647   1.109
10733SOL    HW133098   6.389   1.745   1.125
10733SOL    HW233099   6.411   1.599   1.195
10734SOL     OW33100   1.119   0.722   0.388
10734SOL    HW133101   1.117   0.651   0.318
10734SOL    HW233102   1.043   0.708   0.452
10735SOL     OW33103   1.084   3.190   3.381
10735SOL    HW133104   1.147   3.176   3.457
10735SOL    HW233105   1.113   3.135   3.303
10736SOL     OW33106   1.551   0.647   2.696
10736SOL    HW133107   1.514   0.647   2.789
10736SOL    HW233108   1.645   0.678   2.697
10737SOL     OW33109   2.006   1.737   0.843
10737SOL    HW133110   1.982   1.715   0.937
10737SOL    HW233111   2.067   1.816   0.841
10738SOL     OW33112   2.544   0.288   3.427
10738SOL    HW133113   2.483   0.252   3.357
10738SOL    HW233114   2.639   0.273   3.400
10739SOL     OW33115   0.851   1.453   0.583
10739SOL    HW133116   0.858   1.517   0.506
10739SOL    HW233117   0.916   1.379   0.571
10740SOL     OW33118   0.174   4.435   5.339
10740SOL    HW133119   0.151   4.527   5.371
10740SOL    HW233120   0.118   4.412   5.260
10741SOL     OW33121   6.222   0.399   1.354
10741SOL    HW133122   6.253   0.440   1.268
10741SOL    HW233123   6.159   0.324   1.334
10742SOL     OW33124   5.351   0.964   1.058
10742SOL    HW133125   5.319   0.871   1.044
10742SOL    HW233126   5.285   1.014   1.114
10743SOL     OW33127   2.730   1.727   4.966
10743SOL    HW133128   2.703   1.633   4.988
10743SOL    HW233129   2.776   1.768   5.045
10744SOL     OW33130   4.024   1.234   0.596
10744SOL    HW133131   4.043   1.153   0.651
10744SOL    HW233132   4.091   1.242   0.522
10745SOL     OW33133   0.153   5.363   6.734
10745SOL    HW133134   0.156   5.312   6.820
10745SOL    HW233135   0.110   5.307   6.664
10746SOL     OW33136   1.933   4.309   1.568
10746SOL    HW133137   2.008   4.308   1.503
10746SOL    HW233138   1.969   4.308   1.661
10747SOL     OW33139   4.358   0.976   3.504
10747SOL    HW133140   4.400   0.888   3.522
10747SOL    HW233141   4.298   1.001   3.580
10748SOL     OW33142   4.565   1.244   1.383
10748SOL    HW133143   4.551   1.246   1.482
10748SOL    HW233144   4.519   1.165   1.344
10749SOL     OW33145   0.546   6.006   3.301
10749SOL    HW133146   0.514   5.932   3.242
10749SOL    HW233147   0.481   6.021   3.375
10750SOL     OW33148   4.282   6.105   5.151
10750SOL    HW133149   4.222   6.042   5.200
10750SOL    HW233150   4.354   6.053   5.105
10751SOL     OW33151   1.744   4.377   4.177
10751SOL    HW133152   1.831   4.328   4.180
10751SOL    HW233153   1.669   4.313   4.163
10752SOL     OW33154   5.824   3.970   6.200
10752SOL    HW133155   5.874   4.057   6.197
10752SOL    HW233156   5.857   3.916   6.277
10753SOL     OW33157   4.641   6.441   4.342
10753SOL    HW133158   4.579   6.484   4.276
10753SOL    HW233159   4.598   6.360   4.380
10754SOL     OW33160   0.654   1.085   3.270
10754SOL    HW133161   0.591   1.159   3.248
10754SOL    HW233162   0.697   1.102   3.358
10755SOL     OW33163   6.654   0.835   6.590
10755SOL    HW133164   6.653   0.930   6.622
10755SOL    HW233165   6.727   0.823   6.523
10756SOL     OW33166   7.017   4.659   0.443
10756SOL    HW133167   7.003   4.618   0.353
10756SOL    HW233168   0.058   4.601   0.497
10757SOL     OW33169   1.117   3.041   0.754
10757SOL    HW133170   1.025   3.073   0.775
10757SOL    HW233171   1.184   3.100   0.799
10758SOL     OW33172   0.424   6.907   4.066
10758SOL    HW133173   0.357   6.971   4.104
10758SOL    HW233174   0.514   6.949   4.066
10759SOL     OW33175   1.905   2.976   1.066
10759SOL    HW133176   1.817   3.022   1.055
10759SOL    HW233177   1.966   3.002   0.991
10760SOL     OW33178   6.658   1.721   1.962
10760SOL    HW133179   6.655   1.686   2.055
10760SOL    HW233180   6.751   1.752   1.941
10761SOL     OW33181   1.044   0.827   6.244
10761SOL    HW133182   1.140   0.855   6.246
10761SOL    HW233183   1.033   0.741   6.294
10762SOL     OW33184   4.259   1.712   4.821
10762SOL    HW133185   4.223   1.730   4.912
10762SOL    HW233186   4.195   1.744   4.752
10763SOL     OW33187   4.998   6.577   2.253
10763SOL    HW133188   4.998   6.647   2.181
10763SOL    HW233189   4.986   6.620   2.342
10764SOL     OW33190   5.429   2.734   5.912
10764SOL    HW133191   5.471   2.811   5.960
10764SOL    HW233192   5.492   2.697   5.845
10765SOL     OW33193   4.873   2.258   0.223
10765SOL    HW133194   4.929   2.291   0.300
10765SOL    HW233195   4.866   2.159   0.227
10766SOL     OW33196   5.074   3.509   0.951
10766SOL    HW133197   5.144   3.468   0.892
10766SOL    HW233198   5.072   3.461   1.039
10767SOL     OW33199   1.404   0.777   0.374
10767SOL    HW133200   1.457   0.840   0.430
10767SOL    HW233201   1.317   0.757   0.418
10768SOL     OW33202   4.816   4.451   1.783
10768SOL    HW133203   4.742   4.389   1.757
10768SOL    HW233204   4.834   4.514   1.707
10769SOL     OW33205   2.648   4.712   4.854
10769SOL    HW133206   2.670   4.802   4.815
10769SOL    HW233207   2.704   4.697   4.935
10770SOL     OW33208   5.187   0.730   5.065
10770SOL    HW133209   5.130   0.692   5.138
10770SOL    HW233210   5.214   0.657   5.002
10771SOL     OW33211   5.897   0.877   3.339
10771SOL    HW133212   5.877   0.831   3.426
10771SOL    HW233213   5.847   0.964   3.336
10772SOL     OW33214   6.704   6.649   4.400
10772SOL    HW133215   6.662   6.610   4.482
10772SOL    HW233216   6.784   6.595   4.375
10773SOL     OW33217   6.267   5.263   0.254
10773SOL    HW133218   6.278   5.311   0.167
10773SOL    HW233219   6.329   5.302   0.322
10774SOL     OW33220   2.096   1.927   6.853
10774SOL    HW133221   2.143   1.846   6.818
10774SOL    HW233222   2.009   1.938   6.805
10775SOL     OW33223   0.191   4.945   1.158
10775SOL    HW133224   0.245   4.976   1.079
10775SOL    HW233225   0.104   4.995   1.160
10776SOL     OW33226   0.211   0.676   6.718
10776SOL    HW133227   0.132   0.618   6.742
10776SOL    HW233228   0.295   0.622   6.724
10777SOL     OW33229   3.436   5.562   2.984
10777SOL    HW133230   3.354   5.516   2.951
10777SOL    HW233231   3.422   5.591   3.078
10778SOL     OW33232   5.920   0.474   4.387
10778SOL    HW133233   5.965   0.481   4.298
10778SOL    HW233234   5.988   0.454   4.457
10779SOL     OW33235   6.166   4.136   3.627
10779SOL    HW133236   6.210   4.165   3.712
10779SOL    HW233237   6.115   4.212   3.588
10780SOL     OW33238   1.974   0.741   3.929
10780SOL    HW133239   1.927   0.787   4.004
10780SOL    HW233240   1.922   0.756   3.844
10781SOL     OW33241   4.303   1.133   3.276
10781SOL    HW133242   4.303   1.058   3.210
10781SOL    HW233243   4.282   1.097   3.367
10782SOL     OW33244   5.412   2.057   1.890
10782SOL    HW133245   5.345   2.053   1.964
10782SOL    HW233246   5.419   2.150   1.856
10783SOL     OW33247   0.846   3.368   3.765
10783SOL    HW133248   0.790   3.297   3.722
10783SOL    HW233249   0.809   3.458   3.743
10784SOL     OW33250   3.844   6.702   4.189
10784SOL    HW133251   3.891   6.667   4.269
10784SOL    HW233252   3.812   6.796   4.207
10785SOL     OW33253   0.280   4.573   1.439
10785SOL    HW133254   0.264   4.474   1.446
10785SOL    HW233255   0.226   4.610   1.363
10786SOL     OW33256   5.727   4.682   3.089
10786SOL    HW133257   5.784   4.762   3.109
10786SOL    HW233258   5.732   4.618   3.166
10787SOL     OW33259   1.661   1.679   4.749
10787SOL    HW133260   1.633   1.758   4.695
10787SOL    HW233261   1.746   1.701   4.798
10788SOL     OW33262   1.974   4.337   6.054
10788SOL    HW133263   1.899   4.375   6.107
10788SOL    HW233264   2.040   4.410   6.033
10789SOL     OW33265   6.994   2.952   6.722
10789SOL    HW133266   0.036   2.888   6.767
10789SOL    HW233267   0.005   2.970   6.629
10790SOL     OW33268   1.248   0.927   1.674
10790SOL    HW133269   1.154   0.960   1.674
10790SOL    HW233270   1.249   0.827   1.686
10791SOL     OW33271   0.291   0.033   1.063
10791SOL    HW133272   0.360   0.082   1.009
10791SOL    HW233273   0.336   7.007   1.139
10792SOL     OW33274   3.188   4.013   3.856
10792SOL    HW133275   3.272   4.056   3.886
10792SOL    HW233276   3.117   4.025   3.925
10793SOL     OW33277   5.442   3.220   4.631
10793SOL    HW133278   5.432   3.271   4.546
10793SOL    HW233279   5.495   3.137   4.615
10794SOL     OW33280   2.923   3.666   3.498
10794SOL    HW133281   2.942   3.645   3.403
10794SOL    HW233282   2.981   3.742   3.528
10795SOL     OW33283   6.678   4.713   2.375
10795SOL    HW133284   6.614   4.790   2.371
10795SOL    HW233285   6.772   4.748   2.379
10796SOL     OW33286   5.448   0.106   6.469
10796SOL    HW133287   5.477   0.073   6.559
10796SOL    HW233288   5.525   0.150   6.423
10797SOL     OW33289   4.203   2.964   1.537
10797SOL    HW133290   4.137   2.895   1.566
10797SOL    HW233291   4.174   3.003   1.450
10798SOL     OW33292   3.105   6.640   0.449
10798SOL    HW133293   3.149   6.568   0.396
10798SOL    HW233294   3.055   6.601   0.526
10799SOL     OW33295   3.897   1.087   1.380
10799SOL    HW133296   3.799   1.067   1.382
10799SOL    HW233297   3.917   1.162   1.443
10800SOL     OW33298   0.768   6.716   6.460
10800SOL    HW133299   0.755   6.749   6.553
10800SOL    HW233300   0.827   6.635   6.461
10801SOL     OW33301   0.839   6.043   5.960
10801SOL    HW133302   0.786   6.050   6.045
10801SOL    HW233303   0.827   5.952   5.921
10802SOL     OW33304   0.723   0.865   3.146
10802SOL    HW133305   0.713   0.953   3.193
10802SOL    HW233306   0.699   0.791   3.209
10803SOL     OW33307   2.787   4.062   6.097
10803SOL    HW133308   2.756   3.994   6.030
10803SOL    HW233309   2.747   4.041   6.186
10804SOL     OW33310   5.842   3.230   2.116
10804SOL    HW133311   5.842   3.292   2.194
10804SOL    HW233312   5.749   3.220   2.080
10805SOL     OW33313   4.220   6.435   6.831
10805SOL    HW133314   4.149   6.504   6.848
10805SOL    HW233315   4.264   6.453   6.744
10806SOL     OW33316   4.140   3.459   5.853
10806SOL    HW133317   4.229   3.413   5.856
10806SOL    HW233318   4.135   3.525   5.928
10807SOL     OW33319   1.209   0.012   2.307
10807SOL    HW133320   1.149   0.075   2.358
10807SOL    HW233321   1.245   0.058   2.227
10808SOL     OW33322   0.415   2.922   5.677
10808SOL    HW133323   0.421   2.953   5.583
10808SOL    HW233324   0.489   2.963   5.731
10809SOL     OW33325   2.791   4.717   3.449
10809SOL    HW133326   2.886   4.744   3.468
10809SOL    HW233327   2.786   4.675   3.359
10810SOL     OW33328   1.400   0.144   4.345
10810SOL    HW133329   1.403   0.128   4.443
10810SOL    HW233330   1.493   0.147   4.308
10811SOL     OW33331   3.877   4.121   6.544
10811SOL    HW133332   3.800   4.182   6.527
10811SOL    HW233333   3.945   4.169   6.601
10812SOL     OW33334   0.312   3.908   0.312
10812SOL    HW133335   0.379   3.942   0.377
10812SOL    HW233336   0.348   3.827   0.266
10813SOL     OW33337   2.372   4.704   6.202
10813SOL    HW133338   2.402   4.627   6.257
10813SOL    HW233339   2.398   4.690   6.107
10814SOL     OW33340   1.575   6.597   6.840
10814SOL    HW133341   1.641   6.665   6.809
10814SOL    HW233342   1.530   6.629   6.923
10815SOL     OW33343   4.511   4.416   3.525
10815SOL    HW133344   4.493   4.502   3.477
10815SOL    HW233345   4.585   4.367   3.479
10816SOL     OW33346   3.341   2.912   2.206
10816SOL    HW133347   3.365   2.936   2.112
10816SOL    HW233348   3.366   2.816   2.223
10817SOL     OW33349   4.440   0.651   3.236
10817SOL    HW133350   4.385   0.624   3.315
10817SOL    HW233351   4.399   0.615   3.152
10818SOL     OW33352   4.457   4.434   5.447
10818SOL    HW133353   4.535   4.383   5.484
10818SOL    HW233354   4.373   4.401   5.491
10819SOL     OW33355   6.306   4.839   6.412
10819SOL    HW133356   6.345   4.749   6.390
10819SOL    HW233357   6.377   4.908   6.406
10820SOL     OW33358   0.516   5.304   3.657
10820SOL    HW133359   0.436   5.246   3.669
10820SOL    HW233360   0.560   5.284   3.569
10821SOL     OW33361   5.138   0.008   3.077
10821SOL    HW133362   5.213   6.999   3.017
10821SOL    HW233363   5.105   0.097   3.047
10822SOL     OW33364   6.945   3.269   3.365
10822SOL    HW133365   6.851   3.273   3.399
10822SOL    HW233366   7.007   3.311   3.432
10823SOL     OW33367   1.637   6.984   1.698
10823SOL    HW133368   1.705   6.945   1.759
10823SOL    HW233369   1.549   6.938   1.711
10824SOL     OW33370   6.267   1.758   2.580
10824SOL    HW133371   6.356   1.750   2.626
10824SOL    HW233372   6.271   1.830   2.512
10825SOL     OW33373   2.234   1.218   6.297
10825SOL    HW133374   2.291   1.279   6.352
10825SOL    HW233375   2.151   1.267   6.269
10826SOL     OW33376   1.531   2.929   3.722
10826SOL    HW133377   1.517   2.902   3.627
10826SOL    HW233378   1.448   2.911   3.775
10827SOL     OW33379   6.947   2.995   4.035
10827SOL    HW133380   0.007   2.936   4.036
10827SOL    HW233381   6.976   3.091   4.026
10828SOL     OW33382   1.416   4.478   0.681
10828SOL    HW133383   1.395   4.576   0.680
10828SOL    HW233384   1.511   4.465   0.710
10829SOL     OW33385   4.068   2.298   0.166
10829SOL    HW133386   4.061   2.318   0.264
10829SOL    HW233387   4.068   2.199   0.152
10830SOL     OW33388   5.111   1.809   3.219
10830SOL    HW133389   5.157   1.898   3.208
10830SOL    HW233390   5.160   1.740   3.166
10831SOL     OW33391   2.922   6.098   3.377
10831SOL    HW133392   2.853   6.026   3.387
10831SOL    HW233393   2.895   6.178   3.430
10832SOL     OW33394   0.998   3.289   6.202
10832SOL    HW133395   0.991   3.336   6.290
10832SOL    HW233396   1.093   3.291   6.171
10833SOL     OW33397   0.685   0.360   2.433
10833SOL    HW133398   0.741   0.278   2.428
10833SOL    HW233399   0.674   0.399   2.342
10834SOL     OW33400   0.722   2.175   0.658
10834SOL    HW133401   0.736   2.086   0.614
10834SOL    HW233402   0.775   2.178   0.743
10835SOL     OW33403   5.250   2.536   0.437
10835SOL    HW133404   5.228   2.506   0.530
10835SOL    HW233405   5.207   2.625   0.421
10836SOL     OW33406   6.649   1.623   4.629
10836SOL    HW133407   6.559   1.594   4.660
10836SOL    HW233408   6.653   1.621   4.530
10837SOL     OW33409   6.287   5.386   1.281
10837SOL    HW133410   6.357   5.381   1.210
10837SOL    HW233411   6.196   5.383   1.239
10838SOL     OW33412   6.598   5.662   4.036
10838SOL    HW133413   6.574   5.633   4.128
10838SOL    HW233414   6.697   5.667   4.026
10839SOL     OW33415   4.318   3.097   1.756
10839SOL    HW133416   4.280   3.049   1.677
10839SOL    HW233417   4.411   3.065   1.773
10840SOL     OW33418   2.727   5.735   3.022
10840SOL    HW133419   2.714   5.835   3.022
10840SOL    HW233420   2.692   5.697   2.936
10841SOL     OW33421   6.361   5.258   5.560
10841SOL    HW133422   6.296   5.193   5.520
10841SOL    HW233423   6.347   5.348   5.520
10842SOL     OW33424   4.866   2.709   1.614
10842SOL    HW133425   4.853   2.795   1.663
10842SOL    HW233426   4.964   2.689   1.606
10843SOL     OW33427   0.893   1.814   1.832
10843SOL    HW133428   0.956   1.871   1.887
10843SOL    HW233429   0.805   1.808   1.879
10844SOL     OW33430   0.793   6.771   3.703
10844SOL    HW133431   0.850   6.850   3.726
10844SOL    HW233432   0.756   6.731   3.787
10845SOL     OW33433   3.301   7.010   5.449
10845SOL    HW133434   3.358   0.069   5.432
10845SOL    HW233435   3.355   6.927   5.437
10846SOL     OW33436   5.258   1.374   0.376
10846SOL    HW133437   5.300   1.422   0.453
10846SOL    HW233438   5.327   1.360   0.304
10847SOL     OW33439   3.711   2.858   6.496
10847SOL    HW133440   3.763   2.901   6.569
10847SOL    HW233441   3.642   2.922   6.461
10848SOL     OW33442   2.873   3.777   6.777
10848SOL    HW133443   2.972   3.772   6.759
10848SOL    HW233444   2.857   3.840   6.854
10849SOL     OW33445   1.829   5.031   3.796
10849SOL    HW133446   1.899   4.979   3.747
10849SOL    HW233447   1.870   5.074   3.877
10850SOL     OW33448   2.466   5.776   6.795
10850SOL    HW133449   2.441   5.799   6.701
10850SOL    HW233450   2.558   5.735   6.796
10851SOL     OW33451   1.729   3.462   0.292
10851SOL    HW133452   1.783   3.546   0.284
10851SOL    HW233453   1.679   3.463   0.378
10852SOL     OW33454   1.147   0.483   6.636
10852SOL    HW133455   1.146   0.583   6.637
10852SOL    HW233456   1.228   0.450   6.685
10853SOL     OW33457   1.838   2.261   5.336
10853SOL    HW133458   1.762   2.325   5.321
10853SOL    HW233459   1.900   2.264   5.257
10854SOL     OW33460   4.427   4.725   5.466
10854SOL    HW133461   4.510   4.770   5.433
10854SOL    HW233462   4.419   4.635   5.423
10855SOL     OW33463   4.173   0.253   1.038
10855SOL    HW133464   4.115   0.276   0.960
10855SOL    HW233465   4.140   0.169   1.081
10856SOL     OW33466   5.001   1.531   0.361
10856SOL    HW133467   5.069   1.470   0.401
10856SOL    HW233468   4.909   1.502   0.390
10857SOL     OW33469   6.799   2.167   3.194
10857SOL    HW133470   6.740   2.136   3.119
10857SOL    HW233471   6.781   2.263   3.213
10858SOL     OW33472   0.853   1.767   6.514
10858SOL    HW133473   0.940   1.816   6.507
10858SOL    HW233474   0.777   1.832   6.510
10859SOL     OW33475   1.054   4.575   4.592
10859SOL    HW133476   1.130   4.585   4.528
10859SOL    HW233477   1.088   4.584   4.686
10860SOL     OW33478   0.234   1.628   5.602
10860SOL    HW133479   0.245   1.537   5.642
10860SOL    HW233480   0.299   1.691   5.646
10861SOL     OW33481   3.697   3.428   3.217
10861SOL    HW133482   3.601   3.444   3.194
10861SOL    HW233483   3.735   3.358   3.157
10862SOL     OW33484   2.095   1.812   6.511
10862SOL    HW133485   2.173   1.874   6.516
10862SOL    HW233486   2.087   1.761   6.596
10863SOL     OW33487   3.832   0.882   3.804
10863SOL    HW133488   3.921   0.911   3.769
10863SOL    HW233489   3.781   0.962   3.837
10864SOL     OW33490   2.709   5.882   1.322
10864SOL    HW133491   2.783   5.845   1.266
10864SOL    HW233492   2.623   5.878   1.271
10865SOL     OW33493   6.993   1.340   2.236
10865SOL    HW133494   7.014   1.385   2.323
10865SOL    HW233495   6.905   1.372   2.202
10866SOL     OW33496   5.153   4.443   0.909
10866SOL    HW133497   5.062   4.483   0.896
10866SOL    HW233498   5.222   4.510   0.885
10867SOL     OW33499   3.536   4.182   0.074
10867SOL    HW133500   3.555   4.188   6.997
10867SOL    HW233501   3.623   4.172   0.124
10868SOL     OW33502   4.311   2.026   4.355
10868SOL    HW133503   4.262   2.020   4.442
10868SOL    HW233504   4.255   1.986   4.282
10869NA      NA33505   6.935   2.018   5.271
10870NA      NA33506   4.478   4.400   5.220
10871NA      NA33507   1.954   3.178   2.212
10872NA      NA33508   5.124   3.862   4.835
10873NA      NA33509   4.315   2.550   5.410
10874NA      NA33510   3.178   4.780   1.753
10875NA      NA33511   6.814   4.635   0.607
10876NA      NA33512   3.275   3.614   3.717
10877NA      NA33513   5.411   5.913   0.227
10878NA      NA33514   3.036   7.010   5.510
10879NA      NA33515   5.714   5.577   1.492
10880NA      NA33516   2.134   0.402   4.217
10881NA      NA33517   3.649   5.124   2.812
10882NA      NA33518   3.917   3.671   2.217
   7.02106   7.02106   7.02106
